<LesHouchesEvents version="3.0">
<header>
<!--
#*********************************************************************
#                                                                    *
#                        MadGraph5_aMC@NLO                           *
#                                                                    *
#                           Going Beyond                             *
#                                                                    *
#                   http://madgraph.hep.uiuc.edu                     *
#                   http://madgraph.phys.ucl.ac.be                   *
#                   http://amcatnlo.cern.ch                          *
#                                                                    *
#                     The MadGraph5_aMC@NLO team                     *
#                                                                    *
#....................................................................*
#                                                                    *
# This file contains all the information necessary to reproduce      *
# the events generated:                                              *
#                                                                    *
# 1. software version                                                *
# 2. proc_card          : code generation info including model       *
# 3. param_card         : model primary parameters in the LH format  *
# 4. run_card           : running parameters (collider and cuts)     *
# 5. pythia_card        : present only if pythia has been run        *
# 6. pgs_card           : present only if pgs has been run           *
# 7. delphes_cards      : present only if delphes has been run       *
#                                                                    *
#                                                                    *
#*********************************************************************
-->
<MGVersion>
#5.2.2.3
</MGVersion>
<MG5ProcCard>
#************************************************************
#*                     MadGraph5_aMC@NLO                    *
#*                                                          *
#*                *                       *                 *
#*                  *        * *        *                   *
#*                    * * * * 5 * * * *                     *
#*                  *        * *        *                   *
#*                *                       *                 *
#*                                                          *
#*                                                          *
#*         VERSION 2.2.3                 2015-02-10         *
#*                                                          *
#*    The MadGraph5_aMC@NLO Development Team - Find us at   *
#*    https://server06.fynu.ucl.ac.be/projects/madgraph     *
#*                                                          *
#************************************************************
#*                                                          *
#*               Command File for MadGraph5_aMC@NLO         *
#*                                                          *
#*     run as ./bin/mg5_aMC  filename                       *
#*                                                          *
#************************************************************
set group_subprocesses Auto
set ignore_six_quark_processes False
set loop_optimized_output True
set gauge unitary
set complex_mass_scheme False
import model sm
define p = g u c d s u~ c~ d~ s~
define j = g u c d s u~ c~ d~ s~
define l+ = e+ mu+
define l- = e- mu-
define vl = ve vm vt
define vl~ = ve~ vm~ vt~
import model Zprime_UFO
generate p p > zph, zph > j j
add process p p > zph, zph > b b~
output Dijet_signal
</MG5ProcCard>
<MGProcCard>
#*********************************************************************
#                        MadGraph/MadEvent                           *
#                   http://madgraph.hep.uiuc.edu                     *
#                                                                    *
#                          proc_card.dat                             *
#*********************************************************************
#                                                                    *
#            This Files is generated by MADGRAPH 5                   *
#                                                                    *
# WARNING: This Files is generated for MADEVENT (compatibility issue)*
#          This files is NOT a valid MG4 proc_card.dat               *
#          Running this in MG4 will NEVER reproduce the result of MG5*
#                                                                    *
#*********************************************************************
#*********************************************************************
# Process(es) requested : mg2 input                                  *
#*********************************************************************
# Begin PROCESS # This is TAG. Do not modify this line
p p > zph , zph > j j           #Process
# Be carefull the coupling are here in MG5 convention
          
end_coup           # End the couplings input

done               # this tells MG there are no more procs
# End PROCESS  # This is TAG. Do not modify this line
#*********************************************************************
# Model information                                                  *
#*********************************************************************
# Begin MODEL  # This is TAG. Do not modify this line
Zprime_UFO
# End   MODEL  # This is TAG. Do not modify this line
#*********************************************************************
# Start multiparticle definitions                                    *
#*********************************************************************
# Begin MULTIPARTICLES # This is TAG. Do not modify this line

# End  MULTIPARTICLES # This is TAG. Do not modify this line
</MGProcCard>
<MGRunCard>
#*********************************************************************
#                       MadGraph5_aMC@NLO                            *
#                                                                    *
#                     run_card.dat MadEvent                          *
#                                                                    *
#  This file is used to set the parameters of the run.               *
#                                                                    *
#  Some notation/conventions:                                        *
#                                                                    *
#   Lines starting with a '# ' are info or comments                  *
#                                                                    *
#   mind the format:   value    = variable     ! comment             *
#*********************************************************************
#
#*******************                                                 
# Running parameters
#*******************                                                 
#                                                                    
#*********************************************************************
# Tag name for the run (one word)                                    *
#*********************************************************************
  tag_1     = run_tag ! name of the run 
#*********************************************************************
# Run to generate the grid pack                                      *
#*********************************************************************
  .false.     = gridpack  !True = setting up the grid pack
#*********************************************************************
# Number of events and rnd seed                                      *
# Warning: Do not generate more than 1M events in a single run       *
# If you want to run Pythia, avoid more than 50k events in a run.    *
#*********************************************************************
  2000 = nevents ! Number of unweighted events requested 
 1002 = iseed   ! rnd seed (0=assigned automatically=default))
#*********************************************************************
# Collider type and energy                                           *
# lpp: 0=No PDF, 1=proton, -1=antiproton, 2=photon from proton,      *
#                                         3=photon from electron     *
#*********************************************************************
        1     = lpp1    ! beam 1 type 
        1     = lpp2    ! beam 2 type
     4000     = ebeam1  ! beam 1 total energy in GeV
     4000     = ebeam2  ! beam 2 total energy in GeV
#*********************************************************************
# Beam polarization from -100 (left-handed) to 100 (right-handed)    *
#*********************************************************************
        0     = polbeam1 ! beam polarization for beam 1
        0     = polbeam2 ! beam polarization for beam 2
#*********************************************************************
# PDF CHOICE: this automatically fixes also alpha_s and its evol.    *
#*********************************************************************
 'nn23lo1'    = pdlabel     ! PDF set                                     
 230000    = lhaid     ! if pdlabel=lhapdf, this is the lhapdf number
#*********************************************************************
# Renormalization and factorization scales                           *
#*********************************************************************
 F        = fixed_ren_scale  ! if .true. use fixed ren scale
 F        = fixed_fac_scale  ! if .true. use fixed fac scale
 91.1880  = scale            ! fixed ren scale
 91.1880  = dsqrt_q2fact1    ! fixed fact scale for pdf1
 91.1880  = dsqrt_q2fact2    ! fixed fact scale for pdf2
 1        = scalefact        ! scale factor for event-by-event scales
#*********************************************************************
# Matching - Warning! ickkw > 1 is still beta
#*********************************************************************
 0        = ickkw            ! 0 no matching, 1 MLM, 2 CKKW matching
 1        = highestmult      ! for ickkw=2, highest mult group
 1        = ktscheme         ! for ickkw=1, 1 Durham kT, 2 Pythia pTE
 1        = alpsfact         ! scale factor for QCD emission vx
 F        = chcluster        ! cluster only according to channel diag
 T        = pdfwgt           ! for ickkw=1, perform pdf reweighting
 5        = asrwgtflavor     ! highest quark flavor for a_s reweight
 T        = clusinfo         ! include clustering tag in output
 3.0      = lhe_version       ! Change the way clustering information pass to shower.        
#*********************************************************************
#**********************************************************
#
#**********************************************************
# Automatic ptj and mjj cuts if xqcut > 0
# (turn off for VBF and single top processes)
#**********************************************************
   T  = auto_ptj_mjj  ! Automatic setting of ptj and mjj
#**********************************************************
#                                                                    
#**********************************
# BW cutoff (M+/-bwcutoff*Gamma)
#**********************************
  15  = bwcutoff      ! (M+/-bwcutoff*Gamma)
#**********************************************************
# Apply pt/E/eta/dr/mij cuts on decay products or not
# (note that etmiss/ptll/ptheavy/ht/sorted cuts always apply)
#**********************************************************
   T  = cut_decays    ! Cut decay products 
#*************************************************************
# Number of helicities to sum per event (0 = all helicities)
# 0 gives more stable result, but longer run time (needed for
# long decay chains e.g.).
# Use >=2 if most helicities contribute, e.g. pure QCD.
#*************************************************************
   0  = nhel          ! Number of helicities used per event
#*******************                                                 
# Standard Cuts
#*******************                                                 
#                                                                    
#*********************************************************************
# Minimum and maximum pt's (for max, -1 means no cut)                *
#*********************************************************************
 20  = ptj       ! minimum pt for the jets 
  0  = ptb       ! minimum pt for the b 
 10  = pta       ! minimum pt for the photons 
 10  = ptl       ! minimum pt for the charged leptons 
  0  = misset    ! minimum missing Et (sum of neutrino's momenta)
  0  = ptheavy   ! minimum pt for one heavy final state
 1.0 = ptonium   ! minimum pt for the quarkonium states
 -1  = ptjmax    ! maximum pt for the jets
 -1  = ptbmax    ! maximum pt for the b
 -1  = ptamax    ! maximum pt for the photons
 -1  = ptlmax    ! maximum pt for the charged leptons
 -1  = missetmax ! maximum missing Et (sum of neutrino's momenta)
#*********************************************************************
# Minimum and maximum E's (in the center of mass frame)              *
#*********************************************************************
  0  = ej     ! minimum E for the jets 
  0  = eb     ! minimum E for the b 
  0  = ea     ! minimum E for the photons 
  0  = el     ! minimum E for the charged leptons 
 -1   = ejmax ! maximum E for the jets
 -1   = ebmax ! maximum E for the b
 -1   = eamax ! maximum E for the photons
 -1   = elmax ! maximum E for the charged leptons
#*********************************************************************
# Maximum and minimum absolute rapidity (for max, -1 means no cut)   *
#*********************************************************************
   5  = etaj    ! max rap for the jets 
  -1  = etab    ! max rap for the b
 2.5  = etaa    ! max rap for the photons 
 2.5  = etal    ! max rap for the charged leptons 
 0.6  = etaonium ! max rap for the quarkonium states
   0  = etajmin ! min rap for the jets
   0  = etabmin ! min rap for the b
   0  = etaamin ! min rap for the photons
   0  = etalmin ! main rap for the charged leptons
#*********************************************************************
# Minimum and maximum DeltaR distance                                *
#*********************************************************************
 0.4 = drjj    ! min distance between jets 
 0   = drbb    ! min distance between b's 
 0.4 = drll    ! min distance between leptons 
 0.4 = draa    ! min distance between gammas 
 0   = drbj    ! min distance between b and jet 
 0.4 = draj    ! min distance between gamma and jet 
 0.4 = drjl    ! min distance between jet and lepton 
 0   = drab    ! min distance between gamma and b 
 0   = drbl    ! min distance between b and lepton 
 0.4 = dral    ! min distance between gamma and lepton 
 -1  = drjjmax ! max distance between jets
 -1  = drbbmax ! max distance between b's
 -1  = drllmax ! max distance between leptons
 -1  = draamax ! max distance between gammas
 -1  = drbjmax ! max distance between b and jet
 -1  = drajmax ! max distance between gamma and jet
 -1  = drjlmax ! max distance between jet and lepton
 -1  = drabmax ! max distance between gamma and b
 -1  = drblmax ! max distance between b and lepton
 -1  = dralmax ! maxdistance between gamma and lepton
#*********************************************************************
# Minimum and maximum invariant mass for pairs                       *
# WARNING: for four lepton final state mmll cut require to have      *
#          different lepton masses for each flavor!                  *           
#*********************************************************************
 0   = mmjj    ! min invariant mass of a jet pair 
 0   = mmbb    ! min invariant mass of a b pair 
 0   = mmaa    ! min invariant mass of gamma gamma pair
 0   = mmll    ! min invariant mass of l+l- (same flavour) lepton pair
 -1  = mmjjmax ! max invariant mass of a jet pair
 -1  = mmbbmax ! max invariant mass of a b pair
 -1  = mmaamax ! max invariant mass of gamma gamma pair
 -1  = mmllmax ! max invariant mass of l+l- (same flavour) lepton pair
#*********************************************************************
# Minimum and maximum invariant mass for all letpons                 *
#*********************************************************************
 0   = mmnl    ! min invariant mass for all letpons (l+- and vl) 
 -1  = mmnlmax ! max invariant mass for all letpons (l+- and vl) 
#*********************************************************************
# Minimum and maximum pt for 4-momenta sum of leptons                *
#*********************************************************************
 0   = ptllmin  ! Minimum pt for 4-momenta sum of leptons(l and vl)
 -1  = ptllmax  ! Maximum pt for 4-momenta sum of leptons(l and vl)
#*********************************************************************
# Inclusive cuts                                                     *
#*********************************************************************
 0  = xptj ! minimum pt for at least one jet  
 0  = xptb ! minimum pt for at least one b 
 0  = xpta ! minimum pt for at least one photon 
 0  = xptl ! minimum pt for at least one charged lepton 
#*********************************************************************
# Control the pt's of the jets sorted by pt                          *
#*********************************************************************
 0   = ptj1min ! minimum pt for the leading jet in pt
 0   = ptj2min ! minimum pt for the second jet in pt
 0   = ptj3min ! minimum pt for the third jet in pt
 0   = ptj4min ! minimum pt for the fourth jet in pt
 -1  = ptj1max ! maximum pt for the leading jet in pt 
 -1  = ptj2max ! maximum pt for the second jet in pt
 -1  = ptj3max ! maximum pt for the third jet in pt
 -1  = ptj4max ! maximum pt for the fourth jet in pt
 0   = cutuse  ! reject event if fails any (0) / all (1) jet pt cuts
#*********************************************************************
# Control the pt's of leptons sorted by pt                           *
#*********************************************************************
 0   = ptl1min ! minimum pt for the leading lepton in pt
 0   = ptl2min ! minimum pt for the second lepton in pt
 0   = ptl3min ! minimum pt for the third lepton in pt
 0   = ptl4min ! minimum pt for the fourth lepton in pt
 -1  = ptl1max ! maximum pt for the leading lepton in pt 
 -1  = ptl2max ! maximum pt for the second lepton in pt
 -1  = ptl3max ! maximum pt for the third lepton in pt
 -1  = ptl4max ! maximum pt for the fourth lepton in pt
#*********************************************************************
# Control the Ht(k)=Sum of k leading jets                            *
#*********************************************************************
 0   = htjmin ! minimum jet HT=Sum(jet pt)
 -1  = htjmax ! maximum jet HT=Sum(jet pt)
 0   = ihtmin  !inclusive Ht for all partons (including b)
 -1  = ihtmax  !inclusive Ht for all partons (including b)
 0   = ht2min ! minimum Ht for the two leading jets
 0   = ht3min ! minimum Ht for the three leading jets
 0   = ht4min ! minimum Ht for the four leading jets
 -1  = ht2max ! maximum Ht for the two leading jets
 -1  = ht3max ! maximum Ht for the three leading jets
 -1  = ht4max ! maximum Ht for the four leading jets
#***********************************************************************
# Photon-isolation cuts, according to hep-ph/9801442                   *
# When ptgmin=0, all the other parameters are ignored                  *
# When ptgmin>0, pta and draj are not going to be used                 *
#***********************************************************************
   0 = ptgmin ! Min photon transverse momentum
 0.4 = R0gamma ! Radius of isolation code
 1.0 = xn ! n parameter of eq.(3.4) in hep-ph/9801442
 1.0 = epsgamma ! epsilon_gamma parameter of eq.(3.4) in hep-ph/9801442
 .true. = isoEM ! isolate photons from EM energy (photons and leptons)
#*********************************************************************
# WBF cuts                                                           *
#*********************************************************************
 0   = xetamin ! minimum rapidity for two jets in the WBF case  
 0   = deltaeta ! minimum rapidity for two jets in the WBF case 
#*********************************************************************
# KT DURHAM CUT                                                      *
#*********************************************************************
 -1    =  ktdurham        
 0.4  =  dparameter 
#*********************************************************************
# maximal pdg code for quark to be considered as a light jet         *
# (otherwise b cuts are applied)                                     *
#*********************************************************************
 4 = maxjetflavor    ! Maximum jet pdg code
#*********************************************************************
# Jet measure cuts                                                   *
#*********************************************************************
 0   = xqcut   ! minimum kt jet measure between partons
#*********************************************************************
#
#*********************************************************************
# Store info for systematics studies                                 *
# WARNING: If use_syst is T, matched Pythia output is                *
#          meaningful ONLY if plotted taking matchscale              *
#          reweighting into account!                                 *
#*********************************************************************
   F  = use_syst      ! Enable systematics studies
#
#**************************************
# Parameter of the systematics study
#  will be used by SysCalc (if installed)
#**************************************                                  
#
0.5 1 2 = sys_scalefact  # factorization/renormalization scale factor
0.5 1 2 = sys_alpsfact  # \alpha_s emission scale factors
30 50 = sys_matchscale # variation of merging scale
# PDF sets and number of members (0 or none for all members).
CT10nlo.LHgrid = sys_pdf # matching scales
# MSTW2008nlo68cl.LHgrid 1  = sys_pdf
</MGRunCard>
<slha>
######################################################################
## PARAM_CARD AUTOMATICALY GENERATED BY MG5 FOLLOWING UFO MODEL   ####
######################################################################
##                                                                  ##
##  Width set on Auto will be computed following the information    ##
##        present in the decay.py files of the model.               ##
##        See  arXiv:1402.1178 for more details.                    ##
##                                                                  ##
######################################################################

###################################
## INFORMATION FOR CKMBLOCK
###################################
Block ckmblock 
    1 2.277360e-01 # cabi 

###################################
## INFORMATION FOR FRBLOCK
###################################
Block frblock 
    1 4.000000e-01 # gz 

###################################
## INFORMATION FOR MASS
###################################
Block mass 
    1 5.040000e-03 # MD 
    2 2.550000e-03 # MU 
    3 1.010000e-01 # MS 
    4 1.270000e+00 # MC 
    5 4.700000e+00 # MB 
    6 1.720000e+02 # MT 
   11 5.110000e-04 # Me 
   13 1.056600e-01 # MM 
   15 1.777000e+00 # MTA 
   23 9.118760e+01 # MZ 
   25 1.200000e+02 # MH 
  10030 2.500000e+03 # MZph 
  10031 3.000000e+02 # MZpl 
## Dependent parameters, given by model restrictions.
## Those values should be edited following the 
## analytical expression. MG5 ignores those values 
## but they are important for interfacing the output of MG5
## to external program such as Pythia.
  12 0.000000 # ve : 0.0 
  14 0.000000 # vm : 0.0 
  16 0.000000 # vt : 0.0 
  21 0.000000 # g : 0.0 
  22 0.000000 # a : 0.0 
  24 79.824360 # w+ : cmath.sqrt(MZ__exp__2/2. + cmath.sqrt(MZ__exp__4/4. - (aEW*cmath.pi*MZ__exp__2)/(Gf*sqrt__2))) 

###################################
## INFORMATION FOR SMINPUTS
###################################
Block sminputs 
    1 1.279000e+02 # aEWM1 
    2 1.166370e-05 # Gf 
    3 1.184000e-01 # aS 

###################################
## INFORMATION FOR YUKAWA
###################################
Block yukawa 
    1 5.040000e-03 # ymdo 
    2 2.550000e-03 # ymup 
    3 1.010000e-01 # yms 
    4 1.270000e+00 # ymc 
    5 4.700000e+00 # ymb 
    6 1.720000e+02 # ymt 
   11 5.110000e-04 # yme 
   13 1.056600e-01 # ymm 
   15 1.777000e+00 # ymtau 

###################################
## INFORMATION FOR DECAY
###################################
DECAY   6 1.508336e+00 # WT 
DECAY  23 2.495200e+00 # WZ 
DECAY  24 2.085000e+00 # WW 
DECAY  25 5.753088e-03 # WH 
## Dependent parameters, given by model restrictions.
## Those values should be edited following the 
## analytical expression. MG5 ignores those values 
## but they are important for interfacing the output of MG5
## to external program such as Pythia.
DECAY  1 0.000000 # d : 0.0 
DECAY  2 0.000000 # u : 0.0 
DECAY  3 0.000000 # s : 0.0 
DECAY  4 0.000000 # c : 0.0 
DECAY  5 0.000000 # b : 0.0 
DECAY  11 0.000000 # e- : 0.0 
DECAY  12 0.000000 # ve : 0.0 
DECAY  13 0.000000 # mu- : 0.0 
DECAY  14 0.000000 # vm : 0.0 
DECAY  15 0.000000 # ta- : 0.0 
DECAY  16 0.000000 # vt : 0.0 
DECAY  21 0.000000 # g : 0.0 
DECAY  22 0.000000 # a : 0.0 
DECAY  10030 0.308725 # zph : (gz__exp__2*MZph*(5 + cmath.sqrt(1 - (4*MT__exp__2)/MZph__exp__2)))/(144.*cmath.pi) 
DECAY  10031 0.132629 # zpl : (5*gz__exp__2*MZpl)/(144.*cmath.pi) 
#===========================================================
# QUANTUM NUMBERS OF NEW STATE(S) (NON SM PDG CODE)
#===========================================================

Block QNUMBERS 10030  # zph 
        1 0  # 3 times electric charge
        2 3  # number of spin states (2S+1)
        3 1  # colour rep (1: singlet, 3: triplet, 8: octet)
        4 0  # Particle/Antiparticle distinction (0=own anti)
Block QNUMBERS 10031  # zpl 
        1 0  # 3 times electric charge
        2 3  # number of spin states (2S+1)
        3 1  # colour rep (1: singlet, 3: triplet, 8: octet)
        4 0  # Particle/Antiparticle distinction (0=own anti)
</slha>
## END BANNER##
<MGGenerationInfo>
#  Number of Events        :         3915
#  Integrated weight (pb)  :  0.10299E-02
#  Max wgt                 :  0.39718E-06
#  Average wgt             :  0.26307E-06
</MGGenerationInfo>
</header>
<init>
     2212     2212  0.40000000000E+04  0.40000000000E+04 0 0  247000  247000 2   1
  0.10305635429E-02  0.26950352365E-05  0.39717590000E-06   0
</init>
<event>
 5   0  0.3808293E-06  0.2514164E+04  0.7818609E-02  0.8397957E-01
        2   -1    0    0  501    0  0.00000000000E+00  0.00000000000E+00  0.14475886786E+04  0.14475886786E+04  0.25500000920E-02 0. -1.
       -2   -1    0    0    0  501  0.00000000000E+00  0.00000000000E+00 -0.10916467077E+04  0.10916467077E+04  0.25500000920E-02 0.  1.
    10030    2    1    2    0    0  0.00000000000E+00  0.00000000000E+00  0.35594197089E+03  0.25392353863E+04  0.25141642072E+04 0.  0.
        1    1    3    3  502    0 -0.27087843954E+03 -0.85933706293E+03 -0.70736614820E+03  0.11455139390E+04  0.50400001928E-02 0.  1.
       -1    1    3    3    0  502  0.27087843954E+03  0.85933706293E+03  0.10633081191E+04  0.13937214474E+04  0.50400001928E-02 0. -1.
</event>
<event>
 5   0  0.3808293E-06  0.2498432E+04  0.7818609E-02  0.8403544E-01
       -2   -1    0    0    0  501  0.00000000000E+00  0.00000000000E+00  0.81135847246E+03  0.81135847246E+03  0.25500000920E-02 0.  1.
        2   -1    0    0  501    0  0.00000000000E+00  0.00000000000E+00 -0.19233681687E+04  0.19233681687E+04  0.25500000920E-02 0. -1.
    10030    2    1    2    0    0  0.00000000000E+00  0.00000000000E+00 -0.11120096962E+04  0.27347266412E+04  0.24984323560E+04 0.  0.
        1    1    3    3  502    0  0.10754549922E+04  0.55399253435E+03 -0.89696144492E+03  0.15060049807E+04  0.50400001928E-02 0.  1.
       -1    1    3    3    0  502 -0.10754549922E+04 -0.55399253435E+03 -0.21504825132E+03  0.12287216604E+04  0.50400001928E-02 0. -1.
</event>
<event>
 5   0  0.3713394E-06  0.2499926E+04  0.7818609E-02  0.8403012E-01
       -2   -1    0    0    0  501  0.00000000000E+00  0.00000000000E+00  0.11890582834E+04  0.11890582835E+04  0.25500000920E-02 0. -1.
        2   -1    0    0  501    0  0.00000000000E+00  0.00000000000E+00 -0.13139874234E+04  0.13139874234E+04  0.25500000920E-02 0.  1.
    10030    2    1    2    0    0  0.00000000000E+00  0.00000000000E+00 -0.12492913999E+03  0.25030457069E+04  0.24999261031E+04 0.  0.
        3    1    3    3  502    0  0.45844439790E+03  0.88346438227E+03 -0.81953446190E+03  0.12893088556E+04  0.10100000352E+00 0.  1.
       -3    1    3    3    0  502 -0.45844439790E+03 -0.88346438227E+03  0.69460532191E+03  0.12137368513E+04  0.10100000352E+00 0. -1.
</event>
<event>
 5   0  0.3808293E-06  0.2507822E+04  0.7818609E-02  0.8400204E-01
       -2   -1    0    0    0  501  0.00000000000E+00  0.00000000000E+00  0.72351471008E+03  0.72351471009E+03  0.25500000920E-02 0. -1.
        2   -1    0    0  501    0  0.00000000000E+00  0.00000000000E+00 -0.21731322869E+04  0.21731322869E+04  0.25500000920E-02 0.  1.
    10030    2    1    2    0    0  0.00000000000E+00  0.00000000000E+00 -0.14496175768E+04  0.28966469970E+04  0.25078223035E+04 0.  0.
        1    1    3    3  502    0 -0.63478413641E+03 -0.95573972950E+03 -0.13091105811E+04  0.17407354319E+04  0.50400001928E-02 0.  1.
       -1    1    3    3    0  502  0.63478413641E+03  0.95573972950E+03 -0.14050699572E+03  0.11559115651E+04  0.50400001928E-02 0. -1.
</event>
<event>
 5   0  0.3713394E-06  0.2498586E+04  0.7818609E-02  0.8403489E-01
        2   -1    0    0  501    0  0.00000000000E+00  0.00000000000E+00  0.29910926764E+04  0.29910926764E+04  0.25500000920E-02 0.  1.
       -2   -1    0    0    0  501  0.00000000000E+00  0.00000000000E+00 -0.52179371737E+03  0.52179371738E+03  0.25500000920E-02 0. -1.
    10030    2    1    2    0    0  0.00000000000E+00  0.00000000000E+00  0.24692989590E+04  0.35128863937E+04  0.24985862936E+04 0.  0.
        3    1    3    3  502    0  0.94927472235E+03  0.81055528943E+03  0.11628086096E+04  0.17059443861E+04  0.10100000352E+00 0. -1.
       -3    1    3    3    0  502 -0.94927472235E+03 -0.81055528943E+03  0.13064903494E+04  0.18069420076E+04  0.10100000352E+00 0.  1.
</event>
<event>
 5   0  0.1553604E-06  0.2501490E+04  0.7818609E-02  0.8402455E-01
        1   -1    0    0  501    0  0.00000000000E+00  0.00000000000E+00  0.21260730116E+04  0.21260730116E+04  0.50400001928E-02 0.  1.
       -1   -1    0    0    0  501  0.00000000000E+00  0.00000000000E+00 -0.73579901949E+03  0.73579901950E+03  0.50400001928E-02 0. -1.
    10030    2    1    2    0    0  0.00000000000E+00  0.00000000000E+00  0.13902739921E+04  0.28618720311E+04  0.25014895061E+04 0.  0.
        1    1    3    3  502    0  0.11165520239E+04  0.36964525946E+03  0.11819189551E+04  0.16674107042E+04  0.50400001928E-02 0.  1.
       -1    1    3    3    0  502 -0.11165520239E+04 -0.36964525946E+03  0.20835503702E+03  0.11944613269E+04  0.50400001928E-02 0. -1.
</event>
<event>
 5   0  0.1574896E-06  0.2499597E+04  0.7818609E-02  0.8403129E-01
        1   -1    0    0  501    0  0.00000000000E+00  0.00000000000E+00  0.22333218976E+04  0.22333218976E+04  0.50400001928E-02 0. -1.
       -1   -1    0    0    0  501  0.00000000000E+00  0.00000000000E+00 -0.69940492964E+03  0.69940492966E+03  0.50400001928E-02 0.  1.
    10030    2    1    2    0    0  0.00000000000E+00  0.00000000000E+00  0.15339169680E+04  0.29327268273E+04  0.24995970433E+04 0.  0.
        3    1    3    3  502    0  0.12541866814E+02  0.80576953872E+03 -0.35386125559E+03  0.88013615218E+03  0.10100000352E+00 0.  1.
       -3    1    3    3    0  502 -0.12541866814E+02 -0.80576953872E+03  0.18877782236E+04  0.20525906751E+04  0.10100000352E+00 0. -1.
</event>
<event>
 5   0  0.3808293E-06  0.2546014E+04  0.7818609E-02  0.8386774E-01
        2   -1    0    0  501    0  0.00000000000E+00  0.00000000000E+00  0.17216886487E+04  0.17216886487E+04  0.25500000920E-02 0. -1.
       -2   -1    0    0    0  501  0.00000000000E+00  0.00000000000E+00 -0.94125419732E+03  0.94125419732E+03  0.25500000920E-02 0.  1.
    10030    2    1    2    0    0  0.00000000000E+00  0.00000000000E+00  0.78043445137E+03  0.26629428460E+04  0.25460138782E+04 0.  0.
        1    1    3    3  502    0  0.73132754534E+02  0.66104966121E+03  0.15255226901E+04  0.16641978646E+04  0.50400001928E-02 0. -1.
       -1    1    3    3    0  502 -0.73132754534E+02 -0.66104966121E+03 -0.74508823875E+03  0.99874498143E+03  0.50400001928E-02 0.  1.
</event>
<event>
 5   0  0.1501747E-06  0.2497360E+04  0.7818609E-02  0.8403927E-01
       -1   -1    0    0    0  501  0.00000000000E+00  0.00000000000E+00  0.16525294702E+04  0.16525294702E+04  0.50400001928E-02 0. -1.
        1   -1    0    0  501    0  0.00000000000E+00  0.00000000000E+00 -0.94352402192E+03  0.94352402194E+03  0.50400001928E-02 0.  1.
    10030    2    1    2    0    0  0.00000000000E+00  0.00000000000E+00  0.70900544827E+03  0.25960534921E+04  0.24973596073E+04 0.  0.
        2    1    3    3  502    0  0.42397847210E+03  0.10711638331E+04  0.85525714321E+03  0.14347872606E+04  0.25500000920E-02 0. -1.
       -2    1    3    3    0  502 -0.42397847210E+03 -0.10711638331E+04 -0.14625169494E+03  0.11612662315E+04  0.25500000920E-02 0.  1.
</event>
<event>
 5   0  0.3713394E-06  0.2496716E+04  0.7818609E-02  0.8404157E-01
        2   -1    0    0  501    0  0.00000000000E+00  0.00000000000E+00  0.12150185102E+04  0.12150185102E+04  0.25500000920E-02 0. -1.
       -2   -1    0    0    0  501  0.00000000000E+00  0.00000000000E+00 -0.12826119022E+04  0.12826119022E+04  0.25500000920E-02 0.  1.
    10030    2    1    2    0    0  0.00000000000E+00  0.00000000000E+00 -0.67593391927E+02  0.24976304124E+04  0.24967156046E+04 0.  0.
        3    1    3    3  502    0  0.67881371922E+03  0.87378241375E+03  0.54444054479E+03  0.12331663671E+04  0.10100000352E+00 0. -1.
       -3    1    3    3    0  502 -0.67881371922E+03 -0.87378241375E+03 -0.61203393671E+03  0.12644640453E+04  0.10100000352E+00 0.  1.
</event>
<event>
 5   0  0.1501747E-06  0.2500193E+04  0.7818609E-02  0.8402917E-01
       -1   -1    0    0    0  501  0.00000000000E+00  0.00000000000E+00  0.19856423143E+04  0.19856423143E+04  0.50400001928E-02 0.  1.
        1   -1    0    0  501    0  0.00000000000E+00  0.00000000000E+00 -0.78702082274E+03  0.78702082276E+03  0.50400001928E-02 0. -1.
    10030    2    1    2    0    0  0.00000000000E+00  0.00000000000E+00  0.11986214916E+04  0.27726631371E+04  0.25001934709E+04 0.  0.
        2    1    3    3  502    0 -0.59245758333E+03  0.10485472767E+04  0.22770421705E+03  0.12256861711E+04  0.25500000920E-02 0. -1.
       -2    1    3    3    0  502  0.59245758333E+03 -0.10485472767E+04  0.97091727454E+03  0.15469769660E+04  0.25500000920E-02 0.  1.
</event>
<event>
 5   0  0.3814260E-06  0.2480323E+04  0.7818609E-02  0.8410029E-01
       -2   -1    0    0    0  501  0.00000000000E+00  0.00000000000E+00  0.76870211223E+03  0.76870211224E+03  0.25500000920E-02 0. -1.
        2   -1    0    0  501    0  0.00000000000E+00  0.00000000000E+00 -0.20007762926E+04  0.20007762926E+04  0.25500000920E-02 0.  1.
    10030    2    1    2    0    0  0.00000000000E+00  0.00000000000E+00 -0.12320741804E+04  0.27694784048E+04  0.24803233356E+04 0.  0.
        5    1    3    3  502    0 -0.82908470632E+03  0.14403116105E+03 -0.16331990811E+04  0.18372500521E+04  0.46999998093E+01 0.  1.
       -5    1    3    3    0  502  0.82908470632E+03 -0.14403116105E+03  0.40112490072E+03  0.93222835270E+03  0.46999998093E+01 0. -1.
</event>
<event>
 5   0  0.1541852E-06  0.2461454E+04  0.7818609E-02  0.8416848E-01
        1   -1    0    0  501    0  0.00000000000E+00  0.00000000000E+00  0.14311467352E+04  0.14311467352E+04  0.50400001928E-02 0.  1.
       -1   -1    0    0    0  501  0.00000000000E+00  0.00000000000E+00 -0.10583739252E+04  0.10583739252E+04  0.50400001928E-02 0. -1.
    10030    2    1    2    0    0  0.00000000000E+00  0.00000000000E+00  0.37277280997E+03  0.24895206604E+04  0.24614535443E+04 0.  0.
        5    1    3    3  502    0  0.75508029568E+03 -0.72609801455E+03  0.83974134262E+03  0.13425915954E+04  0.46999998093E+01 0.  1.
       -5    1    3    3    0  502 -0.75508029568E+03  0.72609801455E+03 -0.46696853265E+03  0.11469290650E+04  0.46999998093E+01 0. -1.
</event>
<event>
 5   0  0.1553604E-06  0.2501941E+04  0.7818609E-02  0.8402294E-01
       -1   -1    0    0    0  501  0.00000000000E+00  0.00000000000E+00  0.83152327744E+03  0.83152327745E+03  0.50400001928E-02 0. -1.
        1   -1    0    0  501    0  0.00000000000E+00  0.00000000000E+00 -0.18820003028E+04  0.18820003028E+04  0.50400001928E-02 0.  1.
    10030    2    1    2    0    0  0.00000000000E+00  0.00000000000E+00 -0.10504770253E+04  0.27135235802E+04  0.25019408945E+04 0.  0.
        1    1    3    3  502    0  0.89406892555E+03  0.26700303397E+03  0.37845882862E+03  0.10069165550E+04  0.50400001928E-02 0. -1.
       -1    1    3    3    0  502 -0.89406892555E+03 -0.26700303397E+03 -0.14289358540E+04  0.17066070252E+04  0.50400001928E-02 0.  1.
</event>
<event>
 5   0  0.1574896E-06  0.2499101E+04  0.7818609E-02  0.8403306E-01
       -1   -1    0    0    0  501  0.00000000000E+00  0.00000000000E+00  0.12281688715E+04  0.12281688715E+04  0.50400001928E-02 0.  1.
        1   -1    0    0  501    0  0.00000000000E+00  0.00000000000E+00 -0.12713041199E+04  0.12713041199E+04  0.50400001928E-02 0. -1.
    10030    2    1    2    0    0  0.00000000000E+00  0.00000000000E+00 -0.43135248444E+02  0.24994729914E+04  0.24991007553E+04 0.  0.
        3    1    3    3  502    0  0.30263442839E+03 -0.49547185122E+03  0.10850763671E+04  0.12306383243E+04  0.10100000352E+00 0.  1.
       -3    1    3    3    0  502 -0.30263442839E+03  0.49547185122E+03 -0.11282116156E+04  0.12688346670E+04  0.10100000352E+00 0. -1.
</event>
<event>
 5   0  0.1574896E-06  0.2500376E+04  0.7818609E-02  0.8402852E-01
        1   -1    0    0  501    0  0.00000000000E+00  0.00000000000E+00  0.97909913864E+03  0.97909913866E+03  0.50400001928E-02 0. -1.
       -1   -1    0    0    0  501  0.00000000000E+00  0.00000000000E+00 -0.15963343118E+04  0.15963343119E+04  0.50400001928E-02 0.  1.
    10030    2    1    2    0    0  0.00000000000E+00  0.00000000000E+00 -0.61723517320E+03  0.25754334505E+04  0.25003756116E+04 0.  0.
        3    1    3    3  502    0  0.36643074823E+03  0.11820340988E+04 -0.12582646472E+03  0.12439085229E+04  0.10100000352E+00 0. -1.
       -3    1    3    3    0  502 -0.36643074823E+03 -0.11820340988E+04 -0.49140870848E+03  0.13315249276E+04  0.10100000352E+00 0.  1.
</event>
<event>
 5   0  0.3808293E-06  0.2498917E+04  0.7818609E-02  0.8403372E-01
       -2   -1    0    0    0  501  0.00000000000E+00  0.00000000000E+00  0.94419318193E+03  0.94419318193E+03  0.25500000920E-02 0. -1.
        2   -1    0    0  501    0  0.00000000000E+00  0.00000000000E+00 -0.16534181653E+04  0.16534181653E+04  0.25500000920E-02 0.  1.
    10030    2    1    2    0    0  0.00000000000E+00  0.00000000000E+00 -0.70922498338E+03  0.25976113472E+04  0.24989166921E+04 0.  0.
        1    1    3    3  502    0  0.22351221521E+03  0.96635167298E+03 -0.11444596639E+04  0.15144573908E+04  0.50400001928E-02 0.  1.
       -1    1    3    3    0  502 -0.22351221521E+03 -0.96635167298E+03  0.43523468051E+03  0.10831539564E+04  0.50400001928E-02 0. -1.
</event>
<event>
 5   0  0.1519145E-06  0.2511423E+04  0.7818609E-02  0.8398927E-01
       -1   -1    0    0    0  501  0.00000000000E+00  0.00000000000E+00  0.67593722661E+03  0.67593722663E+03  0.50400001928E-02 0. -1.
        1   -1    0    0  501    0  0.00000000000E+00  0.00000000000E+00 -0.23327773789E+04  0.23327773789E+04  0.50400001928E-02 0.  1.
    10030    2    1    2    0    0  0.00000000000E+00  0.00000000000E+00 -0.16568401523E+04  0.30087146056E+04  0.25114227616E+04 0.  0.
        4    1    3    3  502    0  0.10793237212E+04  0.53129212022E+03 -0.39713834046E+03  0.12668589055E+04  0.12699999809E+01 0. -1.
       -4    1    3    3    0  502 -0.10793237212E+04 -0.53129212022E+03 -0.12597018118E+04  0.17418557000E+04  0.12699999809E+01 0.  1.
</event>
<event>
 5   0  0.1553604E-06  0.2526000E+04  0.7818609E-02  0.8393781E-01
        1   -1    0    0  501    0  0.00000000000E+00  0.00000000000E+00  0.78354012352E+03  0.78354012354E+03  0.50400001928E-02 0. -1.
       -1   -1    0    0    0  501  0.00000000000E+00  0.00000000000E+00 -0.20358491419E+04  0.20358491419E+04  0.50400001928E-02 0.  1.
    10030    2    1    2    0    0  0.00000000000E+00  0.00000000000E+00 -0.12523090184E+04  0.28193892654E+04  0.25260003865E+04 0.  0.
        1    1    3    3  502    0  0.63516366185E+03  0.51684672881E+03  0.44709327188E+03  0.93298221430E+03  0.50400001928E-02 0. -1.
       -1    1    3    3    0  502 -0.63516366185E+03 -0.51684672881E+03 -0.16994022902E+04  0.18864070511E+04  0.50400001928E-02 0.  1.
</event>
<event>
 5   0  0.3924441E-06  0.2506075E+04  0.7818609E-02  0.8400825E-01
       -2   -1    0    0    0  501  0.00000000000E+00  0.00000000000E+00  0.11617612297E+04  0.11617612297E+04  0.25500000920E-02 0. -1.
        2   -1    0    0  501    0  0.00000000000E+00  0.00000000000E+00 -0.13514848503E+04  0.13514848503E+04  0.25500000920E-02 0.  1.
    10030    2    1    2    0    0  0.00000000000E+00  0.00000000000E+00 -0.18972362063E+03  0.25132460800E+04  0.25060747807E+04 0.  0.
        2    1    3    3  502    0 -0.61974092053E+02  0.25366331484E+03 -0.13238959043E+04  0.13494021754E+04  0.25500000920E-02 0.  1.
       -2    1    3    3    0  502  0.61974092053E+02 -0.25366331484E+03  0.11341722837E+04  0.11638439047E+04  0.25500000920E-02 0. -1.
</event>
<event>
 5   0  0.1574896E-06  0.2500522E+04  0.7818609E-02  0.8402800E-01
       -1   -1    0    0    0  501  0.00000000000E+00  0.00000000000E+00  0.25480402334E+04  0.25480402334E+04  0.50400001928E-02 0.  1.
        1   -1    0    0  501    0  0.00000000000E+00  0.00000000000E+00 -0.61347251416E+03  0.61347251418E+03  0.50400001928E-02 0. -1.
    10030    2    1    2    0    0  0.00000000000E+00  0.00000000000E+00  0.19345677193E+04  0.31615127476E+04  0.25005220641E+04 0.  0.
        3    1    3    3  502    0 -0.91173839570E+03 -0.24871663867E+03 -0.67643812449E+02  0.94747166929E+03  0.10100000352E+00 0. -1.
       -3    1    3    3    0  502  0.91173839570E+03  0.24871663867E+03  0.20022115317E+04  0.22140410783E+04  0.10100000352E+00 0.  1.
</event>
<event>
 5   0  0.3713394E-06  0.2496756E+04  0.7818609E-02  0.8404142E-01
       -2   -1    0    0    0  501  0.00000000000E+00  0.00000000000E+00  0.51820832842E+03  0.51820832843E+03  0.25500000920E-02 0. -1.
        2   -1    0    0  501    0  0.00000000000E+00  0.00000000000E+00 -0.30073777656E+04  0.30073777656E+04  0.25500000920E-02 0.  1.
    10030    2    1    2    0    0  0.00000000000E+00  0.00000000000E+00 -0.24891694372E+04  0.35255860940E+04  0.24967564598E+04 0.  0.
        3    1    3    3  502    0 -0.36123639788E+03 -0.11639862577E+04 -0.86282385366E+03  0.14932584358E+04  0.10100000352E+00 0.  1.
       -3    1    3    3    0  502  0.36123639788E+03  0.11639862577E+04 -0.16263455835E+04  0.20323276583E+04  0.10100000352E+00 0. -1.
</event>
<event>
 5   0  0.1553604E-06  0.2495260E+04  0.7818609E-02  0.8404676E-01
        1   -1    0    0  501    0  0.00000000000E+00  0.00000000000E+00  0.10095161883E+04  0.10095161884E+04  0.50400001928E-02 0.  1.
       -1   -1    0    0    0  501  0.00000000000E+00  0.00000000000E+00 -0.15419074666E+04  0.15419074666E+04  0.50400001928E-02 0. -1.
    10030    2    1    2    0    0  0.00000000000E+00  0.00000000000E+00 -0.53239127827E+03  0.25514236550E+04  0.24952599452E+04 0.  0.
        1    1    3    3  502    0 -0.14731965681E+03 -0.41787974691E+03 -0.14587461583E+04  0.15245546624E+04  0.50400001928E-02 0. -1.
       -1    1    3    3    0  502  0.14731965681E+03  0.41787974691E+03  0.92635488005E+03  0.10268689926E+04  0.50400001928E-02 0.  1.
</event>
<event>
 5   0  0.3924441E-06  0.2484220E+04  0.7818609E-02  0.8408629E-01
        2   -1    0    0  501    0  0.00000000000E+00  0.00000000000E+00  0.11562484454E+04  0.11562484454E+04  0.25500000920E-02 0. -1.
       -2   -1    0    0    0  501  0.00000000000E+00  0.00000000000E+00 -0.13343474469E+04  0.13343474469E+04  0.25500000920E-02 0.  1.
    10030    2    1    2    0    0  0.00000000000E+00  0.00000000000E+00 -0.17809900152E+03  0.24905958923E+04  0.24842199268E+04 0.  0.
        2    1    3    3  502    0  0.90693740448E+03  0.39643440757E+03 -0.84140306012E+03  0.12990976887E+04  0.25500000920E-02 0.  1.
       -2    1    3    3    0  502 -0.90693740448E+03 -0.39643440757E+03  0.66330405860E+03  0.11914982037E+04  0.25500000920E-02 0. -1.
</event>
<event>
 5   0  0.1501747E-06  0.2501889E+04  0.7818609E-02  0.8402313E-01
        1   -1    0    0  501    0  0.00000000000E+00  0.00000000000E+00  0.18918049028E+04  0.18918049028E+04  0.50400001928E-02 0.  1.
       -1   -1    0    0    0  501  0.00000000000E+00  0.00000000000E+00 -0.82717920045E+03  0.82717920046E+03  0.50400001928E-02 0. -1.
    10030    2    1    2    0    0  0.00000000000E+00  0.00000000000E+00  0.10646257024E+04  0.27189841033E+04  0.25018886202E+04 0.  0.
        2    1    3    3  502    0  0.12374544372E+04  0.13926372674E+03  0.66169721830E+03  0.14101528564E+04  0.25500000920E-02 0.  1.
       -2    1    3    3    0  502 -0.12374544372E+04 -0.13926372674E+03  0.40292848406E+03  0.13088312469E+04  0.25500000920E-02 0. -1.
</event>
<event>
 5   0  0.3713394E-06  0.2498636E+04  0.7818609E-02  0.8403472E-01
       -2   -1    0    0    0  501  0.00000000000E+00  0.00000000000E+00  0.92169967425E+03  0.92169967425E+03  0.25500000920E-02 0. -1.
        2   -1    0    0  501    0  0.00000000000E+00  0.00000000000E+00 -0.16933882205E+04  0.16933882205E+04  0.25500000920E-02 0.  1.
    10030    2    1    2    0    0  0.00000000000E+00  0.00000000000E+00 -0.77168854624E+03  0.26150878947E+04  0.24986359248E+04 0.  0.
        3    1    3    3  502    0 -0.61124682466E+03  0.64002584228E+02 -0.15242306681E+04  0.16434713722E+04  0.10100000352E+00 0.  1.
       -3    1    3    3    0  502  0.61124682466E+03 -0.64002584228E+02  0.75254212188E+03  0.97161652253E+03  0.10100000352E+00 0. -1.
</event>
<event>
 5   0  0.3814260E-06  0.2509591E+04  0.7818609E-02  0.8399577E-01
        2   -1    0    0  501    0  0.00000000000E+00  0.00000000000E+00  0.27293638567E+04  0.27293638567E+04  0.25500000920E-02 0.  1.
       -2   -1    0    0    0  501  0.00000000000E+00  0.00000000000E+00 -0.57687870909E+03  0.57687870909E+03  0.25500000920E-02 0. -1.
    10030    2    1    2    0    0  0.00000000000E+00  0.00000000000E+00  0.21524851476E+04  0.33062425658E+04  0.25095911207E+04 0.  0.
        5    1    3    3  502    0 -0.33521442297E+03  0.61379238673E+02 -0.51473176872E+03  0.61733864615E+03  0.46999998093E+01 0. -1.
       -5    1    3    3    0  502  0.33521442297E+03 -0.61379238673E+02  0.26672169163E+04  0.26889039196E+04  0.46999998093E+01 0.  1.
</event>
<event>
 5   0  0.1501747E-06  0.2503872E+04  0.7818609E-02  0.8401607E-01
        1   -1    0    0  501    0  0.00000000000E+00  0.00000000000E+00  0.28958688852E+04  0.28958688852E+04  0.50400001928E-02 0.  1.
       -1   -1    0    0    0  501  0.00000000000E+00  0.00000000000E+00 -0.54123442206E+03  0.54123442209E+03  0.50400001928E-02 0. -1.
    10030    2    1    2    0    0  0.00000000000E+00  0.00000000000E+00  0.23546344631E+04  0.34371033072E+04  0.25038721393E+04 0.  0.
        2    1    3    3  502    0 -0.11758944606E+04 -0.25269531602E+03  0.70028889378E+03  0.13917568897E+04  0.25500000920E-02 0. -1.
       -2    1    3    3    0  502  0.11758944606E+04  0.25269531602E+03  0.16543455693E+04  0.20453464176E+04  0.25500000920E-02 0.  1.
</event>
<event>
 5   0  0.3713394E-06  0.2499036E+04  0.7818609E-02  0.8403329E-01
        2   -1    0    0  501    0  0.00000000000E+00  0.00000000000E+00  0.89924522764E+03  0.89924522765E+03  0.25500000920E-02 0.  1.
       -2   -1    0    0    0  501  0.00000000000E+00  0.00000000000E+00 -0.17362290551E+04  0.17362290551E+04  0.25500000920E-02 0. -1.
    10030    2    1    2    0    0  0.00000000000E+00  0.00000000000E+00 -0.83698382748E+03  0.26354742828E+04  0.24990363678E+04 0.  0.
        3    1    3    3  502    0 -0.65395336591E+03  0.67279091140E+03  0.45178517732E+03  0.10413512721E+04  0.10100000352E+00 0.  1.
       -3    1    3    3    0  502  0.65395336591E+03 -0.67279091140E+03 -0.12887690048E+04  0.15941230107E+04  0.10100000352E+00 0. -1.
</event>
<event>
 5   0  0.3808293E-06  0.2502852E+04  0.7818609E-02  0.8401970E-01
       -2   -1    0    0    0  501  0.00000000000E+00  0.00000000000E+00  0.13855830205E+04  0.13855830205E+04  0.25500000920E-02 0. -1.
        2   -1    0    0  501    0  0.00000000000E+00  0.00000000000E+00 -0.11302585160E+04  0.11302585160E+04  0.25500000920E-02 0.  1.
    10030    2    1    2    0    0  0.00000000000E+00  0.00000000000E+00  0.25532450444E+03  0.25158415365E+04  0.25028519801E+04 0.  0.
        1    1    3    3  502    0 -0.24116124321E+03 -0.84575605584E+03 -0.76724187130E+03  0.11670998845E+04  0.50400001928E-02 0.  1.
       -1    1    3    3    0  502  0.24116124321E+03  0.84575605584E+03  0.10225663757E+04  0.13487416521E+04  0.50400001928E-02 0. -1.
</event>
<event>
 5   0  0.1541852E-06  0.2495092E+04  0.7818609E-02  0.8404736E-01
       -1   -1    0    0    0  501  0.00000000000E+00  0.00000000000E+00  0.59986769449E+03  0.59986769451E+03  0.50400001928E-02 0. -1.
        1   -1    0    0  501    0  0.00000000000E+00  0.00000000000E+00 -0.25945244950E+04  0.25945244950E+04  0.50400001928E-02 0.  1.
    10030    2    1    2    0    0  0.00000000000E+00  0.00000000000E+00 -0.19946568006E+04  0.31943921896E+04  0.24950923247E+04 0.  0.
        5    1    3    3  502    0  0.36596439743E+03  0.47632957114E+02 -0.25230271852E+04  0.25498798219E+04  0.46999998093E+01 0.  1.
       -5    1    3    3    0  502 -0.36596439743E+03 -0.47632957114E+02  0.52837038461E+03  0.64451236770E+03  0.46999998093E+01 0. -1.
</event>
<event>
 5   0  0.3713394E-06  0.2498330E+04  0.7818609E-02  0.8403581E-01
       -2   -1    0    0    0  501  0.00000000000E+00  0.00000000000E+00  0.86300834765E+03  0.86300834765E+03  0.25500000920E-02 0. -1.
        2   -1    0    0  501    0  0.00000000000E+00  0.00000000000E+00 -0.18081094454E+04  0.18081094454E+04  0.25500000920E-02 0.  1.
    10030    2    1    2    0    0  0.00000000000E+00  0.00000000000E+00 -0.94510109776E+03  0.26711177931E+04  0.24983302783E+04 0.  0.
        3    1    3    3  502    0  0.13349832220E+03 -0.87688248920E+03 -0.14129681302E+04  0.16682996280E+04  0.10100000352E+00 0.  1.
       -3    1    3    3    0  502 -0.13349832220E+03  0.87688248920E+03  0.46786703240E+03  0.10028181650E+04  0.10100000352E+00 0. -1.
</event>
<event>
 5   0  0.1519145E-06  0.2502177E+04  0.7818609E-02  0.8402210E-01
        1   -1    0    0  501    0  0.00000000000E+00  0.00000000000E+00  0.97838463741E+03  0.97838463743E+03  0.50400001928E-02 0. -1.
       -1   -1    0    0    0  501  0.00000000000E+00  0.00000000000E+00 -0.15998030637E+04  0.15998030637E+04  0.50400001928E-02 0.  1.
    10030    2    1    2    0    0  0.00000000000E+00  0.00000000000E+00 -0.62141842625E+03  0.25781877011E+04  0.25021772442E+04 0.  0.
        4    1    3    3  502    0 -0.95120262729E+03 -0.13673180537E+02 -0.11479491219E+04  0.14908930858E+04  0.12699999809E+01 0.  1.
       -4    1    3    3    0  502  0.95120262729E+03  0.13673180537E+02  0.52653069565E+03  0.10872946153E+04  0.12699999809E+01 0. -1.
</event>
<event>
 5   0  0.1553604E-06  0.2504195E+04  0.7818609E-02  0.8401493E-01
        1   -1    0    0  501    0  0.00000000000E+00  0.00000000000E+00  0.14115784524E+04  0.14115784524E+04  0.50400001928E-02 0. -1.
       -1   -1    0    0    0  501  0.00000000000E+00  0.00000000000E+00 -0.11106345415E+04  0.11106345415E+04  0.50400001928E-02 0.  1.
    10030    2    1    2    0    0  0.00000000000E+00  0.00000000000E+00  0.30094391092E+03  0.25222129940E+04  0.25041947107E+04 0.  0.
        1    1    3    3  502    0 -0.40336637872E+03  0.99662803604E+03 -0.49584289140E+03  0.11839898862E+04  0.50400001928E-02 0.  1.
       -1    1    3    3    0  502  0.40336637872E+03 -0.99662803604E+03  0.79678680233E+03  0.13382231077E+04  0.50400001928E-02 0. -1.
</event>
<event>
 5   0  0.1574896E-06  0.2501912E+04  0.7818609E-02  0.8402305E-01
       -1   -1    0    0    0  501  0.00000000000E+00  0.00000000000E+00  0.81880021975E+03  0.81880021977E+03  0.50400001928E-02 0.  1.
        1   -1    0    0  501    0  0.00000000000E+00  0.00000000000E+00 -0.19111995103E+04  0.19111995103E+04  0.50400001928E-02 0. -1.
    10030    2    1    2    0    0  0.00000000000E+00  0.00000000000E+00 -0.10923992905E+04  0.27299997301E+04  0.25019117323E+04 0.  0.
        3    1    3    3  502    0  0.52172371907E+03 -0.40323285033E+03  0.61377557467E+03  0.90084007287E+03  0.10100000352E+00 0.  1.
       -3    1    3    3    0  502 -0.52172371907E+03  0.40323285033E+03 -0.17061748652E+04  0.18291596572E+04  0.10100000352E+00 0. -1.
</event>
<event>
 5   0  0.3971759E-06  0.2505563E+04  0.7818609E-02  0.8401006E-01
       -2   -1    0    0    0  501  0.00000000000E+00  0.00000000000E+00  0.61375608360E+03  0.61375608361E+03  0.25500000920E-02 0. -1.
        2   -1    0    0  501    0  0.00000000000E+00  0.00000000000E+00 -0.25571423812E+04  0.25571423812E+04  0.25500000920E-02 0.  1.
    10030    2    1    2    0    0  0.00000000000E+00  0.00000000000E+00 -0.19433862976E+04  0.31708984648E+04  0.25055631647E+04 0.  0.
        4    1    3    3  502    0 -0.71381261972E+03 -0.21943716086E+03  0.30128163630E+03  0.80526601872E+03  0.12699999809E+01 0. -1.
       -4    1    3    3    0  502  0.71381261972E+03  0.21943716086E+03 -0.22446679339E+04  0.23656324461E+04  0.12699999809E+01 0.  1.
</event>
<event>
 5   0  0.3971759E-06  0.2499685E+04  0.7818609E-02  0.8403098E-01
        2   -1    0    0  501    0  0.00000000000E+00  0.00000000000E+00  0.91142860010E+03  0.91142860011E+03  0.25500000920E-02 0. -1.
       -2   -1    0    0    0  501  0.00000000000E+00  0.00000000000E+00 -0.17139100732E+04  0.17139100732E+04  0.25500000920E-02 0.  1.
    10030    2    1    2    0    0  0.00000000000E+00  0.00000000000E+00 -0.80248147307E+03  0.26253386733E+04  0.24996853072E+04 0.  0.
        4    1    3    3  502    0 -0.24363112417E+03  0.12258304475E+04 -0.41112860365E+03  0.13156917391E+04  0.12699999809E+01 0.  1.
       -4    1    3    3    0  502  0.24363112417E+03 -0.12258304475E+04 -0.39135286942E+03  0.13096469341E+04  0.12699999809E+01 0. -1.
</event>
<event>
 5   0  0.1501747E-06  0.2505392E+04  0.7818609E-02  0.8401067E-01
        1   -1    0    0  501    0  0.00000000000E+00  0.00000000000E+00  0.13501032182E+04  0.13501032182E+04  0.50400001928E-02 0.  1.
       -1   -1    0    0    0  501  0.00000000000E+00  0.00000000000E+00 -0.11623162428E+04  0.11623162428E+04  0.50400001928E-02 0. -1.
    10030    2    1    2    0    0  0.00000000000E+00  0.00000000000E+00  0.18778697535E+03  0.25124194610E+04  0.25053917059E+04 0.  0.
        2    1    3    3  502    0  0.27537166507E+03 -0.59023272743E+03  0.11669617486E+04  0.13364145873E+04  0.25500000920E-02 0.  1.
       -2    1    3    3    0  502 -0.27537166507E+03  0.59023272743E+03 -0.97917477325E+03  0.11760048737E+04  0.25500000920E-02 0. -1.
</event>
<event>
 5   0  0.1541852E-06  0.2507262E+04  0.7818609E-02  0.8400403E-01
        1   -1    0    0  501    0  0.00000000000E+00  0.00000000000E+00  0.22119389383E+04  0.22119389383E+04  0.50400001928E-02 0.  1.
       -1   -1    0    0    0  501  0.00000000000E+00  0.00000000000E+00 -0.71050366700E+03  0.71050366702E+03  0.50400001928E-02 0. -1.
    10030    2    1    2    0    0  0.00000000000E+00  0.00000000000E+00  0.15014352713E+04  0.29224426054E+04  0.25072620341E+04 0.  0.
        5    1    3    3  502    0  0.50310939675E+03 -0.10566855313E+04  0.12744109851E+04  0.17302742055E+04  0.46999998093E+01 0.  1.
       -5    1    3    3    0  502 -0.50310939675E+03  0.10566855313E+04  0.22702428625E+03  0.11921683999E+04  0.46999998093E+01 0. -1.
</event>
<event>
 5   0  0.1541852E-06  0.2499702E+04  0.7818609E-02  0.8403092E-01
       -1   -1    0    0    0  501  0.00000000000E+00  0.00000000000E+00  0.89361313202E+03  0.89361313204E+03  0.50400001928E-02 0.  1.
        1   -1    0    0  501    0  0.00000000000E+00  0.00000000000E+00 -0.17481033478E+04  0.17481033478E+04  0.50400001928E-02 0. -1.
    10030    2    1    2    0    0  0.00000000000E+00  0.00000000000E+00 -0.85449021579E+03  0.26417164799E+04  0.24997024685E+04 0.  0.
        5    1    3    3  502    0 -0.73983248704E+03 -0.91169769730E+03  0.25536055782E+02  0.11744015413E+04  0.46999998093E+01 0. -1.
       -5    1    3    3    0  502  0.73983248704E+03  0.91169769730E+03 -0.88002627157E+03  0.14673149385E+04  0.46999998093E+01 0.  1.
</event>
<event>
 5   0  0.3924441E-06  0.2506675E+04  0.7818609E-02  0.8400611E-01
       -2   -1    0    0    0  501  0.00000000000E+00  0.00000000000E+00  0.10048595735E+04  0.10048595735E+04  0.25500000920E-02 0.  1.
        2   -1    0    0  501    0  0.00000000000E+00  0.00000000000E+00 -0.15632586702E+04  0.15632586702E+04  0.25500000920E-02 0. -1.
    10030    2    1    2    0    0  0.00000000000E+00  0.00000000000E+00 -0.55839909670E+03  0.25681182438E+04  0.25066754402E+04 0.  0.
        2    1    3    3  502    0 -0.63941556590E+03 -0.43701936358E+03  0.73035637867E+03  0.10645462085E+04  0.25500000920E-02 0.  1.
       -2    1    3    3    0  502  0.63941556590E+03  0.43701936358E+03 -0.12887554754E+04  0.15035720353E+04  0.25500000920E-02 0. -1.
</event>
<event>
 5   0  0.3713394E-06  0.2502324E+04  0.7818609E-02  0.8402158E-01
       -2   -1    0    0    0  501  0.00000000000E+00  0.00000000000E+00  0.12103997602E+04  0.12103997602E+04  0.25500000920E-02 0.  1.
        2   -1    0    0  501    0  0.00000000000E+00  0.00000000000E+00 -0.12932967393E+04  0.12932967393E+04  0.25500000920E-02 0. -1.
    10030    2    1    2    0    0  0.00000000000E+00  0.00000000000E+00 -0.82896979064E+02  0.25036964995E+04  0.25023237705E+04 0.  0.
        3    1    3    3  502    0  0.10174131793E+04  0.29192388489E+03  0.62604334942E+03  0.12297477048E+04  0.10100000352E+00 0.  1.
       -3    1    3    3    0  502 -0.10174131793E+04 -0.29192388489E+03 -0.70894032848E+03  0.12739487947E+04  0.10100000352E+00 0. -1.
</event>
<event>
 5   0  0.3808293E-06  0.2467180E+04  0.7818609E-02  0.8414772E-01
       -2   -1    0    0    0  501  0.00000000000E+00  0.00000000000E+00  0.14682254014E+04  0.14682254014E+04  0.25500000920E-02 0. -1.
        2   -1    0    0  501    0  0.00000000000E+00  0.00000000000E+00 -0.10364510768E+04  0.10364510768E+04  0.25500000920E-02 0.  1.
    10030    2    1    2    0    0  0.00000000000E+00  0.00000000000E+00  0.43177432457E+03  0.25046764783E+04  0.24671796030E+04 0.  0.
        1    1    3    3  502    0 -0.50517430970E+03 -0.66775079613E+03 -0.70377915090E+03  0.10937994799E+04  0.50400001928E-02 0.  1.
       -1    1    3    3    0  502  0.50517430970E+03  0.66775079613E+03  0.11355534755E+04  0.14108769984E+04  0.50400001928E-02 0. -1.
</event>
<event>
 5   0  0.3924441E-06  0.2502272E+04  0.7818609E-02  0.8402177E-01
        2   -1    0    0  501    0  0.00000000000E+00  0.00000000000E+00  0.10756437129E+04  0.10756437129E+04  0.25500000920E-02 0. -1.
       -2   -1    0    0    0  501  0.00000000000E+00  0.00000000000E+00 -0.14552601935E+04  0.14552601935E+04  0.25500000920E-02 0.  1.
    10030    2    1    2    0    0  0.00000000000E+00  0.00000000000E+00 -0.37961648052E+03  0.25309039064E+04  0.25022721497E+04 0.  0.
        2    1    3    3  502    0 -0.85574079329E+03 -0.10406285500E+03  0.72733075043E+03  0.11278880280E+04  0.25500000920E-02 0. -1.
       -2    1    3    3    0  502  0.85574079329E+03  0.10406285500E+03 -0.11069472310E+04  0.14030158785E+04  0.25500000920E-02 0.  1.
</event>
<event>
 5   0  0.3713394E-06  0.2500139E+04  0.7818609E-02  0.8402936E-01
        2   -1    0    0  501    0  0.00000000000E+00  0.00000000000E+00  0.11291835638E+04  0.11291835638E+04  0.25500000920E-02 0. -1.
       -2   -1    0    0    0  501  0.00000000000E+00  0.00000000000E+00 -0.13838969739E+04  0.13838969739E+04  0.25500000920E-02 0.  1.
    10030    2    1    2    0    0  0.00000000000E+00  0.00000000000E+00 -0.25471341014E+03  0.25130805377E+04  0.25001389696E+04 0.  0.
        3    1    3    3  502    0  0.75717850998E+03 -0.70265702007E+03  0.58029566407E+03  0.11848161257E+04  0.10100000352E+00 0. -1.
       -3    1    3    3    0  502 -0.75717850998E+03  0.70265702007E+03 -0.83500907421E+03  0.13282644119E+04  0.10100000352E+00 0.  1.
</event>
<event>
 5   0  0.1574896E-06  0.2500919E+04  0.7818609E-02  0.8402658E-01
        1   -1    0    0  501    0  0.00000000000E+00  0.00000000000E+00  0.15858650454E+04  0.15858650454E+04  0.50400001928E-02 0. -1.
       -1   -1    0    0    0  501  0.00000000000E+00  0.00000000000E+00 -0.98599084416E+03  0.98599084418E+03  0.50400001928E-02 0.  1.
    10030    2    1    2    0    0  0.00000000000E+00  0.00000000000E+00  0.59987420120E+03  0.25718558895E+04  0.25009185631E+04 0.  0.
        3    1    3    3  502    0 -0.66875538570E+03 -0.58411018704E+03  0.12053826638E+04  0.14971191846E+04  0.10100000352E+00 0. -1.
       -3    1    3    3    0  502  0.66875538570E+03  0.58411018704E+03 -0.60550846260E+03  0.10747367050E+04  0.10100000352E+00 0.  1.
</event>
<event>
 5   0  0.3814260E-06  0.2498283E+04  0.7818609E-02  0.8403597E-01
       -2   -1    0    0    0  501  0.00000000000E+00  0.00000000000E+00  0.14111027695E+04  0.14111027696E+04  0.25500000920E-02 0. -1.
        2   -1    0    0  501    0  0.00000000000E+00  0.00000000000E+00 -0.11057699649E+04  0.11057699649E+04  0.25500000920E-02 0.  1.
    10030    2    1    2    0    0  0.00000000000E+00  0.00000000000E+00  0.30533280464E+03  0.25168727345E+04  0.24982834587E+04 0.  0.
        5    1    3    3  502    0  0.11893841645E+04  0.34710365827E+03 -0.73148499131E+01  0.12390283440E+04  0.46999998093E+01 0. -1.
       -5    1    3    3    0  502 -0.11893841645E+04 -0.34710365827E+03  0.31264765455E+03  0.12778443904E+04  0.46999998093E+01 0.  1.
</event>
<event>
 5   0  0.1541852E-06  0.2501961E+04  0.7818609E-02  0.8402287E-01
       -1   -1    0    0    0  501  0.00000000000E+00  0.00000000000E+00  0.82277189114E+03  0.82277189116E+03  0.50400001928E-02 0.  1.
        1   -1    0    0  501    0  0.00000000000E+00  0.00000000000E+00 -0.19020489359E+04  0.19020489360E+04  0.50400001928E-02 0. -1.
    10030    2    1    2    0    0  0.00000000000E+00  0.00000000000E+00 -0.10792770448E+04  0.27248208271E+04  0.25019611509E+04 0.  0.
        5    1    3    3  502    0  0.11178129484E+04  0.54347087705E+03 -0.38537424396E+03  0.13013077191E+04  0.46999998093E+01 0. -1.
       -5    1    3    3    0  502 -0.11178129484E+04 -0.54347087705E+03 -0.69390280085E+03  0.14235131081E+04  0.46999998093E+01 0.  1.
</event>
<event>
 5   0  0.1574896E-06  0.2499878E+04  0.7818609E-02  0.8403029E-01
       -1   -1    0    0    0  501  0.00000000000E+00  0.00000000000E+00  0.71503392600E+03  0.71503392602E+03  0.50400001928E-02 0. -1.
        1   -1    0    0  501    0  0.00000000000E+00  0.00000000000E+00 -0.21849982392E+04  0.21849982392E+04  0.50400001928E-02 0.  1.
    10030    2    1    2    0    0  0.00000000000E+00  0.00000000000E+00 -0.14699643132E+04  0.29000321652E+04  0.24998782925E+04 0.  0.
        3    1    3    3  502    0 -0.60476168414E+03 -0.54560239675E+03 -0.18348656661E+04  0.20075235224E+04  0.10100000352E+00 0.  1.
       -3    1    3    3    0  502  0.60476168414E+03  0.54560239675E+03  0.36490135294E+03  0.89250864283E+03  0.10100000352E+00 0. -1.
</event>
<event>
 5   0  0.3713394E-06  0.2520404E+04  0.7818609E-02  0.8395752E-01
        2   -1    0    0  501    0  0.00000000000E+00  0.00000000000E+00  0.20928419568E+04  0.20928419568E+04  0.25500000920E-02 0. -1.
       -2   -1    0    0    0  501  0.00000000000E+00  0.00000000000E+00 -0.75882922237E+03  0.75882922237E+03  0.25500000920E-02 0.  1.
    10030    2    1    2    0    0  0.00000000000E+00  0.00000000000E+00  0.13340127345E+04  0.28516711792E+04  0.25204044395E+04 0.  0.
        3    1    3    3  502    0  0.12222932815E+04  0.45992199527E+02  0.10101751113E+04  0.15863700432E+04  0.10100000352E+00 0. -1.
       -3    1    3    3    0  502 -0.12222932815E+04 -0.45992199527E+02  0.32383762318E+03  0.12653011360E+04  0.10100000352E+00 0.  1.
</event>
<event>
 5   0  0.1553604E-06  0.2487719E+04  0.7818609E-02  0.8407374E-01
       -1   -1    0    0    0  501  0.00000000000E+00  0.00000000000E+00  0.69498459686E+03  0.69498459688E+03  0.50400001928E-02 0.  1.
        1   -1    0    0  501    0  0.00000000000E+00  0.00000000000E+00 -0.22262164289E+04  0.22262164289E+04  0.50400001928E-02 0. -1.
    10030    2    1    2    0    0  0.00000000000E+00  0.00000000000E+00 -0.15312318320E+04  0.29212010257E+04  0.24877187360E+04 0.  0.
        1    1    3    3  502    0  0.40276037934E+03 -0.99598216311E+02 -0.21425700547E+04  0.21823707676E+04  0.50400001928E-02 0. -1.
       -1    1    3    3    0  502 -0.40276037934E+03  0.99598216311E+02  0.61133822269E+03  0.73883025818E+03  0.50400001928E-02 0.  1.
</event>
<event>
 5   0  0.1574896E-06  0.2503427E+04  0.7818609E-02  0.8401766E-01
        1   -1    0    0  501    0  0.00000000000E+00  0.00000000000E+00  0.19730323139E+04  0.19730323139E+04  0.50400001928E-02 0.  1.
       -1   -1    0    0    0  501  0.00000000000E+00  0.00000000000E+00 -0.79410080394E+03  0.79410080396E+03  0.50400001928E-02 0. -1.
    10030    2    1    2    0    0  0.00000000000E+00  0.00000000000E+00  0.11789315099E+04  0.27671331178E+04  0.25034268886E+04 0.  0.
        3    1    3    3  502    0 -0.12658981323E+03 -0.15017090761E+03 -0.77696206122E+03  0.80140273089E+03  0.10100000352E+00 0. -1.
       -3    1    3    3    0  502  0.12658981323E+03  0.15017090761E+03  0.19558935711E+04  0.19657303869E+04  0.10100000352E+00 0.  1.
</event>
<event>
 5   0  0.1519145E-06  0.2499187E+04  0.7818609E-02  0.8403275E-01
        1   -1    0    0  501    0  0.00000000000E+00  0.00000000000E+00  0.86929682419E+03  0.86929682420E+03  0.50400001928E-02 0.  1.
       -1   -1    0    0    0  501  0.00000000000E+00  0.00000000000E+00 -0.17962610243E+04  0.17962610243E+04  0.50400001928E-02 0. -1.
    10030    2    1    2    0    0  0.00000000000E+00  0.00000000000E+00 -0.92696420009E+03  0.26655578485E+04  0.24991870709E+04 0.  0.
        4    1    3    3  502    0  0.92868983685E+03 -0.26470455283E+03  0.38237517496E+03  0.10386268342E+04  0.12699999809E+01 0.  1.
       -4    1    3    3    0  502 -0.92868983685E+03  0.26470455283E+03 -0.13093393751E+04  0.16269310143E+04  0.12699999809E+01 0. -1.
</event>
<event>
 5   0  0.1541852E-06  0.2495162E+04  0.7818609E-02  0.8404711E-01
       -1   -1    0    0    0  501  0.00000000000E+00  0.00000000000E+00  0.98225020059E+03  0.98225020060E+03  0.50400001928E-02 0.  1.
        1   -1    0    0  501    0  0.00000000000E+00  0.00000000000E+00 -0.15845839962E+04  0.15845839962E+04  0.50400001928E-02 0. -1.
    10030    2    1    2    0    0  0.00000000000E+00  0.00000000000E+00 -0.60233379559E+03  0.25668341968E+04  0.24951616766E+04 0.  0.
        5    1    3    3  502    0  0.49844338264E+03 -0.46606327837E+03  0.77323490268E+03  0.10312977697E+04  0.46999998093E+01 0.  1.
       -5    1    3    3    0  502 -0.49844338264E+03  0.46606327837E+03 -0.13755686983E+04  0.15355364271E+04  0.46999998093E+01 0. -1.
</event>
<event>
 5   0  0.3971759E-06  0.2494900E+04  0.7818609E-02  0.8404805E-01
       -2   -1    0    0    0  501  0.00000000000E+00  0.00000000000E+00  0.12310714513E+04  0.12310714513E+04  0.25500000920E-02 0. -1.
        2   -1    0    0  501    0  0.00000000000E+00  0.00000000000E+00 -0.12640461255E+04  0.12640461255E+04  0.25500000920E-02 0.  1.
    10030    2    1    2    0    0  0.00000000000E+00  0.00000000000E+00 -0.32974674248E+02  0.24951175768E+04  0.24948996759E+04 0.  0.
        4    1    3    3  502    0 -0.15892986050E+03  0.12337961969E+04 -0.10932717007E+03  0.12487857299E+04  0.12699999809E+01 0. -1.
       -4    1    3    3    0  502  0.15892986050E+03 -0.12337961969E+04  0.76352495817E+02  0.12463318469E+04  0.12699999809E+01 0.  1.
</event>
<event>
 5   0  0.3713394E-06  0.2500485E+04  0.7818609E-02  0.8402813E-01
        2   -1    0    0  501    0  0.00000000000E+00  0.00000000000E+00  0.15841644096E+04  0.15841644096E+04  0.25500000920E-02 0. -1.
       -2   -1    0    0    0  501  0.00000000000E+00  0.00000000000E+00 -0.98670700375E+03  0.98670700376E+03  0.25500000920E-02 0.  1.
    10030    2    1    2    0    0  0.00000000000E+00  0.00000000000E+00  0.59745740587E+03  0.25708714134E+04  0.25004848475E+04 0.  0.
        3    1    3    3  502    0 -0.11849244745E+04 -0.18059070197E+03  0.66433238251E+03  0.13704001374E+04  0.10100000352E+00 0. -1.
       -3    1    3    3    0  502  0.11849244745E+04  0.18059070197E+03 -0.66874976636E+02  0.12004712760E+04  0.10100000352E+00 0.  1.
</event>
<event>
 5   0  0.1519145E-06  0.2500448E+04  0.7818609E-02  0.8402826E-01
        1   -1    0    0  501    0  0.00000000000E+00  0.00000000000E+00  0.11972679436E+04  0.11972679436E+04  0.50400001928E-02 0.  1.
       -1   -1    0    0    0  501  0.00000000000E+00  0.00000000000E+00 -0.13055218476E+04  0.13055218476E+04  0.50400001928E-02 0. -1.
    10030    2    1    2    0    0  0.00000000000E+00  0.00000000000E+00 -0.10825390399E+03  0.25027897911E+04  0.25004475261E+04 0.  0.
        4    1    3    3  502    0 -0.23498003047E+03 -0.10976512274E+03  0.11700452153E+04  0.11984454163E+04  0.12699999809E+01 0.  1.
       -4    1    3    3    0  502  0.23498003047E+03  0.10976512274E+03 -0.12782991193E+04  0.13043443749E+04  0.12699999809E+01 0. -1.
</event>
<event>
 5   0  0.3924441E-06  0.2493996E+04  0.7818609E-02  0.8405127E-01
       -2   -1    0    0    0  501  0.00000000000E+00  0.00000000000E+00  0.80168503917E+03  0.80168503917E+03  0.25500000920E-02 0. -1.
        2   -1    0    0  501    0  0.00000000000E+00  0.00000000000E+00 -0.19396702300E+04  0.19396702300E+04  0.25500000920E-02 0.  1.
    10030    2    1    2    0    0  0.00000000000E+00  0.00000000000E+00 -0.11379851909E+04  0.27413552692E+04  0.24939964750E+04 0.  0.
        2    1    3    3  502    0  0.51725207553E+03  0.42941011744E+03  0.58544222659E+03  0.89145126579E+03  0.25500000920E-02 0. -1.
       -2    1    3    3    0  502 -0.51725207553E+03 -0.42941011744E+03 -0.17234274175E+04  0.18499040034E+04  0.25500000920E-02 0.  1.
</event>
<event>
 5   0  0.1541852E-06  0.2497220E+04  0.7818609E-02  0.8403976E-01
        1   -1    0    0  501    0  0.00000000000E+00  0.00000000000E+00  0.18305681947E+04  0.18305681947E+04  0.50400001928E-02 0. -1.
       -1   -1    0    0    0  501  0.00000000000E+00  0.00000000000E+00 -0.85166315361E+03  0.85166315363E+03  0.50400001928E-02 0.  1.
    10030    2    1    2    0    0  0.00000000000E+00  0.00000000000E+00  0.97890504110E+03  0.26822313483E+04  0.24972204401E+04 0.  0.
        5    1    3    3  502    0  0.43271392215E+03 -0.70653382644E+03  0.14927748744E+04  0.17072874105E+04  0.46999998093E+01 0. -1.
       -5    1    3    3    0  502 -0.43271392215E+03  0.70653382644E+03 -0.51386983333E+03  0.97494393784E+03  0.46999998093E+01 0.  1.
</event>
<event>
 5   0  0.3924441E-06  0.2498089E+04  0.7818609E-02  0.8403667E-01
       -2   -1    0    0    0  501  0.00000000000E+00  0.00000000000E+00  0.18382857732E+04  0.18382857732E+04  0.25500000920E-02 0.  1.
        2   -1    0    0  501    0  0.00000000000E+00  0.00000000000E+00 -0.84867740318E+03  0.84867740318E+03  0.25500000920E-02 0. -1.
    10030    2    1    2    0    0  0.00000000000E+00  0.00000000000E+00  0.98960837007E+03  0.26869631764E+04  0.24980885463E+04 0.  0.
        2    1    3    3  502    0  0.42659905798E+03 -0.62146424087E+03  0.15660505772E+04  0.17380215675E+04  0.25500000920E-02 0.  1.
       -2    1    3    3    0  502 -0.42659905798E+03  0.62146424087E+03 -0.57644220710E+03  0.94894160889E+03  0.25500000920E-02 0. -1.
</event>
<event>
 5   0  0.1519145E-06  0.2501457E+04  0.7818609E-02  0.8402467E-01
        1   -1    0    0  501    0  0.00000000000E+00  0.00000000000E+00  0.14086821011E+04  0.14086821011E+04  0.50400001928E-02 0. -1.
       -1   -1    0    0    0  501  0.00000000000E+00  0.00000000000E+00 -0.11104862508E+04  0.11104862508E+04  0.50400001928E-02 0.  1.
    10030    2    1    2    0    0  0.00000000000E+00  0.00000000000E+00  0.29819585029E+03  0.25191683520E+04  0.25014572594E+04 0.  0.
        4    1    3    3  502    0 -0.42720108819E+03  0.79075943786E+03  0.10250373866E+04  0.13632697881E+04  0.12699999809E+01 0.  1.
       -4    1    3    3    0  502  0.42720108819E+03 -0.79075943786E+03 -0.72684153627E+03  0.11558985639E+04  0.12699999809E+01 0. -1.
</event>
<event>
 5   0  0.1519145E-06  0.2498940E+04  0.7818609E-02  0.8403363E-01
       -1   -1    0    0    0  501  0.00000000000E+00  0.00000000000E+00  0.73393966302E+03  0.73393966304E+03  0.50400001928E-02 0. -1.
        1   -1    0    0  501    0  0.00000000000E+00  0.00000000000E+00 -0.21271160357E+04  0.21271160357E+04  0.50400001928E-02 0.  1.
    10030    2    1    2    0    0  0.00000000000E+00  0.00000000000E+00 -0.13931763727E+04  0.28610556988E+04  0.24989396363E+04 0.  0.
        4    1    3    3  502    0  0.62350363014E+03 -0.11642289636E+03  0.53591041643E+03  0.83036898722E+03  0.12699999809E+01 0. -1.
       -4    1    3    3    0  502 -0.62350363014E+03  0.11642289636E+03 -0.19290867892E+04  0.20306867116E+04  0.12699999809E+01 0.  1.
</event>
<event>
 5   0  0.1519145E-06  0.2490108E+04  0.7818609E-02  0.8406518E-01
        1   -1    0    0  501    0  0.00000000000E+00  0.00000000000E+00  0.21607255531E+04  0.21607255531E+04  0.50400001928E-02 0. -1.
       -1   -1    0    0    0  501  0.00000000000E+00  0.00000000000E+00 -0.71742553112E+03  0.71742553114E+03  0.50400001928E-02 0.  1.
    10030    2    1    2    0    0  0.00000000000E+00  0.00000000000E+00  0.14433000220E+04  0.28781510842E+04  0.24901081724E+04 0.  0.
        4    1    3    3  502    0  0.10339547895E+04 -0.67769261065E+03  0.89241748995E+03  0.15247099299E+04  0.12699999809E+01 0. -1.
       -4    1    3    3    0  502 -0.10339547895E+04  0.67769261065E+03  0.55088253201E+03  0.13534411543E+04  0.12699999809E+01 0.  1.
</event>
<event>
 5   0  0.3971759E-06  0.2500403E+04  0.7818609E-02  0.8402842E-01
       -2   -1    0    0    0  501  0.00000000000E+00  0.00000000000E+00  0.70539238470E+03  0.70539238470E+03  0.25500000920E-02 0. -1.
        2   -1    0    0  501    0  0.00000000000E+00  0.00000000000E+00 -0.22157928815E+04  0.22157928815E+04  0.25500000920E-02 0.  1.
    10030    2    1    2    0    0  0.00000000000E+00  0.00000000000E+00 -0.15104004968E+04  0.29211852662E+04  0.25004027073E+04 0.  0.
        4    1    3    3  502    0 -0.10415064498E+04  0.69152640821E+03 -0.74635256553E+03  0.14560179337E+04  0.12699999809E+01 0.  1.
       -4    1    3    3    0  502  0.10415064498E+04 -0.69152640821E+03 -0.76404793129E+03  0.14651673326E+04  0.12699999809E+01 0. -1.
</event>
<event>
 5   0  0.1287375E-06  0.2502560E+04  0.7818609E-02  0.8402074E-01
        3   -1    0    0  501    0  0.00000000000E+00  0.00000000000E+00  0.18196872489E+04  0.18196872517E+04  0.10100000352E+00 0. -1.
       -3   -1    0    0    0  501  0.00000000000E+00  0.00000000000E+00 -0.86042332190E+03  0.86042332783E+03  0.10100000352E+00 0.  1.
    10030    2    1    2    0    0  0.00000000000E+00  0.00000000000E+00  0.95926392699E+03  0.26801105795E+04  0.25025597769E+04 0.  0.
        4    1    3    3  502    0  0.83959233274E+03  0.74465649584E+03  0.10723133769E+04  0.15521875445E+04  0.12699999809E+01 0. -1.
       -4    1    3    3    0  502 -0.83959233274E+03 -0.74465649584E+03 -0.11304944991E+03  0.11279230351E+04  0.12699999809E+01 0.  1.
</event>
<event>
 5   0  0.3814260E-06  0.2499909E+04  0.7818609E-02  0.8403018E-01
        2   -1    0    0  501    0  0.00000000000E+00  0.00000000000E+00  0.11502376180E+04  0.11502376180E+04  0.25500000920E-02 0. -1.
       -2   -1    0    0    0  501  0.00000000000E+00  0.00000000000E+00 -0.13583159049E+04  0.13583159049E+04  0.25500000920E-02 0.  1.
    10030    2    1    2    0    0  0.00000000000E+00  0.00000000000E+00 -0.20807828686E+03  0.25085535229E+04  0.24999088391E+04 0.  0.
        5    1    3    3  502    0 -0.36503137890E+03 -0.23852061807E+03  0.10714312631E+04  0.11567744095E+04  0.46999998093E+01 0. -1.
       -5    1    3    3    0  502  0.36503137890E+03  0.23852061807E+03 -0.12795095500E+04  0.13517791134E+04  0.46999998093E+01 0.  1.
</event>
<event>
 5   0  0.3814260E-06  0.2500628E+04  0.7818609E-02  0.8402762E-01
        2   -1    0    0  501    0  0.00000000000E+00  0.00000000000E+00  0.10868549057E+04  0.10868549057E+04  0.25500000920E-02 0.  1.
       -2   -1    0    0    0  501  0.00000000000E+00  0.00000000000E+00 -0.14383562293E+04  0.14383562293E+04  0.25500000920E-02 0. -1.
    10030    2    1    2    0    0  0.00000000000E+00  0.00000000000E+00 -0.35150132360E+03  0.25252111350E+04  0.25006275404E+04 0.  0.
        5    1    3    3  502    0 -0.67674565703E+03 -0.94103530870E+03 -0.64911295207E+03  0.13284960862E+04  0.46999998093E+01 0. -1.
       -5    1    3    3    0  502  0.67674565703E+03  0.94103530870E+03  0.29761162847E+03  0.11967150488E+04  0.46999998093E+01 0.  1.
</event>
<event>
 5   0  0.3971759E-06  0.2503555E+04  0.7818609E-02  0.8401720E-01
        2   -1    0    0  501    0  0.00000000000E+00  0.00000000000E+00  0.16638664056E+04  0.16638664056E+04  0.25500000920E-02 0.  1.
       -2   -1    0    0    0  501  0.00000000000E+00  0.00000000000E+00 -0.94175061301E+03  0.94175061301E+03  0.25500000920E-02 0. -1.
    10030    2    1    2    0    0  0.00000000000E+00  0.00000000000E+00  0.72211579258E+03  0.26056170186E+04  0.25035552380E+04 0.  0.
        4    1    3    3  502    0 -0.89050800134E+03  0.76496052368E+03 -0.91138772834E+02  0.11774875762E+04  0.12699999809E+01 0. -1.
       -4    1    3    3    0  502  0.89050800134E+03 -0.76496052368E+03  0.81325456541E+03  0.14281294424E+04  0.12699999809E+01 0.  1.
</event>
<event>
 5   0  0.1519145E-06  0.2502726E+04  0.7818609E-02  0.8402015E-01
        1   -1    0    0  501    0  0.00000000000E+00  0.00000000000E+00  0.24479681644E+04  0.24479681644E+04  0.50400001928E-02 0.  1.
       -1   -1    0    0    0  501  0.00000000000E+00  0.00000000000E+00 -0.63967718479E+03  0.63967718481E+03  0.50400001928E-02 0. -1.
    10030    2    1    2    0    0  0.00000000000E+00  0.00000000000E+00  0.18082909796E+04  0.30876453492E+04  0.25027260209E+04 0.  0.
        4    1    3    3  502    0  0.11926704761E+04 -0.22348955965E+03  0.52690900378E+03  0.13228927239E+04  0.12699999809E+01 0. -1.
       -4    1    3    3    0  502 -0.11926704761E+04  0.22348955965E+03  0.12813819759E+04  0.17647526254E+04  0.12699999809E+01 0.  1.
</event>
<event>
 5   0  0.1501747E-06  0.2496384E+04  0.7818609E-02  0.8404275E-01
       -1   -1    0    0    0  501  0.00000000000E+00  0.00000000000E+00  0.10619735788E+04  0.10619735788E+04  0.50400001928E-02 0. -1.
        1   -1    0    0  501    0  0.00000000000E+00  0.00000000000E+00 -0.14670642685E+04  0.14670642685E+04  0.50400001928E-02 0.  1.
    10030    2    1    2    0    0  0.00000000000E+00  0.00000000000E+00 -0.40509068972E+03  0.25290378473E+04  0.24963841784E+04 0.  0.
        2    1    3    3  502    0 -0.41819729555E+03  0.57221798562E+03  0.83834783876E+03  0.10977930132E+04  0.25500000920E-02 0. -1.
       -2    1    3    3    0  502  0.41819729555E+03 -0.57221798562E+03 -0.12434385285E+04  0.14312448341E+04  0.25500000920E-02 0.  1.
</event>
<event>
 5   0  0.3924441E-06  0.2494322E+04  0.7818609E-02  0.8405011E-01
        2   -1    0    0  501    0  0.00000000000E+00  0.00000000000E+00  0.17172459940E+04  0.17172459940E+04  0.25500000920E-02 0.  1.
       -2   -1    0    0    0  501  0.00000000000E+00  0.00000000000E+00 -0.90575837556E+03  0.90575837556E+03  0.25500000920E-02 0. -1.
    10030    2    1    2    0    0  0.00000000000E+00  0.00000000000E+00  0.81148761844E+03  0.26230043696E+04  0.24943215045E+04 0.  0.
        2    1    3    3  502    0  0.19252752579E+03 -0.86225080491E+03 -0.51993445436E+03  0.10251220101E+04  0.25500000920E-02 0. -1.
       -2    1    3    3    0  502 -0.19252752579E+03  0.86225080491E+03  0.13314220728E+04  0.15978823595E+04  0.25500000920E-02 0.  1.
</event>
<event>
 5   0  0.1501747E-06  0.2503963E+04  0.7818609E-02  0.8401575E-01
        1   -1    0    0  501    0  0.00000000000E+00  0.00000000000E+00  0.93538844274E+03  0.93538844275E+03  0.50400001928E-02 0. -1.
       -1   -1    0    0    0  501  0.00000000000E+00  0.00000000000E+00 -0.16757285554E+04  0.16757285554E+04  0.50400001928E-02 0.  1.
    10030    2    1    2    0    0  0.00000000000E+00  0.00000000000E+00 -0.74034011270E+03  0.26111169982E+04  0.25039625588E+04 0.  0.
        2    1    3    3  502    0  0.83029398069E+02  0.75678604250E+03 -0.14066034417E+04  0.15994224699E+04  0.25500000920E-02 0.  1.
       -2    1    3    3    0  502 -0.83029398069E+02 -0.75678604250E+03  0.66626332897E+03  0.10116945283E+04  0.25500000920E-02 0. -1.
</event>
<event>
 5   0  0.3713394E-06  0.2497143E+04  0.7818609E-02  0.8404004E-01
       -2   -1    0    0    0  501  0.00000000000E+00  0.00000000000E+00  0.10314549572E+04  0.10314549572E+04  0.25500000920E-02 0.  1.
        2   -1    0    0  501    0  0.00000000000E+00  0.00000000000E+00 -0.15113905514E+04  0.15113905514E+04  0.25500000920E-02 0. -1.
    10030    2    1    2    0    0  0.00000000000E+00  0.00000000000E+00 -0.47993559418E+03  0.25428455086E+04  0.24971433892E+04 0.  0.
        3    1    3    3  502    0  0.28851426520E+03 -0.85036525455E+03 -0.11233524792E+04  0.14381524085E+04  0.10100000352E+00 0. -1.
       -3    1    3    3    0  502 -0.28851426520E+03  0.85036525455E+03  0.64341688498E+03  0.11046931001E+04  0.10100000352E+00 0.  1.
</event>
<event>
 5   0  0.3814260E-06  0.2491797E+04  0.7818609E-02  0.8405914E-01
        2   -1    0    0  501    0  0.00000000000E+00  0.00000000000E+00  0.10122083151E+04  0.10122083151E+04  0.25500000920E-02 0.  1.
       -2   -1    0    0    0  501  0.00000000000E+00  0.00000000000E+00 -0.15335405266E+04  0.15335405266E+04  0.25500000920E-02 0. -1.
    10030    2    1    2    0    0  0.00000000000E+00  0.00000000000E+00 -0.52133221155E+03  0.25457488417E+04  0.24917965186E+04 0.  0.
        5    1    3    3  502    0 -0.74134636114E+03  0.73719974439E+03 -0.95296819232E+03  0.14146477851E+04  0.46999998093E+01 0. -1.
       -5    1    3    3    0  502  0.74134636114E+03 -0.73719974439E+03  0.43163598077E+03  0.11311010566E+04  0.46999998093E+01 0.  1.
</event>
<event>
 5   0  0.1541852E-06  0.2502027E+04  0.7818609E-02  0.8402264E-01
        1   -1    0    0  501    0  0.00000000000E+00  0.00000000000E+00  0.85060552429E+03  0.85060552430E+03  0.50400001928E-02 0.  1.
       -1   -1    0    0    0  501  0.00000000000E+00  0.00000000000E+00 -0.18399072942E+04  0.18399072942E+04  0.50400001928E-02 0. -1.
    10030    2    1    2    0    0  0.00000000000E+00  0.00000000000E+00 -0.98930176990E+03  0.26905128185E+04  0.25020274248E+04 0.  0.
        5    1    3    3  502    0  0.10149394158E+04  0.30240723905E+03 -0.12107460584E+04  0.16085646595E+04  0.46999998093E+01 0. -1.
       -5    1    3    3    0  502 -0.10149394158E+04 -0.30240723905E+03  0.22144428848E+03  0.10819481590E+04  0.46999998093E+01 0.  1.
</event>
<event>
 5   0  0.1574896E-06  0.2497092E+04  0.7818609E-02  0.8404022E-01
        1   -1    0    0  501    0  0.00000000000E+00  0.00000000000E+00  0.24590664391E+04  0.24590664391E+04  0.50400001928E-02 0.  1.
       -1   -1    0    0    0  501  0.00000000000E+00  0.00000000000E+00 -0.63392627359E+03  0.63392627361E+03  0.50400001928E-02 0. -1.
    10030    2    1    2    0    0  0.00000000000E+00  0.00000000000E+00  0.18251401655E+04  0.30929927127E+04  0.24970917678E+04 0.  0.
        3    1    3    3  502    0 -0.23928190563E+03  0.68432454679E+03  0.21716691402E+04  0.22894765298E+04  0.10100000352E+00 0.  1.
       -3    1    3    3    0  502  0.23928190563E+03 -0.68432454679E+03 -0.34652897471E+03  0.80351618291E+03  0.10100000352E+00 0. -1.
</event>
<event>
 5   0  0.3713394E-06  0.2502580E+04  0.7818609E-02  0.8402067E-01
       -2   -1    0    0    0  501  0.00000000000E+00  0.00000000000E+00  0.11203507150E+04  0.11203507150E+04  0.25500000920E-02 0.  1.
        2   -1    0    0  501    0  0.00000000000E+00  0.00000000000E+00 -0.13975328507E+04  0.13975328507E+04  0.25500000920E-02 0. -1.
    10030    2    1    2    0    0  0.00000000000E+00  0.00000000000E+00 -0.27718213566E+03  0.25178835658E+04  0.25025802114E+04 0.  0.
        3    1    3    3  502    0  0.11454357631E+04 -0.12041253829E+01 -0.64535991406E+03  0.13147296171E+04  0.10100000352E+00 0. -1.
       -3    1    3    3    0  502 -0.11454357631E+04  0.12041253829E+01  0.36817777840E+03  0.12031539486E+04  0.10100000352E+00 0.  1.
</event>
<event>
 5   0  0.3808293E-06  0.2495072E+04  0.7818609E-02  0.8404743E-01
        2   -1    0    0  501    0  0.00000000000E+00  0.00000000000E+00  0.18027453044E+04  0.18027453044E+04  0.25500000920E-02 0. -1.
       -2   -1    0    0    0  501  0.00000000000E+00  0.00000000000E+00 -0.86331990382E+03  0.86331990382E+03  0.25500000920E-02 0.  1.
    10030    2    1    2    0    0  0.00000000000E+00  0.00000000000E+00  0.93942540062E+03  0.26660652083E+04  0.24950718650E+04 0.  0.
        1    1    3    3  502    0 -0.10668847907E+04  0.64248711820E+03  0.54759874060E+03  0.13604768408E+04  0.50400001928E-02 0.  1.
       -1    1    3    3    0  502  0.10668847907E+04 -0.64248711820E+03  0.39182666002E+03  0.13055883674E+04  0.50400001928E-02 0. -1.
</event>
<event>
 5   0  0.3808293E-06  0.2497162E+04  0.7818609E-02  0.8403997E-01
        2   -1    0    0  501    0  0.00000000000E+00  0.00000000000E+00  0.20325745003E+04  0.20325745003E+04  0.25500000920E-02 0. -1.
       -2   -1    0    0    0  501  0.00000000000E+00  0.00000000000E+00 -0.76698524202E+03  0.76698524202E+03  0.25500000920E-02 0.  1.
    10030    2    1    2    0    0  0.00000000000E+00  0.00000000000E+00  0.12655892583E+04  0.27995597423E+04  0.24971621053E+04 0.  0.
        1    1    3    3  502    0 -0.69567717986E+03  0.10346368227E+04  0.70812156597E+03  0.14338327119E+04  0.50400001928E-02 0.  1.
       -1    1    3    3    0  502  0.69567717986E+03 -0.10346368227E+04  0.55746769230E+03  0.13657270304E+04  0.50400001928E-02 0. -1.
</event>
<event>
 5   0  0.3924441E-06  0.2493688E+04  0.7818609E-02  0.8405238E-01
       -2   -1    0    0    0  501  0.00000000000E+00  0.00000000000E+00  0.62776801916E+03  0.62776801917E+03  0.25500000920E-02 0.  1.
        2   -1    0    0  501    0  0.00000000000E+00  0.00000000000E+00 -0.24764244748E+04  0.24764244748E+04  0.25500000920E-02 0. -1.
    10030    2    1    2    0    0  0.00000000000E+00  0.00000000000E+00 -0.18486564556E+04  0.31041924939E+04  0.24936881017E+04 0.  0.
        2    1    3    3  502    0 -0.11162436340E+04 -0.55544837138E+03 -0.93660996466E+03  0.15594104558E+04  0.25500000920E-02 0.  1.
       -2    1    3    3    0  502  0.11162436340E+04  0.55544837138E+03 -0.91204649093E+03  0.15447820381E+04  0.25500000920E-02 0. -1.
</event>
<event>
 5   0  0.1553604E-06  0.2495919E+04  0.7818609E-02  0.8404441E-01
        1   -1    0    0  501    0  0.00000000000E+00  0.00000000000E+00  0.13647064868E+04  0.13647064868E+04  0.50400001928E-02 0.  1.
       -1   -1    0    0    0  501  0.00000000000E+00  0.00000000000E+00 -0.11411996738E+04  0.11411996739E+04  0.50400001928E-02 0. -1.
    10030    2    1    2    0    0  0.00000000000E+00  0.00000000000E+00  0.22350681293E+03  0.25059061606E+04  0.24959187468E+04 0.  0.
        1    1    3    3  502    0  0.91222483874E+03 -0.34255525638E+03 -0.67104869320E+03  0.11831333859E+04  0.50400001928E-02 0. -1.
       -1    1    3    3    0  502 -0.91222483874E+03  0.34255525638E+03  0.89455550613E+03  0.13227727748E+04  0.50400001928E-02 0.  1.
</event>
<event>
 5   0  0.3808293E-06  0.2447005E+04  0.7818609E-02  0.8422112E-01
       -2   -1    0    0    0  501  0.00000000000E+00  0.00000000000E+00  0.12116584314E+04  0.12116584314E+04  0.25500000920E-02 0.  1.
        2   -1    0    0  501    0  0.00000000000E+00  0.00000000000E+00 -0.12354623240E+04  0.12354623240E+04  0.25500000920E-02 0. -1.
    10030    2    1    2    0    0  0.00000000000E+00  0.00000000000E+00 -0.23803892639E+02  0.24471207555E+04  0.24470049788E+04 0.  0.
        1    1    3    3  502    0 -0.69387346610E+03 -0.32082214633E+03 -0.96723302042E+03  0.12328531755E+04  0.50400001928E-02 0. -1.
       -1    1    3    3    0  502  0.69387346610E+03  0.32082214633E+03  0.94342912779E+03  0.12142675799E+04  0.50400001928E-02 0.  1.
</event>
<event>
 5   0  0.3971759E-06  0.2505132E+04  0.7818609E-02  0.8401159E-01
       -2   -1    0    0    0  501  0.00000000000E+00  0.00000000000E+00  0.14548374642E+04  0.14548374642E+04  0.25500000920E-02 0. -1.
        2   -1    0    0  501    0  0.00000000000E+00  0.00000000000E+00 -0.10784174805E+04  0.10784174805E+04  0.25500000920E-02 0.  1.
    10030    2    1    2    0    0  0.00000000000E+00  0.00000000000E+00  0.37641998374E+03  0.25332549447E+04  0.25051324537E+04 0.  0.
        4    1    3    3  502    0  0.90273949120E+03  0.36526139696E+03  0.98481350334E+03  0.13849959301E+04  0.12699999809E+01 0. -1.
       -4    1    3    3    0  502 -0.90273949120E+03 -0.36526139696E+03 -0.60839351960E+03  0.11482590146E+04  0.12699999809E+01 0.  1.
</event>
<event>
 5   0  0.3713394E-06  0.2499086E+04  0.7818609E-02  0.8403311E-01
        2   -1    0    0  501    0  0.00000000000E+00  0.00000000000E+00  0.12877787928E+04  0.12877787928E+04  0.25500000920E-02 0.  1.
       -2   -1    0    0    0  501  0.00000000000E+00  0.00000000000E+00 -0.12124421643E+04  0.12124421643E+04  0.25500000920E-02 0. -1.
    10030    2    1    2    0    0  0.00000000000E+00  0.00000000000E+00  0.75336628469E+02  0.25002209570E+04  0.24990856781E+04 0.  0.
        3    1    3    3  502    0 -0.38816069597E+03 -0.68470020756E+03  0.10086112248E+04  0.12793669189E+04  0.10100000352E+00 0.  1.
       -3    1    3    3    0  502  0.38816069597E+03  0.68470020756E+03 -0.93327459633E+03  0.12208540382E+04  0.10100000352E+00 0. -1.
</event>
<event>
 5   0  0.1541852E-06  0.2500947E+04  0.7818609E-02  0.8402648E-01
        1   -1    0    0  501    0  0.00000000000E+00  0.00000000000E+00  0.12437896654E+04  0.12437896654E+04  0.50400001928E-02 0. -1.
       -1   -1    0    0    0  501  0.00000000000E+00  0.00000000000E+00 -0.12571936521E+04  0.12571936521E+04  0.50400001928E-02 0.  1.
    10030    2    1    2    0    0  0.00000000000E+00  0.00000000000E+00 -0.13403986703E+02  0.25009833174E+04  0.25009473979E+04 0.  0.
        5    1    3    3  502    0  0.19999569264E+02 -0.12007909176E+04  0.34167575771E+03  0.12486245328E+04  0.46999998093E+01 0. -1.
       -5    1    3    3    0  502 -0.19999569264E+02  0.12007909176E+04 -0.35507974441E+03  0.12523587846E+04  0.46999998093E+01 0.  1.
</event>
<event>
 5   0  0.1501747E-06  0.2501865E+04  0.7818609E-02  0.8402322E-01
       -1   -1    0    0    0  501  0.00000000000E+00  0.00000000000E+00  0.80277388662E+03  0.80277388664E+03  0.50400001928E-02 0. -1.
        1   -1    0    0  501    0  0.00000000000E+00  0.00000000000E+00 -0.19492807343E+04  0.19492807343E+04  0.50400001928E-02 0.  1.
    10030    2    1    2    0    0  0.00000000000E+00  0.00000000000E+00 -0.11465068477E+04  0.27520546209E+04  0.25018646416E+04 0.  0.
        2    1    3    3  502    0 -0.67796990126E+03 -0.11814887280E+03  0.57582919286E+03  0.89731911966E+03  0.25500000920E-02 0. -1.
       -2    1    3    3    0  502  0.67796990126E+03  0.11814887280E+03 -0.17223360405E+04  0.18547355013E+04  0.25500000920E-02 0.  1.
</event>
<event>
 5   0  0.3808293E-06  0.2500473E+04  0.7818609E-02  0.8402817E-01
        2   -1    0    0  501    0  0.00000000000E+00  0.00000000000E+00  0.12302436857E+04  0.12302436857E+04  0.25500000920E-02 0.  1.
       -2   -1    0    0    0  501  0.00000000000E+00  0.00000000000E+00 -0.12705537220E+04  0.12705537220E+04  0.25500000920E-02 0. -1.
    10030    2    1    2    0    0  0.00000000000E+00  0.00000000000E+00 -0.40310036266E+02  0.25007974077E+04  0.25004725104E+04 0.  0.
        1    1    3    3  502    0 -0.83451216457E+03 -0.42577791687E+03 -0.84814742769E+03  0.12637450085E+04  0.50400001928E-02 0. -1.
       -1    1    3    3    0  502  0.83451216457E+03  0.42577791687E+03  0.80783739143E+03  0.12370523992E+04  0.50400001928E-02 0.  1.
</event>
<event>
 5   0  0.3971759E-06  0.2500935E+04  0.7818609E-02  0.8402653E-01
       -2   -1    0    0    0  501  0.00000000000E+00  0.00000000000E+00  0.11229664957E+04  0.11229664957E+04  0.25500000920E-02 0. -1.
        2   -1    0    0  501    0  0.00000000000E+00  0.00000000000E+00 -0.13924444617E+04  0.13924444617E+04  0.25500000920E-02 0.  1.
    10030    2    1    2    0    0  0.00000000000E+00  0.00000000000E+00 -0.26947796608E+03  0.25154109574E+04  0.25009346074E+04 0.  0.
        4    1    3    3  502    0  0.68733827797E+02  0.12485750602E+04 -0.13643538895E+03  0.12578872160E+04  0.12699999809E+01 0. -1.
       -4    1    3    3    0  502 -0.68733827797E+02 -0.12485750602E+04 -0.13304257713E+03  0.12575237414E+04  0.12699999809E+01 0.  1.
</event>
<event>
 5   0  0.3713394E-06  0.2497226E+04  0.7818609E-02  0.8403974E-01
        2   -1    0    0  501    0  0.00000000000E+00  0.00000000000E+00  0.24136111058E+04  0.24136111058E+04  0.25500000920E-02 0.  1.
       -2   -1    0    0    0  501  0.00000000000E+00  0.00000000000E+00 -0.64593464978E+03  0.64593464978E+03  0.25500000920E-02 0. -1.
    10030    2    1    2    0    0  0.00000000000E+00  0.00000000000E+00  0.17676764560E+04  0.30595457556E+04  0.24972264970E+04 0.  0.
        3    1    3    3  502    0 -0.29516964553E+03  0.10004938903E+04  0.43075487296E+02  0.10440156378E+04  0.10100000352E+00 0.  1.
       -3    1    3    3    0  502  0.29516964553E+03 -0.10004938903E+04  0.17246009687E+04  0.20155301178E+04  0.10100000352E+00 0. -1.
</event>
<event>
 5   0  0.1553604E-06  0.2502315E+04  0.7818609E-02  0.8402161E-01
        1   -1    0    0  501    0  0.00000000000E+00  0.00000000000E+00  0.24904521738E+04  0.24904521738E+04  0.50400001928E-02 0. -1.
       -1   -1    0    0    0  501  0.00000000000E+00  0.00000000000E+00 -0.62855833737E+03  0.62855833739E+03  0.50400001928E-02 0.  1.
    10030    2    1    2    0    0  0.00000000000E+00  0.00000000000E+00  0.18618938365E+04  0.31190105112E+04  0.25023145108E+04 0.  0.
        1    1    3    3  502    0  0.90381220355E+03 -0.65724353487E+03  0.16322332236E+04  0.19781382307E+04  0.50400001928E-02 0. -1.
       -1    1    3    3    0  502 -0.90381220355E+03  0.65724353487E+03  0.22966061285E+03  0.11408722805E+04  0.50400001928E-02 0.  1.
</event>
<event>
 5   0  0.3924441E-06  0.2506491E+04  0.7818609E-02  0.8400677E-01
       -2   -1    0    0    0  501  0.00000000000E+00  0.00000000000E+00  0.76295207407E+03  0.76295207408E+03  0.25500000920E-02 0.  1.
        2   -1    0    0  501    0  0.00000000000E+00  0.00000000000E+00 -0.20586150772E+04  0.20586150772E+04  0.25500000920E-02 0. -1.
    10030    2    1    2    0    0  0.00000000000E+00  0.00000000000E+00 -0.12956630031E+04  0.28215671513E+04  0.25064912869E+04 0.  0.
        2    1    3    3  502    0  0.30440648818E+03 -0.69389939969E+03 -0.17715439871E+04  0.19267920970E+04  0.25500000920E-02 0. -1.
       -2    1    3    3    0  502 -0.30440648818E+03  0.69389939969E+03  0.47588098392E+03  0.89477505430E+03  0.25500000920E-02 0.  1.
</event>
<event>
 5   0  0.1553604E-06  0.2500064E+04  0.7818609E-02  0.8402963E-01
       -1   -1    0    0    0  501  0.00000000000E+00  0.00000000000E+00  0.14434307772E+04  0.14434307772E+04  0.50400001928E-02 0. -1.
        1   -1    0    0  501    0  0.00000000000E+00  0.00000000000E+00 -0.10825457899E+04  0.10825457899E+04  0.50400001928E-02 0.  1.
    10030    2    1    2    0    0  0.00000000000E+00  0.00000000000E+00  0.36088498726E+03  0.25259765671E+04  0.25000639279E+04 0.  0.
        1    1    3    3  502    0 -0.35609784722E+03 -0.11302109004E+04 -0.22167451185E+03  0.12055380315E+04  0.50400001928E-02 0.  1.
       -1    1    3    3    0  502  0.35609784722E+03  0.11302109004E+04  0.58255949911E+03  0.13204385356E+04  0.50400001928E-02 0. -1.
</event>
<event>
 5   0  0.1501747E-06  0.2492851E+04  0.7818609E-02  0.8405537E-01
       -1   -1    0    0    0  501  0.00000000000E+00  0.00000000000E+00  0.14578339820E+04  0.14578339820E+04  0.50400001928E-02 0.  1.
        1   -1    0    0  501    0  0.00000000000E+00  0.00000000000E+00 -0.10656742615E+04  0.10656742615E+04  0.50400001928E-02 0. -1.
    10030    2    1    2    0    0  0.00000000000E+00  0.00000000000E+00  0.39215972053E+03  0.25235082436E+04  0.24928506993E+04 0.  0.
        2    1    3    3  502    0  0.94576793964E+03 -0.64384554419E+03  0.69669388415E+03  0.13395508384E+04  0.25500000920E-02 0.  1.
       -2    1    3    3    0  502 -0.94576793964E+03  0.64384554419E+03 -0.30453416362E+03  0.11839574052E+04  0.25500000920E-02 0. -1.
</event>
<event>
 5   0  0.3814260E-06  0.2498592E+04  0.7818609E-02  0.8403487E-01
       -2   -1    0    0    0  501  0.00000000000E+00  0.00000000000E+00  0.79758576499E+03  0.79758576499E+03  0.25500000920E-02 0.  1.
        2   -1    0    0  501    0  0.00000000000E+00  0.00000000000E+00 -0.19568307060E+04  0.19568307060E+04  0.25500000920E-02 0. -1.
    10030    2    1    2    0    0  0.00000000000E+00  0.00000000000E+00 -0.11592449411E+04  0.27544164710E+04  0.24985918559E+04 0.  0.
        5    1    3    3  502    0  0.95363037234E+03  0.78485846731E+02  0.30582689727E+03  0.10045511915E+04  0.46999998093E+01 0.  1.
       -5    1    3    3    0  502 -0.95363037234E+03 -0.78485846731E+02 -0.14650718383E+04  0.17498652796E+04  0.46999998093E+01 0. -1.
</event>
<event>
 5   0  0.1553604E-06  0.2500237E+04  0.7818609E-02  0.8402901E-01
        1   -1    0    0  501    0  0.00000000000E+00  0.00000000000E+00  0.11425499330E+04  0.11425499330E+04  0.50400001928E-02 0. -1.
       -1   -1    0    0    0  501  0.00000000000E+00  0.00000000000E+00 -0.13678145499E+04  0.13678145500E+04  0.50400001928E-02 0.  1.
    10030    2    1    2    0    0  0.00000000000E+00  0.00000000000E+00 -0.22526461699E+03  0.25103644829E+04  0.25002371266E+04 0.  0.
        1    1    3    3  502    0  0.48872000669E+02  0.12079851113E+04 -0.43200865556E+03  0.12838411039E+04  0.50400001928E-02 0.  1.
       -1    1    3    3    0  502 -0.48872000669E+02 -0.12079851113E+04  0.20674403856E+03  0.12265233790E+04  0.50400001928E-02 0. -1.
</event>
<event>
 5   0  0.3971759E-06  0.2490580E+04  0.7818609E-02  0.8406349E-01
       -2   -1    0    0    0  501  0.00000000000E+00  0.00000000000E+00  0.83816879658E+03  0.83816879658E+03  0.25500000920E-02 0. -1.
        2   -1    0    0  501    0  0.00000000000E+00  0.00000000000E+00 -0.18501613609E+04  0.18501613609E+04  0.25500000920E-02 0.  1.
    10030    2    1    2    0    0  0.00000000000E+00  0.00000000000E+00 -0.10119925644E+04  0.26883301575E+04  0.24905802708E+04 0.  0.
        4    1    3    3  502    0  0.49876018358E+03  0.97560589275E+03  0.13274660030E+03  0.11037172879E+04  0.12699999809E+01 0. -1.
       -4    1    3    3    0  502 -0.49876018358E+03 -0.97560589275E+03 -0.11447391647E+04  0.15846128697E+04  0.12699999809E+01 0.  1.
</event>
<event>
 5   0  0.1287375E-06  0.2504504E+04  0.7818609E-02  0.8401383E-01
        3   -1    0    0  501    0  0.00000000000E+00  0.00000000000E+00  0.10118108581E+04  0.10118108631E+04  0.10100000352E+00 0.  1.
       -3   -1    0    0    0  501  0.00000000000E+00  0.00000000000E+00 -0.15498303314E+04  0.15498303346E+04  0.10100000352E+00 0. -1.
    10030    2    1    2    0    0  0.00000000000E+00  0.00000000000E+00 -0.53801947327E+03  0.25616411978E+04  0.25045040772E+04 0.  0.
        1    1    3    3  502    0 -0.59400696788E+02 -0.11966866173E+04 -0.64138680209E+03  0.13590306592E+04  0.50400001928E-02 0. -1.
       -1    1    3    3    0  502  0.59400696788E+02  0.11966866173E+04  0.10336732882E+03  0.12026105386E+04  0.50400001928E-02 0.  1.
</event>
<event>
 5   0  0.3713394E-06  0.2499099E+04  0.7818609E-02  0.8403306E-01
       -2   -1    0    0    0  501  0.00000000000E+00  0.00000000000E+00  0.67227219988E+03  0.67227219988E+03  0.25500000920E-02 0.  1.
        2   -1    0    0  501    0  0.00000000000E+00  0.00000000000E+00 -0.23225328424E+04  0.23225328424E+04  0.25500000920E-02 0. -1.
    10030    2    1    2    0    0  0.00000000000E+00  0.00000000000E+00 -0.16502606425E+04  0.29948050423E+04  0.24990992483E+04 0.  0.
        3    1    3    3  502    0  0.75376337187E+03 -0.71034005745E+03 -0.16628062192E+04  0.19589963632E+04  0.10100000352E+00 0.  1.
       -3    1    3    3    0  502 -0.75376337187E+03  0.71034005745E+03  0.12545576724E+02  0.10358086791E+04  0.10100000352E+00 0. -1.
</event>
<event>
 5   0  0.3814260E-06  0.2502094E+04  0.7818609E-02  0.8402240E-01
        2   -1    0    0  501    0  0.00000000000E+00  0.00000000000E+00  0.19093094178E+04  0.19093094178E+04  0.25500000920E-02 0.  1.
       -2   -1    0    0    0  501  0.00000000000E+00  0.00000000000E+00 -0.81973025762E+03  0.81973025762E+03  0.25500000920E-02 0. -1.
    10030    2    1    2    0    0  0.00000000000E+00  0.00000000000E+00  0.10895791602E+04  0.27290396755E+04  0.25020940837E+04 0.  0.
        5    1    3    3  502    0  0.66010746807E+03 -0.10508176105E+04  0.37186221596E+03  0.12954779495E+04  0.46999998093E+01 0.  1.
       -5    1    3    3    0  502 -0.66010746807E+03  0.10508176105E+04  0.71771694425E+03  0.14335617259E+04  0.46999998093E+01 0. -1.
</event>
<event>
 5   0  0.1574896E-06  0.2502729E+04  0.7818609E-02  0.8402014E-01
       -1   -1    0    0    0  501  0.00000000000E+00  0.00000000000E+00  0.11611169465E+04  0.11611169465E+04  0.50400001928E-02 0. -1.
        1   -1    0    0  501    0  0.00000000000E+00  0.00000000000E+00 -0.13486268899E+04  0.13486268900E+04  0.50400001928E-02 0.  1.
    10030    2    1    2    0    0  0.00000000000E+00  0.00000000000E+00 -0.18750994341E+03  0.25097438365E+04  0.25027293393E+04 0.  0.
        3    1    3    3  502    0  0.54351231586E+02 -0.35816239621E+02 -0.13469280957E+04  0.13484999683E+04  0.10100000352E+00 0.  1.
       -3    1    3    3    0  502 -0.54351231586E+02  0.35816239621E+02  0.11594181523E+04  0.11612438682E+04  0.10100000352E+00 0. -1.
</event>
<event>
 5   0  0.3924441E-06  0.2507245E+04  0.7818609E-02  0.8400409E-01
       -2   -1    0    0    0  501  0.00000000000E+00  0.00000000000E+00  0.13539993397E+04  0.13539993397E+04  0.25500000920E-02 0. -1.
        2   -1    0    0  501    0  0.00000000000E+00  0.00000000000E+00 -0.11606873012E+04  0.11606873012E+04  0.25500000920E-02 0.  1.
    10030    2    1    2    0    0  0.00000000000E+00  0.00000000000E+00  0.19331203847E+03  0.25146866410E+04  0.25072453725E+04 0.  0.
        2    1    3    3  502    0  0.92921360136E+03 -0.75552724897E+03  0.46831010220E+03  0.12859135635E+04  0.25500000920E-02 0. -1.
       -2    1    3    3    0  502 -0.92921360136E+03  0.75552724897E+03 -0.27499806373E+03  0.12287730775E+04  0.25500000920E-02 0.  1.
</event>
<event>
 5   0  0.3971759E-06  0.2501878E+04  0.7818609E-02  0.8402317E-01
       -2   -1    0    0    0  501  0.00000000000E+00  0.00000000000E+00  0.29670927952E+04  0.29670927952E+04  0.25500000920E-02 0. -1.
        2   -1    0    0  501    0  0.00000000000E+00  0.00000000000E+00 -0.52740142594E+03  0.52740142595E+03  0.25500000920E-02 0.  1.
    10030    2    1    2    0    0  0.00000000000E+00  0.00000000000E+00  0.24396913692E+04  0.34944942211E+04  0.25018784711E+04 0.  0.
        4    1    3    3  502    0 -0.68532920479E+03 -0.35639282996E+03 -0.15448312459E+03  0.78775542961E+03  0.12699999809E+01 0.  1.
       -4    1    3    3    0  502  0.68532920479E+03  0.35639282996E+03  0.25941744938E+04  0.27067387915E+04  0.12699999809E+01 0. -1.
</event>
<event>
 5   0  0.3808293E-06  0.2500326E+04  0.7818609E-02  0.8402869E-01
        2   -1    0    0  501    0  0.00000000000E+00  0.00000000000E+00  0.25797392995E+04  0.25797392995E+04  0.25500000920E-02 0. -1.
       -2   -1    0    0    0  501  0.00000000000E+00  0.00000000000E+00 -0.60583943795E+03  0.60583943795E+03  0.25500000920E-02 0.  1.
    10030    2    1    2    0    0  0.00000000000E+00  0.00000000000E+00  0.19738998616E+04  0.31855787375E+04  0.25003262245E+04 0.  0.
        1    1    3    3  502    0 -0.11424941292E+04 -0.72006407614E+01  0.34035319325E+03  0.11921346319E+04  0.50400001928E-02 0.  1.
       -1    1    3    3    0  502  0.11424941292E+04  0.72006407614E+01  0.16335466683E+04  0.19934441056E+04  0.50400001928E-02 0. -1.
</event>
<event>
 5   0  0.1519145E-06  0.2497464E+04  0.7818609E-02  0.8403890E-01
        1   -1    0    0  501    0  0.00000000000E+00  0.00000000000E+00  0.13222460502E+04  0.13222460502E+04  0.50400001928E-02 0.  1.
       -1   -1    0    0    0  501  0.00000000000E+00  0.00000000000E+00 -0.11793052971E+04  0.11793052971E+04  0.50400001928E-02 0. -1.
    10030    2    1    2    0    0  0.00000000000E+00  0.00000000000E+00  0.14294075311E+03  0.25015513474E+04  0.24974641308E+04 0.  0.
        4    1    3    3  502    0  0.37782924958E+02 -0.31244745599E+02  0.13212809662E+04  0.13221909045E+04  0.12699999809E+01 0.  1.
       -4    1    3    3    0  502 -0.37782924958E+02  0.31244745599E+02 -0.11783402131E+04  0.11793604429E+04  0.12699999809E+01 0. -1.
</event>
<event>
 5   0  0.1541852E-06  0.2496113E+04  0.7818609E-02  0.8404371E-01
       -1   -1    0    0    0  501  0.00000000000E+00  0.00000000000E+00  0.97430963169E+03  0.97430963170E+03  0.50400001928E-02 0. -1.
        1   -1    0    0  501    0  0.00000000000E+00  0.00000000000E+00 -0.15987170570E+04  0.15987170570E+04  0.50400001928E-02 0.  1.
    10030    2    1    2    0    0  0.00000000000E+00  0.00000000000E+00 -0.62440742527E+03  0.25730266887E+04  0.24961133203E+04 0.  0.
        5    1    3    3  502    0  0.11383786179E+04  0.48029826832E+03 -0.49378793363E+03  0.13305791663E+04  0.46999998093E+01 0. -1.
       -5    1    3    3    0  502 -0.11383786179E+04 -0.48029826832E+03 -0.13061949163E+03  0.12424475224E+04  0.46999998093E+01 0.  1.
</event>
<event>
 5   0  0.1553604E-06  0.2503016E+04  0.7818609E-02  0.8401912E-01
        1   -1    0    0  501    0  0.00000000000E+00  0.00000000000E+00  0.13787891011E+04  0.13787891011E+04  0.50400001928E-02 0. -1.
       -1   -1    0    0    0  501  0.00000000000E+00  0.00000000000E+00 -0.11359766176E+04  0.11359766176E+04  0.50400001928E-02 0.  1.
    10030    2    1    2    0    0  0.00000000000E+00  0.00000000000E+00  0.24281248350E+03  0.25147657187E+04  0.25030159244E+04 0.  0.
        1    1    3    3  502    0 -0.61558794779E+02 -0.12492022818E+04  0.16607112807E+03  0.12616954647E+04  0.50400001928E-02 0. -1.
       -1    1    3    3    0  502  0.61558794779E+02  0.12492022818E+04  0.76741355433E+02  0.12530702541E+04  0.50400001928E-02 0.  1.
</event>
<event>
 5   0  0.1519145E-06  0.2499013E+04  0.7818609E-02  0.8403337E-01
       -1   -1    0    0    0  501  0.00000000000E+00  0.00000000000E+00  0.90641952594E+03  0.90641952595E+03  0.50400001928E-02 0.  1.
        1   -1    0    0  501    0  0.00000000000E+00  0.00000000000E+00 -0.17224540996E+04  0.17224540997E+04  0.50400001928E-02 0. -1.
    10030    2    1    2    0    0  0.00000000000E+00  0.00000000000E+00 -0.81603457371E+03  0.26288736256E+04  0.24990126278E+04 0.  0.
        4    1    3    3  502    0 -0.16912132787E+03 -0.83252443938E+02  0.89137505840E+03  0.91108951295E+03  0.12699999809E+01 0.  1.
       -4    1    3    3    0  502  0.16912132787E+03  0.83252443938E+02 -0.17074096321E+04  0.17177841127E+04  0.12699999809E+01 0. -1.
</event>
<event>
 5   0  0.1553604E-06  0.2496329E+04  0.7818609E-02  0.8404295E-01
        1   -1    0    0  501    0  0.00000000000E+00  0.00000000000E+00  0.10050867092E+04  0.10050867092E+04  0.50400001928E-02 0. -1.
       -1   -1    0    0    0  501  0.00000000000E+00  0.00000000000E+00 -0.15500296589E+04  0.15500296589E+04  0.50400001928E-02 0.  1.
    10030    2    1    2    0    0  0.00000000000E+00  0.00000000000E+00 -0.54494294972E+03  0.25551163681E+04  0.24963286714E+04 0.  0.
        1    1    3    3  502    0 -0.18592142469E+03  0.10256872583E+04 -0.97516130148E+03  0.14274244960E+04  0.50400001928E-02 0.  1.
       -1    1    3    3    0  502  0.18592142469E+03 -0.10256872583E+04  0.43021835176E+03  0.11276918720E+04  0.50400001928E-02 0. -1.
</event>
<event>
 5   0  0.3924441E-06  0.2498397E+04  0.7818609E-02  0.8403557E-01
       -2   -1    0    0    0  501  0.00000000000E+00  0.00000000000E+00  0.93823123753E+03  0.93823123753E+03  0.25500000920E-02 0.  1.
        2   -1    0    0  501    0  0.00000000000E+00  0.00000000000E+00 -0.16632330782E+04  0.16632330782E+04  0.25500000920E-02 0. -1.
    10030    2    1    2    0    0  0.00000000000E+00  0.00000000000E+00 -0.72500184064E+03  0.26014643157E+04  0.24983972696E+04 0.  0.
        2    1    3    3  502    0  0.10900071580E+04  0.29382512104E+03  0.19439771707E+03  0.11455301300E+04  0.25500000920E-02 0.  1.
       -2    1    3    3    0  502 -0.10900071580E+04 -0.29382512104E+03 -0.91939955771E+03  0.14559341857E+04  0.25500000920E-02 0. -1.
</event>
<event>
 5   0  0.1519145E-06  0.2514668E+04  0.7818609E-02  0.8397779E-01
        1   -1    0    0  501    0  0.00000000000E+00  0.00000000000E+00  0.14732573666E+04  0.14732573666E+04  0.50400001928E-02 0.  1.
       -1   -1    0    0    0  501  0.00000000000E+00  0.00000000000E+00 -0.10730564893E+04  0.10730564893E+04  0.50400001928E-02 0. -1.
    10030    2    1    2    0    0  0.00000000000E+00  0.00000000000E+00  0.40020087733E+03  0.25463138559E+04  0.25146676740E+04 0.  0.
        4    1    3    3  502    0 -0.82275849573E+03  0.70158538311E+03 -0.44963905208E+03  0.11710382070E+04  0.12699999809E+01 0. -1.
       -4    1    3    3    0  502  0.82275849573E+03 -0.70158538311E+03  0.84983992941E+03  0.13752756490E+04  0.12699999809E+01 0.  1.
</event>
<event>
 5   0  0.3971759E-06  0.2495646E+04  0.7818609E-02  0.8404538E-01
        2   -1    0    0  501    0  0.00000000000E+00  0.00000000000E+00  0.66476116089E+03  0.66476116089E+03  0.25500000920E-02 0. -1.
       -2   -1    0    0    0  501  0.00000000000E+00  0.00000000000E+00 -0.23422883397E+04  0.23422883397E+04  0.25500000920E-02 0.  1.
    10030    2    1    2    0    0  0.00000000000E+00  0.00000000000E+00 -0.16775271788E+04  0.30070495006E+04  0.24956460613E+04 0.  0.
        4    1    3    3  502    0  0.62899192025E+03  0.13423666305E+03  0.44965995051E+03  0.78475856251E+03  0.12699999809E+01 0. -1.
       -4    1    3    3    0  502 -0.62899192025E+03 -0.13423666305E+03 -0.21271871293E+04  0.22222909381E+04  0.12699999809E+01 0.  1.
</event>
<event>
 5   0  0.1553604E-06  0.2501671E+04  0.7818609E-02  0.8402390E-01
        1   -1    0    0  501    0  0.00000000000E+00  0.00000000000E+00  0.14805778455E+04  0.14805778455E+04  0.50400001928E-02 0. -1.
       -1   -1    0    0    0  501  0.00000000000E+00  0.00000000000E+00 -0.10567424285E+04  0.10567424285E+04  0.50400001928E-02 0.  1.
    10030    2    1    2    0    0  0.00000000000E+00  0.00000000000E+00  0.42383541702E+03  0.25373202741E+04  0.25016709841E+04 0.  0.
        1    1    3    3  502    0  0.33087968195E+02 -0.11021370253E+04  0.81091689712E+03  0.13687173011E+04  0.50400001928E-02 0. -1.
       -1    1    3    3    0  502 -0.33087968195E+02  0.11021370253E+04 -0.38708148010E+03  0.11686029730E+04  0.50400001928E-02 0.  1.
</event>
<event>
 5   0  0.1574896E-06  0.2498487E+04  0.7818609E-02  0.8403525E-01
        1   -1    0    0  501    0  0.00000000000E+00  0.00000000000E+00  0.11800664902E+04  0.11800664902E+04  0.50400001928E-02 0.  1.
       -1   -1    0    0    0  501  0.00000000000E+00  0.00000000000E+00 -0.13224753802E+04  0.13224753803E+04  0.50400001928E-02 0. -1.
    10030    2    1    2    0    0  0.00000000000E+00  0.00000000000E+00 -0.14240889004E+03  0.25025418705E+04  0.24984866462E+04 0.  0.
        3    1    3    3  502    0 -0.94311174409E+03  0.81919743386E+03 -0.63149460592E+02  0.12508125607E+04  0.10100000352E+00 0.  1.
       -3    1    3    3    0  502  0.94311174409E+03 -0.81919743386E+03 -0.79259429453E+02  0.12517293097E+04  0.10100000352E+00 0. -1.
</event>
<event>
 5   0  0.3924441E-06  0.2500637E+04  0.7818609E-02  0.8402759E-01
       -2   -1    0    0    0  501  0.00000000000E+00  0.00000000000E+00  0.70515908168E+03  0.70515908169E+03  0.25500000920E-02 0.  1.
        2   -1    0    0  501    0  0.00000000000E+00  0.00000000000E+00 -0.22169415306E+04  0.22169415306E+04  0.25500000920E-02 0. -1.
    10030    2    1    2    0    0  0.00000000000E+00  0.00000000000E+00 -0.15117824489E+04  0.29221006123E+04  0.25006370819E+04 0.  0.
        2    1    3    3  502    0 -0.14098745775E+03 -0.11196487023E+04 -0.13849598353E+04  0.17865062063E+04  0.25500000920E-02 0. -1.
       -2    1    3    3    0  502  0.14098745775E+03  0.11196487023E+04 -0.12682261366E+03  0.11355944060E+04  0.25500000920E-02 0.  1.
</event>
<event>
 5   0  0.3713394E-06  0.2497124E+04  0.7818609E-02  0.8404011E-01
       -2   -1    0    0    0  501  0.00000000000E+00  0.00000000000E+00  0.79096232859E+03  0.79096232860E+03  0.25500000920E-02 0. -1.
        2   -1    0    0  501    0  0.00000000000E+00  0.00000000000E+00 -0.19708990652E+04  0.19708990652E+04  0.25500000920E-02 0.  1.
    10030    2    1    2    0    0  0.00000000000E+00  0.00000000000E+00 -0.11799367366E+04  0.27618613938E+04  0.24971238768E+04 0.  0.
        3    1    3    3  502    0  0.45803299547E+02  0.70672332567E+03  0.54732211054E+03  0.89505156510E+03  0.10100000352E+00 0. -1.
       -3    1    3    3    0  502 -0.45803299547E+02 -0.70672332567E+03 -0.17272588472E+04  0.18668098287E+04  0.10100000352E+00 0.  1.
</event>
<event>
 5   0  0.3814260E-06  0.2501240E+04  0.7818609E-02  0.8402544E-01
        2   -1    0    0  501    0  0.00000000000E+00  0.00000000000E+00  0.12126735243E+04  0.12126735243E+04  0.25500000920E-02 0. -1.
       -2   -1    0    0    0  501  0.00000000000E+00  0.00000000000E+00 -0.12897538085E+04  0.12897538085E+04  0.25500000920E-02 0.  1.
    10030    2    1    2    0    0  0.00000000000E+00  0.00000000000E+00 -0.77080284249E+02  0.25024273328E+04  0.25012399297E+04 0.  0.
        5    1    3    3  502    0  0.20547192545E+03  0.67569197658E+02  0.11938091547E+04  0.12132545885E+04  0.46999998093E+01 0. -1.
       -5    1    3    3    0  502 -0.20547192545E+03 -0.67569197658E+02 -0.12708894390E+04  0.12891727443E+04  0.46999998093E+01 0.  1.
</event>
<event>
 5   0  0.1519145E-06  0.2498311E+04  0.7818609E-02  0.8403587E-01
        1   -1    0    0  501    0  0.00000000000E+00  0.00000000000E+00  0.14673527116E+04  0.14673527117E+04  0.50400001928E-02 0. -1.
       -1   -1    0    0    0  501  0.00000000000E+00  0.00000000000E+00 -0.10634045963E+04  0.10634045963E+04  0.50400001928E-02 0.  1.
    10030    2    1    2    0    0  0.00000000000E+00  0.00000000000E+00  0.40394811537E+03  0.25307573079E+04  0.24983111239E+04 0.  0.
        4    1    3    3  502    0  0.97166138784E+03  0.36901061680E+03  0.90386042662E+03  0.13774106039E+04  0.12699999809E+01 0. -1.
       -4    1    3    3    0  502 -0.97166138784E+03 -0.36901061680E+03 -0.49991231125E+03  0.11533467041E+04  0.12699999809E+01 0.  1.
</event>
<event>
 5   0  0.1553604E-06  0.2493984E+04  0.7818609E-02  0.8405132E-01
        1   -1    0    0  501    0  0.00000000000E+00  0.00000000000E+00  0.15884132921E+04  0.15884132921E+04  0.50400001928E-02 0. -1.
       -1   -1    0    0    0  501  0.00000000000E+00  0.00000000000E+00 -0.97895744325E+03  0.97895744327E+03  0.50400001928E-02 0.  1.
    10030    2    1    2    0    0  0.00000000000E+00  0.00000000000E+00  0.60945584885E+03  0.25673707354E+04  0.24939839737E+04 0.  0.
        1    1    3    3  502    0  0.39940447045E+02 -0.40714545004E+03 -0.90791014566E+03  0.99582302114E+03  0.50400001928E-02 0.  1.
       -1    1    3    3    0  502 -0.39940447045E+02  0.40714545004E+03  0.15173659945E+04  0.15715477142E+04  0.50400001928E-02 0. -1.
</event>
<event>
 5   0  0.1574896E-06  0.2518375E+04  0.7818609E-02  0.8396468E-01
       -1   -1    0    0    0  501  0.00000000000E+00  0.00000000000E+00  0.95339984301E+03  0.95339984302E+03  0.50400001928E-02 0. -1.
        1   -1    0    0  501    0  0.00000000000E+00  0.00000000000E+00 -0.16630518548E+04  0.16630518548E+04  0.50400001928E-02 0.  1.
    10030    2    1    2    0    0  0.00000000000E+00  0.00000000000E+00 -0.70965201183E+03  0.26164516979E+04  0.25183751725E+04 0.  0.
        3    1    3    3  502    0  0.36904839974E+03 -0.59485235773E+03  0.73260054847E+03  0.10132865452E+04  0.10100000352E+00 0. -1.
       -3    1    3    3    0  502 -0.36904839974E+03  0.59485235773E+03 -0.14422525603E+04  0.16031651527E+04  0.10100000352E+00 0.  1.
</event>
<event>
 5   0  0.3713394E-06  0.2491189E+04  0.7818609E-02  0.8406131E-01
       -2   -1    0    0    0  501  0.00000000000E+00  0.00000000000E+00  0.99132360624E+03  0.99132360625E+03  0.25500000920E-02 0. -1.
        2   -1    0    0  501    0  0.00000000000E+00  0.00000000000E+00 -0.15650849505E+04  0.15650849505E+04  0.25500000920E-02 0.  1.
    10030    2    1    2    0    0  0.00000000000E+00  0.00000000000E+00 -0.57376134426E+03  0.25564085568E+04  0.24911889990E+04 0.  0.
        3    1    3    3  502    0 -0.29687952584E+02 -0.49539509865E+02 -0.15637102196E+04  0.15647764054E+04  0.10100000352E+00 0.  1.
       -3    1    3    3    0  502  0.29687952584E+02  0.49539509865E+02  0.98994887539E+03  0.99163215138E+03  0.10100000352E+00 0. -1.
</event>
<event>
 5   0  0.3924441E-06  0.2485860E+04  0.7818609E-02  0.8408040E-01
       -2   -1    0    0    0  501  0.00000000000E+00  0.00000000000E+00  0.13929498591E+04  0.13929498591E+04  0.25500000920E-02 0.  1.
        2   -1    0    0  501    0  0.00000000000E+00  0.00000000000E+00 -0.11090672246E+04  0.11090672246E+04  0.25500000920E-02 0. -1.
    10030    2    1    2    0    0  0.00000000000E+00  0.00000000000E+00  0.28388263458E+03  0.25020170837E+04  0.24858600397E+04 0.  0.
        2    1    3    3  502    0 -0.11254711632E+04 -0.87426010134E+02  0.66546275162E+03  0.13104080739E+04  0.25500000920E-02 0.  1.
       -2    1    3    3    0  502  0.11254711632E+04  0.87426010134E+02 -0.38158011704E+03  0.11916090098E+04  0.25500000920E-02 0. -1.
</event>
<event>
 5   0  0.1501747E-06  0.2505278E+04  0.7818609E-02  0.8401108E-01
       -1   -1    0    0    0  501  0.00000000000E+00  0.00000000000E+00  0.88602457853E+03  0.88602457855E+03  0.50400001928E-02 0. -1.
        1   -1    0    0  501    0  0.00000000000E+00  0.00000000000E+00 -0.17709484395E+04  0.17709484395E+04  0.50400001928E-02 0.  1.
    10030    2    1    2    0    0  0.00000000000E+00  0.00000000000E+00 -0.88492386099E+03  0.26569730181E+04  0.25052775054E+04 0.  0.
        2    1    3    3  502    0  0.59879627804E+02  0.30950441131E+03 -0.17281907818E+04  0.17567076959E+04  0.25500000920E-02 0.  1.
       -2    1    3    3    0  502 -0.59879627804E+02 -0.30950441131E+03  0.84326692086E+03  0.90026532215E+03  0.25500000920E-02 0. -1.
</event>
<event>
 5   0  0.1501747E-06  0.2498599E+04  0.7818609E-02  0.8403485E-01
       -1   -1    0    0    0  501  0.00000000000E+00  0.00000000000E+00  0.77286809294E+03  0.77286809296E+03  0.50400001928E-02 0. -1.
        1   -1    0    0  501    0  0.00000000000E+00  0.00000000000E+00 -0.20194252185E+04  0.20194252185E+04  0.50400001928E-02 0.  1.
    10030    2    1    2    0    0  0.00000000000E+00  0.00000000000E+00 -0.12465571256E+04  0.27922933115E+04  0.24985990615E+04 0.  0.
        2    1    3    3  502    0  0.56772289712E+03  0.66956953035E+02  0.61812915380E+03  0.84194784415E+03  0.25500000920E-02 0. -1.
       -2    1    3    3    0  502 -0.56772289712E+03 -0.66956953035E+02 -0.18646862794E+04  0.19503454673E+04  0.25500000920E-02 0.  1.
</event>
<event>
 5   0  0.3808293E-06  0.2490599E+04  0.7818609E-02  0.8406342E-01
       -2   -1    0    0    0  501  0.00000000000E+00  0.00000000000E+00  0.10856273671E+04  0.10856273671E+04  0.25500000920E-02 0.  1.
        2   -1    0    0  501    0  0.00000000000E+00  0.00000000000E+00 -0.14284559152E+04  0.14284559152E+04  0.25500000920E-02 0. -1.
    10030    2    1    2    0    0  0.00000000000E+00  0.00000000000E+00 -0.34282854811E+03  0.25140832823E+04  0.24905989916E+04 0.  0.
        1    1    3    3  502    0 -0.11427599756E+03  0.67235591984E+03 -0.12231839374E+04  0.14004643627E+04  0.50400001928E-02 0. -1.
       -1    1    3    3    0  502  0.11427599756E+03 -0.67235591984E+03  0.88035538926E+03  0.11136189196E+04  0.50400001928E-02 0.  1.
</event>
<event>
 5   0  0.1574896E-06  0.2499435E+04  0.7818609E-02  0.8403187E-01
        1   -1    0    0  501    0  0.00000000000E+00  0.00000000000E+00  0.13911726015E+04  0.13911726016E+04  0.50400001928E-02 0.  1.
       -1   -1    0    0    0  501  0.00000000000E+00  0.00000000000E+00 -0.11226454479E+04  0.11226454479E+04  0.50400001928E-02 0. -1.
    10030    2    1    2    0    0  0.00000000000E+00  0.00000000000E+00  0.26852715363E+03  0.25138180495E+04  0.24994348068E+04 0.  0.
        3    1    3    3  502    0  0.80152502976E+03  0.88563948506E+03  0.50379307375E+03  0.12963823287E+04  0.10100000352E+00 0.  1.
       -3    1    3    3    0  502 -0.80152502976E+03 -0.88563948506E+03 -0.23526592012E+03  0.12174357208E+04  0.10100000352E+00 0. -1.
</event>
<event>
 5   0  0.3808293E-06  0.2499645E+04  0.7818609E-02  0.8403112E-01
        2   -1    0    0  501    0  0.00000000000E+00  0.00000000000E+00  0.18172267417E+04  0.18172267418E+04  0.25500000920E-02 0. -1.
       -2   -1    0    0    0  501  0.00000000000E+00  0.00000000000E+00 -0.85958242298E+03  0.85958242298E+03  0.25500000920E-02 0.  1.
    10030    2    1    2    0    0  0.00000000000E+00  0.00000000000E+00  0.95764431877E+03  0.26768091647E+04  0.24996449074E+04 0.  0.
        1    1    3    3  502    0 -0.96925534697E+03  0.52596255278E+03  0.11086970784E+04  0.15637460619E+04  0.50400001928E-02 0. -1.
       -1    1    3    3    0  502  0.96925534697E+03 -0.52596255278E+03 -0.15105275964E+03  0.11130631028E+04  0.50400001928E-02 0.  1.
</event>
<event>
 5   0  0.1501747E-06  0.2500224E+04  0.7818609E-02  0.8402906E-01
        1   -1    0    0  501    0  0.00000000000E+00  0.00000000000E+00  0.24089335665E+04  0.24089335665E+04  0.50400001928E-02 0. -1.
       -1   -1    0    0    0  501  0.00000000000E+00  0.00000000000E+00 -0.64874371095E+03  0.64874371097E+03  0.50400001928E-02 0.  1.
    10030    2    1    2    0    0  0.00000000000E+00  0.00000000000E+00  0.17601898556E+04  0.30576772775E+04  0.25002243911E+04 0.  0.
        2    1    3    3  502    0 -0.10641704335E+04 -0.22338136256E+03  0.16343978466E+04  0.19630624712E+04  0.25500000920E-02 0. -1.
       -2    1    3    3    0  502  0.10641704335E+04  0.22338136256E+03  0.12579200902E+03  0.10946148064E+04  0.25500000920E-02 0.  1.
</event>
<event>
 5   0  0.1519145E-06  0.2499138E+04  0.7818609E-02  0.8403293E-01
        1   -1    0    0  501    0  0.00000000000E+00  0.00000000000E+00  0.94783404869E+03  0.94783404870E+03  0.50400001928E-02 0.  1.
       -1   -1    0    0    0  501  0.00000000000E+00  0.00000000000E+00 -0.16473580937E+04  0.16473580937E+04  0.50400001928E-02 0. -1.
    10030    2    1    2    0    0  0.00000000000E+00  0.00000000000E+00 -0.69952404502E+03  0.25951921424E+04  0.24991375245E+04 0.  0.
        4    1    3    3  502    0  0.22000828129E+03 -0.89197209447E+03  0.52978860054E+03  0.10605165889E+04  0.12699999809E+01 0.  1.
       -4    1    3    3    0  502 -0.22000828129E+03  0.89197209447E+03 -0.12293126456E+04  0.15346755535E+04  0.12699999809E+01 0. -1.
</event>
<event>
 5   0  0.3971759E-06  0.2497928E+04  0.7818609E-02  0.8403724E-01
        2   -1    0    0  501    0  0.00000000000E+00  0.00000000000E+00  0.11550478999E+04  0.11550478999E+04  0.25500000920E-02 0. -1.
       -2   -1    0    0    0  501  0.00000000000E+00  0.00000000000E+00 -0.13505167040E+04  0.13505167040E+04  0.25500000920E-02 0.  1.
    10030    2    1    2    0    0  0.00000000000E+00  0.00000000000E+00 -0.19546880418E+03  0.25055646039E+04  0.24979283278E+04 0.  0.
        4    1    3    3  502    0  0.12329887266E+04  0.19083635824E+03 -0.40726209796E+02  0.12483348720E+04  0.12699999809E+01 0. -1.
       -4    1    3    3    0  502 -0.12329887266E+04 -0.19083635824E+03 -0.15474259438E+03  0.12572297320E+04  0.12699999809E+01 0.  1.
</event>
<event>
 5   0  0.3924441E-06  0.2501777E+04  0.7818609E-02  0.8402353E-01
        2   -1    0    0  501    0  0.00000000000E+00  0.00000000000E+00  0.11843786787E+04  0.11843786787E+04  0.25500000920E-02 0.  1.
       -2   -1    0    0    0  501  0.00000000000E+00  0.00000000000E+00 -0.13211332560E+04  0.13211332560E+04  0.25500000920E-02 0. -1.
    10030    2    1    2    0    0  0.00000000000E+00  0.00000000000E+00 -0.13675457733E+03  0.25055119347E+04  0.25017770165E+04 0.  0.
        2    1    3    3  502    0 -0.31845071642E+03 -0.30538297755E+02 -0.12794711169E+04  0.13188592743E+04  0.25500000920E-02 0. -1.
       -2    1    3    3    0  502  0.31845071642E+03  0.30538297755E+02  0.11427165396E+04  0.11866526603E+04  0.25500000920E-02 0.  1.
</event>
<event>
 5   0  0.1541852E-06  0.2464914E+04  0.7818609E-02  0.8415593E-01
        1   -1    0    0  501    0  0.00000000000E+00  0.00000000000E+00  0.98679894602E+03  0.98679894604E+03  0.50400001928E-02 0.  1.
       -1   -1    0    0    0  501  0.00000000000E+00  0.00000000000E+00 -0.15392707018E+04  0.15392707018E+04  0.50400001928E-02 0. -1.
    10030    2    1    2    0    0  0.00000000000E+00  0.00000000000E+00 -0.55247175575E+03  0.25260696478E+04  0.24649143646E+04 0.  0.
        5    1    3    3  502    0 -0.49915086006E+03  0.91805645110E+03 -0.94586091335E+03  0.14094872067E+04  0.46999998093E+01 0. -1.
       -5    1    3    3    0  502  0.49915086006E+03 -0.91805645110E+03  0.39338915759E+03  0.11165824411E+04  0.46999998093E+01 0.  1.
</event>
<event>
 5   0  0.3814260E-06  0.2485940E+04  0.7818609E-02  0.8408012E-01
       -2   -1    0    0    0  501  0.00000000000E+00  0.00000000000E+00  0.87972615333E+03  0.87972615334E+03  0.25500000920E-02 0.  1.
        2   -1    0    0  501    0  0.00000000000E+00  0.00000000000E+00 -0.17561990611E+04  0.17561990611E+04  0.25500000920E-02 0. -1.
    10030    2    1    2    0    0  0.00000000000E+00  0.00000000000E+00 -0.87647290774E+03  0.26359252144E+04  0.24859398581E+04 0.  0.
        5    1    3    3  502    0  0.34416927162E+03 -0.11538904410E+04 -0.11135692553E+03  0.12092717198E+04  0.46999998093E+01 0.  1.
       -5    1    3    3    0  502 -0.34416927162E+03  0.11538904410E+04 -0.76511598221E+03  0.14266534946E+04  0.46999998093E+01 0. -1.
</event>
<event>
 5   0  0.3924441E-06  0.2499028E+04  0.7818609E-02  0.8403332E-01
        2   -1    0    0  501    0  0.00000000000E+00  0.00000000000E+00  0.30952215515E+04  0.30952215515E+04  0.25500000920E-02 0. -1.
       -2   -1    0    0    0  501  0.00000000000E+00  0.00000000000E+00 -0.50441792930E+03  0.50441792930E+03  0.25500000920E-02 0.  1.
    10030    2    1    2    0    0  0.00000000000E+00  0.00000000000E+00  0.25908036222E+04  0.35996394808E+04  0.24990280076E+04 0.  0.
        2    1    3    3  502    0 -0.59420756213E+03  0.66146628438E+03  0.30896396102E+02  0.88970492836E+03  0.25500000920E-02 0.  1.
       -2    1    3    3    0  502  0.59420756213E+03 -0.66146628438E+03  0.25599072261E+04  0.27099345524E+04  0.25500000920E-02 0. -1.
</event>
<event>
 5   0  0.1501747E-06  0.2507821E+04  0.7818609E-02  0.8400204E-01
       -1   -1    0    0    0  501  0.00000000000E+00  0.00000000000E+00  0.82976617933E+03  0.82976617935E+03  0.50400001928E-02 0.  1.
        1   -1    0    0  501    0  0.00000000000E+00  0.00000000000E+00 -0.18948612501E+04  0.18948612501E+04  0.50400001928E-02 0. -1.
    10030    2    1    2    0    0  0.00000000000E+00  0.00000000000E+00 -0.10650950707E+04  0.27246274294E+04  0.25078211897E+04 0.  0.
        2    1    3    3  502    0 -0.34786935005E+03  0.11385802428E+04 -0.96016507117E+03  0.15294754061E+04  0.25500000920E-02 0.  1.
       -2    1    3    3    0  502  0.34786935005E+03 -0.11385802428E+04 -0.10492999958E+03  0.11951520233E+04  0.25500000920E-02 0. -1.
</event>
<event>
 5   0  0.1574896E-06  0.2500262E+04  0.7818609E-02  0.8402892E-01
       -1   -1    0    0    0  501  0.00000000000E+00  0.00000000000E+00  0.20165231603E+04  0.20165231603E+04  0.50400001928E-02 0. -1.
        1   -1    0    0  501    0  0.00000000000E+00  0.00000000000E+00 -0.77501092193E+03  0.77501092194E+03  0.50400001928E-02 0.  1.
    10030    2    1    2    0    0  0.00000000000E+00  0.00000000000E+00  0.12415122383E+04  0.27915340822E+04  0.25002619651E+04 0.  0.
        3    1    3    3  502    0 -0.15235134865E+02 -0.12423887415E+04  0.77491988301E+03  0.14643301300E+04  0.10100000352E+00 0.  1.
       -3    1    3    3    0  502  0.15235134865E+02  0.12423887415E+04  0.46659235534E+03  0.13272039522E+04  0.10100000352E+00 0. -1.
</event>
<event>
 5   0  0.3808293E-06  0.2495116E+04  0.7818609E-02  0.8404728E-01
       -2   -1    0    0    0  501  0.00000000000E+00  0.00000000000E+00  0.79615083359E+03  0.79615083359E+03  0.25500000920E-02 0. -1.
        2   -1    0    0  501    0  0.00000000000E+00  0.00000000000E+00 -0.19549070625E+04  0.19549070625E+04  0.25500000920E-02 0.  1.
    10030    2    1    2    0    0  0.00000000000E+00  0.00000000000E+00 -0.11587562289E+04  0.27510578961E+04  0.24951159391E+04 0.  0.
        1    1    3    3  502    0 -0.68343712287E+03 -0.32717652055E+03  0.51338106740E+03  0.91525455307E+03  0.50400001928E-02 0. -1.
       -1    1    3    3    0  502  0.68343712287E+03  0.32717652055E+03 -0.16721372963E+04  0.18358033430E+04  0.50400001928E-02 0.  1.
</event>
<event>
 5   0  0.1574896E-06  0.2488538E+04  0.7818609E-02  0.8407080E-01
       -1   -1    0    0    0  501  0.00000000000E+00  0.00000000000E+00  0.91705438125E+03  0.91705438127E+03  0.50400001928E-02 0. -1.
        1   -1    0    0  501    0  0.00000000000E+00  0.00000000000E+00 -0.16882369062E+04  0.16882369062E+04  0.50400001928E-02 0.  1.
    10030    2    1    2    0    0  0.00000000000E+00  0.00000000000E+00 -0.77118252495E+03  0.26052912875E+04  0.24885377646E+04 0.  0.
        3    1    3    3  502    0 -0.16198381301E+03 -0.12203250675E+04 -0.57511789687E+03  0.13587467136E+04  0.10100000352E+00 0. -1.
       -3    1    3    3    0  502  0.16198381301E+03  0.12203250675E+04 -0.19606462808E+03  0.12465445739E+04  0.10100000352E+00 0.  1.
</event>
<event>
 5   0  0.3924441E-06  0.2514306E+04  0.7818609E-02  0.8397906E-01
       -2   -1    0    0    0  501  0.00000000000E+00  0.00000000000E+00  0.91207820916E+03  0.91207820916E+03  0.25500000920E-02 0. -1.
        2   -1    0    0  501    0  0.00000000000E+00  0.00000000000E+00 -0.17327836691E+04  0.17327836691E+04  0.25500000920E-02 0.  1.
    10030    2    1    2    0    0  0.00000000000E+00  0.00000000000E+00 -0.82070545999E+03  0.26448618783E+04  0.25143064458E+04 0.  0.
        2    1    3    3  502    0 -0.78379657189E+02  0.10033541849E+03 -0.17259840790E+04  0.17306737439E+04  0.25500000920E-02 0.  1.
       -2    1    3    3    0  502  0.78379657189E+02 -0.10033541849E+03  0.90527861906E+03  0.91418813436E+03  0.25500000920E-02 0. -1.
</event>
<event>
 5   0  0.3713394E-06  0.2500791E+04  0.7818609E-02  0.8402704E-01
       -2   -1    0    0    0  501  0.00000000000E+00  0.00000000000E+00  0.92612909638E+03  0.92612909638E+03  0.25500000920E-02 0.  1.
        2   -1    0    0  501    0  0.00000000000E+00  0.00000000000E+00 -0.16881981423E+04  0.16881981423E+04  0.25500000920E-02 0. -1.
    10030    2    1    2    0    0  0.00000000000E+00  0.00000000000E+00 -0.76206904594E+03  0.26143272387E+04  0.25007914108E+04 0.  0.
        3    1    3    3  502    0 -0.61698999595E+03  0.13978347769E+03 -0.15085522151E+04  0.16358318592E+04  0.10100000352E+00 0. -1.
       -3    1    3    3    0  502  0.61698999595E+03 -0.13978347769E+03  0.74648316913E+03  0.97849537952E+03  0.10100000352E+00 0.  1.
</event>
<event>
 5   0  0.3808293E-06  0.2496551E+04  0.7818609E-02  0.8404215E-01
       -2   -1    0    0    0  501  0.00000000000E+00  0.00000000000E+00  0.69161807724E+03  0.69161807724E+03  0.25500000920E-02 0. -1.
        2   -1    0    0  501    0  0.00000000000E+00  0.00000000000E+00 -0.22529655234E+04  0.22529655234E+04  0.25500000920E-02 0.  1.
    10030    2    1    2    0    0  0.00000000000E+00  0.00000000000E+00 -0.15613474461E+04  0.29445836006E+04  0.24965509675E+04 0.  0.
        1    1    3    3  502    0 -0.36076418005E+03 -0.98707109837E+03  0.13806215433E+02  0.10510236717E+04  0.50400001928E-02 0. -1.
       -1    1    3    3    0  502  0.36076418005E+03  0.98707109837E+03 -0.15751536616E+04  0.18935599289E+04  0.50400001928E-02 0.  1.
</event>
<event>
 5   0  0.3814260E-06  0.2502065E+04  0.7818609E-02  0.8402250E-01
        2   -1    0    0  501    0  0.00000000000E+00  0.00000000000E+00  0.19588507622E+04  0.19588507622E+04  0.25500000920E-02 0. -1.
       -2   -1    0    0    0  501  0.00000000000E+00  0.00000000000E+00 -0.79897984762E+03  0.79897984762E+03  0.25500000920E-02 0.  1.
    10030    2    1    2    0    0  0.00000000000E+00  0.00000000000E+00  0.11598709146E+04  0.27578306099E+04  0.25020649740E+04 0.  0.
        5    1    3    3  502    0 -0.12053203674E+04  0.10427123723E+03  0.93090357600E+03  0.15265232513E+04  0.46999998093E+01 0. -1.
       -5    1    3    3    0  502  0.12053203674E+04 -0.10427123723E+03  0.22896733862E+03  0.12313073585E+04  0.46999998093E+01 0.  1.
</event>
<event>
 5   0  0.1519145E-06  0.2501097E+04  0.7818609E-02  0.8402595E-01
       -1   -1    0    0    0  501  0.00000000000E+00  0.00000000000E+00  0.13281165554E+04  0.13281165554E+04  0.50400001928E-02 0. -1.
        1   -1    0    0  501    0  0.00000000000E+00  0.00000000000E+00 -0.11775108672E+04  0.11775108672E+04  0.50400001928E-02 0.  1.
    10030    2    1    2    0    0  0.00000000000E+00  0.00000000000E+00  0.15060568817E+03  0.25056274226E+04  0.25010971008E+04 0.  0.
        4    1    3    3  502    0  0.66452271545E+03 -0.99528196888E+03  0.43885605982E+03  0.12746657958E+04  0.12699999809E+01 0. -1.
       -4    1    3    3    0  502 -0.66452271545E+03  0.99528196888E+03 -0.28825037165E+03  0.12309616268E+04  0.12699999809E+01 0.  1.
</event>
<event>
 5   0  0.1541852E-06  0.2499740E+04  0.7818609E-02  0.8403078E-01
       -1   -1    0    0    0  501  0.00000000000E+00  0.00000000000E+00  0.79989203987E+03  0.79989203988E+03  0.50400001928E-02 0. -1.
        1   -1    0    0  501    0  0.00000000000E+00  0.00000000000E+00 -0.19529827326E+04  0.19529827326E+04  0.50400001928E-02 0.  1.
    10030    2    1    2    0    0  0.00000000000E+00  0.00000000000E+00 -0.11530906928E+04  0.27528747725E+04  0.24997402600E+04 0.  0.
        5    1    3    3  502    0  0.50317213993E+03 -0.68471064832E+03  0.43286561563E+03  0.95362760316E+03  0.46999998093E+01 0. -1.
       -5    1    3    3    0  502 -0.50317213993E+03  0.68471064832E+03 -0.15859563084E+04  0.17992471694E+04  0.46999998093E+01 0.  1.
</event>
<event>
 5   0  0.3971759E-06  0.2501161E+04  0.7818609E-02  0.8402572E-01
       -2   -1    0    0    0  501  0.00000000000E+00  0.00000000000E+00  0.99942816961E+03  0.99942816962E+03  0.25500000920E-02 0. -1.
        2   -1    0    0  501    0  0.00000000000E+00  0.00000000000E+00 -0.15648462815E+04  0.15648462815E+04  0.25500000920E-02 0.  1.
    10030    2    1    2    0    0  0.00000000000E+00  0.00000000000E+00 -0.56541811192E+03  0.25642744512E+04  0.25011608944E+04 0.  0.
        4    1    3    3  502    0 -0.72970305353E+03  0.76714996446E+03 -0.96505906746E+03  0.14325942311E+04  0.12699999809E+01 0.  1.
       -4    1    3    3    0  502  0.72970305353E+03 -0.76714996446E+03  0.39964095553E+03  0.11316802201E+04  0.12699999809E+01 0. -1.
</event>
<event>
 5   0  0.1519145E-06  0.2497370E+04  0.7818609E-02  0.8403923E-01
        1   -1    0    0  501    0  0.00000000000E+00  0.00000000000E+00  0.28689287843E+04  0.28689287843E+04  0.50400001928E-02 0.  1.
       -1   -1    0    0    0  501  0.00000000000E+00  0.00000000000E+00 -0.54348296221E+03  0.54348296224E+03  0.50400001928E-02 0. -1.
    10030    2    1    2    0    0  0.00000000000E+00  0.00000000000E+00  0.23254458221E+04  0.34124117465E+04  0.24973697477E+04 0.  0.
        4    1    3    3  502    0  0.80007112110E+03  0.77254794510E+03  0.38703452054E+03  0.11775998723E+04  0.12699999809E+01 0. -1.
       -4    1    3    3    0  502 -0.80007112110E+03 -0.77254794510E+03  0.19384113016E+04  0.22348118742E+04  0.12699999809E+01 0.  1.
</event>
<event>
 5   0  0.1553604E-06  0.2499338E+04  0.7818609E-02  0.8403221E-01
       -1   -1    0    0    0  501  0.00000000000E+00  0.00000000000E+00  0.93843183747E+03  0.93843183748E+03  0.50400001928E-02 0. -1.
        1   -1    0    0  501    0  0.00000000000E+00  0.00000000000E+00 -0.16641300318E+04  0.16641300318E+04  0.50400001928E-02 0.  1.
    10030    2    1    2    0    0  0.00000000000E+00  0.00000000000E+00 -0.72569819438E+03  0.26025618693E+04  0.24993379952E+04 0.  0.
        1    1    3    3  502    0  0.40620560352E+03  0.10477738181E+04  0.20639059011E+03  0.11425541747E+04  0.50400001928E-02 0. -1.
       -1    1    3    3    0  502 -0.40620560352E+03 -0.10477738181E+04 -0.93208878448E+03  0.14600076947E+04  0.50400001928E-02 0.  1.
</event>
<event>
 5   0  0.3808293E-06  0.2469304E+04  0.7818609E-02  0.8414004E-01
        2   -1    0    0  501    0  0.00000000000E+00  0.00000000000E+00  0.13022426339E+04  0.13022426339E+04  0.25500000920E-02 0.  1.
       -2   -1    0    0    0  501  0.00000000000E+00  0.00000000000E+00 -0.11705693090E+04  0.11705693090E+04  0.25500000920E-02 0. -1.
    10030    2    1    2    0    0  0.00000000000E+00  0.00000000000E+00  0.13167332492E+03  0.24728119428E+04  0.24693037562E+04 0.  0.
        1    1    3    3  502    0 -0.99168678690E+03 -0.11227984127E+03 -0.66204935672E+03  0.11976471921E+04  0.50400001928E-02 0. -1.
       -1    1    3    3    0  502  0.99168678690E+03  0.11227984127E+03  0.79372268164E+03  0.12751647507E+04  0.50400001928E-02 0.  1.
</event>
<event>
 5   0  0.1541852E-06  0.2452179E+04  0.7818609E-02  0.8420223E-01
        1   -1    0    0  501    0  0.00000000000E+00  0.00000000000E+00  0.12166843545E+04  0.12166843545E+04  0.50400001928E-02 0.  1.
       -1   -1    0    0    0  501  0.00000000000E+00  0.00000000000E+00 -0.12355672069E+04  0.12355672069E+04  0.50400001928E-02 0. -1.
    10030    2    1    2    0    0  0.00000000000E+00  0.00000000000E+00 -0.18882852395E+02  0.24522515614E+04  0.24521788594E+04 0.  0.
        5    1    3    3  502    0  0.10478814981E+04 -0.38319349625E+02  0.62599002878E+03  0.12212328250E+04  0.46999998093E+01 0.  1.
       -5    1    3    3    0  502 -0.10478814981E+04  0.38319349625E+02 -0.64487288117E+03  0.12310187365E+04  0.46999998093E+01 0. -1.
</event>
<event>
 5   0  0.3971759E-06  0.2496922E+04  0.7818609E-02  0.8404083E-01
        2   -1    0    0  501    0  0.00000000000E+00  0.00000000000E+00  0.25423492476E+04  0.25423492476E+04  0.25500000920E-02 0.  1.
       -2   -1    0    0    0  501  0.00000000000E+00  0.00000000000E+00 -0.61307637830E+03  0.61307637830E+03  0.25500000920E-02 0. -1.
    10030    2    1    2    0    0  0.00000000000E+00  0.00000000000E+00  0.19292728693E+04  0.31554256259E+04  0.24969215199E+04 0.  0.
        4    1    3    3  502    0 -0.62094192859E+03  0.59600597674E+03  0.21074955943E+04  0.22764734340E+04  0.12699999809E+01 0.  1.
       -4    1    3    3    0  502  0.62094192859E+03 -0.59600597674E+03 -0.17822272499E+03  0.87895219187E+03  0.12699999809E+01 0. -1.
</event>
<event>
 5   0  0.3808293E-06  0.2485928E+04  0.7818609E-02  0.8408016E-01
        2   -1    0    0  501    0  0.00000000000E+00  0.00000000000E+00  0.20733913982E+04  0.20733913982E+04  0.25500000920E-02 0. -1.
       -2   -1    0    0    0  501  0.00000000000E+00  0.00000000000E+00 -0.74513673306E+03  0.74513673307E+03  0.25500000920E-02 0.  1.
    10030    2    1    2    0    0  0.00000000000E+00  0.00000000000E+00  0.13282546652E+04  0.28185281313E+04  0.24859284727E+04 0.  0.
        1    1    3    3  502    0  0.11781675010E+04  0.39247512974E+03  0.60365560711E+03  0.13807662655E+04  0.50400001928E-02 0. -1.
       -1    1    3    3    0  502 -0.11781675010E+04 -0.39247512974E+03  0.72459905805E+03  0.14377618658E+04  0.50400001928E-02 0.  1.
</event>
<event>
 5   0  0.3713394E-06  0.2503197E+04  0.7818609E-02  0.8401848E-01
       -2   -1    0    0    0  501  0.00000000000E+00  0.00000000000E+00  0.31921814871E+04  0.31921814871E+04  0.25500000920E-02 0. -1.
        2   -1    0    0  501    0  0.00000000000E+00  0.00000000000E+00 -0.49072977232E+03  0.49072977233E+03  0.25500000920E-02 0.  1.
    10030    2    1    2    0    0  0.00000000000E+00  0.00000000000E+00  0.27014517148E+04  0.36829112595E+04  0.25031967517E+04 0.  0.
        3    1    3    3  502    0  0.10427695967E+03 -0.85773764008E+03  0.18494631523E+02  0.86425089247E+03  0.10100000352E+00 0.  1.
       -3    1    3    3    0  502 -0.10427695967E+03  0.85773764008E+03  0.26829570833E+04  0.28186603670E+04  0.10100000352E+00 0. -1.
</event>
<event>
 5   0  0.3924441E-06  0.2469991E+04  0.7818609E-02  0.8413755E-01
        2   -1    0    0  501    0  0.00000000000E+00  0.00000000000E+00  0.10185524420E+04  0.10185524420E+04  0.25500000920E-02 0.  1.
       -2   -1    0    0    0  501  0.00000000000E+00  0.00000000000E+00 -0.14974322446E+04  0.14974322446E+04  0.25500000920E-02 0. -1.
    10030    2    1    2    0    0  0.00000000000E+00  0.00000000000E+00 -0.47887980257E+03  0.25159846866E+04  0.24699905016E+04 0.  0.
        2    1    3    3  502    0  0.77142249402E+03  0.98744343782E+02 -0.12166635652E+04  0.14439921539E+04  0.25500000920E-02 0. -1.
       -2    1    3    3    0  502 -0.77142249402E+03 -0.98744343782E+02  0.73778376265E+03  0.10719925327E+04  0.25500000920E-02 0.  1.
</event>
<event>
 5   0  0.3808293E-06  0.2496947E+04  0.7818609E-02  0.8404074E-01
        2   -1    0    0  501    0  0.00000000000E+00  0.00000000000E+00  0.20955630468E+04  0.20955630468E+04  0.25500000920E-02 0.  1.
       -2   -1    0    0    0  501  0.00000000000E+00  0.00000000000E+00 -0.74380321872E+03  0.74380321872E+03  0.25500000920E-02 0. -1.
    10030    2    1    2    0    0  0.00000000000E+00  0.00000000000E+00  0.13517598281E+04  0.28393662655E+04  0.24969473677E+04 0.  0.
        1    1    3    3  502    0 -0.95491054612E+03 -0.19935164301E+03  0.15618907604E+04  0.18414934092E+04  0.50400001928E-02 0.  1.
       -1    1    3    3    0  502  0.95491054612E+03  0.19935164301E+03 -0.21013093231E+03  0.99787285634E+03  0.50400001928E-02 0. -1.
</event>
<event>
 5   0  0.3814260E-06  0.2498465E+04  0.7818609E-02  0.8403533E-01
       -2   -1    0    0    0  501  0.00000000000E+00  0.00000000000E+00  0.77518965136E+03  0.77518965137E+03  0.25500000920E-02 0. -1.
        2   -1    0    0  501    0  0.00000000000E+00  0.00000000000E+00 -0.20131616729E+04  0.20131616729E+04  0.25500000920E-02 0.  1.
    10030    2    1    2    0    0  0.00000000000E+00  0.00000000000E+00 -0.12379720216E+04  0.27883513243E+04  0.24984652052E+04 0.  0.
        5    1    3    3  502    0 -0.80114696156E+03 -0.73055090768E+03  0.73506728669E+02  0.10867227852E+04  0.46999998093E+01 0. -1.
       -5    1    3    3    0  502  0.80114696156E+03  0.73055090768E+03 -0.13114787502E+04  0.17016285391E+04  0.46999998093E+01 0.  1.
</event>
<event>
 5   0  0.3924441E-06  0.2500263E+04  0.7818609E-02  0.8402892E-01
       -2   -1    0    0    0  501  0.00000000000E+00  0.00000000000E+00  0.16340701626E+04  0.16340701626E+04  0.25500000920E-02 0.  1.
        2   -1    0    0  501    0  0.00000000000E+00  0.00000000000E+00 -0.95640249001E+03  0.95640249002E+03  0.25500000920E-02 0. -1.
    10030    2    1    2    0    0  0.00000000000E+00  0.00000000000E+00  0.67766767255E+03  0.25904726526E+04  0.25002630040E+04 0.  0.
        2    1    3    3  502    0 -0.10338945569E+04 -0.35158039271E+03  0.96929689379E+03  0.14601654686E+04  0.25500000920E-02 0.  1.
       -2    1    3    3    0  502  0.10338945569E+04  0.35158039271E+03 -0.29162922124E+03  0.11303071840E+04  0.25500000920E-02 0. -1.
</event>
<event>
 5   0  0.1574896E-06  0.2500928E+04  0.7818609E-02  0.8402655E-01
       -1   -1    0    0    0  501  0.00000000000E+00  0.00000000000E+00  0.11315813321E+04  0.11315813321E+04  0.50400001928E-02 0.  1.
        1   -1    0    0  501    0  0.00000000000E+00  0.00000000000E+00 -0.13818367016E+04  0.13818367016E+04  0.50400001928E-02 0. -1.
    10030    2    1    2    0    0  0.00000000000E+00  0.00000000000E+00 -0.25025536952E+03  0.25134180338E+04  0.25009283201E+04 0.  0.
        3    1    3    3  502    0  0.10408823318E+02 -0.10463226277E+04  0.56295292663E+03  0.11881983810E+04  0.10100000352E+00 0.  1.
       -3    1    3    3    0  502 -0.10408823318E+02  0.10463226277E+04 -0.81320829615E+03  0.13252196527E+04  0.10100000352E+00 0. -1.
</event>
<event>
 5   0  0.1553604E-06  0.2495639E+04  0.7818609E-02  0.8404541E-01
       -1   -1    0    0    0  501  0.00000000000E+00  0.00000000000E+00  0.82232965981E+03  0.82232965982E+03  0.50400001928E-02 0.  1.
        1   -1    0    0  501    0  0.00000000000E+00  0.00000000000E+00 -0.18934667519E+04  0.18934667519E+04  0.50400001928E-02 0. -1.
    10030    2    1    2    0    0  0.00000000000E+00  0.00000000000E+00 -0.10711370921E+04  0.27157964117E+04  0.24956392928E+04 0.  0.
        1    1    3    3  502    0  0.39375998313E+03 -0.11402251887E+04 -0.18820154400E+03  0.12208932084E+04  0.50400001928E-02 0.  1.
       -1    1    3    3    0  502 -0.39375998313E+03  0.11402251887E+04 -0.88293554810E+03  0.14949032033E+04  0.50400001928E-02 0. -1.
</event>
<event>
 5   0  0.3971759E-06  0.2499268E+04  0.7818609E-02  0.8403246E-01
       -2   -1    0    0    0  501  0.00000000000E+00  0.00000000000E+00  0.73462901935E+03  0.73462901935E+03  0.25500000920E-02 0.  1.
        2   -1    0    0  501    0  0.00000000000E+00  0.00000000000E+00 -0.21256786784E+04  0.21256786784E+04  0.25500000920E-02 0. -1.
    10030    2    1    2    0    0  0.00000000000E+00  0.00000000000E+00 -0.13910496591E+04  0.28603076978E+04  0.24992680872E+04 0.  0.
        4    1    3    3  502    0  0.78957054901E+03  0.12748879769E+02 -0.18039367854E+04  0.19692063692E+04  0.12699999809E+01 0. -1.
       -4    1    3    3    0  502 -0.78957054901E+03 -0.12748879769E+02  0.41288712634E+03  0.89110132858E+03  0.12699999809E+01 0.  1.
</event>
<event>
 5   0  0.3814260E-06  0.2499705E+04  0.7818609E-02  0.8403090E-01
        2   -1    0    0  501    0  0.00000000000E+00  0.00000000000E+00  0.94145067296E+03  0.94145067297E+03  0.25500000920E-02 0.  1.
       -2   -1    0    0    0  501  0.00000000000E+00  0.00000000000E+00 -0.16592816373E+04  0.16592816373E+04  0.25500000920E-02 0. -1.
    10030    2    1    2    0    0  0.00000000000E+00  0.00000000000E+00 -0.71783096437E+03  0.26007323103E+04  0.24997054339E+04 0.  0.
        5    1    3    3  502    0 -0.80252242095E+03  0.13829116628E+03  0.62752958709E+03  0.10280963746E+04  0.46999998093E+01 0.  1.
       -5    1    3    3    0  502  0.80252242095E+03 -0.13829116628E+03 -0.13453605515E+04  0.15726359357E+04  0.46999998093E+01 0. -1.
</event>
<event>
 5   0  0.3814260E-06  0.2500551E+04  0.7818609E-02  0.8402789E-01
       -2   -1    0    0    0  501  0.00000000000E+00  0.00000000000E+00  0.11434064667E+04  0.11434064667E+04  0.25500000920E-02 0.  1.
        2   -1    0    0  501    0  0.00000000000E+00  0.00000000000E+00 -0.13671334289E+04  0.13671334289E+04  0.25500000920E-02 0. -1.
    10030    2    1    2    0    0  0.00000000000E+00  0.00000000000E+00 -0.22372696219E+03  0.25105398957E+04  0.25005513020E+04 0.  0.
        5    1    3    3  502    0 -0.20190309159E+03 -0.10878967272E+04 -0.69632541125E+03  0.13073543192E+04  0.46999998093E+01 0. -1.
       -5    1    3    3    0  502  0.20190309159E+03  0.10878967272E+04  0.47259844906E+03  0.12031855765E+04  0.46999998093E+01 0.  1.
</event>
<event>
 5   0  0.1519145E-06  0.2510518E+04  0.7818609E-02  0.8399248E-01
       -1   -1    0    0    0  501  0.00000000000E+00  0.00000000000E+00  0.66042022338E+03  0.66042022340E+03  0.50400001928E-02 0.  1.
        1   -1    0    0  501    0  0.00000000000E+00  0.00000000000E+00 -0.23858682268E+04  0.23858682269E+04  0.50400001928E-02 0. -1.
    10030    2    1    2    0    0  0.00000000000E+00  0.00000000000E+00 -0.17254480035E+04  0.30462884502E+04  0.25105183746E+04 0.  0.
        4    1    3    3  502    0  0.13108781183E+03 -0.65323825218E+03  0.42815836187E+03  0.79197564625E+03  0.12699999809E+01 0.  1.
       -4    1    3    3    0  502 -0.13108781183E+03  0.65323825218E+03 -0.21536063653E+04  0.22543128040E+04  0.12699999809E+01 0. -1.
</event>
<event>
 5   0  0.1541852E-06  0.2452559E+04  0.7818609E-02  0.8420084E-01
        1   -1    0    0  501    0  0.00000000000E+00  0.00000000000E+00  0.16796103357E+04  0.16796103357E+04  0.50400001928E-02 0.  1.
       -1   -1    0    0    0  501  0.00000000000E+00  0.00000000000E+00 -0.89530406156E+03  0.89530406157E+03  0.50400001928E-02 0. -1.
    10030    2    1    2    0    0  0.00000000000E+00  0.00000000000E+00  0.78430627418E+03  0.25749143973E+04  0.24525594431E+04 0.  0.
        5    1    3    3  502    0 -0.59162412671E+03 -0.59703779532E+03 -0.54529024282E+03  0.10019165510E+04  0.46999998093E+01 0. -1.
       -5    1    3    3    0  502  0.59162412671E+03  0.59703779532E+03  0.13295965170E+04  0.15729978463E+04  0.46999998093E+01 0.  1.
</event>
<event>
 5   0  0.3808293E-06  0.2499698E+04  0.7818609E-02  0.8403093E-01
        2   -1    0    0  501    0  0.00000000000E+00  0.00000000000E+00  0.23719210559E+04  0.23719210559E+04  0.25500000920E-02 0.  1.
       -2   -1    0    0    0  501  0.00000000000E+00  0.00000000000E+00 -0.65858934727E+03  0.65858934728E+03  0.25500000920E-02 0. -1.
    10030    2    1    2    0    0  0.00000000000E+00  0.00000000000E+00  0.17133317086E+04  0.30305104032E+04  0.24996975337E+04 0.  0.
        1    1    3    3  502    0 -0.28458156228E+03  0.80419728152E+03 -0.25076338882E+03  0.88915814701E+03  0.50400001928E-02 0. -1.
       -1    1    3    3    0  502  0.28458156228E+03 -0.80419728152E+03  0.19640950974E+04  0.21413522562E+04  0.50400001928E-02 0.  1.
</event>
<event>
 5   0  0.3971759E-06  0.2507845E+04  0.7818609E-02  0.8400196E-01
       -2   -1    0    0    0  501  0.00000000000E+00  0.00000000000E+00  0.94469201591E+03  0.94469201592E+03  0.25500000920E-02 0.  1.
        2   -1    0    0  501    0  0.00000000000E+00  0.00000000000E+00 -0.16643745036E+04  0.16643745036E+04  0.25500000920E-02 0. -1.
    10030    2    1    2    0    0  0.00000000000E+00  0.00000000000E+00 -0.71968248769E+03  0.26090665195E+04  0.25078447361E+04 0.  0.
        4    1    3    3  502    0 -0.53559574100E+03  0.89902731663E+03 -0.10785249661E+04  0.15027743108E+04  0.12699999809E+01 0. -1.
       -4    1    3    3    0  502  0.53559574100E+03 -0.89902731663E+03  0.35884247842E+03  0.11062922087E+04  0.12699999809E+01 0.  1.
</event>
<event>
 5   0  0.3924441E-06  0.2505474E+04  0.7818609E-02  0.8401038E-01
        2   -1    0    0  501    0  0.00000000000E+00  0.00000000000E+00  0.14805888723E+04  0.14805888723E+04  0.25500000920E-02 0. -1.
       -2   -1    0    0    0  501  0.00000000000E+00  0.00000000000E+00 -0.10599501431E+04  0.10599501431E+04  0.25500000920E-02 0.  1.
    10030    2    1    2    0    0  0.00000000000E+00  0.00000000000E+00  0.42063872913E+03  0.25405390154E+04  0.25054743161E+04 0.  0.
        2    1    3    3  502    0  0.11321943948E+04 -0.52670589282E+03  0.10858000226E+03  0.12534244540E+04  0.25500000920E-02 0.  1.
       -2    1    3    3    0  502 -0.11321943948E+04  0.52670589282E+03  0.31205872687E+03  0.12871145614E+04  0.25500000920E-02 0. -1.
</event>
<event>
 5   0  0.3924441E-06  0.2505532E+04  0.7818609E-02  0.8401017E-01
        2   -1    0    0  501    0  0.00000000000E+00  0.00000000000E+00  0.16920112478E+04  0.16920112478E+04  0.25500000920E-02 0.  1.
       -2   -1    0    0    0  501  0.00000000000E+00  0.00000000000E+00 -0.92754866488E+03  0.92754866489E+03  0.25500000920E-02 0. -1.
    10030    2    1    2    0    0  0.00000000000E+00  0.00000000000E+00  0.76446258289E+03  0.26195599127E+04  0.25055320983E+04 0.  0.
        2    1    3    3  502    0 -0.98132302957E+02 -0.53777552410E+03  0.15607354911E+04  0.16537012234E+04  0.25500000920E-02 0.  1.
       -2    1    3    3    0  502  0.98132302957E+02  0.53777552410E+03 -0.79627290821E+03  0.96585868923E+03  0.25500000920E-02 0. -1.
</event>
<event>
 5   0  0.1501747E-06  0.2496893E+04  0.7818609E-02  0.8404093E-01
       -1   -1    0    0    0  501  0.00000000000E+00  0.00000000000E+00  0.95875163255E+03  0.95875163256E+03  0.50400001928E-02 0.  1.
        1   -1    0    0  501    0  0.00000000000E+00  0.00000000000E+00 -0.16256755120E+04  0.16256755120E+04  0.50400001928E-02 0. -1.
    10030    2    1    2    0    0  0.00000000000E+00  0.00000000000E+00 -0.66692387947E+03  0.25844271446E+04  0.24968933106E+04 0.  0.
        2    1    3    3  502    0 -0.64363275951E+03 -0.89751392608E+03  0.26903080700E+03  0.11367374155E+04  0.25500000920E-02 0.  1.
       -2    1    3    3    0  502  0.64363275951E+03  0.89751392608E+03 -0.93595468647E+03  0.14476897291E+04  0.25500000920E-02 0. -1.
</event>
<event>
 5   0  0.1574896E-06  0.2495646E+04  0.7818609E-02  0.8404538E-01
        1   -1    0    0  501    0  0.00000000000E+00  0.00000000000E+00  0.13366313292E+04  0.13366313292E+04  0.50400001928E-02 0. -1.
       -1   -1    0    0    0  501  0.00000000000E+00  0.00000000000E+00 -0.11649148170E+04  0.11649148170E+04  0.50400001928E-02 0.  1.
    10030    2    1    2    0    0  0.00000000000E+00  0.00000000000E+00  0.17171651220E+03  0.25015461462E+04  0.24956455199E+04 0.  0.
        3    1    3    3  502    0  0.31245994671E+03  0.39601465809E+03 -0.10581564951E+04  0.11722431514E+04  0.10100000352E+00 0.  1.
       -3    1    3    3    0  502 -0.31245994671E+03 -0.39601465809E+03  0.12298730073E+04  0.13293029948E+04  0.10100000352E+00 0. -1.
</event>
<event>
 5   0  0.3814260E-06  0.2497642E+04  0.7818609E-02  0.8403826E-01
       -2   -1    0    0    0  501  0.00000000000E+00  0.00000000000E+00  0.14325902962E+04  0.14325902962E+04  0.25500000920E-02 0.  1.
        2   -1    0    0  501    0  0.00000000000E+00  0.00000000000E+00 -0.10886251636E+04  0.10886251636E+04  0.25500000920E-02 0. -1.
    10030    2    1    2    0    0  0.00000000000E+00  0.00000000000E+00  0.34396513255E+03  0.25212154598E+04  0.24976419644E+04 0.  0.
        5    1    3    3  502    0  0.95120633839E+03 -0.80891232070E+03  0.15181615040E+03  0.12578564601E+04  0.46999998093E+01 0.  1.
       -5    1    3    3    0  502 -0.95120633839E+03  0.80891232070E+03  0.19214898215E+03  0.12633589997E+04  0.46999998093E+01 0. -1.
</event>
<event>
 5   0  0.3808293E-06  0.2501985E+04  0.7818609E-02  0.8402279E-01
        2   -1    0    0  501    0  0.00000000000E+00  0.00000000000E+00  0.30262173715E+04  0.30262173715E+04  0.25500000920E-02 0. -1.
       -2   -1    0    0    0  501  0.00000000000E+00  0.00000000000E+00 -0.51714129380E+03  0.51714129380E+03  0.25500000920E-02 0.  1.
    10030    2    1    2    0    0  0.00000000000E+00  0.00000000000E+00  0.25090760777E+04  0.35433586653E+04  0.25019847856E+04 0.  0.
        1    1    3    3  502    0  0.10284645871E+03 -0.68151565432E+01 -0.51111755325E+03  0.52140674496E+03  0.50400001928E-02 0.  1.
       -1    1    3    3    0  502 -0.10284645871E+03  0.68151565432E+01  0.30201936310E+04  0.30219519204E+04  0.50400001928E-02 0. -1.
</event>
<event>
 5   0  0.1519145E-06  0.2497962E+04  0.7818609E-02  0.8403712E-01
       -1   -1    0    0    0  501  0.00000000000E+00  0.00000000000E+00  0.12738492312E+04  0.12738492312E+04  0.50400001928E-02 0.  1.
        1   -1    0    0  501    0  0.00000000000E+00  0.00000000000E+00 -0.12245980349E+04  0.12245980349E+04  0.50400001928E-02 0. -1.
    10030    2    1    2    0    0  0.00000000000E+00  0.00000000000E+00  0.49251196297E+02  0.24984472660E+04  0.24979617813E+04 0.  0.
        4    1    3    3  502    0 -0.66337242212E+03 -0.10458867740E+04  0.18593167020E+03  0.12524034148E+04  0.12699999809E+01 0.  1.
       -4    1    3    3    0  502  0.66337242212E+03  0.10458867740E+04 -0.13668047390E+03  0.12460438513E+04  0.12699999809E+01 0. -1.
</event>
<event>
 5   0  0.1574896E-06  0.2495174E+04  0.7818609E-02  0.8404707E-01
       -1   -1    0    0    0  501  0.00000000000E+00  0.00000000000E+00  0.10097699755E+04  0.10097699755E+04  0.50400001928E-02 0.  1.
        1   -1    0    0  501    0  0.00000000000E+00  0.00000000000E+00 -0.15414131804E+04  0.15414131804E+04  0.50400001928E-02 0. -1.
    10030    2    1    2    0    0  0.00000000000E+00  0.00000000000E+00 -0.53164320492E+03  0.25511831560E+04  0.24951735407E+04 0.  0.
        3    1    3    3  502    0  0.65306408200E+03 -0.10197654004E+04 -0.57265555254E+03  0.13395329631E+04  0.10100000352E+00 0.  1.
       -3    1    3    3    0  502 -0.65306408200E+03  0.10197654004E+04  0.41012347619E+02  0.12116501929E+04  0.10100000352E+00 0. -1.
</event>
<event>
 5   0  0.3814260E-06  0.2502644E+04  0.7818609E-02  0.8402044E-01
        2   -1    0    0  501    0  0.00000000000E+00  0.00000000000E+00  0.22063961702E+04  0.22063961702E+04  0.25500000920E-02 0. -1.
       -2   -1    0    0    0  501  0.00000000000E+00  0.00000000000E+00 -0.70966699786E+03  0.70966699786E+03  0.25500000920E-02 0.  1.
    10030    2    1    2    0    0  0.00000000000E+00  0.00000000000E+00  0.14967291723E+04  0.29160631680E+04  0.25026438390E+04 0.  0.
        5    1    3    3  502    0 -0.40719009539E+03 -0.88454328284E+03 -0.16730505874E+03  0.98804537633E+03  0.46999998093E+01 0.  1.
       -5    1    3    3    0  502  0.40719009539E+03  0.88454328284E+03  0.16640342311E+04  0.19280177917E+04  0.46999998093E+01 0. -1.
</event>
<event>
 5   0  0.1287375E-06  0.2495460E+04  0.7818609E-02  0.8404605E-01
        4   -1    0    0  501    0  0.00000000000E+00  0.00000000000E+00  0.17814076054E+04  0.17814080581E+04  0.12699999809E+01 0.  1.
       -4   -1    0    0    0  501  0.00000000000E+00  0.00000000000E+00 -0.87393171479E+03  0.87393263757E+03  0.12699999809E+01 0. -1.
    10030    2    1    2    0    0  0.00000000000E+00  0.00000000000E+00  0.90747589066E+03  0.26553406957E+04  0.24954602217E+04 0.  0.
        5    1    3    3  502    0  0.50567937398E+03 -0.79718167997E+03  0.13218496865E+04  0.16243518535E+04  0.46999998093E+01 0.  1.
       -5    1    3    3    0  502 -0.50567937398E+03  0.79718167997E+03 -0.41437379586E+03  0.10309888422E+04  0.46999998093E+01 0. -1.
</event>
<event>
 5   0  0.3924441E-06  0.2481820E+04  0.7818609E-02  0.8409491E-01
       -2   -1    0    0    0  501  0.00000000000E+00  0.00000000000E+00  0.90321830083E+03  0.90321830084E+03  0.25500000920E-02 0. -1.
        2   -1    0    0  501    0  0.00000000000E+00  0.00000000000E+00 -0.17048565616E+04  0.17048565616E+04  0.25500000920E-02 0.  1.
    10030    2    1    2    0    0  0.00000000000E+00  0.00000000000E+00 -0.80163826078E+03  0.26080748625E+04  0.24818200150E+04 0.  0.
        2    1    3    3  502    0  0.23542588948E+03  0.77600021160E+03  0.58624887095E+03  0.10006445006E+04  0.25500000920E-02 0. -1.
       -2    1    3    3    0  502 -0.23542588948E+03 -0.77600021160E+03 -0.13878871317E+04  0.16074303619E+04  0.25500000920E-02 0.  1.
</event>
<event>
 5   0  0.3971759E-06  0.2549611E+04  0.7818609E-02  0.8385521E-01
        2   -1    0    0  501    0  0.00000000000E+00  0.00000000000E+00  0.15060146494E+04  0.15060146494E+04  0.25500000920E-02 0.  1.
       -2   -1    0    0    0  501  0.00000000000E+00  0.00000000000E+00 -0.10790927745E+04  0.10790927745E+04  0.25500000920E-02 0. -1.
    10030    2    1    2    0    0  0.00000000000E+00  0.00000000000E+00  0.42692187489E+03  0.25851074239E+04  0.25496113637E+04 0.  0.
        4    1    3    3  502    0 -0.95915436255E+03 -0.36395045745E+03 -0.55383826170E+03  0.11658368066E+04  0.12699999809E+01 0. -1.
       -4    1    3    3    0  502  0.95915436255E+03  0.36395045745E+03  0.98076013659E+03  0.14192706173E+04  0.12699999809E+01 0.  1.
</event>
<event>
 5   0  0.1553604E-06  0.2502387E+04  0.7818609E-02  0.8402135E-01
       -1   -1    0    0    0  501  0.00000000000E+00  0.00000000000E+00  0.10458749403E+04  0.10458749403E+04  0.50400001928E-02 0.  1.
        1   -1    0    0  501    0  0.00000000000E+00  0.00000000000E+00 -0.14968192627E+04  0.14968192627E+04  0.50400001928E-02 0. -1.
    10030    2    1    2    0    0  0.00000000000E+00  0.00000000000E+00 -0.45094432236E+03  0.25426942030E+04  0.25023874656E+04 0.  0.
        1    1    3    3  502    0  0.66289736058E+03 -0.14426634790E+03  0.84276550504E+03  0.10818961994E+04  0.50400001928E-02 0.  1.
       -1    1    3    3    0  502 -0.66289736058E+03  0.14426634790E+03 -0.12937098274E+04  0.14607980036E+04  0.50400001928E-02 0. -1.
</event>
<event>
 5   0  0.1553604E-06  0.2493569E+04  0.7818609E-02  0.8405280E-01
       -1   -1    0    0    0  501  0.00000000000E+00  0.00000000000E+00  0.14038118027E+04  0.14038118027E+04  0.50400001928E-02 0. -1.
        1   -1    0    0  501    0  0.00000000000E+00  0.00000000000E+00 -0.11073223243E+04  0.11073223243E+04  0.50400001928E-02 0.  1.
    10030    2    1    2    0    0  0.00000000000E+00  0.00000000000E+00  0.29648947834E+03  0.25111341270E+04  0.24935694482E+04 0.  0.
        1    1    3    3  502    0 -0.88884469985E+03 -0.87362465166E+03  0.18323449373E+03  0.12596983020E+04  0.50400001928E-02 0. -1.
       -1    1    3    3    0  502  0.88884469985E+03  0.87362465166E+03  0.11325498460E+03  0.12514358250E+04  0.50400001928E-02 0.  1.
</event>
<event>
 5   0  0.1541852E-06  0.2498667E+04  0.7818609E-02  0.8403461E-01
       -1   -1    0    0    0  501  0.00000000000E+00  0.00000000000E+00  0.13942100710E+04  0.13942100710E+04  0.50400001928E-02 0. -1.
        1   -1    0    0  501    0  0.00000000000E+00  0.00000000000E+00 -0.11195113960E+04  0.11195113960E+04  0.50400001928E-02 0.  1.
    10030    2    1    2    0    0  0.00000000000E+00  0.00000000000E+00  0.27469867500E+03  0.25137214671E+04  0.24986668950E+04 0.  0.
        5    1    3    3  502    0 -0.19835279334E+03 -0.34019895785E+03  0.13301288807E+04  0.13872072991E+04  0.46999998093E+01 0. -1.
       -5    1    3    3    0  502  0.19835279334E+03  0.34019895785E+03 -0.10554302057E+04  0.11265141679E+04  0.46999998093E+01 0.  1.
</event>
<event>
 5   0  0.3808293E-06  0.2499774E+04  0.7818609E-02  0.8403066E-01
       -2   -1    0    0    0  501  0.00000000000E+00  0.00000000000E+00  0.89926309588E+03  0.89926309588E+03  0.25500000920E-02 0. -1.
        2   -1    0    0  501    0  0.00000000000E+00  0.00000000000E+00 -0.17372199331E+04  0.17372199332E+04  0.25500000920E-02 0.  1.
    10030    2    1    2    0    0  0.00000000000E+00  0.00000000000E+00 -0.83795683727E+03  0.26364830290E+04  0.24997742101E+04 0.  0.
        1    1    3    3  502    0 -0.72117761202E+03  0.10167633465E+04 -0.32281694413E+03  0.12876783877E+04  0.50400001928E-02 0.  1.
       -1    1    3    3    0  502  0.72117761202E+03 -0.10167633465E+04 -0.51513989314E+03  0.13488046413E+04  0.50400001928E-02 0. -1.
</event>
<event>
 5   0  0.3971759E-06  0.2497958E+04  0.7818609E-02  0.8403713E-01
        2   -1    0    0  501    0  0.00000000000E+00  0.00000000000E+00  0.13443397090E+04  0.13443397090E+04  0.25500000920E-02 0. -1.
       -2   -1    0    0    0  501  0.00000000000E+00  0.00000000000E+00 -0.11603825018E+04  0.11603825018E+04  0.25500000920E-02 0.  1.
    10030    2    1    2    0    0  0.00000000000E+00  0.00000000000E+00  0.18395720717E+03  0.25047222108E+04  0.24979577857E+04 0.  0.
        4    1    3    3  502    0 -0.67487971853E+03  0.84983985535E+02  0.11423178471E+04  0.13295023840E+04  0.12699999809E+01 0. -1.
       -4    1    3    3    0  502  0.67487971853E+03 -0.84983985535E+02 -0.95836063992E+03  0.11752198268E+04  0.12699999809E+01 0.  1.
</event>
<event>
 5   0  0.1519145E-06  0.2490458E+04  0.7818609E-02  0.8406393E-01
        1   -1    0    0  501    0  0.00000000000E+00  0.00000000000E+00  0.15260947428E+04  0.15260947428E+04  0.50400001928E-02 0. -1.
       -1   -1    0    0    0  501  0.00000000000E+00  0.00000000000E+00 -0.10160541676E+04  0.10160541676E+04  0.50400001928E-02 0.  1.
    10030    2    1    2    0    0  0.00000000000E+00  0.00000000000E+00  0.51004057517E+03  0.25421489104E+04  0.24904577279E+04 0.  0.
        4    1    3    3  502    0  0.88441261158E+03  0.80782469954E+03  0.60241765620E+03  0.13407740519E+04  0.12699999809E+01 0. -1.
       -4    1    3    3    0  502 -0.88441261158E+03 -0.80782469954E+03 -0.92377081030E+02  0.12013748585E+04  0.12699999809E+01 0.  1.
</event>
<event>
 5   0  0.1541852E-06  0.2494105E+04  0.7818609E-02  0.8405089E-01
        1   -1    0    0  501    0  0.00000000000E+00  0.00000000000E+00  0.14997130697E+04  0.14997130697E+04  0.50400001928E-02 0.  1.
       -1   -1    0    0    0  501  0.00000000000E+00  0.00000000000E+00 -0.10369581672E+04  0.10369581672E+04  0.50400001928E-02 0. -1.
    10030    2    1    2    0    0  0.00000000000E+00  0.00000000000E+00  0.46275490250E+03  0.25366712370E+04  0.24941048223E+04 0.  0.
        5    1    3    3  502    0 -0.10039556343E+04 -0.71174695142E+03  0.26426532584E+02  0.12309472329E+04  0.46999998093E+01 0.  1.
       -5    1    3    3    0  502  0.10039556343E+04  0.71174695142E+03  0.43632836992E+03  0.13057240041E+04  0.46999998093E+01 0. -1.
</event>
<event>
 5   0  0.3808293E-06  0.2494279E+04  0.7818609E-02  0.8405027E-01
        2   -1    0    0  501    0  0.00000000000E+00  0.00000000000E+00  0.13779730865E+04  0.13779730865E+04  0.25500000920E-02 0. -1.
       -2   -1    0    0    0  501  0.00000000000E+00  0.00000000000E+00 -0.11287279859E+04  0.11287279859E+04  0.25500000920E-02 0.  1.
    10030    2    1    2    0    0  0.00000000000E+00  0.00000000000E+00  0.24924510060E+03  0.25067010725E+04  0.24942788831E+04 0.  0.
        1    1    3    3  502    0 -0.16660484777E+03  0.72538876358E+03  0.11303114628E+04  0.13533477146E+04  0.50400001928E-02 0. -1.
       -1    1    3    3    0  502  0.16660484777E+03 -0.72538876358E+03 -0.88106636218E+03  0.11533533579E+04  0.50400001928E-02 0.  1.
</event>
<event>
 5   0  0.1574896E-06  0.2499027E+04  0.7818609E-02  0.8403332E-01
       -1   -1    0    0    0  501  0.00000000000E+00  0.00000000000E+00  0.63119832750E+03  0.63119832752E+03  0.50400001928E-02 0. -1.
        1   -1    0    0  501    0  0.00000000000E+00  0.00000000000E+00 -0.24735244714E+04  0.24735244714E+04  0.50400001928E-02 0.  1.
    10030    2    1    2    0    0  0.00000000000E+00  0.00000000000E+00 -0.18423261439E+04  0.31047227989E+04  0.24990274184E+04 0.  0.
        3    1    3    3  502    0  0.50974834523E+02 -0.10279041246E+04 -0.18014952248E+04  0.20747458587E+04  0.10100000352E+00 0.  1.
       -3    1    3    3    0  502 -0.50974834523E+02  0.10279041246E+04 -0.40830919101E+02  0.10299769402E+04  0.10100000352E+00 0. -1.
</event>
<event>
 5   0  0.3924441E-06  0.2500356E+04  0.7818609E-02  0.8402859E-01
       -2   -1    0    0    0  501  0.00000000000E+00  0.00000000000E+00  0.10671143870E+04  0.10671143870E+04  0.25500000920E-02 0. -1.
        2   -1    0    0  501    0  0.00000000000E+00  0.00000000000E+00 -0.14646459233E+04  0.14646459233E+04  0.25500000920E-02 0.  1.
    10030    2    1    2    0    0  0.00000000000E+00  0.00000000000E+00 -0.39753153628E+03  0.25317603104E+04  0.25003557640E+04 0.  0.
        2    1    3    3  502    0  0.61625295563E+03 -0.71953255558E+02  0.90022332299E+03  0.10933192615E+04  0.25500000920E-02 0. -1.
       -2    1    3    3    0  502 -0.61625295563E+03  0.71953255558E+02 -0.12977548593E+04  0.14384410489E+04  0.25500000920E-02 0.  1.
</event>
<event>
 5   0  0.3924441E-06  0.2498234E+04  0.7818609E-02  0.8403615E-01
        2   -1    0    0  501    0  0.00000000000E+00  0.00000000000E+00  0.10928215293E+04  0.10928215293E+04  0.25500000920E-02 0.  1.
       -2   -1    0    0    0  501  0.00000000000E+00  0.00000000000E+00 -0.14277663322E+04  0.14277663322E+04  0.25500000920E-02 0. -1.
    10030    2    1    2    0    0  0.00000000000E+00  0.00000000000E+00 -0.33494480291E+03  0.25205878614E+04  0.24982344058E+04 0.  0.
        2    1    3    3  502    0  0.13086509957E+03  0.41772634828E+03 -0.13478432497E+04  0.14171458648E+04  0.25500000920E-02 0. -1.
       -2    1    3    3    0  502 -0.13086509957E+03 -0.41772634828E+03  0.10128984468E+04  0.11034419966E+04  0.25500000920E-02 0.  1.
</event>
<event>
 5   0  0.3971759E-06  0.2500727E+04  0.7818609E-02  0.8402727E-01
        2   -1    0    0  501    0  0.00000000000E+00  0.00000000000E+00  0.23279343153E+04  0.23279343153E+04  0.25500000920E-02 0.  1.
       -2   -1    0    0    0  501  0.00000000000E+00  0.00000000000E+00 -0.67158625830E+03  0.67158625830E+03  0.25500000920E-02 0. -1.
    10030    2    1    2    0    0  0.00000000000E+00  0.00000000000E+00  0.16563480570E+04  0.29995205736E+04  0.25007268514E+04 0.  0.
        4    1    3    3  502    0 -0.16429321875E+03 -0.72336109933E+03 -0.37915422645E+03  0.83306847383E+03  0.12699999809E+01 0. -1.
       -4    1    3    3    0  502  0.16429321875E+03  0.72336109933E+03  0.20355022834E+04  0.21664520998E+04  0.12699999809E+01 0.  1.
</event>
<event>
 5   0  0.3814260E-06  0.2502647E+04  0.7818609E-02  0.8402043E-01
       -2   -1    0    0    0  501  0.00000000000E+00  0.00000000000E+00  0.83156184713E+03  0.83156184713E+03  0.25500000920E-02 0.  1.
        2   -1    0    0  501    0  0.00000000000E+00  0.00000000000E+00 -0.18829750002E+04  0.18829750002E+04  0.25500000920E-02 0. -1.
    10030    2    1    2    0    0  0.00000000000E+00  0.00000000000E+00 -0.10514131531E+04  0.27145368474E+04  0.25026467344E+04 0.  0.
        5    1    3    3  502    0 -0.72633794212E+03 -0.16388426953E+03 -0.16165182290E+04  0.17797691239E+04  0.46999998093E+01 0. -1.
       -5    1    3    3    0  502  0.72633794212E+03  0.16388426953E+03  0.56510507587E+03  0.93476772341E+03  0.46999998093E+01 0.  1.
</event>
<event>
 5   0  0.3808293E-06  0.2496201E+04  0.7818609E-02  0.8404340E-01
       -2   -1    0    0    0  501  0.00000000000E+00  0.00000000000E+00  0.10830988880E+04  0.10830988880E+04  0.25500000920E-02 0.  1.
        2   -1    0    0  501    0  0.00000000000E+00  0.00000000000E+00 -0.14382391958E+04  0.14382391958E+04  0.25500000920E-02 0. -1.
    10030    2    1    2    0    0  0.00000000000E+00  0.00000000000E+00 -0.35514030785E+03  0.25213380838E+04  0.24962013330E+04 0.  0.
        1    1    3    3  502    0 -0.68398741219E+03 -0.98646744168E+03 -0.52276958290E+03  0.13092917285E+04  0.50400001928E-02 0.  1.
       -1    1    3    3    0  502  0.68398741219E+03  0.98646744168E+03  0.16762927504E+03  0.12120463553E+04  0.50400001928E-02 0. -1.
</event>
<event>
 5   0  0.3814260E-06  0.2489222E+04  0.7818609E-02  0.8406835E-01
        2   -1    0    0  501    0  0.00000000000E+00  0.00000000000E+00  0.19246098367E+04  0.19246098367E+04  0.25500000920E-02 0. -1.
       -2   -1    0    0    0  501  0.00000000000E+00  0.00000000000E+00 -0.80486791506E+03  0.80486791507E+03  0.25500000920E-02 0.  1.
    10030    2    1    2    0    0  0.00000000000E+00  0.00000000000E+00  0.11197419216E+04  0.27294777518E+04  0.24892221328E+04 0.  0.
        5    1    3    3  502    0  0.36950612959E+03 -0.14609367659E+03  0.18531847128E+04  0.18953083685E+04  0.46999998093E+01 0. -1.
       -5    1    3    3    0  502 -0.36950612959E+03  0.14609367659E+03 -0.73344279111E+03  0.83416938327E+03  0.46999998093E+01 0.  1.
</event>
<event>
 5   0  0.1519145E-06  0.2532618E+04  0.7818609E-02  0.8391457E-01
       -1   -1    0    0    0  501  0.00000000000E+00  0.00000000000E+00  0.15981230414E+04  0.15981230414E+04  0.50400001928E-02 0.  1.
        1   -1    0    0  501    0  0.00000000000E+00  0.00000000000E+00 -0.10033885758E+04  0.10033885758E+04  0.50400001928E-02 0. -1.
    10030    2    1    2    0    0  0.00000000000E+00  0.00000000000E+00  0.59473446557E+03  0.26015116172E+04  0.25326179361E+04 0.  0.
        4    1    3    3  502    0 -0.62856841914E+03  0.71533857098E+03  0.11547763880E+04  0.14967690696E+04  0.12699999809E+01 0.  1.
       -4    1    3    3    0  502  0.62856841914E+03 -0.71533857098E+03 -0.56004192243E+03  0.11047425476E+04  0.12699999809E+01 0. -1.
</event>
<event>
 5   0  0.1541852E-06  0.2499520E+04  0.7818609E-02  0.8403157E-01
       -1   -1    0    0    0  501  0.00000000000E+00  0.00000000000E+00  0.87832126436E+03  0.87832126437E+03  0.50400001928E-02 0.  1.
        1   -1    0    0  501    0  0.00000000000E+00  0.00000000000E+00 -0.17782783336E+04  0.17782783336E+04  0.50400001928E-02 0. -1.
    10030    2    1    2    0    0  0.00000000000E+00  0.00000000000E+00 -0.89995706924E+03  0.26565995980E+04  0.24995196934E+04 0.  0.
        5    1    3    3  502    0 -0.66764266654E+02  0.11069782602E+04 -0.10624010810E+04  0.15357657643E+04  0.46999998093E+01 0. -1.
       -5    1    3    3    0  502  0.66764266654E+02 -0.11069782602E+04  0.16244401175E+03  0.11208338337E+04  0.46999998093E+01 0.  1.
</event>
<event>
 5   0  0.3971759E-06  0.2495097E+04  0.7818609E-02  0.8404734E-01
       -2   -1    0    0    0  501  0.00000000000E+00  0.00000000000E+00  0.98425334065E+03  0.98425334065E+03  0.25500000920E-02 0. -1.
        2   -1    0    0  501    0  0.00000000000E+00  0.00000000000E+00 -0.15812764990E+04  0.15812764990E+04  0.25500000920E-02 0.  1.
    10030    2    1    2    0    0  0.00000000000E+00  0.00000000000E+00 -0.59702315831E+03  0.25655298396E+04  0.24950965325E+04 0.  0.
        4    1    3    3  502    0 -0.74127695975E+03 -0.95049809429E+03  0.32183305506E+02  0.12058090796E+04  0.12699999809E+01 0. -1.
       -4    1    3    3    0  502  0.74127695975E+03  0.95049809429E+03 -0.62920646382E+03  0.13597207601E+04  0.12699999809E+01 0.  1.
</event>
<event>
 5   0  0.3924441E-06  0.2497057E+04  0.7818609E-02  0.8404035E-01
       -2   -1    0    0    0  501  0.00000000000E+00  0.00000000000E+00  0.13239206659E+04  0.13239206659E+04  0.25500000920E-02 0.  1.
        2   -1    0    0  501    0  0.00000000000E+00  0.00000000000E+00 -0.11774297612E+04  0.11774297612E+04  0.25500000920E-02 0. -1.
    10030    2    1    2    0    0  0.00000000000E+00  0.00000000000E+00  0.14649090468E+03  0.25013504271E+04  0.24970571427E+04 0.  0.
        2    1    3    3  502    0 -0.42170873686E+03 -0.11660411296E+04 -0.73065314951E+02  0.12421065634E+04  0.25500000920E-02 0. -1.
       -2    1    3    3    0  502  0.42170873686E+03  0.11660411296E+04  0.21955621963E+03  0.12592438637E+04  0.25500000920E-02 0.  1.
</event>
<event>
 5   0  0.1541852E-06  0.2501374E+04  0.7818609E-02  0.8402496E-01
        1   -1    0    0  501    0  0.00000000000E+00  0.00000000000E+00  0.11878686468E+04  0.11878686468E+04  0.50400001928E-02 0.  1.
       -1   -1    0    0    0  501  0.00000000000E+00  0.00000000000E+00 -0.13168271771E+04  0.13168271771E+04  0.50400001928E-02 0. -1.
    10030    2    1    2    0    0  0.00000000000E+00  0.00000000000E+00 -0.12895853028E+03  0.25046958239E+04  0.25013737961E+04 0.  0.
        5    1    3    3  502    0 -0.94351632581E+03 -0.11922034828E+03 -0.87781355653E+03  0.12942238132E+04  0.46999998093E+01 0. -1.
       -5    1    3    3    0  502  0.94351632581E+03  0.11922034828E+03  0.74885502625E+03  0.12104720108E+04  0.46999998093E+01 0.  1.
</event>
<event>
 5   0  0.1519145E-06  0.2501870E+04  0.7818609E-02  0.8402320E-01
        1   -1    0    0  501    0  0.00000000000E+00  0.00000000000E+00  0.15881908541E+04  0.15881908541E+04  0.50400001928E-02 0. -1.
       -1   -1    0    0    0  501  0.00000000000E+00  0.00000000000E+00 -0.98529631059E+03  0.98529631061E+03  0.50400001928E-02 0.  1.
    10030    2    1    2    0    0  0.00000000000E+00  0.00000000000E+00  0.60289454348E+03  0.25734871647E+04  0.25018701717E+04 0.  0.
        4    1    3    3  502    0 -0.85129601774E+03 -0.53871761896E+03  0.10642375961E+04  0.14654435699E+04  0.12699999809E+01 0.  1.
       -4    1    3    3    0  502  0.85129601774E+03  0.53871761896E+03 -0.46134305261E+03  0.11080435948E+04  0.12699999809E+01 0. -1.
</event>
<event>
 5   0  0.3814260E-06  0.2502826E+04  0.7818609E-02  0.8401980E-01
       -2   -1    0    0    0  501  0.00000000000E+00  0.00000000000E+00  0.93565817211E+03  0.93565817211E+03  0.25500000920E-02 0.  1.
        2   -1    0    0  501    0  0.00000000000E+00  0.00000000000E+00 -0.16737245643E+04  0.16737245643E+04  0.25500000920E-02 0. -1.
    10030    2    1    2    0    0  0.00000000000E+00  0.00000000000E+00 -0.73806639221E+03  0.26093827364E+04  0.25028256563E+04 0.  0.
        5    1    3    3  502    0  0.60918992502E+02  0.37612093840E+03 -0.16117690854E+04  0.16562003981E+04  0.46999998093E+01 0. -1.
       -5    1    3    3    0  502 -0.60918992502E+02 -0.37612093840E+03  0.87370269322E+03  0.95318233833E+03  0.46999998093E+01 0.  1.
</event>
<event>
 5   0  0.1501747E-06  0.2502713E+04  0.7818609E-02  0.8402020E-01
       -1   -1    0    0    0  501  0.00000000000E+00  0.00000000000E+00  0.11277558499E+04  0.11277558499E+04  0.50400001928E-02 0. -1.
        1   -1    0    0  501    0  0.00000000000E+00  0.00000000000E+00 -0.13885040553E+04  0.13885040553E+04  0.50400001928E-02 0.  1.
    10030    2    1    2    0    0  0.00000000000E+00  0.00000000000E+00 -0.26074820547E+03  0.25162599052E+04  0.25027133843E+04 0.  0.
        2    1    3    3  502    0 -0.60020244179E+03  0.68044030581E+03 -0.99681100092E+03  0.13479147423E+04  0.25500000920E-02 0.  1.
       -2    1    3    3    0  502  0.60020244179E+03 -0.68044030581E+03  0.73606279545E+03  0.11683451629E+04  0.25500000920E-02 0. -1.
</event>
<event>
 5   0  0.1574896E-06  0.2498139E+04  0.7818609E-02  0.8403649E-01
       -1   -1    0    0    0  501  0.00000000000E+00  0.00000000000E+00  0.10430469520E+04  0.10430469520E+04  0.50400001928E-02 0.  1.
        1   -1    0    0  501    0  0.00000000000E+00  0.00000000000E+00 -0.14957860852E+04  0.14957860852E+04  0.50400001928E-02 0. -1.
    10030    2    1    2    0    0  0.00000000000E+00  0.00000000000E+00 -0.45273913319E+03  0.25388330373E+04  0.24981394013E+04 0.  0.
        3    1    3    3  502    0  0.11979915660E+04  0.27906393711E+03 -0.57747106597E+01  0.12300787905E+04  0.10100000352E+00 0.  1.
       -3    1    3    3    0  502 -0.11979915660E+04 -0.27906393711E+03 -0.44696442253E+03  0.13087542468E+04  0.10100000352E+00 0. -1.
</event>
<event>
 5   0  0.1553604E-06  0.2484605E+04  0.7818609E-02  0.8408491E-01
       -1   -1    0    0    0  501  0.00000000000E+00  0.00000000000E+00  0.18907341004E+04  0.18907341004E+04  0.50400001928E-02 0. -1.
        1   -1    0    0  501    0  0.00000000000E+00  0.00000000000E+00 -0.81625179080E+03  0.81625179082E+03  0.50400001928E-02 0.  1.
    10030    2    1    2    0    0  0.00000000000E+00  0.00000000000E+00  0.10744823096E+04  0.27069858912E+04  0.24846046731E+04 0.  0.
        1    1    3    3  502    0 -0.22770774707E+03  0.68267622807E+03  0.16405041339E+04  0.17914104677E+04  0.50400001928E-02 0. -1.
       -1    1    3    3    0  502  0.22770774707E+03 -0.68267622807E+03 -0.56602182434E+03  0.91557542349E+03  0.50400001928E-02 0.  1.
</event>
<event>
 5   0  0.3808293E-06  0.2501104E+04  0.7818609E-02  0.8402592E-01
        2   -1    0    0  501    0  0.00000000000E+00  0.00000000000E+00  0.25854340105E+04  0.25854340105E+04  0.25500000920E-02 0. -1.
       -2   -1    0    0    0  501  0.00000000000E+00  0.00000000000E+00 -0.60488102015E+03  0.60488102015E+03  0.25500000920E-02 0.  1.
    10030    2    1    2    0    0  0.00000000000E+00  0.00000000000E+00  0.19805529904E+04  0.31903150307E+04  0.25011037258E+04 0.  0.
        1    1    3    3  502    0 -0.73276585493E+03 -0.81863918443E+03  0.22838625703E+03  0.11221747613E+04  0.50400001928E-02 0.  1.
       -1    1    3    3    0  502  0.73276585493E+03  0.81863918443E+03  0.17521667333E+04  0.20681402694E+04  0.50400001928E-02 0. -1.
</event>
<event>
 5   0  0.3713394E-06  0.2493621E+04  0.7818609E-02  0.8405262E-01
       -2   -1    0    0    0  501  0.00000000000E+00  0.00000000000E+00  0.11881571780E+04  0.11881571780E+04  0.25500000920E-02 0. -1.
        2   -1    0    0  501    0  0.00000000000E+00  0.00000000000E+00 -0.13083593447E+04  0.13083593447E+04  0.25500000920E-02 0.  1.
    10030    2    1    2    0    0  0.00000000000E+00  0.00000000000E+00 -0.12020216671E+03  0.24965165228E+04  0.24936210994E+04 0.  0.
        3    1    3    3  502    0 -0.25901917205E+03  0.11889862074E+04 -0.33199957072E+03  0.12613496177E+04  0.10100000352E+00 0.  1.
       -3    1    3    3    0  502  0.25901917205E+03 -0.11889862074E+04  0.21179740401E+03  0.12351669051E+04  0.10100000352E+00 0. -1.
</event>
<event>
 5   0  0.3814260E-06  0.2498905E+04  0.7818609E-02  0.8403376E-01
       -2   -1    0    0    0  501  0.00000000000E+00  0.00000000000E+00  0.12508518561E+04  0.12508518561E+04  0.25500000920E-02 0. -1.
        2   -1    0    0  501    0  0.00000000000E+00  0.00000000000E+00 -0.12480551370E+04  0.12480551370E+04  0.25500000920E-02 0.  1.
    10030    2    1    2    0    0  0.00000000000E+00  0.00000000000E+00  0.27967190563E+01  0.24989069931E+04  0.24989054281E+04 0.  0.
        5    1    3    3  502    0  0.67652602715E+03 -0.50847939081E+03  0.92056771093E+03  0.12504822097E+04  0.46999998093E+01 0. -1.
       -5    1    3    3    0  502 -0.67652602715E+03  0.50847939081E+03 -0.91777099187E+03  0.12484247834E+04  0.46999998093E+01 0.  1.
</event>
<event>
 5   0  0.3971759E-06  0.2495202E+04  0.7818609E-02  0.8404697E-01
        2   -1    0    0  501    0  0.00000000000E+00  0.00000000000E+00  0.12973441247E+04  0.12973441247E+04  0.25500000920E-02 0.  1.
       -2   -1    0    0    0  501  0.00000000000E+00  0.00000000000E+00 -0.11997649510E+04  0.11997649510E+04  0.25500000920E-02 0. -1.
    10030    2    1    2    0    0  0.00000000000E+00  0.00000000000E+00  0.97579173717E+02  0.24971090756E+04  0.24952018036E+04 0.  0.
        4    1    3    3  502    0  0.19473384941E+03  0.19778444871E+03  0.12660525159E+04  0.12961213470E+04  0.12699999809E+01 0.  1.
       -4    1    3    3    0  502 -0.19473384941E+03 -0.19778444871E+03 -0.11684733421E+04  0.12009877287E+04  0.12699999809E+01 0. -1.
</event>
<event>
 5   0  0.3808293E-06  0.2502466E+04  0.7818609E-02  0.8402107E-01
        2   -1    0    0  501    0  0.00000000000E+00  0.00000000000E+00  0.87067454976E+03  0.87067454976E+03  0.25500000920E-02 0. -1.
       -2   -1    0    0    0  501  0.00000000000E+00  0.00000000000E+00 -0.17981281194E+04  0.17981281194E+04  0.25500000920E-02 0.  1.
    10030    2    1    2    0    0  0.00000000000E+00  0.00000000000E+00 -0.92745356965E+03  0.26688026692E+04  0.25024662961E+04 0.  0.
        1    1    3    3  502    0 -0.17447601050E+03 -0.27103242135E+03  0.82563550389E+03  0.88632637159E+03  0.50400001928E-02 0. -1.
       -1    1    3    3    0  502  0.17447601050E+03  0.27103242135E+03 -0.17530890735E+04  0.17824762976E+04  0.50400001928E-02 0.  1.
</event>
<event>
 5   0  0.1501747E-06  0.2505441E+04  0.7818609E-02  0.8401050E-01
        1   -1    0    0  501    0  0.00000000000E+00  0.00000000000E+00  0.10577932270E+04  0.10577932270E+04  0.50400001928E-02 0. -1.
       -1   -1    0    0    0  501  0.00000000000E+00  0.00000000000E+00 -0.14835687663E+04  0.14835687663E+04  0.50400001928E-02 0.  1.
    10030    2    1    2    0    0  0.00000000000E+00  0.00000000000E+00 -0.42577553930E+03  0.25413619933E+04  0.25054412727E+04 0.  0.
        2    1    3    3  502    0 -0.27846894922E+03  0.10600425135E+04 -0.82827689656E+03  0.13737822621E+04  0.25500000920E-02 0.  1.
       -2    1    3    3    0  502  0.27846894922E+03 -0.10600425135E+04  0.40250135726E+03  0.11675797312E+04  0.25500000920E-02 0. -1.
</event>
<event>
 5   0  0.1574896E-06  0.2509865E+04  0.7818609E-02  0.8399479E-01
       -1   -1    0    0    0  501  0.00000000000E+00  0.00000000000E+00  0.99524966518E+03  0.99524966520E+03  0.50400001928E-02 0.  1.
        1   -1    0    0  501    0  0.00000000000E+00  0.00000000000E+00 -0.15823727848E+04  0.15823727848E+04  0.50400001928E-02 0. -1.
    10030    2    1    2    0    0  0.00000000000E+00  0.00000000000E+00 -0.58712311959E+03  0.25776224500E+04  0.25098653225E+04 0.  0.
        3    1    3    3  502    0 -0.12145171695E+04 -0.22525429563E+02  0.30059018181E+02  0.12150978992E+04  0.10100000352E+00 0.  1.
       -3    1    3    3    0  502  0.12145171695E+04  0.22525429563E+02 -0.61718213777E+03  0.13625245507E+04  0.10100000352E+00 0. -1.
</event>
<event>
 5   0  0.3814260E-06  0.2501685E+04  0.7818609E-02  0.8402385E-01
        2   -1    0    0  501    0  0.00000000000E+00  0.00000000000E+00  0.85696262390E+03  0.85696262390E+03  0.25500000920E-02 0. -1.
       -2   -1    0    0    0  501  0.00000000000E+00  0.00000000000E+00 -0.18257588554E+04  0.18257588554E+04  0.25500000920E-02 0.  1.
    10030    2    1    2    0    0  0.00000000000E+00  0.00000000000E+00 -0.96879623146E+03  0.26827214793E+04  0.25016851115E+04 0.  0.
        5    1    3    3  502    0  0.84245584150E+03  0.65361813119E+03  0.21686391866E+03  0.10881178960E+04  0.46999998093E+01 0. -1.
       -5    1    3    3    0  502 -0.84245584150E+03 -0.65361813119E+03 -0.11856601501E+04  0.15946035833E+04  0.46999998093E+01 0.  1.
</event>
<event>
 5   0  0.3713394E-06  0.2497107E+04  0.7818609E-02  0.8404017E-01
       -2   -1    0    0    0  501  0.00000000000E+00  0.00000000000E+00  0.97884619895E+03  0.97884619896E+03  0.25500000920E-02 0.  1.
        2   -1    0    0  501    0  0.00000000000E+00  0.00000000000E+00 -0.15925748920E+04  0.15925748920E+04  0.25500000920E-02 0. -1.
    10030    2    1    2    0    0  0.00000000000E+00  0.00000000000E+00 -0.61372869309E+03  0.25714210910E+04  0.24971070299E+04 0.  0.
        3    1    3    3  502    0 -0.22188079917E+03 -0.12252514623E+04 -0.21240871352E+03  0.12631665396E+04  0.10100000352E+00 0.  1.
       -3    1    3    3    0  502  0.22188079917E+03  0.12252514623E+04 -0.40131997957E+03  0.13082545514E+04  0.10100000352E+00 0. -1.
</event>
<event>
 5   0  0.1519145E-06  0.2497906E+04  0.7818609E-02  0.8403732E-01
       -1   -1    0    0    0  501  0.00000000000E+00  0.00000000000E+00  0.14089302339E+04  0.14089302339E+04  0.50400001928E-02 0.  1.
        1   -1    0    0  501    0  0.00000000000E+00  0.00000000000E+00 -0.11071401833E+04  0.11071401833E+04  0.50400001928E-02 0. -1.
    10030    2    1    2    0    0  0.00000000000E+00  0.00000000000E+00  0.30179005057E+03  0.25160704172E+04  0.24979057447E+04 0.  0.
        4    1    3    3  502    0  0.66983888884E+03  0.73486293510E+03 -0.61036137586E+03  0.11667263143E+04  0.12699999809E+01 0. -1.
       -4    1    3    3    0  502 -0.66983888884E+03 -0.73486293510E+03  0.91215142642E+03  0.13493441029E+04  0.12699999809E+01 0.  1.
</event>
<event>
 5   0  0.1553604E-06  0.2495296E+04  0.7818609E-02  0.8404663E-01
       -1   -1    0    0    0  501  0.00000000000E+00  0.00000000000E+00  0.55312237599E+03  0.55312237601E+03  0.50400001928E-02 0. -1.
        1   -1    0    0  501    0  0.00000000000E+00  0.00000000000E+00 -0.28142526158E+04  0.28142526158E+04  0.50400001928E-02 0.  1.
    10030    2    1    2    0    0  0.00000000000E+00  0.00000000000E+00 -0.22611302398E+04  0.33673749918E+04  0.24952964501E+04 0.  0.
        1    1    3    3  502    0  0.23046599256E+03 -0.10409362863E+04 -0.25603467144E+03  0.10964564190E+04  0.50400001928E-02 0. -1.
       -1    1    3    3    0  502 -0.23046599256E+03  0.10409362863E+04 -0.20050955684E+04  0.22709185728E+04  0.50400001928E-02 0.  1.
</event>
<event>
 5   0  0.3814260E-06  0.2507044E+04  0.7818609E-02  0.8400480E-01
        2   -1    0    0  501    0  0.00000000000E+00  0.00000000000E+00  0.18089926956E+04  0.18089926956E+04  0.25500000920E-02 0. -1.
       -2   -1    0    0    0  501  0.00000000000E+00  0.00000000000E+00 -0.86861459370E+03  0.86861459371E+03  0.25500000920E-02 0.  1.
    10030    2    1    2    0    0  0.00000000000E+00  0.00000000000E+00  0.94037810187E+03  0.26776072893E+04  0.25070440405E+04 0.  0.
        5    1    3    3  502    0  0.67330260555E+03  0.17384293749E+03  0.15840910645E+04  0.17300070393E+04  0.46999998093E+01 0. -1.
       -5    1    3    3    0  502 -0.67330260555E+03 -0.17384293749E+03 -0.64371296258E+03  0.94760024998E+03  0.46999998093E+01 0.  1.
</event>
<event>
 5   0  0.1519145E-06  0.2499585E+04  0.7818609E-02  0.8403134E-01
       -1   -1    0    0    0  501  0.00000000000E+00  0.00000000000E+00  0.74586468711E+03  0.74586468713E+03  0.50400001928E-02 0.  1.
        1   -1    0    0  501    0  0.00000000000E+00  0.00000000000E+00 -0.20941879717E+04  0.20941879717E+04  0.50400001928E-02 0. -1.
    10030    2    1    2    0    0  0.00000000000E+00  0.00000000000E+00 -0.13483232846E+04  0.28400526588E+04  0.24995846505E+04 0.  0.
        4    1    3    3  502    0 -0.45854688156E+03 -0.93480521158E+03 -0.14595885954E+04  0.17929100666E+04  0.12699999809E+01 0. -1.
       -4    1    3    3    0  502  0.45854688156E+03  0.93480521158E+03  0.11126531081E+03  0.10471425922E+04  0.12699999809E+01 0.  1.
</event>
<event>
 5   0  0.1553604E-06  0.2500931E+04  0.7818609E-02  0.8402654E-01
       -1   -1    0    0    0  501  0.00000000000E+00  0.00000000000E+00  0.13008936830E+04  0.13008936830E+04  0.50400001928E-02 0.  1.
        1   -1    0    0  501    0  0.00000000000E+00  0.00000000000E+00 -0.12019917733E+04  0.12019917733E+04  0.50400001928E-02 0. -1.
    10030    2    1    2    0    0  0.00000000000E+00  0.00000000000E+00  0.98901909670E+02  0.25028854564E+04  0.25009306308E+04 0.  0.
        1    1    3    3  502    0  0.33851650281E+03  0.66038488945E+03 -0.95779580764E+03  0.12116412151E+04  0.50400001928E-02 0. -1.
       -1    1    3    3    0  502 -0.33851650281E+03 -0.66038488945E+03  0.10566977173E+04  0.12912442413E+04  0.50400001928E-02 0.  1.
</event>
<event>
 5   0  0.3971759E-06  0.2504907E+04  0.7818609E-02  0.8401239E-01
       -2   -1    0    0    0  501  0.00000000000E+00  0.00000000000E+00  0.11673321385E+04  0.11673321385E+04  0.25500000920E-02 0.  1.
        2   -1    0    0  501    0  0.00000000000E+00  0.00000000000E+00 -0.13437822878E+04  0.13437822878E+04  0.25500000920E-02 0. -1.
    10030    2    1    2    0    0  0.00000000000E+00  0.00000000000E+00 -0.17645014935E+03  0.25111144263E+04  0.25049073849E+04 0.  0.
        4    1    3    3  502    0  0.10686534220E+04  0.63913142275E+03 -0.22320465253E+03  0.12650419130E+04  0.12699999809E+01 0. -1.
       -4    1    3    3    0  502 -0.10686534220E+04 -0.63913142275E+03  0.46754503180E+02  0.12460725133E+04  0.12699999809E+01 0.  1.
</event>
<event>
 5   0  0.1574896E-06  0.2497446E+04  0.7818609E-02  0.8403896E-01
       -1   -1    0    0    0  501  0.00000000000E+00  0.00000000000E+00  0.75235642394E+03  0.75235642395E+03  0.50400001928E-02 0.  1.
        1   -1    0    0  501    0  0.00000000000E+00  0.00000000000E+00 -0.20725670999E+04  0.20725670999E+04  0.50400001928E-02 0. -1.
    10030    2    1    2    0    0  0.00000000000E+00  0.00000000000E+00 -0.13202106760E+04  0.28249235239E+04  0.24974460328E+04 0.  0.
        3    1    3    3  502    0  0.82614986583E+03 -0.46311182341E+03  0.26043372493E+03  0.98225347904E+03  0.10100000352E+00 0.  1.
       -3    1    3    3    0  502 -0.82614986583E+03  0.46311182341E+03 -0.15806444009E+04  0.18426700448E+04  0.10100000352E+00 0. -1.
</event>
<event>
 5   0  0.1553604E-06  0.2489722E+04  0.7818609E-02  0.8406656E-01
        1   -1    0    0  501    0  0.00000000000E+00  0.00000000000E+00  0.13245958665E+04  0.13245958665E+04  0.50400001928E-02 0.  1.
       -1   -1    0    0    0  501  0.00000000000E+00  0.00000000000E+00 -0.11699255845E+04  0.11699255845E+04  0.50400001928E-02 0. -1.
    10030    2    1    2    0    0  0.00000000000E+00  0.00000000000E+00  0.15467028194E+03  0.24945214510E+04  0.24897217462E+04 0.  0.
        1    1    3    3  502    0 -0.11346791264E+04 -0.24632442813E+03 -0.37242460456E+03  0.12193738270E+04  0.50400001928E-02 0.  1.
       -1    1    3    3    0  502  0.11346791264E+04  0.24632442813E+03  0.52709488649E+03  0.12751476241E+04  0.50400001928E-02 0. -1.
</event>
<event>
 5   0  0.1553604E-06  0.2525038E+04  0.7818609E-02  0.8394119E-01
        1   -1    0    0  501    0  0.00000000000E+00  0.00000000000E+00  0.86576304506E+03  0.86576304508E+03  0.50400001928E-02 0. -1.
       -1   -1    0    0    0  501  0.00000000000E+00  0.00000000000E+00 -0.18410978792E+04  0.18410978792E+04  0.50400001928E-02 0.  1.
    10030    2    1    2    0    0  0.00000000000E+00  0.00000000000E+00 -0.97533483415E+03  0.27068609243E+04  0.25250382224E+04 0.  0.
        1    1    3    3  502    0  0.27232473296E+03 -0.11544558460E+04 -0.95127265625E+03  0.15204764803E+04  0.50400001928E-02 0.  1.
       -1    1    3    3    0  502 -0.27232473296E+03  0.11544558460E+04 -0.24062177902E+02  0.11863844440E+04  0.50400001928E-02 0. -1.
</event>
<event>
 5   0  0.1541852E-06  0.2492144E+04  0.7818609E-02  0.8405790E-01
       -1   -1    0    0    0  501  0.00000000000E+00  0.00000000000E+00  0.92819270627E+03  0.92819270629E+03  0.50400001928E-02 0. -1.
        1   -1    0    0  501    0  0.00000000000E+00  0.00000000000E+00 -0.16728153785E+04  0.16728153786E+04  0.50400001928E-02 0.  1.
    10030    2    1    2    0    0  0.00000000000E+00  0.00000000000E+00 -0.74462267228E+03  0.26010080848E+04  0.24921436823E+04 0.  0.
        5    1    3    3  502    0 -0.58911214262E+03 -0.10715832093E+04 -0.62220587388E+03  0.13720444346E+04  0.46999998093E+01 0.  1.
       -5    1    3    3    0  502  0.58911214262E+03  0.10715832093E+04 -0.12241679839E+03  0.12289636502E+04  0.46999998093E+01 0. -1.
</event>
<event>
 5   0  0.1541852E-06  0.2499439E+04  0.7818609E-02  0.8403186E-01
        1   -1    0    0  501    0  0.00000000000E+00  0.00000000000E+00  0.97241619344E+03  0.97241619346E+03  0.50400001928E-02 0. -1.
       -1   -1    0    0    0  501  0.00000000000E+00  0.00000000000E+00 -0.16061006623E+04  0.16061006623E+04  0.50400001928E-02 0.  1.
    10030    2    1    2    0    0  0.00000000000E+00  0.00000000000E+00 -0.63368446881E+03  0.25785168557E+04  0.24994385708E+04 0.  0.
        5    1    3    3  502    0  0.36428758920E+03 -0.10836252821E+04 -0.83761735756E+03  0.14172417321E+04  0.46999998093E+01 0. -1.
       -5    1    3    3    0  502 -0.36428758920E+03  0.10836252821E+04  0.20393288875E+03  0.11612751236E+04  0.46999998093E+01 0.  1.
</event>
<event>
 5   0  0.1501747E-06  0.2504100E+04  0.7818609E-02  0.8401526E-01
        1   -1    0    0  501    0  0.00000000000E+00  0.00000000000E+00  0.12196675900E+04  0.12196675900E+04  0.50400001928E-02 0. -1.
       -1   -1    0    0    0  501  0.00000000000E+00  0.00000000000E+00 -0.12852926558E+04  0.12852926558E+04  0.50400001928E-02 0.  1.
    10030    2    1    2    0    0  0.00000000000E+00  0.00000000000E+00 -0.65625065811E+02  0.25049602458E+04  0.25041004740E+04 0.  0.
        2    1    3    3  502    0  0.11911634690E+04  0.74819195420E+01 -0.41856574142E+03  0.12625861035E+04  0.25500000920E-02 0.  1.
       -2    1    3    3    0  502 -0.11911634690E+04 -0.74819195420E+01  0.35294067561E+03  0.12423741423E+04  0.25500000920E-02 0. -1.
</event>
<event>
 5   0  0.1501747E-06  0.2516101E+04  0.7818609E-02  0.8397272E-01
        1   -1    0    0  501    0  0.00000000000E+00  0.00000000000E+00  0.17586191159E+04  0.17586191159E+04  0.50400001928E-02 0.  1.
       -1   -1    0    0    0  501  0.00000000000E+00  0.00000000000E+00 -0.89996262416E+03  0.89996262418E+03  0.50400001928E-02 0. -1.
    10030    2    1    2    0    0  0.00000000000E+00  0.00000000000E+00  0.85865649176E+03  0.26585817401E+04  0.25161013290E+04 0.  0.
        2    1    3    3  502    0  0.12749500331E+03  0.88116395391E+03  0.13684712953E+04  0.16326109689E+04  0.25500000920E-02 0.  1.
       -2    1    3    3    0  502 -0.12749500331E+03 -0.88116395391E+03 -0.50981480354E+03  0.10259707713E+04  0.25500000920E-02 0. -1.
</event>
<event>
 5   0  0.1501747E-06  0.2501866E+04  0.7818609E-02  0.8402321E-01
        1   -1    0    0  501    0  0.00000000000E+00  0.00000000000E+00  0.23612025873E+04  0.23612025873E+04  0.50400001928E-02 0. -1.
       -1   -1    0    0    0  501  0.00000000000E+00  0.00000000000E+00 -0.66272742553E+03  0.66272742555E+03  0.50400001928E-02 0.  1.
    10030    2    1    2    0    0  0.00000000000E+00  0.00000000000E+00  0.16984751618E+04  0.30239300129E+04  0.25018662729E+04 0.  0.
        2    1    3    3  502    0 -0.18637280663E+02 -0.21106376569E+03 -0.64088036044E+03  0.67499844283E+03  0.25500000920E-02 0.  1.
       -2    1    3    3    0  502  0.18637280663E+02  0.21106376569E+03  0.23393555222E+04  0.23489315701E+04  0.25500000920E-02 0. -1.
</event>
<event>
 5   0  0.3814260E-06  0.2497719E+04  0.7818609E-02  0.8403799E-01
        2   -1    0    0  501    0  0.00000000000E+00  0.00000000000E+00  0.12983738725E+04  0.12983738725E+04  0.25500000920E-02 0.  1.
       -2   -1    0    0    0  501  0.00000000000E+00  0.00000000000E+00 -0.12012330122E+04  0.12012330122E+04  0.25500000920E-02 0. -1.
    10030    2    1    2    0    0  0.00000000000E+00  0.00000000000E+00  0.97140860307E+02  0.24996068847E+04  0.24977186053E+04 0.  0.
        5    1    3    3  502    0 -0.38656694216E+03 -0.55842858093E+03 -0.10002442937E+04  0.12090439272E+04  0.46999998093E+01 0. -1.
       -5    1    3    3    0  502  0.38656694216E+03  0.55842858093E+03  0.10973851541E+04  0.12905629574E+04  0.46999998093E+01 0.  1.
</event>
<event>
 5   0  0.1553604E-06  0.2501134E+04  0.7818609E-02  0.8402582E-01
        1   -1    0    0  501    0  0.00000000000E+00  0.00000000000E+00  0.91084822244E+03  0.91084822246E+03  0.50400001928E-02 0. -1.
       -1   -1    0    0    0  501  0.00000000000E+00  0.00000000000E+00 -0.17169903024E+04  0.17169903024E+04  0.50400001928E-02 0.  1.
    10030    2    1    2    0    0  0.00000000000E+00  0.00000000000E+00 -0.80614207993E+03  0.26278385248E+04  0.25011337948E+04 0.  0.
        1    1    3    3  502    0  0.66048162073E+03 -0.52368267699E+03 -0.13736877215E+04  0.16116753624E+04  0.50400001928E-02 0.  1.
       -1    1    3    3    0  502 -0.66048162073E+03  0.52368267699E+03  0.56754564155E+03  0.10161631625E+04  0.50400001928E-02 0. -1.
</event>
<event>
 5   0  0.1287375E-06  0.2502155E+04  0.7818609E-02  0.8402218E-01
        3   -1    0    0  501    0  0.00000000000E+00  0.00000000000E+00  0.99946001551E+03  0.99946002061E+03  0.10100000352E+00 0. -1.
       -3   -1    0    0    0  501  0.00000000000E+00  0.00000000000E+00 -0.15660406666E+04  0.15660406698E+04  0.10100000352E+00 0.  1.
    10030    2    1    2    0    0  0.00000000000E+00  0.00000000000E+00 -0.56658065108E+03  0.25655006905E+04  0.25021551028E+04 0.  0.
        3    1    3    3  502    0  0.21464436296E+03  0.66416904678E+03  0.78126381471E+03  0.10476477861E+04  0.10100000352E+00 0. -1.
       -3    1    3    3    0  502 -0.21464436296E+03 -0.66416904678E+03 -0.13478444658E+04  0.15178529044E+04  0.10100000352E+00 0.  1.
</event>
<event>
 5   0  0.3814260E-06  0.2502765E+04  0.7818609E-02  0.8402001E-01
        2   -1    0    0  501    0  0.00000000000E+00  0.00000000000E+00  0.18948196943E+04  0.18948196943E+04  0.25500000920E-02 0. -1.
       -2   -1    0    0    0  501  0.00000000000E+00  0.00000000000E+00 -0.82644149590E+03  0.82644149591E+03  0.25500000920E-02 0.  1.
    10030    2    1    2    0    0  0.00000000000E+00  0.00000000000E+00  0.10683781984E+04  0.27212611902E+04  0.25027645695E+04 0.  0.
        5    1    3    3  502    0 -0.55798369000E+03  0.15339506676E+03 -0.67220661251E+03  0.88699473770E+03  0.46999998093E+01 0.  1.
       -5    1    3    3    0  502  0.55798369000E+03 -0.15339506676E+03  0.17405848109E+04  0.18342664525E+04  0.46999998093E+01 0. -1.
</event>
<event>
 5   0  0.1519145E-06  0.2497574E+04  0.7818609E-02  0.8403850E-01
       -1   -1    0    0    0  501  0.00000000000E+00  0.00000000000E+00  0.89754445269E+03  0.89754445271E+03  0.50400001928E-02 0. -1.
        1   -1    0    0  501    0  0.00000000000E+00  0.00000000000E+00 -0.17374832586E+04  0.17374832586E+04  0.50400001928E-02 0.  1.
    10030    2    1    2    0    0  0.00000000000E+00  0.00000000000E+00 -0.83993880593E+03  0.26350277113E+04  0.24975735909E+04 0.  0.
        4    1    3    3  502    0 -0.15108119179E+03  0.39737976585E+03 -0.16587848366E+04  0.17123974281E+04  0.12699999809E+01 0.  1.
       -4    1    3    3    0  502  0.15108119179E+03 -0.39737976585E+03  0.81884603062E+03  0.92263028326E+03  0.12699999809E+01 0. -1.
</event>
<event>
 5   0  0.3971759E-06  0.2495848E+04  0.7818609E-02  0.8404466E-01
       -2   -1    0    0    0  501  0.00000000000E+00  0.00000000000E+00  0.15191094501E+04  0.15191094501E+04  0.25500000920E-02 0.  1.
        2   -1    0    0  501    0  0.00000000000E+00  0.00000000000E+00 -0.10251497925E+04  0.10251497925E+04  0.25500000920E-02 0. -1.
    10030    2    1    2    0    0  0.00000000000E+00  0.00000000000E+00  0.49395965760E+03  0.25442592426E+04  0.24958483428E+04 0.  0.
        4    1    3    3  502    0 -0.82892482821E+03 -0.61974012379E+03  0.95772584866E+03  0.14101186496E+04  0.12699999809E+01 0.  1.
       -4    1    3    3    0  502  0.82892482821E+03  0.61974012379E+03 -0.46376619107E+03  0.11341405930E+04  0.12699999809E+01 0. -1.
</event>
<event>
 5   0  0.3808293E-06  0.2497180E+04  0.7818609E-02  0.8403991E-01
        2   -1    0    0  501    0  0.00000000000E+00  0.00000000000E+00  0.17937459397E+04  0.17937459397E+04  0.25500000920E-02 0. -1.
       -2   -1    0    0    0  501  0.00000000000E+00  0.00000000000E+00 -0.86911826665E+03  0.86911826665E+03  0.25500000920E-02 0.  1.
    10030    2    1    2    0    0  0.00000000000E+00  0.00000000000E+00  0.92462767309E+03  0.26628642064E+04  0.24971802994E+04 0.  0.
        1    1    3    3  502    0  0.30983815600E+03 -0.10249203825E+04 -0.22257401096E+03  0.10936181526E+04  0.50400001928E-02 0. -1.
       -1    1    3    3    0  502 -0.30983815600E+03  0.10249203825E+04  0.11472016840E+04  0.15692460538E+04  0.50400001928E-02 0.  1.
</event>
<event>
 5   0  0.1574896E-06  0.2496917E+04  0.7818609E-02  0.8404085E-01
       -1   -1    0    0    0  501  0.00000000000E+00  0.00000000000E+00  0.11667495226E+04  0.11667495226E+04  0.50400001928E-02 0. -1.
        1   -1    0    0  501    0  0.00000000000E+00  0.00000000000E+00 -0.13358893358E+04  0.13358893358E+04  0.50400001928E-02 0.  1.
    10030    2    1    2    0    0  0.00000000000E+00  0.00000000000E+00 -0.16913981317E+03  0.25026388584E+04  0.24969166945E+04 0.  0.
        3    1    3    3  502    0  0.80661607307E+03 -0.83881188592E+03  0.36858717853E+03  0.12206929948E+04  0.10100000352E+00 0. -1.
       -3    1    3    3    0  502 -0.80661607307E+03  0.83881188592E+03 -0.53772699169E+03  0.12819458636E+04  0.10100000352E+00 0.  1.
</event>
<event>
 5   0  0.3713394E-06  0.2507598E+04  0.7818609E-02  0.8400284E-01
       -2   -1    0    0    0  501  0.00000000000E+00  0.00000000000E+00  0.83755764111E+03  0.83755764112E+03  0.25500000920E-02 0.  1.
        2   -1    0    0  501    0  0.00000000000E+00  0.00000000000E+00 -0.18768993569E+04  0.18768993569E+04  0.25500000920E-02 0. -1.
    10030    2    1    2    0    0  0.00000000000E+00  0.00000000000E+00 -0.10393417158E+04  0.27144569980E+04  0.25075975737E+04 0.  0.
        3    1    3    3  502    0 -0.80209181162E+03  0.92724062554E+03 -0.23556037769E+03  0.12484450944E+04  0.10100000352E+00 0.  1.
       -3    1    3    3    0  502  0.80209181162E+03 -0.92724062554E+03 -0.80378133807E+03  0.14660119036E+04  0.10100000352E+00 0. -1.
</event>
<event>
 5   0  0.1519145E-06  0.2498392E+04  0.7818609E-02  0.8403559E-01
        1   -1    0    0  501    0  0.00000000000E+00  0.00000000000E+00  0.23028061290E+04  0.23028061290E+04  0.50400001928E-02 0. -1.
       -1   -1    0    0    0  501  0.00000000000E+00  0.00000000000E+00 -0.67764750767E+03  0.67764750768E+03  0.50400001928E-02 0.  1.
    10030    2    1    2    0    0  0.00000000000E+00  0.00000000000E+00  0.16251586213E+04  0.29804536367E+04  0.24983921501E+04 0.  0.
        4    1    3    3  502    0  0.11012408092E+04  0.48920953921E+03  0.12054054273E+04  0.17044239937E+04  0.12699999809E+01 0. -1.
       -4    1    3    3    0  502 -0.11012408092E+04 -0.48920953921E+03  0.41975319400E+03  0.12760296430E+04  0.12699999809E+01 0.  1.
</event>
<event>
 5   0  0.3924441E-06  0.2501725E+04  0.7818609E-02  0.8402371E-01
       -2   -1    0    0    0  501  0.00000000000E+00  0.00000000000E+00  0.11063580911E+04  0.11063580911E+04  0.25500000920E-02 0.  1.
        2   -1    0    0  501    0  0.00000000000E+00  0.00000000000E+00 -0.14142410696E+04  0.14142410696E+04  0.25500000920E-02 0. -1.
    10030    2    1    2    0    0  0.00000000000E+00  0.00000000000E+00 -0.30788297851E+03  0.25205991608E+04  0.25017250450E+04 0.  0.
        2    1    3    3  502    0 -0.27749185231E+03 -0.12130609864E+04 -0.25946201185E+02  0.12446653728E+04  0.25500000920E-02 0. -1.
       -2    1    3    3    0  502  0.27749185231E+03  0.12130609864E+04 -0.28193677733E+03  0.12759337880E+04  0.25500000920E-02 0.  1.
</event>
<event>
 5   0  0.1519145E-06  0.2500926E+04  0.7818609E-02  0.8402656E-01
        1   -1    0    0  501    0  0.00000000000E+00  0.00000000000E+00  0.91686820872E+03  0.91686820873E+03  0.50400001928E-02 0.  1.
       -1   -1    0    0    0  501  0.00000000000E+00  0.00000000000E+00 -0.17054333325E+04  0.17054333326E+04  0.50400001928E-02 0. -1.
    10030    2    1    2    0    0  0.00000000000E+00  0.00000000000E+00 -0.78856512383E+03  0.26223015413E+04  0.25009259123E+04 0.  0.
        4    1    3    3  502    0 -0.71915077835E+03  0.98179514871E+03 -0.93011601901E+02  0.12205541065E+04  0.12699999809E+01 0.  1.
       -4    1    3    3    0  502  0.71915077835E+03 -0.98179514871E+03 -0.69555352193E+03  0.14017474347E+04  0.12699999809E+01 0. -1.
</event>
<event>
 5   0  0.1519145E-06  0.2505505E+04  0.7818609E-02  0.8401027E-01
        1   -1    0    0  501    0  0.00000000000E+00  0.00000000000E+00  0.20389496390E+04  0.20389496390E+04  0.50400001928E-02 0. -1.
       -1   -1    0    0    0  501  0.00000000000E+00  0.00000000000E+00 -0.76970464444E+03  0.76970464446E+03  0.50400001928E-02 0.  1.
    10030    2    1    2    0    0  0.00000000000E+00  0.00000000000E+00  0.12692449945E+04  0.28086542834E+04  0.25055051442E+04 0.  0.
        4    1    3    3  502    0 -0.45090140370E+03 -0.53519906947E+03  0.17993971779E+04  0.19306946772E+04  0.12699999809E+01 0. -1.
       -4    1    3    3    0  502  0.45090140370E+03  0.53519906947E+03 -0.53015218335E+03  0.87795960626E+03  0.12699999809E+01 0.  1.
</event>
<event>
 5   0  0.1501747E-06  0.2500856E+04  0.7818609E-02  0.8402680E-01
       -1   -1    0    0    0  501  0.00000000000E+00  0.00000000000E+00  0.13113616529E+04  0.13113616529E+04  0.50400001928E-02 0. -1.
        1   -1    0    0  501    0  0.00000000000E+00  0.00000000000E+00 -0.11923261414E+04  0.11923261414E+04  0.50400001928E-02 0.  1.
    10030    2    1    2    0    0  0.00000000000E+00  0.00000000000E+00  0.11903551148E+03  0.25036877942E+04  0.25008564769E+04 0.  0.
        2    1    3    3  502    0 -0.10415210369E+04 -0.11638238290E+03 -0.62335406551E+03  0.12193773904E+04  0.25500000920E-02 0.  1.
       -2    1    3    3    0  502  0.10415210369E+04  0.11638238290E+03  0.74238957699E+03  0.12843104038E+04  0.25500000920E-02 0. -1.
</event>
<event>
 5   0  0.3924441E-06  0.2473088E+04  0.7818609E-02  0.8412636E-01
        2   -1    0    0  501    0  0.00000000000E+00  0.00000000000E+00  0.17941136745E+04  0.17941136745E+04  0.25500000920E-02 0. -1.
       -2   -1    0    0    0  501  0.00000000000E+00  0.00000000000E+00 -0.85225433344E+03  0.85225433344E+03  0.25500000920E-02 0.  1.
    10030    2    1    2    0    0  0.00000000000E+00  0.00000000000E+00  0.94185934110E+03  0.26463680080E+04  0.24730880727E+04 0.  0.
        2    1    3    3  502    0 -0.48205656647E+03  0.54900098086E+03  0.15384571137E+04  0.17031238654E+04  0.25500000920E-02 0. -1.
       -2    1    3    3    0  502  0.48205656647E+03 -0.54900098086E+03 -0.59659777258E+03  0.94324414258E+03  0.25500000920E-02 0.  1.
</event>
<event>
 5   0  0.3808293E-06  0.2519614E+04  0.7818609E-02  0.8396031E-01
        2   -1    0    0  501    0  0.00000000000E+00  0.00000000000E+00  0.20778316403E+04  0.20778316403E+04  0.25500000920E-02 0. -1.
       -2   -1    0    0    0  501  0.00000000000E+00  0.00000000000E+00 -0.76383168059E+03  0.76383168059E+03  0.25500000920E-02 0.  1.
    10030    2    1    2    0    0  0.00000000000E+00  0.00000000000E+00  0.13139999597E+04  0.28416633209E+04  0.25196139655E+04 0.  0.
        1    1    3    3  502    0  0.70781177916E+03  0.74399685916E+02  0.18293768435E+04  0.19629448448E+04  0.50400001928E-02 0. -1.
       -1    1    3    3    0  502 -0.70781177916E+03 -0.74399685916E+02 -0.51537688378E+03  0.87871847615E+03  0.50400001928E-02 0.  1.
</event>
<event>
 5   0  0.1501747E-06  0.2505302E+04  0.7818609E-02  0.8401099E-01
        1   -1    0    0  501    0  0.00000000000E+00  0.00000000000E+00  0.16794892754E+04  0.16794892754E+04  0.50400001928E-02 0. -1.
       -1   -1    0    0    0  501  0.00000000000E+00  0.00000000000E+00 -0.93429284468E+03  0.93429284470E+03  0.50400001928E-02 0.  1.
    10030    2    1    2    0    0  0.00000000000E+00  0.00000000000E+00  0.74519643071E+03  0.26137821201E+04  0.25053022275E+04 0.  0.
        2    1    3    3  502    0 -0.11493065541E+04  0.29709942972E+03  0.78986764338E+03  0.14258557151E+04  0.25500000920E-02 0. -1.
       -2    1    3    3    0  502  0.11493065541E+04 -0.29709942972E+03 -0.44671212665E+02  0.11879264050E+04  0.25500000920E-02 0.  1.
</event>
<event>
 5   0  0.3808293E-06  0.2502280E+04  0.7818609E-02  0.8402174E-01
       -2   -1    0    0    0  501  0.00000000000E+00  0.00000000000E+00  0.16398252749E+04  0.16398252749E+04  0.25500000920E-02 0.  1.
        2   -1    0    0  501    0  0.00000000000E+00  0.00000000000E+00 -0.95458403756E+03  0.95458403756E+03  0.25500000920E-02 0. -1.
    10030    2    1    2    0    0  0.00000000000E+00  0.00000000000E+00  0.68524123737E+03  0.25944093125E+04  0.25022797860E+04 0.  0.
        1    1    3    3  502    0 -0.50893945453E+03 -0.17795247450E+03 -0.82795799664E+03  0.98802879299E+03  0.50400001928E-02 0. -1.
       -1    1    3    3    0  502  0.50893945453E+03  0.17795247450E+03  0.15131992340E+04  0.16063805195E+04  0.50400001928E-02 0.  1.
</event>
<event>
 5   0  0.1553604E-06  0.2503610E+04  0.7818609E-02  0.8401701E-01
       -1   -1    0    0    0  501  0.00000000000E+00  0.00000000000E+00  0.88159644264E+03  0.88159644266E+03  0.50400001928E-02 0. -1.
        1   -1    0    0  501    0  0.00000000000E+00  0.00000000000E+00 -0.17774745952E+04  0.17774745952E+04  0.50400001928E-02 0.  1.
    10030    2    1    2    0    0  0.00000000000E+00  0.00000000000E+00 -0.89587815258E+03  0.26590710379E+04  0.25036096182E+04 0.  0.
        1    1    3    3  502    0  0.29484903690E+03  0.70556097990E+03 -0.15005726739E+04  0.16841824724E+04  0.50400001928E-02 0.  1.
       -1    1    3    3    0  502 -0.29484903690E+03 -0.70556097990E+03  0.60469452129E+03  0.97488856543E+03  0.50400001928E-02 0. -1.
</event>
<event>
 5   0  0.3814260E-06  0.2499445E+04  0.7818609E-02  0.8403183E-01
        2   -1    0    0  501    0  0.00000000000E+00  0.00000000000E+00  0.86331526844E+03  0.86331526844E+03  0.25500000920E-02 0.  1.
       -2   -1    0    0    0  501  0.00000000000E+00  0.00000000000E+00 -0.18090792624E+04  0.18090792624E+04  0.25500000920E-02 0. -1.
    10030    2    1    2    0    0  0.00000000000E+00  0.00000000000E+00 -0.94576399400E+03  0.26723945309E+04  0.24994445376E+04 0.  0.
        5    1    3    3  502    0  0.97613845585E+03  0.46519358265E+03  0.19699454874E+03  0.10991270611E+04  0.46999998093E+01 0.  1.
       -5    1    3    3    0  502 -0.97613845585E+03 -0.46519358265E+03 -0.11427585427E+04  0.15732674697E+04  0.46999998093E+01 0. -1.
</event>
<event>
 5   0  0.3971759E-06  0.2502048E+04  0.7818609E-02  0.8402256E-01
       -2   -1    0    0    0  501  0.00000000000E+00  0.00000000000E+00  0.13697852944E+04  0.13697852944E+04  0.25500000920E-02 0. -1.
        2   -1    0    0  501    0  0.00000000000E+00  0.00000000000E+00 -0.11425592290E+04  0.11425592290E+04  0.25500000920E-02 0.  1.
    10030    2    1    2    0    0  0.00000000000E+00  0.00000000000E+00  0.22722606543E+03  0.25123445234E+04  0.25020478252E+04 0.  0.
        4    1    3    3  502    0  0.26176038299E+03 -0.19355113465E+03 -0.10992812352E+04  0.11464734566E+04  0.12699999809E+01 0.  1.
       -4    1    3    3    0  502 -0.26176038299E+03  0.19355113465E+03  0.13265073006E+04  0.13658710668E+04  0.12699999809E+01 0. -1.
</event>
<event>
 5   0  0.3971759E-06  0.2509118E+04  0.7818609E-02  0.8399745E-01
        2   -1    0    0  501    0  0.00000000000E+00  0.00000000000E+00  0.16273615690E+04  0.16273615690E+04  0.25500000920E-02 0.  1.
       -2   -1    0    0    0  501  0.00000000000E+00  0.00000000000E+00 -0.96715929644E+03  0.96715929645E+03  0.25500000920E-02 0. -1.
    10030    2    1    2    0    0  0.00000000000E+00  0.00000000000E+00  0.66020227259E+03  0.25945208655E+04  0.25091176698E+04 0.  0.
        4    1    3    3  502    0 -0.55480540310E+03  0.12679604203E+03 -0.82600140103E+03  0.10030783613E+04  0.12699999809E+01 0. -1.
       -4    1    3    3    0  502  0.55480540310E+03 -0.12679604203E+03  0.14862036736E+04  0.15914425041E+04  0.12699999809E+01 0.  1.
</event>
<event>
 5   0  0.1501747E-06  0.2498295E+04  0.7818609E-02  0.8403593E-01
        1   -1    0    0  501    0  0.00000000000E+00  0.00000000000E+00  0.13045370863E+04  0.13045370863E+04  0.50400001928E-02 0. -1.
       -1   -1    0    0    0  501  0.00000000000E+00  0.00000000000E+00 -0.11961095518E+04  0.11961095519E+04  0.50400001928E-02 0.  1.
    10030    2    1    2    0    0  0.00000000000E+00  0.00000000000E+00  0.10842753445E+03  0.25006466381E+04  0.24982948342E+04 0.  0.
        2    1    3    3  502    0 -0.96960836466E+03 -0.77014244636E+03  0.21901839388E+03  0.12574692145E+04  0.25500000920E-02 0.  1.
       -2    1    3    3    0  502  0.96960836466E+03  0.77014244636E+03 -0.11059085943E+03  0.12431774237E+04  0.25500000920E-02 0. -1.
</event>
<event>
 5   0  0.1574896E-06  0.2486662E+04  0.7818609E-02  0.8407753E-01
       -1   -1    0    0    0  501  0.00000000000E+00  0.00000000000E+00  0.12249502782E+04  0.12249502782E+04  0.50400001928E-02 0.  1.
        1   -1    0    0  501    0  0.00000000000E+00  0.00000000000E+00 -0.12619871014E+04  0.12619871014E+04  0.50400001928E-02 0. -1.
    10030    2    1    2    0    0  0.00000000000E+00  0.00000000000E+00 -0.37036823249E+02  0.24869373796E+04  0.24866615781E+04 0.  0.
        3    1    3    3  502    0  0.98115202453E+03  0.40450083458E+03  0.62931204555E+03  0.12338208465E+04  0.10100000352E+00 0.  1.
       -3    1    3    3    0  502 -0.98115202453E+03 -0.40450083458E+03 -0.66634886880E+03  0.12531165331E+04  0.10100000352E+00 0. -1.
</event>
<event>
 5   0  0.1541852E-06  0.2502072E+04  0.7818609E-02  0.8402248E-01
       -1   -1    0    0    0  501  0.00000000000E+00  0.00000000000E+00  0.10098169105E+04  0.10098169105E+04  0.50400001928E-02 0.  1.
        1   -1    0    0  501    0  0.00000000000E+00  0.00000000000E+00 -0.15498757645E+04  0.15498757645E+04  0.50400001928E-02 0. -1.
    10030    2    1    2    0    0  0.00000000000E+00  0.00000000000E+00 -0.54005885396E+03  0.25596926750E+04  0.25020717465E+04 0.  0.
        5    1    3    3  502    0  0.12174684091E+04  0.24954635213E+03 -0.12331847682E+03  0.12488924076E+04  0.46999998093E+01 0. -1.
       -5    1    3    3    0  502 -0.12174684091E+04 -0.24954635213E+03 -0.41674037714E+03  0.13108002674E+04  0.46999998093E+01 0.  1.
</event>
<event>
 5   0  0.3971759E-06  0.2497433E+04  0.7818609E-02  0.8403900E-01
        2   -1    0    0  501    0  0.00000000000E+00  0.00000000000E+00  0.26979941493E+04  0.26979941493E+04  0.25500000920E-02 0. -1.
       -2   -1    0    0    0  501  0.00000000000E+00  0.00000000000E+00 -0.57794542841E+03  0.57794542842E+03  0.25500000920E-02 0.  1.
    10030    2    1    2    0    0  0.00000000000E+00  0.00000000000E+00  0.21200487209E+04  0.32759395777E+04  0.24974333901E+04 0.  0.
        4    1    3    3  502    0  0.63576804446E+03 -0.73620158638E+03  0.20871106101E+04  0.23026563125E+04  0.12699999809E+01 0. -1.
       -4    1    3    3    0  502 -0.63576804446E+03  0.73620158638E+03  0.32938110789E+02  0.97328326514E+03  0.12699999809E+01 0.  1.
</event>
<event>
 5   0  0.3814260E-06  0.2501527E+04  0.7818609E-02  0.8402442E-01
        2   -1    0    0  501    0  0.00000000000E+00  0.00000000000E+00  0.12571013881E+04  0.12571013881E+04  0.25500000920E-02 0. -1.
       -2   -1    0    0    0  501  0.00000000000E+00  0.00000000000E+00 -0.12444574598E+04  0.12444574598E+04  0.25500000920E-02 0.  1.
    10030    2    1    2    0    0  0.00000000000E+00  0.00000000000E+00  0.12643928329E+02  0.25015588478E+04  0.25015268938E+04 0.  0.
        5    1    3    3  502    0  0.41219103146E+03 -0.32558461588E+03  0.11414489348E+04  0.12565168320E+04  0.46999998093E+01 0. -1.
       -5    1    3    3    0  502 -0.41219103146E+03  0.32558461588E+03 -0.11288050065E+04  0.12450420158E+04  0.46999998093E+01 0.  1.
</event>
<event>
 5   0  0.3808293E-06  0.2500692E+04  0.7818609E-02  0.8402739E-01
       -2   -1    0    0    0  501  0.00000000000E+00  0.00000000000E+00  0.80084775946E+03  0.80084775946E+03  0.25500000920E-02 0.  1.
        2   -1    0    0  501    0  0.00000000000E+00  0.00000000000E+00 -0.19521383933E+04  0.19521383933E+04  0.25500000920E-02 0. -1.
    10030    2    1    2    0    0  0.00000000000E+00  0.00000000000E+00 -0.11512906338E+04  0.27529861527E+04  0.25006924308E+04 0.  0.
        1    1    3    3  502    0 -0.78858055396E+03  0.65431104351E+03 -0.13644412623E+04  0.17063651983E+04  0.50400001928E-02 0. -1.
       -1    1    3    3    0  502  0.78858055396E+03 -0.65431104351E+03  0.21315062850E+03  0.10466209544E+04  0.50400001928E-02 0.  1.
</event>
<event>
 5   0  0.3808293E-06  0.2496985E+04  0.7818609E-02  0.8404060E-01
        2   -1    0    0  501    0  0.00000000000E+00  0.00000000000E+00  0.81172169856E+03  0.81172169857E+03  0.25500000920E-02 0. -1.
       -2   -1    0    0    0  501  0.00000000000E+00  0.00000000000E+00 -0.19202810543E+04  0.19202810543E+04  0.25500000920E-02 0.  1.
    10030    2    1    2    0    0  0.00000000000E+00  0.00000000000E+00 -0.11085593558E+04  0.27320027529E+04  0.24969852215E+04 0.  0.
        1    1    3    3  502    0 -0.41701343830E+03 -0.90571820725E+03 -0.13763335086E+04  0.16995645341E+04  0.50400001928E-02 0. -1.
       -1    1    3    3    0  502  0.41701343830E+03  0.90571820725E+03  0.26777415284E+03  0.10324382188E+04  0.50400001928E-02 0.  1.
</event>
<event>
 5   0  0.1287375E-06  0.2505582E+04  0.7818609E-02  0.8401000E-01
        3   -1    0    0  501    0  0.00000000000E+00  0.00000000000E+00  0.12599854390E+04  0.12599854431E+04  0.10100000352E+00 0.  1.
       -3   -1    0    0    0  501  0.00000000000E+00  0.00000000000E+00 -0.12456376392E+04  0.12456376433E+04  0.10100000352E+00 0. -1.
    10030    2    1    2    0    0  0.00000000000E+00  0.00000000000E+00  0.14347799849E+02  0.25056230864E+04  0.25055820066E+04 0.  0.
        2    1    3    3  502    0  0.15313869427E+03 -0.57986144418E+03  0.11070985401E+04  0.12591099760E+04  0.25500000920E-02 0.  1.
       -2    1    3    3    0  502 -0.15313869427E+03  0.57986144418E+03 -0.10927507402E+04  0.12465131104E+04  0.25500000920E-02 0. -1.
</event>
<event>
 5   0  0.1287375E-06  0.2510272E+04  0.7818609E-02  0.8399335E-01
       -3   -1    0    0    0  501  0.00000000000E+00  0.00000000000E+00  0.15440174269E+04  0.15440174302E+04  0.10100000352E+00 0.  1.
        3   -1    0    0  501    0  0.00000000000E+00  0.00000000000E+00 -0.10203035770E+04  0.10203035820E+04  0.10100000352E+00 0. -1.
    10030    2    1    2    0    0  0.00000000000E+00  0.00000000000E+00  0.52371384997E+03  0.25643210122E+04  0.25102721082E+04 0.  0.
        4    1    3    3  502    0 -0.88910418502E+03  0.74349232362E+02  0.11636616823E+04  0.14663369954E+04  0.12699999809E+01 0.  1.
       -4    1    3    3    0  502  0.88910418502E+03 -0.74349232362E+02 -0.63994783236E+03  0.10979840168E+04  0.12699999809E+01 0. -1.
</event>
<event>
 5   0  0.3971759E-06  0.2499879E+04  0.7818609E-02  0.8403029E-01
       -2   -1    0    0    0  501  0.00000000000E+00  0.00000000000E+00  0.18924010970E+04  0.18924010970E+04  0.25500000920E-02 0. -1.
        2   -1    0    0  501    0  0.00000000000E+00  0.00000000000E+00 -0.82559039192E+03  0.82559039193E+03  0.25500000920E-02 0.  1.
    10030    2    1    2    0    0  0.00000000000E+00  0.00000000000E+00  0.10668107051E+04  0.27179914889E+04  0.24998785277E+04 0.  0.
        4    1    3    3  502    0  0.49203613989E+03 -0.80725571471E+03 -0.35560652851E+03  0.10100588933E+04  0.12699999809E+01 0.  1.
       -4    1    3    3    0  502 -0.49203613989E+03  0.80725571471E+03  0.14224172336E+04  0.17079325956E+04  0.12699999809E+01 0. -1.
</event>
<event>
 5   0  0.1519145E-06  0.2490165E+04  0.7818609E-02  0.8406498E-01
        1   -1    0    0  501    0  0.00000000000E+00  0.00000000000E+00  0.10476671395E+04  0.10476671395E+04  0.50400001928E-02 0.  1.
       -1   -1    0    0    0  501  0.00000000000E+00  0.00000000000E+00 -0.14796969347E+04  0.14796969348E+04  0.50400001928E-02 0. -1.
    10030    2    1    2    0    0  0.00000000000E+00  0.00000000000E+00 -0.43202979524E+03  0.25273640743E+04  0.24901645367E+04 0.  0.
        4    1    3    3  502    0  0.31894032987E+03 -0.65149282459E+03 -0.12430918313E+04  0.14392514543E+04  0.12699999809E+01 0. -1.
       -4    1    3    3    0  502 -0.31894032987E+03  0.65149282459E+03  0.81106203611E+03  0.10881126200E+04  0.12699999809E+01 0.  1.
</event>
<event>
 5   0  0.3971759E-06  0.2476862E+04  0.7818609E-02  0.8411275E-01
       -2   -1    0    0    0  501  0.00000000000E+00  0.00000000000E+00  0.10961157098E+04  0.10961157098E+04  0.25500000920E-02 0. -1.
        2   -1    0    0  501    0  0.00000000000E+00  0.00000000000E+00 -0.13992239219E+04  0.13992239219E+04  0.25500000920E-02 0.  1.
    10030    2    1    2    0    0  0.00000000000E+00  0.00000000000E+00 -0.30310821214E+03  0.24953396317E+04  0.24768619843E+04 0.  0.
        4    1    3    3  502    0 -0.67898894166E+03  0.89106632015E+03  0.38028993169E+03  0.11830668683E+04  0.12699999809E+01 0. -1.
       -4    1    3    3    0  502  0.67898894166E+03 -0.89106632015E+03 -0.68339814383E+03  0.13122727634E+04  0.12699999809E+01 0.  1.
</event>
<event>
 5   0  0.1574896E-06  0.2497929E+04  0.7818609E-02  0.8403724E-01
        1   -1    0    0  501    0  0.00000000000E+00  0.00000000000E+00  0.20314555753E+04  0.20314555753E+04  0.50400001928E-02 0.  1.
       -1   -1    0    0    0  501  0.00000000000E+00  0.00000000000E+00 -0.76787932101E+03  0.76787932102E+03  0.50400001928E-02 0. -1.
    10030    2    1    2    0    0  0.00000000000E+00  0.00000000000E+00  0.12635762543E+04  0.27993348964E+04  0.24979293248E+04 0.  0.
        3    1    3    3  502    0 -0.42448639291E+03 -0.54731203434E+03  0.17965079911E+04  0.19254038883E+04  0.10100000352E+00 0.  1.
       -3    1    3    3    0  502  0.42448639291E+03  0.54731203434E+03 -0.53293173675E+03  0.87393100811E+03  0.10100000352E+00 0. -1.
</event>
<event>
 5   0  0.1519145E-06  0.2500108E+04  0.7818609E-02  0.8402947E-01
       -1   -1    0    0    0  501  0.00000000000E+00  0.00000000000E+00  0.87819679465E+03  0.87819679466E+03  0.50400001928E-02 0.  1.
        1   -1    0    0  501    0  0.00000000000E+00  0.00000000000E+00 -0.17793677780E+04  0.17793677780E+04  0.50400001928E-02 0. -1.
    10030    2    1    2    0    0  0.00000000000E+00  0.00000000000E+00 -0.90117098333E+03  0.26575645727E+04  0.25001080610E+04 0.  0.
        4    1    3    3  502    0 -0.33590155736E+03 -0.49963615945E+03  0.71393180476E+03  0.93389848635E+03  0.12699999809E+01 0.  1.
       -4    1    3    3    0  502  0.33590155736E+03  0.49963615945E+03 -0.16151027881E+04  0.17236660863E+04  0.12699999809E+01 0. -1.
</event>
<event>
 5   0  0.1501747E-06  0.2496575E+04  0.7818609E-02  0.8404207E-01
       -1   -1    0    0    0  501  0.00000000000E+00  0.00000000000E+00  0.63069455986E+03  0.63069455988E+03  0.50400001928E-02 0. -1.
        1   -1    0    0  501    0  0.00000000000E+00  0.00000000000E+00 -0.24706441998E+04  0.24706441998E+04  0.50400001928E-02 0.  1.
    10030    2    1    2    0    0  0.00000000000E+00  0.00000000000E+00 -0.18399496399E+04  0.31013387597E+04  0.24965751390E+04 0.  0.
        2    1    3    3  502    0 -0.35212285844E+02  0.12348582507E+04 -0.69738526613E+03  0.14186123551E+04  0.25500000920E-02 0. -1.
       -2    1    3    3    0  502  0.35212285844E+02 -0.12348582507E+04 -0.11425643738E+04  0.16827264046E+04  0.25500000920E-02 0.  1.
</event>
<event>
 5   0  0.3808293E-06  0.2503185E+04  0.7818609E-02  0.8401852E-01
       -2   -1    0    0    0  501  0.00000000000E+00  0.00000000000E+00  0.13501814319E+04  0.13501814319E+04  0.25500000920E-02 0. -1.
        2   -1    0    0  501    0  0.00000000000E+00  0.00000000000E+00 -0.11602027786E+04  0.11602027786E+04  0.25500000920E-02 0.  1.
    10030    2    1    2    0    0  0.00000000000E+00  0.00000000000E+00  0.18997865327E+03  0.25103842105E+04  0.25031853698E+04 0.  0.
        1    1    3    3  502    0 -0.73721498311E+03 -0.32414953033E+03  0.10558288883E+04  0.13279056784E+04  0.50400001928E-02 0. -1.
       -1    1    3    3    0  502  0.73721498311E+03  0.32414953033E+03 -0.86585023504E+03  0.11824785321E+04  0.50400001928E-02 0.  1.
</event>
<event>
 5   0  0.1553604E-06  0.2495523E+04  0.7818609E-02  0.8404582E-01
       -1   -1    0    0    0  501  0.00000000000E+00  0.00000000000E+00  0.11082054237E+04  0.11082054237E+04  0.50400001928E-02 0. -1.
        1   -1    0    0  501    0  0.00000000000E+00  0.00000000000E+00 -0.14048920226E+04  0.14048920226E+04  0.50400001928E-02 0.  1.
    10030    2    1    2    0    0  0.00000000000E+00  0.00000000000E+00 -0.29668659889E+03  0.25130974463E+04  0.24955231589E+04 0.  0.
        1    1    3    3  502    0  0.35245126296E+03  0.11688681251E+04  0.11122051208E+03  0.12259056199E+04  0.50400001928E-02 0. -1.
       -1    1    3    3    0  502 -0.35245126296E+03 -0.11688681251E+04 -0.40790711097E+03  0.12871918264E+04  0.50400001928E-02 0.  1.
</event>
<event>
 5   0  0.3713394E-06  0.2500101E+04  0.7818609E-02  0.8402950E-01
       -2   -1    0    0    0  501  0.00000000000E+00  0.00000000000E+00  0.13392894071E+04  0.13392894071E+04  0.25500000920E-02 0. -1.
        2   -1    0    0  501    0  0.00000000000E+00  0.00000000000E+00 -0.11667578277E+04  0.11667578277E+04  0.25500000920E-02 0.  1.
    10030    2    1    2    0    0  0.00000000000E+00  0.00000000000E+00  0.17253157942E+03  0.25060472348E+04  0.25001011174E+04 0.  0.
        3    1    3    3  502    0 -0.47391866549E+03 -0.21366145282E+03 -0.10532652672E+04  0.11745713479E+04  0.10100000352E+00 0.  1.
       -3    1    3    3    0  502  0.47391866549E+03  0.21366145282E+03  0.12257968467E+04  0.13314758869E+04  0.10100000352E+00 0. -1.
</event>
<event>
 5   0  0.3924441E-06  0.2487122E+04  0.7818609E-02  0.8407588E-01
        2   -1    0    0  501    0  0.00000000000E+00  0.00000000000E+00  0.21254762414E+04  0.21254762414E+04  0.25500000920E-02 0. -1.
       -2   -1    0    0    0  501  0.00000000000E+00  0.00000000000E+00 -0.72757553825E+03  0.72757553825E+03  0.25500000920E-02 0.  1.
    10030    2    1    2    0    0  0.00000000000E+00  0.00000000000E+00  0.13979007032E+04  0.28530517797E+04  0.24871224501E+04 0.  0.
        2    1    3    3  502    0  0.27250038781E+03  0.11841736847E+04  0.39562025397E+03  0.12779042070E+04  0.25500000920E-02 0.  1.
       -2    1    3    3    0  502 -0.27250038781E+03 -0.11841736847E+04  0.10022804492E+04  0.15751475727E+04  0.25500000920E-02 0. -1.
</event>
<event>
 5   0  0.3971759E-06  0.2520450E+04  0.7818609E-02  0.8395736E-01
        2   -1    0    0  501    0  0.00000000000E+00  0.00000000000E+00  0.17059309877E+04  0.17059309877E+04  0.25500000920E-02 0.  1.
       -2   -1    0    0    0  501  0.00000000000E+00  0.00000000000E+00 -0.93096792747E+03  0.93096792748E+03  0.25500000920E-02 0. -1.
    10030    2    1    2    0    0  0.00000000000E+00  0.00000000000E+00  0.77496306021E+03  0.26368989152E+04  0.25204499884E+04 0.  0.
        4    1    3    3  502    0  0.46205988161E+03  0.29890318244E+02  0.16137140550E+04  0.16788291841E+04  0.12699999809E+01 0.  1.
       -4    1    3    3    0  502 -0.46205988161E+03 -0.29890318244E+02 -0.83875099479E+03  0.95806973101E+03  0.12699999809E+01 0. -1.
</event>
<event>
 5   0  0.1519145E-06  0.2507559E+04  0.7818609E-02  0.8400298E-01
        1   -1    0    0  501    0  0.00000000000E+00  0.00000000000E+00  0.99897989647E+03  0.99897989648E+03  0.50400001928E-02 0. -1.
       -1   -1    0    0    0  501  0.00000000000E+00  0.00000000000E+00 -0.15735678114E+04  0.15735678114E+04  0.50400001928E-02 0.  1.
    10030    2    1    2    0    0  0.00000000000E+00  0.00000000000E+00 -0.57458791493E+03  0.25725477079E+04  0.25075586608E+04 0.  0.
        4    1    3    3  502    0  0.42652025089E+03 -0.10869741907E+04 -0.75577835292E+03  0.13909115526E+04  0.12699999809E+01 0.  1.
       -4    1    3    3    0  502 -0.42652025089E+03  0.10869741907E+04  0.18119043799E+03  0.11816361552E+04  0.12699999809E+01 0. -1.
</event>
<event>
 5   0  0.1553604E-06  0.2508897E+04  0.7818609E-02  0.8399823E-01
        1   -1    0    0  501    0  0.00000000000E+00  0.00000000000E+00  0.14177648447E+04  0.14177648447E+04  0.50400001928E-02 0. -1.
       -1   -1    0    0    0  501  0.00000000000E+00  0.00000000000E+00 -0.11099448632E+04  0.11099448632E+04  0.50400001928E-02 0.  1.
    10030    2    1    2    0    0  0.00000000000E+00  0.00000000000E+00  0.30781998153E+03  0.25277097079E+04  0.25088968146E+04 0.  0.
        1    1    3    3  502    0  0.39832788723E+03 -0.11820203375E+04  0.28834072934E+03  0.12802255896E+04  0.50400001928E-02 0.  1.
       -1    1    3    3    0  502 -0.39832788723E+03  0.11820203375E+04  0.19479252194E+02  0.12474841183E+04  0.50400001928E-02 0. -1.
</event>
<event>
 5   0  0.3971759E-06  0.2501222E+04  0.7818609E-02  0.8402550E-01
       -2   -1    0    0    0  501  0.00000000000E+00  0.00000000000E+00  0.56214918696E+03  0.56214918696E+03  0.25500000920E-02 0. -1.
        2   -1    0    0  501    0  0.00000000000E+00  0.00000000000E+00 -0.27822286923E+04  0.27822286923E+04  0.25500000920E-02 0.  1.
    10030    2    1    2    0    0  0.00000000000E+00  0.00000000000E+00 -0.22200795053E+04  0.33443778793E+04  0.25012217793E+04 0.  0.
        4    1    3    3  502    0  0.12114847136E+04  0.23363559779E+03 -0.13832307053E+04  0.18535397490E+04  0.12699999809E+01 0.  1.
       -4    1    3    3    0  502 -0.12114847136E+04 -0.23363559779E+03 -0.83684879998E+03  0.14908381303E+04  0.12699999809E+01 0. -1.
</event>
<event>
 5   0  0.3814260E-06  0.2502604E+04  0.7818609E-02  0.8402058E-01
        2   -1    0    0  501    0  0.00000000000E+00  0.00000000000E+00  0.27259916536E+04  0.27259916536E+04  0.25500000920E-02 0.  1.
       -2   -1    0    0    0  501  0.00000000000E+00  0.00000000000E+00 -0.57438072555E+03  0.57438072556E+03  0.25500000920E-02 0. -1.
    10030    2    1    2    0    0  0.00000000000E+00  0.00000000000E+00  0.21516109280E+04  0.33003723792E+04  0.25026042946E+04 0.  0.
        5    1    3    3  502    0 -0.32928238921E+03 -0.36687979246E+03 -0.44090482709E+03  0.66139763419E+03  0.46999998093E+01 0. -1.
       -5    1    3    3    0  502  0.32928238921E+03  0.36687979246E+03  0.25925157551E+04  0.26389747450E+04  0.46999998093E+01 0.  1.
</event>
<event>
 5   0  0.1501747E-06  0.2498289E+04  0.7818609E-02  0.8403595E-01
        1   -1    0    0  501    0  0.00000000000E+00  0.00000000000E+00  0.12653883069E+04  0.12653883069E+04  0.50400001928E-02 0. -1.
       -1   -1    0    0    0  501  0.00000000000E+00  0.00000000000E+00 -0.12331093174E+04  0.12331093174E+04  0.50400001928E-02 0.  1.
    10030    2    1    2    0    0  0.00000000000E+00  0.00000000000E+00  0.32278989497E+02  0.24984976243E+04  0.24982891036E+04 0.  0.
        2    1    3    3  502    0  0.66398005648E+03  0.57404761965E+03  0.90501170194E+03  0.12607324719E+04  0.25500000920E-02 0. -1.
       -2    1    3    3    0  502 -0.66398005648E+03 -0.57404761965E+03 -0.87273271244E+03  0.12377651524E+04  0.25500000920E-02 0.  1.
</event>
<event>
 5   0  0.1574896E-06  0.2490438E+04  0.7818609E-02  0.8406400E-01
        1   -1    0    0  501    0  0.00000000000E+00  0.00000000000E+00  0.10560525202E+04  0.10560525202E+04  0.50400001928E-02 0.  1.
       -1   -1    0    0    0  501  0.00000000000E+00  0.00000000000E+00 -0.14682697137E+04  0.14682697137E+04  0.50400001928E-02 0. -1.
    10030    2    1    2    0    0  0.00000000000E+00  0.00000000000E+00 -0.41221719351E+03  0.25243222340E+04  0.24904376576E+04 0.  0.
        3    1    3    3  502    0  0.59229988889E+03 -0.60592666790E+03 -0.11309947329E+04  0.14131933276E+04  0.10100000352E+00 0. -1.
       -3    1    3    3    0  502 -0.59229988889E+03  0.60592666790E+03  0.71877753936E+03  0.11111289064E+04  0.10100000352E+00 0.  1.
</event>
<event>
 5   0  0.3924441E-06  0.2502798E+04  0.7818609E-02  0.8401989E-01
        2   -1    0    0  501    0  0.00000000000E+00  0.00000000000E+00  0.12084258251E+04  0.12084258251E+04  0.25500000920E-02 0. -1.
       -2   -1    0    0    0  501  0.00000000000E+00  0.00000000000E+00 -0.12959006693E+04  0.12959006693E+04  0.25500000920E-02 0.  1.
    10030    2    1    2    0    0  0.00000000000E+00  0.00000000000E+00 -0.87474844226E+02  0.25043264944E+04  0.25027983023E+04 0.  0.
        2    1    3    3  502    0 -0.86776520755E+03  0.89517512893E+03 -0.15171470461E+03  0.12559348385E+04  0.25500000920E-02 0.  1.
       -2    1    3    3    0  502  0.86776520755E+03 -0.89517512893E+03  0.64239860387E+02  0.12483916559E+04  0.25500000920E-02 0. -1.
</event>
<event>
 5   0  0.3971759E-06  0.2501426E+04  0.7818609E-02  0.8402478E-01
       -2   -1    0    0    0  501  0.00000000000E+00  0.00000000000E+00  0.94708944498E+03  0.94708944499E+03  0.25500000920E-02 0.  1.
        2   -1    0    0  501    0  0.00000000000E+00  0.00000000000E+00 -0.16516746152E+04  0.16516746152E+04  0.25500000920E-02 0. -1.
    10030    2    1    2    0    0  0.00000000000E+00  0.00000000000E+00 -0.70458517018E+03  0.25987640602E+04  0.25014264687E+04 0.  0.
        4    1    3    3  502    0 -0.64227256458E+03  0.10613289342E+04 -0.18688399767E+03  0.12545359282E+04  0.12699999809E+01 0.  1.
       -4    1    3    3    0  502  0.64227256458E+03 -0.10613289342E+04 -0.51770117252E+03  0.13442281319E+04  0.12699999809E+01 0. -1.
</event>
<event>
 5   0  0.1553604E-06  0.2495042E+04  0.7818609E-02  0.8404754E-01
        1   -1    0    0  501    0  0.00000000000E+00  0.00000000000E+00  0.20006633163E+04  0.20006633163E+04  0.50400001928E-02 0. -1.
       -1   -1    0    0    0  501  0.00000000000E+00  0.00000000000E+00 -0.77789643803E+03  0.77789643804E+03  0.50400001928E-02 0.  1.
    10030    2    1    2    0    0  0.00000000000E+00  0.00000000000E+00  0.12227668783E+04  0.27785597544E+04  0.24950421780E+04 0.  0.
        1    1    3    3  502    0  0.11150691174E+04 -0.10898552848E+03  0.35345104755E+00  0.11203825717E+04  0.50400001928E-02 0. -1.
       -1    1    3    3    0  502 -0.11150691174E+04  0.10898552848E+03  0.12224134272E+04  0.16581771827E+04  0.50400001928E-02 0.  1.
</event>
<event>
 5   0  0.1553604E-06  0.2499674E+04  0.7818609E-02  0.8403102E-01
        1   -1    0    0  501    0  0.00000000000E+00  0.00000000000E+00  0.11746691919E+04  0.11746691919E+04  0.50400001928E-02 0. -1.
       -1   -1    0    0    0  501  0.00000000000E+00  0.00000000000E+00 -0.13298147270E+04  0.13298147270E+04  0.50400001928E-02 0.  1.
    10030    2    1    2    0    0  0.00000000000E+00  0.00000000000E+00 -0.15514553510E+03  0.25044839188E+04  0.24996738913E+04 0.  0.
        1    1    3    3  502    0 -0.85002853532E+02  0.50265452382E+03 -0.12209107428E+04  0.13230684401E+04  0.50400001928E-02 0.  1.
       -1    1    3    3    0  502  0.85002853532E+02 -0.50265452382E+03  0.10657652077E+04  0.11814154787E+04  0.50400001928E-02 0. -1.
</event>
<event>
 5   0  0.3713394E-06  0.2504732E+04  0.7818609E-02  0.8401302E-01
        2   -1    0    0  501    0  0.00000000000E+00  0.00000000000E+00  0.51666454047E+03  0.51666454047E+03  0.25500000920E-02 0.  1.
       -2   -1    0    0    0  501  0.00000000000E+00  0.00000000000E+00 -0.30356642503E+04  0.30356642503E+04  0.25500000920E-02 0. -1.
    10030    2    1    2    0    0  0.00000000000E+00  0.00000000000E+00 -0.25189997098E+04  0.35523287908E+04  0.25047315823E+04 0.  0.
        3    1    3    3  502    0  0.28677176627E+03  0.79576539360E+03 -0.25693181932E+04  0.27049725684E+04  0.10100000352E+00 0. -1.
       -3    1    3    3    0  502 -0.28677176627E+03 -0.79576539360E+03  0.50318483413E+02  0.84735622235E+03  0.10100000352E+00 0.  1.
</event>
<event>
 5   0  0.1519145E-06  0.2497537E+04  0.7818609E-02  0.8403863E-01
        1   -1    0    0  501    0  0.00000000000E+00  0.00000000000E+00  0.21860640164E+04  0.21860640164E+04  0.50400001928E-02 0. -1.
       -1   -1    0    0    0  501  0.00000000000E+00  0.00000000000E+00 -0.71334739324E+03  0.71334739326E+03  0.50400001928E-02 0.  1.
    10030    2    1    2    0    0  0.00000000000E+00  0.00000000000E+00  0.14727166232E+04  0.28994114097E+04  0.24975372410E+04 0.  0.
        4    1    3    3  502    0 -0.52829842480E+03  0.17511132558E+03  0.20341156748E+04  0.21088839212E+04  0.12699999809E+01 0. -1.
       -4    1    3    3    0  502  0.52829842480E+03 -0.17511132558E+03 -0.56139905158E+03  0.79052748846E+03  0.12699999809E+01 0.  1.
</event>
<event>
 5   0  0.1574896E-06  0.2483916E+04  0.7818609E-02  0.8408738E-01
        1   -1    0    0  501    0  0.00000000000E+00  0.00000000000E+00  0.99776425008E+03  0.99776425009E+03  0.50400001928E-02 0.  1.
       -1   -1    0    0    0  501  0.00000000000E+00  0.00000000000E+00 -0.15459158595E+04  0.15459158595E+04  0.50400001928E-02 0. -1.
    10030    2    1    2    0    0  0.00000000000E+00  0.00000000000E+00 -0.54815160940E+03  0.25436801096E+04  0.24839159231E+04 0.  0.
        3    1    3    3  502    0 -0.13408213608E+03 -0.22394423930E+03  0.96935903428E+03  0.10038854462E+04  0.10100000352E+00 0.  1.
       -3    1    3    3    0  502  0.13408213608E+03  0.22394423930E+03 -0.15175106437E+04  0.15397946634E+04  0.10100000352E+00 0. -1.
</event>
<event>
 5   0  0.1553604E-06  0.2505133E+04  0.7818609E-02  0.8401159E-01
        1   -1    0    0  501    0  0.00000000000E+00  0.00000000000E+00  0.17107469507E+04  0.17107469507E+04  0.50400001928E-02 0. -1.
       -1   -1    0    0    0  501  0.00000000000E+00  0.00000000000E+00 -0.91709791809E+03  0.91709791811E+03  0.50400001928E-02 0.  1.
    10030    2    1    2    0    0  0.00000000000E+00  0.00000000000E+00  0.79364903261E+03  0.26278448688E+04  0.25051327046E+04 0.  0.
        1    1    3    3  502    0  0.72584469306E+02 -0.10068079690E+04  0.11747662044E+04  0.15488726309E+04  0.50400001928E-02 0. -1.
       -1    1    3    3    0  502 -0.72584469306E+02  0.10068079690E+04 -0.38111717176E+03  0.10789722380E+04  0.50400001928E-02 0.  1.
</event>
<event>
 5   0  0.1574896E-06  0.2501144E+04  0.7818609E-02  0.8402578E-01
        1   -1    0    0  501    0  0.00000000000E+00  0.00000000000E+00  0.75839298337E+03  0.75839298339E+03  0.50400001928E-02 0. -1.
       -1   -1    0    0    0  501  0.00000000000E+00  0.00000000000E+00 -0.20621632314E+04  0.20621632314E+04  0.50400001928E-02 0.  1.
    10030    2    1    2    0    0  0.00000000000E+00  0.00000000000E+00 -0.13037702480E+04  0.28205562148E+04  0.25011438386E+04 0.  0.
        3    1    3    3  502    0  0.12155028387E+04 -0.68897979226E+02 -0.32947930731E+03  0.12612496607E+04  0.10100000352E+00 0. -1.
       -3    1    3    3    0  502 -0.12155028387E+04  0.68897979226E+02 -0.97429094072E+03  0.15593065541E+04  0.10100000352E+00 0.  1.
</event>
<event>
 5   0  0.1287375E-06  0.2509142E+04  0.7818609E-02  0.8399736E-01
        4   -1    0    0  501    0  0.00000000000E+00  0.00000000000E+00  0.97972379019E+03  0.97972461333E+03  0.12699999809E+01 0.  1.
       -4   -1    0    0    0  501  0.00000000000E+00  0.00000000000E+00 -0.16065214362E+04  0.16065219382E+04  0.12699999809E+01 0. -1.
    10030    2    1    2    0    0  0.00000000000E+00  0.00000000000E+00 -0.62679764602E+03  0.25862465515E+04  0.25091424703E+04 0.  0.
        3    1    3    3  502    0 -0.21411108998E+03  0.77439513233E+03  0.67975446356E+03  0.10524245915E+04  0.10100000352E+00 0.  1.
       -3    1    3    3    0  502  0.21411108998E+03 -0.77439513233E+03 -0.13065521096E+04  0.15338219600E+04  0.10100000352E+00 0. -1.
</event>
<event>
 5   0  0.1519145E-06  0.2505228E+04  0.7818609E-02  0.8401126E-01
        1   -1    0    0  501    0  0.00000000000E+00  0.00000000000E+00  0.13217906953E+04  0.13217906953E+04  0.50400001928E-02 0. -1.
       -1   -1    0    0    0  501  0.00000000000E+00  0.00000000000E+00 -0.11870573018E+04  0.11870573018E+04  0.50400001928E-02 0.  1.
    10030    2    1    2    0    0  0.00000000000E+00  0.00000000000E+00  0.13473339351E+03  0.25088479971E+04  0.25052275715E+04 0.  0.
        4    1    3    3  502    0 -0.89190464975E+03  0.26171759105E+03 -0.77351912007E+03  0.12092656630E+04  0.12699999809E+01 0.  1.
       -4    1    3    3    0  502  0.89190464975E+03 -0.26171759105E+03  0.90825251358E+03  0.12995823341E+04  0.12699999809E+01 0. -1.
</event>
<event>
 5   0  0.1553604E-06  0.2502656E+04  0.7818609E-02  0.8402040E-01
        1   -1    0    0  501    0  0.00000000000E+00  0.00000000000E+00  0.17092145031E+04  0.17092145031E+04  0.50400001928E-02 0. -1.
       -1   -1    0    0    0  501  0.00000000000E+00  0.00000000000E+00 -0.91610574211E+03  0.91610574213E+03  0.50400001928E-02 0.  1.
    10030    2    1    2    0    0  0.00000000000E+00  0.00000000000E+00  0.79310876098E+03  0.26253202452E+04  0.25026555662E+04 0.  0.
        1    1    3    3  502    0  0.71155210283E+03  0.81071167514E+03 -0.26877298707E+03  0.11116648478E+04  0.50400001928E-02 0.  1.
       -1    1    3    3    0  502 -0.71155210283E+03 -0.81071167514E+03  0.10618817481E+04  0.15136553974E+04  0.50400001928E-02 0. -1.
</event>
<event>
 5   0  0.1574896E-06  0.2498710E+04  0.7818609E-02  0.8403445E-01
        1   -1    0    0  501    0  0.00000000000E+00  0.00000000000E+00  0.20100765210E+04  0.20100765210E+04  0.50400001928E-02 0. -1.
       -1   -1    0    0    0  501  0.00000000000E+00  0.00000000000E+00 -0.77653181846E+03  0.77653181847E+03  0.50400001928E-02 0.  1.
    10030    2    1    2    0    0  0.00000000000E+00  0.00000000000E+00  0.12335447025E+04  0.27866083395E+04  0.24987103683E+04 0.  0.
        3    1    3    3  502    0 -0.44161122603E+02  0.14118146157E+03 -0.76673083569E+03  0.78087040822E+03  0.10100000352E+00 0.  1.
       -3    1    3    3    0  502  0.44161122603E+02 -0.14118146157E+03  0.20002755382E+04  0.20057379312E+04  0.10100000352E+00 0. -1.
</event>
<event>
 5   0  0.3814260E-06  0.2520436E+04  0.7818609E-02  0.8395741E-01
        2   -1    0    0  501    0  0.00000000000E+00  0.00000000000E+00  0.14362867923E+04  0.14362867923E+04  0.25500000920E-02 0. -1.
       -2   -1    0    0    0  501  0.00000000000E+00  0.00000000000E+00 -0.11057324241E+04  0.11057324241E+04  0.25500000920E-02 0.  1.
    10030    2    1    2    0    0  0.00000000000E+00  0.00000000000E+00  0.33055436816E+03  0.25420192165E+04  0.25204355787E+04 0.  0.
        5    1    3    3  502    0 -0.12295339133E+04 -0.79471379336E+02 -0.10167308774E+03  0.12362964252E+04  0.46999998093E+01 0. -1.
       -5    1    3    3    0  502  0.12295339133E+04  0.79471379336E+02  0.43222745590E+03  0.13057227913E+04  0.46999998093E+01 0.  1.
</event>
<event>
 5   0  0.3971759E-06  0.2490970E+04  0.7818609E-02  0.8406210E-01
       -2   -1    0    0    0  501  0.00000000000E+00  0.00000000000E+00  0.82121800022E+03  0.82121800022E+03  0.25500000920E-02 0. -1.
        2   -1    0    0  501    0  0.00000000000E+00  0.00000000000E+00 -0.18889419332E+04  0.18889419332E+04  0.25500000920E-02 0.  1.
    10030    2    1    2    0    0  0.00000000000E+00  0.00000000000E+00 -0.10677239329E+04  0.27101599334E+04  0.24909701860E+04 0.  0.
        4    1    3    3  502    0 -0.97778105336E+03  0.66902787120E+03 -0.11590039592E+03  0.11904153038E+04  0.12699999809E+01 0.  1.
       -4    1    3    3    0  502  0.97778105336E+03 -0.66902787120E+03 -0.95182353702E+03  0.15197446296E+04  0.12699999809E+01 0. -1.
</event>
<event>
 5   0  0.1541852E-06  0.2498721E+04  0.7818609E-02  0.8403441E-01
       -1   -1    0    0    0  501  0.00000000000E+00  0.00000000000E+00  0.11668136229E+04  0.11668136229E+04  0.50400001928E-02 0.  1.
        1   -1    0    0  501    0  0.00000000000E+00  0.00000000000E+00 -0.13377468743E+04  0.13377468743E+04  0.50400001928E-02 0. -1.
    10030    2    1    2    0    0  0.00000000000E+00  0.00000000000E+00 -0.17093325142E+03  0.25045604971E+04  0.24987206942E+04 0.  0.
        5    1    3    3  502    0 -0.63648012440E+03 -0.10026807235E+04  0.30325878901E+03  0.12257502050E+04  0.46999998093E+01 0.  1.
       -5    1    3    3    0  502  0.63648012440E+03  0.10026807235E+04 -0.47419204044E+03  0.12788102921E+04  0.46999998093E+01 0. -1.
</event>
<event>
 5   0  0.3971759E-06  0.2507792E+04  0.7818609E-02  0.8400215E-01
       -2   -1    0    0    0  501  0.00000000000E+00  0.00000000000E+00  0.87231819192E+03  0.87231819192E+03  0.25500000920E-02 0. -1.
        2   -1    0    0  501    0  0.00000000000E+00  0.00000000000E+00 -0.18023876807E+04  0.18023876807E+04  0.25500000920E-02 0.  1.
    10030    2    1    2    0    0  0.00000000000E+00  0.00000000000E+00 -0.93006948881E+03  0.26747058727E+04  0.25077923062E+04 0.  0.
        4    1    3    3  502    0 -0.81334154695E+03 -0.30592902825E+03  0.49908700239E+03  0.10021010384E+04  0.12699999809E+01 0. -1.
       -4    1    3    3    0  502  0.81334154695E+03  0.30592902825E+03 -0.14291564912E+04  0.16726048342E+04  0.12699999809E+01 0.  1.
</event>
<event>
 5   0  0.1574896E-06  0.2512349E+04  0.7818609E-02  0.8398599E-01
        1   -1    0    0  501    0  0.00000000000E+00  0.00000000000E+00  0.13020235587E+04  0.13020235587E+04  0.50400001928E-02 0. -1.
       -1   -1    0    0    0  501  0.00000000000E+00  0.00000000000E+00 -0.12119396405E+04  0.12119396405E+04  0.50400001928E-02 0.  1.
    10030    2    1    2    0    0  0.00000000000E+00  0.00000000000E+00  0.90083918207E+02  0.25139631993E+04  0.25123486731E+04 0.  0.
        3    1    3    3  502    0 -0.64969798620E+02 -0.75771668103E+03 -0.95540969129E+03  0.12211319879E+04  0.10100000352E+00 0.  1.
       -3    1    3    3    0  502  0.64969798620E+02  0.75771668103E+03  0.10454936095E+04  0.12928312114E+04  0.10100000352E+00 0. -1.
</event>
<event>
 5   0  0.3924441E-06  0.2507835E+04  0.7818609E-02  0.8400200E-01
       -2   -1    0    0    0  501  0.00000000000E+00  0.00000000000E+00  0.12647989427E+04  0.12647989427E+04  0.25500000920E-02 0.  1.
        2   -1    0    0  501    0  0.00000000000E+00  0.00000000000E+00 -0.12431297795E+04  0.12431297795E+04  0.25500000920E-02 0. -1.
    10030    2    1    2    0    0  0.00000000000E+00  0.00000000000E+00  0.21669163114E+02  0.25079287222E+04  0.25078351068E+04 0.  0.
        2    1    3    3  502    0 -0.56809058797E+03 -0.10052453390E+04 -0.47812551040E+03  0.12497396174E+04  0.25500000920E-02 0. -1.
       -2    1    3    3    0  502  0.56809058797E+03  0.10052453390E+04  0.49979467351E+03  0.12581891048E+04  0.25500000920E-02 0.  1.
</event>
<event>
 5   0  0.3808293E-06  0.2507681E+04  0.7818609E-02  0.8400254E-01
       -2   -1    0    0    0  501  0.00000000000E+00  0.00000000000E+00  0.15289740085E+04  0.15289740085E+04  0.25500000920E-02 0. -1.
        2   -1    0    0  501    0  0.00000000000E+00  0.00000000000E+00 -0.10282163980E+04  0.10282163980E+04  0.25500000920E-02 0.  1.
    10030    2    1    2    0    0  0.00000000000E+00  0.00000000000E+00  0.50075761051E+03  0.25571904065E+04  0.25076811182E+04 0.  0.
        1    1    3    3  502    0 -0.19054160510E+02  0.11708285255E+04 -0.20670462582E+03  0.11890875912E+04  0.50400001928E-02 0.  1.
       -1    1    3    3    0  502  0.19054160510E+02 -0.11708285255E+04  0.70746223633E+03  0.13681028153E+04  0.50400001928E-02 0. -1.
</event>
<event>
 5   0  0.1519145E-06  0.2504527E+04  0.7818609E-02  0.8401374E-01
        1   -1    0    0  501    0  0.00000000000E+00  0.00000000000E+00  0.56581616047E+03  0.56581616050E+03  0.50400001928E-02 0.  1.
       -1   -1    0    0    0  501  0.00000000000E+00  0.00000000000E+00 -0.27715082790E+04  0.27715082790E+04  0.50400001928E-02 0. -1.
    10030    2    1    2    0    0  0.00000000000E+00  0.00000000000E+00 -0.22056921185E+04  0.33373244395E+04  0.25045272394E+04 0.  0.
        4    1    3    3  502    0  0.35636490993E+03  0.23015131225E+03  0.46714875438E+03  0.63102705741E+03  0.12699999809E+01 0.  1.
       -4    1    3    3    0  502 -0.35636490993E+03 -0.23015131225E+03 -0.26728408729E+04  0.27062973821E+04  0.12699999809E+01 0. -1.
</event>
<event>
 5   0  0.3808293E-06  0.2500184E+04  0.7818609E-02  0.8402920E-01
       -2   -1    0    0    0  501  0.00000000000E+00  0.00000000000E+00  0.12684187686E+04  0.12684187686E+04  0.25500000920E-02 0.  1.
        2   -1    0    0  501    0  0.00000000000E+00  0.00000000000E+00 -0.12320299386E+04  0.12320299386E+04  0.25500000920E-02 0. -1.
    10030    2    1    2    0    0  0.00000000000E+00  0.00000000000E+00  0.36388829924E+02  0.25004487072E+04  0.25001839113E+04 0.  0.
        1    1    3    3  502    0  0.14944299808E+03  0.91271900655E+03  0.85931898398E+03  0.12624651721E+04  0.50400001928E-02 0.  1.
       -1    1    3    3    0  502 -0.14944299808E+03 -0.91271900655E+03 -0.82293015406E+03  0.12379835351E+04  0.50400001928E-02 0. -1.
</event>
<event>
 5   0  0.1501747E-06  0.2500737E+04  0.7818609E-02  0.8402723E-01
       -1   -1    0    0    0  501  0.00000000000E+00  0.00000000000E+00  0.11622782063E+04  0.11622782064E+04  0.50400001928E-02 0.  1.
        1   -1    0    0  501    0  0.00000000000E+00  0.00000000000E+00 -0.13451348997E+04  0.13451348997E+04  0.50400001928E-02 0. -1.
    10030    2    1    2    0    0  0.00000000000E+00  0.00000000000E+00 -0.18285669332E+03  0.25074131060E+04  0.25007366743E+04 0.  0.
        2    1    3    3  502    0 -0.23288266107E+03 -0.86732544807E+03  0.78091350515E+03  0.11900897736E+04  0.25500000920E-02 0.  1.
       -2    1    3    3    0  502  0.23288266107E+03  0.86732544807E+03 -0.96377019847E+03  0.13173233324E+04  0.25500000920E-02 0. -1.
</event>
<event>
 5   0  0.3971759E-06  0.2501388E+04  0.7818609E-02  0.8402491E-01
       -2   -1    0    0    0  501  0.00000000000E+00  0.00000000000E+00  0.97484621180E+03  0.97484621181E+03  0.25500000920E-02 0.  1.
        2   -1    0    0  501    0  0.00000000000E+00  0.00000000000E+00 -0.16045975289E+04  0.16045975289E+04  0.25500000920E-02 0. -1.
    10030    2    1    2    0    0  0.00000000000E+00  0.00000000000E+00 -0.62975131706E+03  0.25794437407E+04  0.25013882725E+04 0.  0.
        4    1    3    3  502    0 -0.10239305836E+04  0.66091715511E+03 -0.25055934344E+02  0.12189646175E+04  0.12699999809E+01 0. -1.
       -4    1    3    3    0  502  0.10239305836E+04 -0.66091715511E+03 -0.60469538272E+03  0.13604791232E+04  0.12699999809E+01 0.  1.
</event>
<event>
 5   0  0.3713394E-06  0.2500422E+04  0.7818609E-02  0.8402835E-01
       -2   -1    0    0    0  501  0.00000000000E+00  0.00000000000E+00  0.84215299851E+03  0.84215299851E+03  0.25500000920E-02 0.  1.
        2   -1    0    0  501    0  0.00000000000E+00  0.00000000000E+00 -0.18559895775E+04  0.18559895775E+04  0.25500000920E-02 0. -1.
    10030    2    1    2    0    0  0.00000000000E+00  0.00000000000E+00 -0.10138365790E+04  0.26981425760E+04  0.25004217147E+04 0.  0.
        3    1    3    3  502    0  0.19061703106E+03 -0.26177528728E+03  0.79611382842E+03  0.85945237888E+03  0.10100000352E+00 0.  1.
       -3    1    3    3    0  502 -0.19061703106E+03  0.26177528728E+03 -0.18099504074E+04  0.18386901971E+04  0.10100000352E+00 0. -1.
</event>
<event>
 5   0  0.1501747E-06  0.2497593E+04  0.7818609E-02  0.8403844E-01
       -1   -1    0    0    0  501  0.00000000000E+00  0.00000000000E+00  0.66102075015E+03  0.66102075017E+03  0.50400001928E-02 0. -1.
        1   -1    0    0  501    0  0.00000000000E+00  0.00000000000E+00 -0.23592181747E+04  0.23592181747E+04  0.50400001928E-02 0.  1.
    10030    2    1    2    0    0  0.00000000000E+00  0.00000000000E+00 -0.16981974245E+04  0.30202389249E+04  0.24975925750E+04 0.  0.
        2    1    3    3  502    0 -0.42954126229E+03 -0.11374744027E+03 -0.22603875640E+04  0.23036484358E+04  0.25500000920E-02 0.  1.
       -2    1    3    3    0  502  0.42954126229E+03  0.11374744027E+03  0.56219013944E+03  0.71659048910E+03  0.25500000920E-02 0. -1.
</event>
<event>
 5   0  0.1519145E-06  0.2502199E+04  0.7818609E-02  0.8402202E-01
        1   -1    0    0  501    0  0.00000000000E+00  0.00000000000E+00  0.92073317167E+03  0.92073317169E+03  0.50400001928E-02 0. -1.
       -1   -1    0    0    0  501  0.00000000000E+00  0.00000000000E+00 -0.17000045482E+04  0.17000045482E+04  0.50400001928E-02 0.  1.
    10030    2    1    2    0    0  0.00000000000E+00  0.00000000000E+00 -0.77927137655E+03  0.26207377199E+04  0.25021994961E+04 0.  0.
        4    1    3    3  502    0 -0.10467176729E+04  0.29601349277E+03  0.25771161043E+03  0.11178813719E+04  0.12699999809E+01 0. -1.
       -4    1    3    3    0  502  0.10467176729E+04 -0.29601349277E+03 -0.10369829870E+04  0.15028563480E+04  0.12699999809E+01 0.  1.
</event>
<event>
 5   0  0.1574896E-06  0.2496564E+04  0.7818609E-02  0.8404211E-01
       -1   -1    0    0    0  501  0.00000000000E+00  0.00000000000E+00  0.57431167833E+03  0.57431167835E+03  0.50400001928E-02 0.  1.
        1   -1    0    0  501    0  0.00000000000E+00  0.00000000000E+00 -0.27131755025E+04  0.27131755025E+04  0.50400001928E-02 0. -1.
    10030    2    1    2    0    0  0.00000000000E+00  0.00000000000E+00 -0.21388638242E+04  0.32874871808E+04  0.24965643404E+04 0.  0.
        3    1    3    3  502    0  0.68305182747E+03  0.10127832239E+04 -0.14075167158E+04  0.18637041002E+04  0.10100000352E+00 0. -1.
       -3    1    3    3    0  502 -0.68305182747E+03 -0.10127832239E+04 -0.73134710840E+03  0.14237830807E+04  0.10100000352E+00 0.  1.
</event>
<event>
 5   0  0.1574896E-06  0.2498747E+04  0.7818609E-02  0.8403432E-01
        1   -1    0    0  501    0  0.00000000000E+00  0.00000000000E+00  0.14960626569E+04  0.14960626569E+04  0.50400001928E-02 0.  1.
       -1   -1    0    0    0  501  0.00000000000E+00  0.00000000000E+00 -0.10433617672E+04  0.10433617673E+04  0.50400001928E-02 0. -1.
    10030    2    1    2    0    0  0.00000000000E+00  0.00000000000E+00  0.45270088964E+03  0.25394244242E+04  0.24987473483E+04 0.  0.
        3    1    3    3  502    0  0.64967437798E+03  0.50483506693E+03 -0.72916764348E+03  0.10993728688E+04  0.10100000352E+00 0. -1.
       -3    1    3    3    0  502 -0.64967437798E+03 -0.50483506693E+03  0.11818685331E+04  0.14400515553E+04  0.10100000352E+00 0.  1.
</event>
<event>
 5   0  0.3713394E-06  0.2500820E+04  0.7818609E-02  0.8402693E-01
        2   -1    0    0  501    0  0.00000000000E+00  0.00000000000E+00  0.15833706160E+04  0.15833706160E+04  0.25500000920E-02 0. -1.
       -2   -1    0    0    0  501  0.00000000000E+00  0.00000000000E+00 -0.98746632241E+03  0.98746632242E+03  0.25500000920E-02 0.  1.
    10030    2    1    2    0    0  0.00000000000E+00  0.00000000000E+00  0.59590429359E+03  0.25708369384E+04  0.25008199929E+04 0.  0.
        3    1    3    3  502    0  0.22984967480E+03  0.12291004769E+04  0.30053108799E+03  0.12860162520E+04  0.10100000352E+00 0.  1.
       -3    1    3    3    0  502 -0.22984967480E+03 -0.12291004769E+04  0.29537320561E+03  0.12848206864E+04  0.10100000352E+00 0. -1.
</event>
<event>
 5   0  0.3814260E-06  0.2511507E+04  0.7818609E-02  0.8398898E-01
       -2   -1    0    0    0  501  0.00000000000E+00  0.00000000000E+00  0.60743879116E+03  0.60743879116E+03  0.25500000920E-02 0.  1.
        2   -1    0    0  501    0  0.00000000000E+00  0.00000000000E+00 -0.25960087738E+04  0.25960087738E+04  0.25500000920E-02 0. -1.
    10030    2    1    2    0    0  0.00000000000E+00  0.00000000000E+00 -0.19885699826E+04  0.32034475649E+04  0.25115066644E+04 0.  0.
        5    1    3    3  502    0  0.11387189476E+04 -0.11939312687E+03 -0.16520798150E+04  0.20100560603E+04  0.46999998093E+01 0. -1.
       -5    1    3    3    0  502 -0.11387189476E+04  0.11939312687E+03 -0.33649016759E+03  0.11933915046E+04  0.46999998093E+01 0.  1.
</event>
<event>
 5   0  0.3924441E-06  0.2500045E+04  0.7818609E-02  0.8402969E-01
       -2   -1    0    0    0  501  0.00000000000E+00  0.00000000000E+00  0.68554492876E+03  0.68554492876E+03  0.25500000920E-02 0. -1.
        2   -1    0    0  501    0  0.00000000000E+00  0.00000000000E+00 -0.22792916015E+04  0.22792916015E+04  0.25500000920E-02 0.  1.
    10030    2    1    2    0    0  0.00000000000E+00  0.00000000000E+00 -0.15937466727E+04  0.29648365303E+04  0.25000454385E+04 0.  0.
        2    1    3    3  502    0  0.69044567664E+02  0.21434218657E+03  0.66129204294E+03  0.69858205769E+03  0.25500000920E-02 0. -1.
       -2    1    3    3    0  502 -0.69044567664E+02 -0.21434218657E+03 -0.22550387157E+04  0.22662544726E+04  0.25500000920E-02 0.  1.
</event>
<event>
 5   0  0.1553604E-06  0.2495465E+04  0.7818609E-02  0.8404603E-01
        1   -1    0    0  501    0  0.00000000000E+00  0.00000000000E+00  0.11678060235E+04  0.11678060235E+04  0.50400001928E-02 0.  1.
       -1   -1    0    0    0  501  0.00000000000E+00  0.00000000000E+00 -0.13331288284E+04  0.13331288284E+04  0.50400001928E-02 0. -1.
    10030    2    1    2    0    0  0.00000000000E+00  0.00000000000E+00 -0.16532280487E+03  0.25009348519E+04  0.24954645867E+04 0.  0.
        1    1    3    3  502    0  0.96701140122E+03  0.33121005928E+03  0.63446619015E+03  0.12030621347E+04  0.50400001928E-02 0.  1.
       -1    1    3    3    0  502 -0.96701140122E+03 -0.33121005928E+03 -0.79978899502E+03  0.12978727172E+04  0.50400001928E-02 0. -1.
</event>
<event>
 5   0  0.3924441E-06  0.2497575E+04  0.7818609E-02  0.8403850E-01
       -2   -1    0    0    0  501  0.00000000000E+00  0.00000000000E+00  0.80402615155E+03  0.80402615156E+03  0.25500000920E-02 0. -1.
        2   -1    0    0  501    0  0.00000000000E+00  0.00000000000E+00 -0.19395767861E+04  0.19395767861E+04  0.25500000920E-02 0.  1.
    10030    2    1    2    0    0  0.00000000000E+00  0.00000000000E+00 -0.11355506346E+04  0.27436029377E+04  0.24975751912E+04 0.  0.
        2    1    3    3  502    0 -0.11440885621E+03  0.44625333294E+02  0.79737705750E+03  0.80677814707E+03  0.25500000920E-02 0. -1.
       -2    1    3    3    0  502  0.11440885621E+03 -0.44625333294E+02 -0.19329276921E+04  0.19368247906E+04  0.25500000920E-02 0.  1.
</event>
<event>
 5   0  0.1553604E-06  0.2498238E+04  0.7818609E-02  0.8403613E-01
       -1   -1    0    0    0  501  0.00000000000E+00  0.00000000000E+00  0.11720704799E+04  0.11720704800E+04  0.50400001928E-02 0. -1.
        1   -1    0    0  501    0  0.00000000000E+00  0.00000000000E+00 -0.13312327998E+04  0.13312327998E+04  0.50400001928E-02 0.  1.
    10030    2    1    2    0    0  0.00000000000E+00  0.00000000000E+00 -0.15916231983E+03  0.25033032797E+04  0.24982383125E+04 0.  0.
        1    1    3    3  502    0 -0.53349434638E+03  0.49674988189E+03 -0.10959956118E+04  0.13162762035E+04  0.50400001928E-02 0.  1.
       -1    1    3    3    0  502  0.53349434638E+03 -0.49674988189E+03  0.93683329196E+03  0.11870270762E+04  0.50400001928E-02 0. -1.
</event>
<event>
 5   0  0.1541852E-06  0.2503641E+04  0.7818609E-02  0.8401690E-01
       -1   -1    0    0    0  501  0.00000000000E+00  0.00000000000E+00  0.72961395572E+03  0.72961395573E+03  0.50400001928E-02 0. -1.
        1   -1    0    0  501    0  0.00000000000E+00  0.00000000000E+00 -0.21477856867E+04  0.21477856867E+04  0.50400001928E-02 0.  1.
    10030    2    1    2    0    0  0.00000000000E+00  0.00000000000E+00 -0.14181717309E+04  0.28773996424E+04  0.25036408775E+04 0.  0.
        5    1    3    3  502    0  0.74516695054E+03  0.75503283070E+02  0.44367603900E+03  0.87054296133E+03  0.46999998093E+01 0. -1.
       -5    1    3    3    0  502 -0.74516695054E+03 -0.75503283070E+02 -0.18618477699E+04  0.20068566811E+04  0.46999998093E+01 0.  1.
</event>
<event>
 5   0  0.3971759E-06  0.2497039E+04  0.7818609E-02  0.8404041E-01
        2   -1    0    0  501    0  0.00000000000E+00  0.00000000000E+00  0.15507020588E+04  0.15507020588E+04  0.25500000920E-02 0. -1.
       -2   -1    0    0    0  501  0.00000000000E+00  0.00000000000E+00 -0.10052224880E+04  0.10052224881E+04  0.25500000920E-02 0.  1.
    10030    2    1    2    0    0  0.00000000000E+00  0.00000000000E+00  0.54547957072E+03  0.25559245468E+04  0.24970387115E+04 0.  0.
        4    1    3    3  502    0  0.49665761544E+02 -0.16502022326E+03  0.15384689408E+04  0.15480912947E+04  0.12699999809E+01 0. -1.
       -4    1    3    3    0  502 -0.49665761544E+02  0.16502022326E+03 -0.99298937013E+03  0.10078332521E+04  0.12699999809E+01 0.  1.
</event>
<event>
 5   0  0.1574896E-06  0.2508330E+04  0.7818609E-02  0.8400024E-01
        1   -1    0    0  501    0  0.00000000000E+00  0.00000000000E+00  0.18015178194E+04  0.18015178194E+04  0.50400001928E-02 0. -1.
       -1   -1    0    0    0  501  0.00000000000E+00  0.00000000000E+00 -0.87311383724E+03  0.87311383726E+03  0.50400001928E-02 0.  1.
    10030    2    1    2    0    0  0.00000000000E+00  0.00000000000E+00  0.92840398212E+03  0.26746316566E+04  0.25083302304E+04 0.  0.
        3    1    3    3  502    0  0.70341931249E+03 -0.26081821113E+03 -0.60747173671E+03  0.96532211698E+03  0.10100000352E+00 0.  1.
       -3    1    3    3    0  502 -0.70341931249E+03  0.26081821113E+03  0.15358757188E+04  0.17093095396E+04  0.10100000352E+00 0. -1.
</event>
<event>
 5   0  0.1287375E-06  0.2431215E+04  0.7818609E-02  0.8427909E-01
        3   -1    0    0  501    0  0.00000000000E+00  0.00000000000E+00  0.17778082381E+04  0.17778082410E+04  0.10100000352E+00 0. -1.
       -3   -1    0    0    0  501  0.00000000000E+00  0.00000000000E+00 -0.83119310123E+03  0.83119310737E+03  0.10100000352E+00 0.  1.
    10030    2    1    2    0    0  0.00000000000E+00  0.00000000000E+00  0.94661513691E+03  0.26090013484E+04  0.24312152966E+04 0.  0.
        3    1    3    3  502    0 -0.31501515960E+03  0.10824586933E+04  0.96125635560E+03  0.14815414826E+04  0.10100000352E+00 0.  1.
       -3    1    3    3    0  502  0.31501515960E+03 -0.10824586933E+04 -0.14641218694E+02  0.11274598657E+04  0.10100000352E+00 0. -1.
</event>
<event>
 5   0  0.1553604E-06  0.2501640E+04  0.7818609E-02  0.8402402E-01
       -1   -1    0    0    0  501  0.00000000000E+00  0.00000000000E+00  0.10253861680E+04  0.10253861681E+04  0.50400001928E-02 0. -1.
        1   -1    0    0  501    0  0.00000000000E+00  0.00000000000E+00 -0.15258160743E+04  0.15258160743E+04  0.50400001928E-02 0.  1.
    10030    2    1    2    0    0  0.00000000000E+00  0.00000000000E+00 -0.50042990621E+03  0.25512022423E+04  0.25016400201E+04 0.  0.
        1    1    3    3  502    0  0.11695643530E+04 -0.29709310001E+03 -0.58598809487E+03  0.13414645478E+04  0.50400001928E-02 0. -1.
       -1    1    3    3    0  502 -0.11695643530E+04  0.29709310001E+03  0.85558188657E+02  0.12097376945E+04  0.50400001928E-02 0.  1.
</event>
<event>
 5   0  0.1501747E-06  0.2498381E+04  0.7818609E-02  0.8403563E-01
       -1   -1    0    0    0  501  0.00000000000E+00  0.00000000000E+00  0.77809638797E+03  0.77809638799E+03  0.50400001928E-02 0. -1.
        1   -1    0    0  501    0  0.00000000000E+00  0.00000000000E+00 -0.20055052594E+04  0.20055052594E+04  0.50400001928E-02 0.  1.
    10030    2    1    2    0    0  0.00000000000E+00  0.00000000000E+00 -0.12274088714E+04  0.27836016474E+04  0.24983805942E+04 0.  0.
        2    1    3    3  502    0  0.10280439781E+04  0.59231986995E+03 -0.17824059144E+03  0.11997862134E+04  0.25500000920E-02 0.  1.
       -2    1    3    3    0  502 -0.10280439781E+04 -0.59231986995E+03 -0.10491682800E+04  0.15838154340E+04  0.25500000920E-02 0. -1.
</event>
<event>
 5   0  0.1519145E-06  0.2496284E+04  0.7818609E-02  0.8404310E-01
        1   -1    0    0  501    0  0.00000000000E+00  0.00000000000E+00  0.86468435965E+03  0.86468435966E+03  0.50400001928E-02 0.  1.
       -1   -1    0    0    0  501  0.00000000000E+00  0.00000000000E+00 -0.18016505761E+04  0.18016505761E+04  0.50400001928E-02 0. -1.
    10030    2    1    2    0    0  0.00000000000E+00  0.00000000000E+00 -0.93696621646E+03  0.26663349358E+04  0.24962844988E+04 0.  0.
        4    1    3    3  502    0  0.79719873745E+03  0.93705109151E+03 -0.24375359405E+03  0.12541961579E+04  0.12699999809E+01 0.  1.
       -4    1    3    3    0  502 -0.79719873745E+03 -0.93705109151E+03 -0.69321262241E+03  0.14121387778E+04  0.12699999809E+01 0. -1.
</event>
<event>
 5   0  0.1287375E-06  0.2533770E+04  0.7818609E-02  0.8391053E-01
       -3   -1    0    0    0  501  0.00000000000E+00  0.00000000000E+00  0.23318279682E+04  0.23318279704E+04  0.10100000352E+00 0. -1.
        3   -1    0    0  501    0  0.00000000000E+00  0.00000000000E+00 -0.68830003144E+03  0.68830003885E+03  0.10100000352E+00 0.  1.
    10030    2    1    2    0    0  0.00000000000E+00  0.00000000000E+00  0.16435279368E+04  0.30201280093E+04  0.25337697436E+04 0.  0.
        2    1    3    3  502    0  0.37564995628E+03  0.12088540829E+04  0.76150035130E+03  0.14772690575E+04  0.25500000920E-02 0.  1.
       -2    1    3    3    0  502 -0.37564995628E+03 -0.12088540829E+04  0.88202758550E+03  0.15428589517E+04  0.25500000920E-02 0. -1.
</event>
<event>
 5   0  0.3808293E-06  0.2504116E+04  0.7818609E-02  0.8401521E-01
       -2   -1    0    0    0  501  0.00000000000E+00  0.00000000000E+00  0.11251294546E+04  0.11251294546E+04  0.25500000920E-02 0.  1.
        2   -1    0    0  501    0  0.00000000000E+00  0.00000000000E+00 -0.13933052004E+04  0.13933052005E+04  0.25500000920E-02 0. -1.
    10030    2    1    2    0    0  0.00000000000E+00  0.00000000000E+00 -0.26817574588E+03  0.25184346550E+04  0.25041155886E+04 0.  0.
        1    1    3    3  502    0 -0.18224129736E+03  0.12403626083E+03 -0.13736337695E+04  0.13912104863E+04  0.50400001928E-02 0. -1.
       -1    1    3    3    0  502  0.18224129736E+03 -0.12403626083E+03  0.11054580236E+04  0.11272241687E+04  0.50400001928E-02 0.  1.
</event>
<event>
 5   0  0.1501747E-06  0.2504742E+04  0.7818609E-02  0.8401298E-01
        1   -1    0    0  501    0  0.00000000000E+00  0.00000000000E+00  0.14674374250E+04  0.14674374250E+04  0.50400001928E-02 0. -1.
       -1   -1    0    0    0  501  0.00000000000E+00  0.00000000000E+00 -0.10688247201E+04  0.10688247201E+04  0.50400001928E-02 0.  1.
    10030    2    1    2    0    0  0.00000000000E+00  0.00000000000E+00  0.39861270498E+03  0.25362621451E+04  0.25047422183E+04 0.  0.
        2    1    3    3  502    0 -0.11091414892E+04 -0.57960828667E+03  0.15082074155E+03  0.12605108112E+04  0.25500000920E-02 0. -1.
       -2    1    3    3    0  502  0.11091414892E+04  0.57960828667E+03  0.24779196343E+03  0.12757513340E+04  0.25500000920E-02 0.  1.
</event>
<event>
 5   0  0.3713394E-06  0.2501091E+04  0.7818609E-02  0.8402597E-01
        2   -1    0    0  501    0  0.00000000000E+00  0.00000000000E+00  0.20000814578E+04  0.20000814578E+04  0.25500000920E-02 0. -1.
       -2   -1    0    0    0  501  0.00000000000E+00  0.00000000000E+00 -0.78189996666E+03  0.78189996666E+03  0.25500000920E-02 0.  1.
    10030    2    1    2    0    0  0.00000000000E+00  0.00000000000E+00  0.12181814911E+04  0.27819814244E+04  0.25010906622E+04 0.  0.
        3    1    3    3  502    0  0.84034349961E+03  0.48699284843E+03 -0.26711120739E+03  0.10073170499E+04  0.10100000352E+00 0.  1.
       -3    1    3    3    0  502 -0.84034349961E+03 -0.48699284843E+03  0.14852926985E+04  0.17746643745E+04  0.10100000352E+00 0. -1.
</event>
<event>
 5   0  0.1519145E-06  0.2499060E+04  0.7818609E-02  0.8403320E-01
        1   -1    0    0  501    0  0.00000000000E+00  0.00000000000E+00  0.10495547318E+04  0.10495547318E+04  0.50400001928E-02 0.  1.
       -1   -1    0    0    0  501  0.00000000000E+00  0.00000000000E+00 -0.14876075582E+04  0.14876075582E+04  0.50400001928E-02 0. -1.
    10030    2    1    2    0    0  0.00000000000E+00  0.00000000000E+00 -0.43805282644E+03  0.25371622901E+04  0.24990602648E+04 0.  0.
        4    1    3    3  502    0  0.15131235888E+03  0.77000474432E+03  0.76817815101E+03  0.10981357024E+04  0.12699999809E+01 0.  1.
       -4    1    3    3    0  502 -0.15131235888E+03 -0.77000474432E+03 -0.12062309775E+04  0.14390265877E+04  0.12699999809E+01 0. -1.
</event>
<event>
 5   0  0.3808293E-06  0.2498598E+04  0.7818609E-02  0.8403485E-01
       -2   -1    0    0    0  501  0.00000000000E+00  0.00000000000E+00  0.30944064661E+04  0.30944064661E+04  0.25500000920E-02 0.  1.
        2   -1    0    0  501    0  0.00000000000E+00  0.00000000000E+00 -0.50437735204E+03  0.50437735204E+03  0.25500000920E-02 0. -1.
    10030    2    1    2    0    0  0.00000000000E+00  0.00000000000E+00  0.25900291140E+04  0.35987838181E+04  0.24985984387E+04 0.  0.
        1    1    3    3  502    0 -0.48827705977E+03  0.16914184478E+03  0.29332650032E+04  0.29784336538E+04  0.50400001928E-02 0.  1.
       -1    1    3    3    0  502  0.48827705977E+03 -0.16914184478E+03 -0.34323588918E+03  0.62035016435E+03  0.50400001928E-02 0. -1.
</event>
<event>
 5   0  0.1574896E-06  0.2505118E+04  0.7818609E-02  0.8401164E-01
        1   -1    0    0  501    0  0.00000000000E+00  0.00000000000E+00  0.11483702722E+04  0.11483702722E+04  0.50400001928E-02 0. -1.
       -1   -1    0    0    0  501  0.00000000000E+00  0.00000000000E+00 -0.13662006253E+04  0.13662006253E+04  0.50400001928E-02 0.  1.
    10030    2    1    2    0    0  0.00000000000E+00  0.00000000000E+00 -0.21783035309E+03  0.25145708975E+04  0.25051181082E+04 0.  0.
        3    1    3    3  502    0 -0.95573688084E+03  0.74008926218E+03 -0.43839004612E+03  0.12858269495E+04  0.10100000352E+00 0.  1.
       -3    1    3    3    0  502  0.95573688084E+03 -0.74008926218E+03  0.22055969303E+03  0.12287439480E+04  0.10100000352E+00 0. -1.
</event>
<event>
 5   0  0.3971759E-06  0.2499089E+04  0.7818609E-02  0.8403310E-01
        2   -1    0    0  501    0  0.00000000000E+00  0.00000000000E+00  0.10690892858E+04  0.10690892858E+04  0.25500000920E-02 0.  1.
       -2   -1    0    0    0  501  0.00000000000E+00  0.00000000000E+00 -0.14604593807E+04  0.14604593807E+04  0.25500000920E-02 0. -1.
    10030    2    1    2    0    0  0.00000000000E+00  0.00000000000E+00 -0.39137009494E+03  0.25295486665E+04  0.24990890150E+04 0.  0.
        4    1    3    3  502    0 -0.99851316980E+03  0.32103264590E+03 -0.88313108707E+03  0.13711355293E+04  0.12699999809E+01 0. -1.
       -4    1    3    3    0  502  0.99851316980E+03 -0.32103264590E+03  0.49176099213E+03  0.11584131371E+04  0.12699999809E+01 0.  1.
</event>
<event>
 5   0  0.3971759E-06  0.2506709E+04  0.7818609E-02  0.8400599E-01
       -2   -1    0    0    0  501  0.00000000000E+00  0.00000000000E+00  0.80660263120E+03  0.80660263120E+03  0.25500000920E-02 0. -1.
        2   -1    0    0  501    0  0.00000000000E+00  0.00000000000E+00 -0.19475480813E+04  0.19475480813E+04  0.25500000920E-02 0.  1.
    10030    2    1    2    0    0  0.00000000000E+00  0.00000000000E+00 -0.11409454501E+04  0.27541507125E+04  0.25067089235E+04 0.  0.
        4    1    3    3  502    0  0.12604152866E+03  0.48063512915E+03 -0.18347072789E+04  0.19008022008E+04  0.12699999809E+01 0.  1.
       -4    1    3    3    0  502 -0.12604152866E+03 -0.48063512915E+03  0.69376182885E+03  0.85334851168E+03  0.12699999809E+01 0. -1.
</event>
<event>
 5   0  0.3814260E-06  0.2514763E+04  0.7818609E-02  0.8397745E-01
        2   -1    0    0  501    0  0.00000000000E+00  0.00000000000E+00  0.15046181312E+04  0.15046181312E+04  0.25500000920E-02 0. -1.
       -2   -1    0    0    0  501  0.00000000000E+00  0.00000000000E+00 -0.10507700977E+04  0.10507700977E+04  0.25500000920E-02 0.  1.
    10030    2    1    2    0    0  0.00000000000E+00  0.00000000000E+00  0.45384803347E+03  0.25553882289E+04  0.25147626056E+04 0.  0.
        5    1    3    3  502    0 -0.50086826305E+03 -0.76217800962E+03 -0.65262320624E+03  0.11214827126E+04  0.46999998093E+01 0.  1.
       -5    1    3    3    0  502  0.50086826305E+03  0.76217800962E+03  0.11064712397E+04  0.14339055163E+04  0.46999998093E+01 0. -1.
</event>
<event>
 5   0  0.3924441E-06  0.2435950E+04  0.7818609E-02  0.8426166E-01
       -2   -1    0    0    0  501  0.00000000000E+00  0.00000000000E+00  0.61790065589E+03  0.61790065589E+03  0.25500000920E-02 0. -1.
        2   -1    0    0  501    0  0.00000000000E+00  0.00000000000E+00 -0.24008123164E+04  0.24008123164E+04  0.25500000920E-02 0.  1.
    10030    2    1    2    0    0  0.00000000000E+00  0.00000000000E+00 -0.17829116605E+04  0.30187129723E+04  0.24359503320E+04 0.  0.
        2    1    3    3  502    0  0.48091487253E+03 -0.36940936875E+03 -0.22004304229E+04  0.22824628019E+04  0.25500000920E-02 0.  1.
       -2    1    3    3    0  502 -0.48091487253E+03  0.36940936875E+03  0.41751876239E+03  0.73625017032E+03  0.25500000920E-02 0. -1.
</event>
<event>
 5   0  0.3713394E-06  0.2511915E+04  0.7818609E-02  0.8398753E-01
        2   -1    0    0  501    0  0.00000000000E+00  0.00000000000E+00  0.12727563611E+04  0.12727563611E+04  0.25500000920E-02 0.  1.
       -2   -1    0    0    0  501  0.00000000000E+00  0.00000000000E+00 -0.12393802434E+04  0.12393802434E+04  0.25500000920E-02 0. -1.
    10030    2    1    2    0    0  0.00000000000E+00  0.00000000000E+00  0.33376117747E+02  0.25121366045E+04  0.25119148780E+04 0.  0.
        3    1    3    3  502    0  0.10429367607E+04  0.51670546409E+03 -0.45529369604E+03  0.12497975769E+04  0.10100000352E+00 0. -1.
       -3    1    3    3    0  502 -0.10429367607E+04 -0.51670546409E+03  0.48866981379E+03  0.12623390276E+04  0.10100000352E+00 0.  1.
</event>
<event>
 5   0  0.3713394E-06  0.2516222E+04  0.7818609E-02  0.8397229E-01
       -2   -1    0    0    0  501  0.00000000000E+00  0.00000000000E+00  0.93209541690E+03  0.93209541691E+03  0.25500000920E-02 0. -1.
        2   -1    0    0  501    0  0.00000000000E+00  0.00000000000E+00 -0.16981557484E+04  0.16981557484E+04  0.25500000920E-02 0.  1.
    10030    2    1    2    0    0  0.00000000000E+00  0.00000000000E+00 -0.76606033154E+03  0.26302511653E+04  0.25162219221E+04 0.  0.
        3    1    3    3  502    0 -0.99482937933E+03  0.21362392031E+03 -0.11565104855E+04  0.15404016316E+04  0.10100000352E+00 0.  1.
       -3    1    3    3    0  502  0.99482937933E+03 -0.21362392031E+03  0.39045015397E+03  0.10898495338E+04  0.10100000352E+00 0. -1.
</event>
<event>
 5   0  0.3924441E-06  0.2497433E+04  0.7818609E-02  0.8403900E-01
       -2   -1    0    0    0  501  0.00000000000E+00  0.00000000000E+00  0.99887899356E+03  0.99887899356E+03  0.25500000920E-02 0.  1.
        2   -1    0    0  501    0  0.00000000000E+00  0.00000000000E+00 -0.15610432645E+04  0.15610432646E+04  0.25500000920E-02 0. -1.
    10030    2    1    2    0    0  0.00000000000E+00  0.00000000000E+00 -0.56216427099E+03  0.25599222581E+04  0.24974333425E+04 0.  0.
        2    1    3    3  502    0  0.68165234690E+03  0.10378475844E+04 -0.41674087937E+03  0.13097520724E+04  0.25500000920E-02 0. -1.
       -2    1    3    3    0  502 -0.68165234690E+03 -0.10378475844E+04 -0.14542339162E+03  0.12501701858E+04  0.25500000920E-02 0.  1.
</event>
<event>
 5   0  0.1501747E-06  0.2506674E+04  0.7818609E-02  0.8400612E-01
        1   -1    0    0  501    0  0.00000000000E+00  0.00000000000E+00  0.64892324926E+03  0.64892324928E+03  0.50400001928E-02 0.  1.
       -1   -1    0    0    0  501  0.00000000000E+00  0.00000000000E+00 -0.24207077932E+04  0.24207077932E+04  0.50400001928E-02 0. -1.
    10030    2    1    2    0    0  0.00000000000E+00  0.00000000000E+00 -0.17717845439E+04  0.30696310425E+04  0.25066739451E+04 0.  0.
        2    1    3    3  502    0 -0.16997914215E+03 -0.10708600491E+04 -0.11603987593E+03  0.10904583469E+04  0.25500000920E-02 0.  1.
       -2    1    3    3    0  502  0.16997914215E+03  0.10708600491E+04 -0.16557446680E+04  0.19791726956E+04  0.25500000920E-02 0. -1.
</event>
<event>
 5   0  0.3713394E-06  0.2496514E+04  0.7818609E-02  0.8404229E-01
       -2   -1    0    0    0  501  0.00000000000E+00  0.00000000000E+00  0.12315741977E+04  0.12315741977E+04  0.25500000920E-02 0. -1.
        2   -1    0    0  501    0  0.00000000000E+00  0.00000000000E+00 -0.12651654628E+04  0.12651654628E+04  0.25500000920E-02 0.  1.
    10030    2    1    2    0    0  0.00000000000E+00  0.00000000000E+00 -0.33591265086E+02  0.24967396605E+04  0.24965136810E+04 0.  0.
        3    1    3    3  502    0  0.79564656162E+03 -0.48568408782E+03 -0.84705307553E+03  0.12595401570E+04  0.10100000352E+00 0.  1.
       -3    1    3    3    0  502 -0.79564656162E+03  0.48568408782E+03  0.81346181044E+03  0.12371995035E+04  0.10100000352E+00 0. -1.
</event>
<event>
 5   0  0.1519145E-06  0.2498534E+04  0.7818609E-02  0.8403508E-01
       -1   -1    0    0    0  501  0.00000000000E+00  0.00000000000E+00  0.12476425237E+04  0.12476425237E+04  0.50400001928E-02 0.  1.
        1   -1    0    0  501    0  0.00000000000E+00  0.00000000000E+00 -0.12508939232E+04  0.12508939233E+04  0.50400001928E-02 0. -1.
    10030    2    1    2    0    0  0.00000000000E+00  0.00000000000E+00 -0.32513995725E+01  0.24985364469E+04  0.24985343314E+04 0.  0.
        4    1    3    3  502    0  0.91362049988E+03  0.34974365653E+03  0.77532012683E+03  0.12482571670E+04  0.12699999809E+01 0.  1.
       -4    1    3    3    0  502 -0.91362049988E+03 -0.34974365653E+03 -0.77857152641E+03  0.12502792799E+04  0.12699999809E+01 0. -1.
</event>
<event>
 5   0  0.3808293E-06  0.2501252E+04  0.7818609E-02  0.8402540E-01
       -2   -1    0    0    0  501  0.00000000000E+00  0.00000000000E+00  0.10483062041E+04  0.10483062041E+04  0.25500000920E-02 0.  1.
        2   -1    0    0  501    0  0.00000000000E+00  0.00000000000E+00 -0.14919925432E+04  0.14919925432E+04  0.25500000920E-02 0. -1.
    10030    2    1    2    0    0  0.00000000000E+00  0.00000000000E+00 -0.44368633909E+03  0.25402987472E+04  0.25012517182E+04 0.  0.
        1    1    3    3  502    0 -0.10888353861E+04  0.43252736395E+03 -0.66619198124E+03  0.13477589452E+04  0.50400001928E-02 0. -1.
       -1    1    3    3    0  502  0.10888353861E+04 -0.43252736395E+03  0.22250564215E+03  0.11925398020E+04  0.50400001928E-02 0.  1.
</event>
<event>
 5   0  0.3924441E-06  0.2499402E+04  0.7818609E-02  0.8403198E-01
        2   -1    0    0  501    0  0.00000000000E+00  0.00000000000E+00  0.17686080051E+04  0.17686080051E+04  0.25500000920E-02 0.  1.
       -2   -1    0    0    0  501  0.00000000000E+00  0.00000000000E+00 -0.88304087939E+03  0.88304087940E+03  0.25500000920E-02 0. -1.
    10030    2    1    2    0    0  0.00000000000E+00  0.00000000000E+00  0.88556712574E+03  0.26516488845E+04  0.24994024631E+04 0.  0.
        2    1    3    3  502    0 -0.58920284060E+02  0.12069741856E+04  0.10479508274E+03  0.12129469461E+04  0.25500000920E-02 0.  1.
       -2    1    3    3    0  502  0.58920284060E+02 -0.12069741856E+04  0.78077204300E+03  0.14387019385E+04  0.25500000920E-02 0. -1.
</event>
<event>
 5   0  0.1501747E-06  0.2506330E+04  0.7818609E-02  0.8400734E-01
        1   -1    0    0  501    0  0.00000000000E+00  0.00000000000E+00  0.91719903727E+03  0.91719903729E+03  0.50400001928E-02 0.  1.
       -1   -1    0    0    0  501  0.00000000000E+00  0.00000000000E+00 -0.17121938440E+04  0.17121938440E+04  0.50400001928E-02 0. -1.
    10030    2    1    2    0    0  0.00000000000E+00  0.00000000000E+00 -0.79499480669E+03  0.26293928813E+04  0.25063300224E+04 0.  0.
        2    1    3    3  502    0  0.19896724424E+03 -0.12366864052E+04 -0.43732616907E+03  0.13267386357E+04  0.25500000920E-02 0. -1.
       -2    1    3    3    0  502 -0.19896724424E+03  0.12366864052E+04 -0.35766863762E+03  0.13026542456E+04  0.25500000920E-02 0.  1.
</event>
<event>
 5   0  0.3814260E-06  0.2500235E+04  0.7818609E-02  0.8402902E-01
       -2   -1    0    0    0  501  0.00000000000E+00  0.00000000000E+00  0.11160001394E+04  0.11160001394E+04  0.25500000920E-02 0. -1.
        2   -1    0    0  501    0  0.00000000000E+00  0.00000000000E+00 -0.14003527154E+04  0.14003527154E+04  0.25500000920E-02 0.  1.
    10030    2    1    2    0    0  0.00000000000E+00  0.00000000000E+00 -0.28435257606E+03  0.25163528548E+04  0.25002350495E+04 0.  0.
        5    1    3    3  502    0 -0.61570041428E+03  0.78337055440E+03  0.61768437297E+03  0.11723107524E+04  0.46999998093E+01 0. -1.
       -5    1    3    3    0  502  0.61570041428E+03 -0.78337055440E+03 -0.90203694904E+03  0.13440421024E+04  0.46999998093E+01 0.  1.
</event>
<event>
 5   0  0.1574896E-06  0.2497980E+04  0.7818609E-02  0.8403706E-01
        1   -1    0    0  501    0  0.00000000000E+00  0.00000000000E+00  0.17077030604E+04  0.17077030604E+04  0.50400001928E-02 0. -1.
       -1   -1    0    0    0  501  0.00000000000E+00  0.00000000000E+00 -0.91349342878E+03  0.91349342880E+03  0.50400001928E-02 0.  1.
    10030    2    1    2    0    0  0.00000000000E+00  0.00000000000E+00  0.79420963162E+03  0.26211964892E+04  0.24979796028E+04 0.  0.
        3    1    3    3  502    0 -0.43337427927E+03 -0.11602924747E+04  0.56592454743E+03  0.13617497922E+04  0.10100000352E+00 0. -1.
       -3    1    3    3    0  502  0.43337427927E+03  0.11602924747E+04  0.22828508419E+03  0.12594466971E+04  0.10100000352E+00 0.  1.
</event>
<event>
 5   0  0.1574896E-06  0.2499868E+04  0.7818609E-02  0.8403033E-01
        1   -1    0    0  501    0  0.00000000000E+00  0.00000000000E+00  0.13176832016E+04  0.13176832016E+04  0.50400001928E-02 0. -1.
       -1   -1    0    0    0  501  0.00000000000E+00  0.00000000000E+00 -0.11856677330E+04  0.11856677330E+04  0.50400001928E-02 0.  1.
    10030    2    1    2    0    0  0.00000000000E+00  0.00000000000E+00  0.13201546859E+03  0.25033509345E+04  0.24998675600E+04 0.  0.
        3    1    3    3  502    0  0.49963352061E+03 -0.11204735728E+04  0.30558943564E+03  0.12643099286E+04  0.10100000352E+00 0. -1.
       -3    1    3    3    0  502 -0.49963352061E+03  0.11204735728E+04 -0.17357396705E+03  0.12390410059E+04  0.10100000352E+00 0.  1.
</event>
<event>
 5   0  0.1519145E-06  0.2508651E+04  0.7818609E-02  0.8399910E-01
        1   -1    0    0  501    0  0.00000000000E+00  0.00000000000E+00  0.22661884699E+04  0.22661884699E+04  0.50400001928E-02 0.  1.
       -1   -1    0    0    0  501  0.00000000000E+00  0.00000000000E+00 -0.69426383256E+03  0.69426383258E+03  0.50400001928E-02 0. -1.
    10030    2    1    2    0    0  0.00000000000E+00  0.00000000000E+00  0.15719246373E+04  0.29604523024E+04  0.25086511853E+04 0.  0.
        4    1    3    3  502    0  0.18261020915E+03 -0.59178558068E+02  0.22487510184E+04  0.22569296281E+04  0.12699999809E+01 0.  1.
       -4    1    3    3    0  502 -0.18261020915E+03  0.59178558068E+02 -0.67682638115E+03  0.70352267436E+03  0.12699999809E+01 0. -1.
</event>
<event>
 5   0  0.3971759E-06  0.2500966E+04  0.7818609E-02  0.8402641E-01
        2   -1    0    0  501    0  0.00000000000E+00  0.00000000000E+00  0.17623890951E+04  0.17623890951E+04  0.25500000920E-02 0. -1.
       -2   -1    0    0    0  501  0.00000000000E+00  0.00000000000E+00 -0.88726592071E+03  0.88726592071E+03  0.25500000920E-02 0.  1.
    10030    2    1    2    0    0  0.00000000000E+00  0.00000000000E+00  0.87512317443E+03  0.26496550159E+04  0.25009660399E+04 0.  0.
        4    1    3    3  502    0  0.11838798953E+04  0.29188278882E+03  0.14369188650E+03  0.12277687649E+04  0.12699999809E+01 0.  1.
       -4    1    3    3    0  502 -0.11838798953E+04 -0.29188278882E+03  0.73143128793E+03  0.14218862510E+04  0.12699999809E+01 0. -1.
</event>
<event>
 5   0  0.3924441E-06  0.2495227E+04  0.7818609E-02  0.8404688E-01
        2   -1    0    0  501    0  0.00000000000E+00  0.00000000000E+00  0.22637883167E+04  0.22637883167E+04  0.25500000920E-02 0.  1.
       -2   -1    0    0    0  501  0.00000000000E+00  0.00000000000E+00 -0.68758194183E+03  0.68758194183E+03  0.25500000920E-02 0. -1.
    10030    2    1    2    0    0  0.00000000000E+00  0.00000000000E+00  0.15762063749E+04  0.29513702586E+04  0.24952274179E+04 0.  0.
        2    1    3    3  502    0  0.89283906273E+03  0.62672866953E+03  0.71953836269E+02  0.10932189953E+04  0.25500000920E-02 0. -1.
       -2    1    3    3    0  502 -0.89283906273E+03 -0.62672866953E+03  0.15042525386E+04  0.18581512632E+04  0.25500000920E-02 0.  1.
</event>
<event>
 5   0  0.3971759E-06  0.2500123E+04  0.7818609E-02  0.8402942E-01
        2   -1    0    0  501    0  0.00000000000E+00  0.00000000000E+00  0.17230293607E+04  0.17230293607E+04  0.25500000920E-02 0. -1.
       -2   -1    0    0    0  501  0.00000000000E+00  0.00000000000E+00 -0.90692215925E+03  0.90692215926E+03  0.25500000920E-02 0.  1.
    10030    2    1    2    0    0  0.00000000000E+00  0.00000000000E+00  0.81610720143E+03  0.26299515199E+04  0.25001228036E+04 0.  0.
        4    1    3    3  502    0 -0.63447991314E+03  0.89657995724E+01  0.15410190337E+04  0.16665492555E+04  0.12699999809E+01 0. -1.
       -4    1    3    3    0  502  0.63447991314E+03 -0.89657995724E+01 -0.72491183227E+03  0.96340226448E+03  0.12699999809E+01 0.  1.
</event>
<event>
 5   0  0.3808293E-06  0.2503571E+04  0.7818609E-02  0.8401714E-01
        2   -1    0    0  501    0  0.00000000000E+00  0.00000000000E+00  0.10731356126E+04  0.10731356126E+04  0.25500000920E-02 0.  1.
       -2   -1    0    0    0  501  0.00000000000E+00  0.00000000000E+00 -0.14601761057E+04  0.14601761058E+04  0.25500000920E-02 0. -1.
    10030    2    1    2    0    0  0.00000000000E+00  0.00000000000E+00 -0.38704049316E+03  0.25333117183E+04  0.25035710333E+04 0.  0.
        1    1    3    3  502    0  0.48894788681E+03 -0.48654878348E+03 -0.12505187450E+04  0.14281445608E+04  0.50400001928E-02 0. -1.
       -1    1    3    3    0  502 -0.48894788681E+03  0.48654878348E+03  0.86347825187E+03  0.11051671576E+04  0.50400001928E-02 0.  1.
</event>
<event>
 5   0  0.3713394E-06  0.2502913E+04  0.7818609E-02  0.8401948E-01
        2   -1    0    0  501    0  0.00000000000E+00  0.00000000000E+00  0.15116984471E+04  0.15116984471E+04  0.25500000920E-02 0.  1.
       -2   -1    0    0    0  501  0.00000000000E+00  0.00000000000E+00 -0.10360159066E+04  0.10360159066E+04  0.25500000920E-02 0. -1.
    10030    2    1    2    0    0  0.00000000000E+00  0.00000000000E+00  0.47568254042E+03  0.25477143537E+04  0.25029132124E+04 0.  0.
        3    1    3    3  502    0  0.54266885756E+03  0.24917463035E+03 -0.88164753171E+03  0.10648379528E+04  0.10100000352E+00 0. -1.
       -3    1    3    3    0  502 -0.54266885756E+03 -0.24917463035E+03  0.13573300721E+04  0.14828764009E+04  0.10100000352E+00 0.  1.
</event>
<event>
 5   0  0.1553604E-06  0.2496121E+04  0.7818609E-02  0.8404369E-01
       -1   -1    0    0    0  501  0.00000000000E+00  0.00000000000E+00  0.80509919066E+03  0.80509919068E+03  0.50400001928E-02 0.  1.
        1   -1    0    0  501    0  0.00000000000E+00  0.00000000000E+00 -0.19347371963E+04  0.19347371963E+04  0.50400001928E-02 0. -1.
    10030    2    1    2    0    0  0.00000000000E+00  0.00000000000E+00 -0.11296380056E+04  0.27398363870E+04  0.24961212718E+04 0.  0.
        1    1    3    3  502    0  0.30509552120E+03  0.10100215248E+04  0.16692630121E+03  0.10682186797E+04  0.50400001928E-02 0.  1.
       -1    1    3    3    0  502 -0.30509552120E+03 -0.10100215248E+04 -0.12965643068E+04  0.16716177073E+04  0.50400001928E-02 0. -1.
</event>
<event>
 5   0  0.3924441E-06  0.2498351E+04  0.7818609E-02  0.8403573E-01
       -2   -1    0    0    0  501  0.00000000000E+00  0.00000000000E+00  0.76353861054E+03  0.76353861055E+03  0.25500000920E-02 0.  1.
        2   -1    0    0  501    0  0.00000000000E+00  0.00000000000E+00 -0.20436943637E+04  0.20436943637E+04  0.25500000920E-02 0. -1.
    10030    2    1    2    0    0  0.00000000000E+00  0.00000000000E+00 -0.12801557531E+04  0.28072329742E+04  0.24983511001E+04 0.  0.
        2    1    3    3  502    0 -0.60009733681E+03 -0.78663367671E+03 -0.14969403482E+04  0.17943633303E+04  0.25500000920E-02 0. -1.
       -2    1    3    3    0  502  0.60009733681E+03  0.78663367671E+03  0.21678459506E+03  0.10128696440E+04  0.25500000920E-02 0.  1.
</event>
<event>
 5   0  0.1519145E-06  0.2497797E+04  0.7818609E-02  0.8403771E-01
       -1   -1    0    0    0  501  0.00000000000E+00  0.00000000000E+00  0.81846265254E+03  0.81846265256E+03  0.50400001928E-02 0. -1.
        1   -1    0    0  501    0  0.00000000000E+00  0.00000000000E+00 -0.19057031849E+04  0.19057031849E+04  0.50400001928E-02 0.  1.
    10030    2    1    2    0    0  0.00000000000E+00  0.00000000000E+00 -0.10872405323E+04  0.27241658374E+04  0.24977965359E+04 0.  0.
        4    1    3    3  502    0  0.24371763070E+03  0.11680032223E+04 -0.14124598769E+03  0.12014915117E+04  0.12699999809E+01 0.  1.
       -4    1    3    3    0  502 -0.24371763070E+03 -0.11680032223E+04 -0.94599454463E+03  0.15226743257E+04  0.12699999809E+01 0. -1.
</event>
<event>
 5   0  0.3971759E-06  0.2500119E+04  0.7818609E-02  0.8402943E-01
       -2   -1    0    0    0  501  0.00000000000E+00  0.00000000000E+00  0.12292057764E+04  0.12292057764E+04  0.25500000920E-02 0.  1.
        2   -1    0    0  501    0  0.00000000000E+00  0.00000000000E+00 -0.12712666232E+04  0.12712666232E+04  0.25500000920E-02 0. -1.
    10030    2    1    2    0    0  0.00000000000E+00  0.00000000000E+00 -0.42060846781E+02  0.25004723996E+04  0.25001186185E+04 0.  0.
        4    1    3    3  502    0  0.89003927171E+02  0.12416346181E+04  0.93303029666E+02  0.12483129785E+04  0.12699999809E+01 0. -1.
       -4    1    3    3    0  502 -0.89003927171E+02 -0.12416346181E+04 -0.13536387645E+03  0.12521594212E+04  0.12699999809E+01 0.  1.
</event>
<event>
 5   0  0.3971759E-06  0.2503595E+04  0.7818609E-02  0.8401706E-01
        2   -1    0    0  501    0  0.00000000000E+00  0.00000000000E+00  0.16333169190E+04  0.16333169190E+04  0.25500000920E-02 0. -1.
       -2   -1    0    0    0  501  0.00000000000E+00  0.00000000000E+00 -0.95939562272E+03  0.95939562272E+03  0.25500000920E-02 0.  1.
    10030    2    1    2    0    0  0.00000000000E+00  0.00000000000E+00  0.67392129631E+03  0.25927125417E+04  0.25035950972E+04 0.  0.
        4    1    3    3  502    0  0.66693425947E+03  0.87208584314E+03 -0.28582815298E+03  0.11344753722E+04  0.12699999809E+01 0.  1.
       -4    1    3    3    0  502 -0.66693425947E+03 -0.87208584314E+03  0.95974944928E+03  0.14582371695E+04  0.12699999809E+01 0. -1.
</event>
<event>
 5   0  0.1553604E-06  0.2495131E+04  0.7818609E-02  0.8404722E-01
       -1   -1    0    0    0  501  0.00000000000E+00  0.00000000000E+00  0.86489443438E+03  0.86489443440E+03  0.50400001928E-02 0. -1.
        1   -1    0    0  501    0  0.00000000000E+00  0.00000000000E+00 -0.17995483447E+04  0.17995483447E+04  0.50400001928E-02 0.  1.
    10030    2    1    2    0    0  0.00000000000E+00  0.00000000000E+00 -0.93465391027E+03  0.26644427791E+04  0.24951307362E+04 0.  0.
        1    1    3    3  502    0 -0.42306862806E+03  0.89764425091E+03  0.34006549595E+03  0.10489980013E+04  0.50400001928E-02 0. -1.
       -1    1    3    3    0  502  0.42306862806E+03 -0.89764425091E+03 -0.12747194062E+04  0.16154447777E+04  0.50400001928E-02 0.  1.
</event>
<event>
 5   0  0.1574896E-06  0.2501958E+04  0.7818609E-02  0.8402288E-01
       -1   -1    0    0    0  501  0.00000000000E+00  0.00000000000E+00  0.63197605250E+03  0.63197605252E+03  0.50400001928E-02 0. -1.
        1   -1    0    0  501    0  0.00000000000E+00  0.00000000000E+00 -0.24762776761E+04  0.24762776761E+04  0.50400001928E-02 0.  1.
    10030    2    1    2    0    0  0.00000000000E+00  0.00000000000E+00 -0.18443016236E+04  0.31082537286E+04  0.25019577859E+04 0.  0.
        3    1    3    3  502    0 -0.16308441604E+03 -0.18449940026E+03  0.60156997152E+03  0.65001768921E+03  0.10100000352E+00 0. -1.
       -3    1    3    3    0  502  0.16308441604E+03  0.18449940026E+03 -0.24458715951E+04  0.24582360394E+04  0.10100000352E+00 0.  1.
</event>
<event>
 5   0  0.3713394E-06  0.2491061E+04  0.7818609E-02  0.8406177E-01
        2   -1    0    0  501    0  0.00000000000E+00  0.00000000000E+00  0.11564372056E+04  0.11564372056E+04  0.25500000920E-02 0.  1.
       -2   -1    0    0    0  501  0.00000000000E+00  0.00000000000E+00 -0.13414874206E+04  0.13414874206E+04  0.25500000920E-02 0. -1.
    10030    2    1    2    0    0  0.00000000000E+00  0.00000000000E+00 -0.18505021500E+03  0.24979246262E+04  0.24910607894E+04 0.  0.
        3    1    3    3  502    0  0.23960451981E+02 -0.21656971964E+03  0.11371774214E+04  0.11578640010E+04  0.10100000352E+00 0.  1.
       -3    1    3    3    0  502 -0.23960451981E+02  0.21656971964E+03 -0.13222276364E+04  0.13400606253E+04  0.10100000352E+00 0. -1.
</event>
<event>
 5   0  0.1541852E-06  0.2523502E+04  0.7818609E-02  0.8394660E-01
        1   -1    0    0  501    0  0.00000000000E+00  0.00000000000E+00  0.25535809708E+04  0.25535809708E+04  0.50400001928E-02 0.  1.
       -1   -1    0    0    0  501  0.00000000000E+00  0.00000000000E+00 -0.62344432507E+03  0.62344432509E+03  0.50400001928E-02 0. -1.
    10030    2    1    2    0    0  0.00000000000E+00  0.00000000000E+00  0.19301366457E+04  0.31770252959E+04  0.25235019833E+04 0.  0.
        5    1    3    3  502    0  0.12402097714E+04  0.10160767016E+03  0.12277964140E+04  0.17481277184E+04  0.46999998093E+01 0.  1.
       -5    1    3    3    0  502 -0.12402097714E+04 -0.10160767016E+03  0.70234023171E+03  0.14288975774E+04  0.46999998093E+01 0. -1.
</event>
<event>
 5   0  0.1519145E-06  0.2498061E+04  0.7818609E-02  0.8403677E-01
        1   -1    0    0  501    0  0.00000000000E+00  0.00000000000E+00  0.14358706739E+04  0.14358706739E+04  0.50400001928E-02 0.  1.
       -1   -1    0    0    0  501  0.00000000000E+00  0.00000000000E+00 -0.10865024638E+04  0.10865024638E+04  0.50400001928E-02 0. -1.
    10030    2    1    2    0    0  0.00000000000E+00  0.00000000000E+00  0.34936821011E+03  0.25223731377E+04  0.24980608678E+04 0.  0.
        4    1    3    3  502    0 -0.66812270779E+03  0.53444846599E+03  0.10935141747E+04  0.13884516479E+04  0.12699999809E+01 0.  1.
       -4    1    3    3    0  502  0.66812270779E+03 -0.53444846599E+03 -0.74414596456E+03  0.11339214898E+04  0.12699999809E+01 0. -1.
</event>
<event>
 5   0  0.3971759E-06  0.2497985E+04  0.7818609E-02  0.8403704E-01
        2   -1    0    0  501    0  0.00000000000E+00  0.00000000000E+00  0.12102241501E+04  0.12102241501E+04  0.25500000920E-02 0. -1.
       -2   -1    0    0    0  501  0.00000000000E+00  0.00000000000E+00 -0.12890022970E+04  0.12890022970E+04  0.25500000920E-02 0.  1.
    10030    2    1    2    0    0  0.00000000000E+00  0.00000000000E+00 -0.78778146959E+02  0.24992264471E+04  0.24979845551E+04 0.  0.
        4    1    3    3  502    0  0.53265162760E+03 -0.49574653911E+03 -0.10550280858E+04  0.12816271931E+04  0.12699999809E+01 0.  1.
       -4    1    3    3    0  502 -0.53265162760E+03  0.49574653911E+03  0.97624993883E+03  0.12175992540E+04  0.12699999809E+01 0. -1.
</event>
<event>
 5   0  0.3808293E-06  0.2498340E+04  0.7818609E-02  0.8403577E-01
        2   -1    0    0  501    0  0.00000000000E+00  0.00000000000E+00  0.14292648513E+04  0.14292648513E+04  0.25500000920E-02 0.  1.
       -2   -1    0    0    0  501  0.00000000000E+00  0.00000000000E+00 -0.10917684202E+04  0.10917684202E+04  0.25500000920E-02 0. -1.
    10030    2    1    2    0    0  0.00000000000E+00  0.00000000000E+00  0.33749643107E+03  0.25210332715E+04  0.24983404321E+04 0.  0.
        1    1    3    3  502    0 -0.88192720635E+03  0.47215405046E+03  0.92367541625E+03  0.13615804491E+04  0.50400001928E-02 0.  1.
       -1    1    3    3    0  502  0.88192720635E+03 -0.47215405046E+03 -0.58617898518E+03  0.11594528224E+04  0.50400001928E-02 0. -1.
</event>
<event>
 5   0  0.1501747E-06  0.2498991E+04  0.7818609E-02  0.8403345E-01
        1   -1    0    0  501    0  0.00000000000E+00  0.00000000000E+00  0.14973623187E+04  0.14973623187E+04  0.50400001928E-02 0. -1.
       -1   -1    0    0    0  501  0.00000000000E+00  0.00000000000E+00 -0.10426598800E+04  0.10426598800E+04  0.50400001928E-02 0.  1.
    10030    2    1    2    0    0  0.00000000000E+00  0.00000000000E+00  0.45470243873E+03  0.25400221987E+04  0.24989914890E+04 0.  0.
        2    1    3    3  502    0  0.39449802212E+03 -0.28367562785E+03 -0.94269620144E+03  0.10605548923E+04  0.25500000920E-02 0.  1.
       -2    1    3    3    0  502 -0.39449802212E+03  0.28367562785E+03  0.13973986402E+04  0.14794673064E+04  0.25500000920E-02 0. -1.
</event>
<event>
 5   0  0.3924441E-06  0.2500246E+04  0.7818609E-02  0.8402898E-01
        2   -1    0    0  501    0  0.00000000000E+00  0.00000000000E+00  0.17107140178E+04  0.17107140178E+04  0.25500000920E-02 0. -1.
       -2   -1    0    0    0  501  0.00000000000E+00  0.00000000000E+00 -0.91354103515E+03  0.91354103515E+03  0.25500000920E-02 0.  1.
    10030    2    1    2    0    0  0.00000000000E+00  0.00000000000E+00  0.79717298266E+03  0.26242550530E+04  0.25002459516E+04 0.  0.
        2    1    3    3  502    0 -0.11099489574E+04 -0.25963606188E+03  0.93727702178E+03  0.14757661699E+04  0.25500000920E-02 0.  1.
       -2    1    3    3    0  502  0.11099489574E+04  0.25963606188E+03 -0.14010403912E+03  0.11484888830E+04  0.25500000920E-02 0. -1.
</event>
<event>
 5   0  0.3808293E-06  0.2501457E+04  0.7818609E-02  0.8402467E-01
       -2   -1    0    0    0  501  0.00000000000E+00  0.00000000000E+00  0.11508992915E+04  0.11508992915E+04  0.25500000920E-02 0.  1.
        2   -1    0    0  501    0  0.00000000000E+00  0.00000000000E+00 -0.13592173692E+04  0.13592173692E+04  0.25500000920E-02 0. -1.
    10030    2    1    2    0    0  0.00000000000E+00  0.00000000000E+00 -0.20831807777E+03  0.25101166607E+04  0.25014574209E+04 0.  0.
        1    1    3    3  502    0 -0.97031717481E+03 -0.77511026351E+03  0.44715473175E+02  0.12427030272E+04  0.50400001928E-02 0.  1.
       -1    1    3    3    0  502  0.97031717481E+03  0.77511026351E+03 -0.25303355094E+03  0.12674136335E+04  0.50400001928E-02 0. -1.
</event>
<event>
 5   0  0.3713394E-06  0.2493861E+04  0.7818609E-02  0.8405176E-01
       -2   -1    0    0    0  501  0.00000000000E+00  0.00000000000E+00  0.82609134063E+03  0.82609134063E+03  0.25500000920E-02 0.  1.
        2   -1    0    0  501    0  0.00000000000E+00  0.00000000000E+00 -0.18821595309E+04  0.18821595309E+04  0.25500000920E-02 0. -1.
    10030    2    1    2    0    0  0.00000000000E+00  0.00000000000E+00 -0.10560681902E+04  0.27082508715E+04  0.24938610147E+04 0.  0.
        3    1    3    3  502    0 -0.47601212719E+02 -0.12454855510E+04 -0.48834728538E+03  0.13386497729E+04  0.10100000352E+00 0. -1.
       -3    1    3    3    0  502  0.47601212719E+02  0.12454855510E+04 -0.56772090486E+03  0.13696010986E+04  0.10100000352E+00 0.  1.
</event>
<event>
 5   0  0.3924441E-06  0.2496926E+04  0.7818609E-02  0.8404081E-01
       -2   -1    0    0    0  501  0.00000000000E+00  0.00000000000E+00  0.77299349262E+03  0.77299349263E+03  0.25500000920E-02 0. -1.
        2   -1    0    0  501    0  0.00000000000E+00  0.00000000000E+00 -0.20163946567E+04  0.20163946567E+04  0.25500000920E-02 0.  1.
    10030    2    1    2    0    0  0.00000000000E+00  0.00000000000E+00 -0.12434011640E+04  0.27893881493E+04  0.24969260687E+04 0.  0.
        2    1    3    3  502    0 -0.95175657768E+03  0.68732894945E+03 -0.14721888483E+03  0.11831885175E+04  0.25500000920E-02 0. -1.
       -2    1    3    3    0  502  0.95175657768E+03 -0.68732894945E+03 -0.10961822792E+04  0.16061996318E+04  0.25500000920E-02 0.  1.
</event>
<event>
 5   0  0.1541852E-06  0.2500461E+04  0.7818609E-02  0.8402821E-01
       -1   -1    0    0    0  501  0.00000000000E+00  0.00000000000E+00  0.22294336109E+04  0.22294336109E+04  0.50400001928E-02 0.  1.
        1   -1    0    0  501    0  0.00000000000E+00  0.00000000000E+00 -0.70110940541E+03  0.70110940543E+03  0.50400001928E-02 0. -1.
    10030    2    1    2    0    0  0.00000000000E+00  0.00000000000E+00  0.15283242055E+04  0.29305430164E+04  0.25004614561E+04 0.  0.
        5    1    3    3  502    0 -0.22429063622E+03  0.70523361601E+03 -0.41682523521E+03  0.84936806471E+03  0.46999998093E+01 0. -1.
       -5    1    3    3    0  502  0.22429063622E+03 -0.70523361601E+03  0.19451494407E+04  0.20811749516E+04  0.46999998093E+01 0.  1.
</event>
<event>
 5   0  0.3971759E-06  0.2498502E+04  0.7818609E-02  0.8403519E-01
        2   -1    0    0  501    0  0.00000000000E+00  0.00000000000E+00  0.11249142050E+04  0.11249142050E+04  0.25500000920E-02 0. -1.
       -2   -1    0    0    0  501  0.00000000000E+00  0.00000000000E+00 -0.13873312121E+04  0.13873312121E+04  0.25500000920E-02 0.  1.
    10030    2    1    2    0    0  0.00000000000E+00  0.00000000000E+00 -0.26241700718E+03  0.25122454171E+04  0.24985024215E+04 0.  0.
        4    1    3    3  502    0 -0.27420173468E+03  0.45464832858E+03 -0.12682403056E+04  0.13748915520E+04  0.12699999809E+01 0.  1.
       -4    1    3    3    0  502  0.27420173468E+03 -0.45464832858E+03  0.10058232984E+04  0.11373538652E+04  0.12699999809E+01 0. -1.
</event>
<event>
 5   0  0.1574896E-06  0.2495462E+04  0.7818609E-02  0.8404604E-01
        1   -1    0    0  501    0  0.00000000000E+00  0.00000000000E+00  0.11956839685E+04  0.11956839685E+04  0.50400001928E-02 0.  1.
       -1   -1    0    0    0  501  0.00000000000E+00  0.00000000000E+00 -0.13020430957E+04  0.13020430957E+04  0.50400001928E-02 0. -1.
    10030    2    1    2    0    0  0.00000000000E+00  0.00000000000E+00 -0.10635912727E+03  0.24977270642E+04  0.24954615251E+04 0.  0.
        3    1    3    3  502    0 -0.25781500162E+03 -0.68864924354E+03  0.95576619053E+03  0.12059002350E+04  0.10100000352E+00 0.  1.
       -3    1    3    3    0  502  0.25781500162E+03  0.68864924354E+03 -0.10621253178E+04  0.12918268292E+04  0.10100000352E+00 0. -1.
</event>
<event>
 5   0  0.1574896E-06  0.2502094E+04  0.7818609E-02  0.8402240E-01
       -1   -1    0    0    0  501  0.00000000000E+00  0.00000000000E+00  0.13071571241E+04  0.13071571241E+04  0.50400001928E-02 0. -1.
        1   -1    0    0  501    0  0.00000000000E+00  0.00000000000E+00 -0.11973457498E+04  0.11973457498E+04  0.50400001928E-02 0.  1.
    10030    2    1    2    0    0  0.00000000000E+00  0.00000000000E+00  0.10981137436E+03  0.25045028739E+04  0.25020943443E+04 0.  0.
        3    1    3    3  502    0 -0.83648195211E+03 -0.98362322418E+02 -0.87104792420E+03  0.12116524663E+04  0.10100000352E+00 0.  1.
       -3    1    3    3    0  502  0.83648195211E+03  0.98362322418E+02  0.98085929856E+03  0.12928504076E+04  0.10100000352E+00 0. -1.
</event>
<event>
 5   0  0.3713394E-06  0.2483277E+04  0.7818609E-02  0.8408967E-01
       -2   -1    0    0    0  501  0.00000000000E+00  0.00000000000E+00  0.85664502793E+03  0.85664502793E+03  0.25500000920E-02 0. -1.
        2   -1    0    0  501    0  0.00000000000E+00  0.00000000000E+00 -0.17996558974E+04  0.17996558974E+04  0.25500000920E-02 0.  1.
    10030    2    1    2    0    0  0.00000000000E+00  0.00000000000E+00 -0.94301086948E+03  0.26563009253E+04  0.24832770901E+04 0.  0.
        3    1    3    3  502    0  0.63815161068E+03  0.17562752917E+03 -0.15952167187E+04  0.17270781387E+04  0.10100000352E+00 0.  1.
       -3    1    3    3    0  502 -0.63815161068E+03 -0.17562752917E+03  0.65220584926E+03  0.92922278665E+03  0.10100000352E+00 0. -1.
</event>
<event>
 5   0  0.1287375E-06  0.2510341E+04  0.7818609E-02  0.8399311E-01
        3   -1    0    0  501    0  0.00000000000E+00  0.00000000000E+00  0.11315579675E+04  0.11315579720E+04  0.10100000352E+00 0. -1.
       -3   -1    0    0    0  501  0.00000000000E+00  0.00000000000E+00 -0.13922865318E+04  0.13922865355E+04  0.10100000352E+00 0.  1.
    10030    2    1    2    0    0  0.00000000000E+00  0.00000000000E+00 -0.26072856437E+03  0.25238445075E+04  0.25103409556E+04 0.  0.
        3    1    3    3  502    0 -0.82437519509E+03 -0.20420184529E+03 -0.10595435560E+04  0.13579121522E+04  0.10100000352E+00 0.  1.
       -3    1    3    3    0  502  0.82437519509E+03  0.20420184529E+03  0.79881499163E+03  0.11659323552E+04  0.10100000352E+00 0. -1.
</event>
<event>
 5   0  0.1574896E-06  0.2495526E+04  0.7818609E-02  0.8404581E-01
        1   -1    0    0  501    0  0.00000000000E+00  0.00000000000E+00  0.15990092817E+04  0.15990092817E+04  0.50400001928E-02 0.  1.
       -1   -1    0    0    0  501  0.00000000000E+00  0.00000000000E+00 -0.97367331940E+03  0.97367331942E+03  0.50400001928E-02 0. -1.
    10030    2    1    2    0    0  0.00000000000E+00  0.00000000000E+00  0.62533596228E+03  0.25726826011E+04  0.24955261370E+04 0.  0.
        3    1    3    3  502    0 -0.48242640437E+03 -0.60267203919E+03 -0.69792810072E+03  0.10406980669E+04  0.10100000352E+00 0. -1.
       -3    1    3    3    0  502  0.48242640437E+03  0.60267203919E+03  0.13232640630E+04  0.15319845342E+04  0.10100000352E+00 0.  1.
</event>
<event>
 5   0  0.1519145E-06  0.2503347E+04  0.7818609E-02  0.8401794E-01
       -1   -1    0    0    0  501  0.00000000000E+00  0.00000000000E+00  0.54739892854E+03  0.54739892857E+03  0.50400001928E-02 0.  1.
        1   -1    0    0  501    0  0.00000000000E+00  0.00000000000E+00 -0.28620565709E+04  0.28620565709E+04  0.50400001928E-02 0. -1.
    10030    2    1    2    0    0  0.00000000000E+00  0.00000000000E+00 -0.23146576424E+04  0.34094554995E+04  0.25033471197E+04 0.  0.
        4    1    3    3  502    0 -0.36560946565E+03 -0.24212542338E+02 -0.27873769888E+04  0.28113570778E+04  0.12699999809E+01 0. -1.
       -4    1    3    3    0  502  0.36560946565E+03  0.24212542338E+02  0.47271934642E+03  0.59809842164E+03  0.12699999809E+01 0.  1.
</event>
<event>
 5   0  0.1541852E-06  0.2495738E+04  0.7818609E-02  0.8404506E-01
       -1   -1    0    0    0  501  0.00000000000E+00  0.00000000000E+00  0.16317307430E+04  0.16317307431E+04  0.50400001928E-02 0.  1.
        1   -1    0    0  501    0  0.00000000000E+00  0.00000000000E+00 -0.95430966704E+03  0.95430966705E+03  0.50400001928E-02 0. -1.
    10030    2    1    2    0    0  0.00000000000E+00  0.00000000000E+00  0.67742107601E+03  0.25860404101E+04  0.24957375039E+04 0.  0.
        5    1    3    3  502    0  0.86621010077E+03 -0.83719769516E+03  0.14582278572E+01  0.12046759464E+04  0.46999998093E+01 0.  1.
       -5    1    3    3    0  502 -0.86621010077E+03  0.83719769516E+03  0.67596284815E+03  0.13813644637E+04  0.46999998093E+01 0. -1.
</event>
<event>
 5   0  0.1519145E-06  0.2496374E+04  0.7818609E-02  0.8404279E-01
       -1   -1    0    0    0  501  0.00000000000E+00  0.00000000000E+00  0.60786699158E+03  0.60786699160E+03  0.50400001928E-02 0.  1.
        1   -1    0    0  501    0  0.00000000000E+00  0.00000000000E+00 -0.25630119203E+04  0.25630119203E+04  0.50400001928E-02 0. -1.
    10030    2    1    2    0    0  0.00000000000E+00  0.00000000000E+00 -0.19551449287E+04  0.31708789119E+04  0.24963736462E+04 0.  0.
        4    1    3    3  502    0  0.65907378286E+02  0.17368690713E+02  0.60550072533E+03  0.60932601718E+03  0.12699999809E+01 0.  1.
       -4    1    3    3    0  502 -0.65907378286E+02 -0.17368690713E+02 -0.25606456540E+04  0.25615528947E+04  0.12699999809E+01 0. -1.
</event>
<event>
 5   0  0.3713394E-06  0.2516706E+04  0.7818609E-02  0.8397058E-01
        2   -1    0    0  501    0  0.00000000000E+00  0.00000000000E+00  0.12830772732E+04  0.12830772732E+04  0.25500000920E-02 0.  1.
       -2   -1    0    0    0  501  0.00000000000E+00  0.00000000000E+00 -0.12341055592E+04  0.12341055592E+04  0.25500000920E-02 0. -1.
    10030    2    1    2    0    0  0.00000000000E+00  0.00000000000E+00  0.48971714000E+02  0.25171828323E+04  0.25167064156E+04 0.  0.
        3    1    3    3  502    0  0.45613626254E+03 -0.33420125921E+03 -0.10998719601E+04  0.12367170697E+04  0.10100000352E+00 0. -1.
       -3    1    3    3    0  502 -0.45613626254E+03  0.33420125921E+03  0.11488436741E+04  0.12804657626E+04  0.10100000352E+00 0.  1.
</event>
<event>
 5   0  0.1553604E-06  0.2497599E+04  0.7818609E-02  0.8403841E-01
       -1   -1    0    0    0  501  0.00000000000E+00  0.00000000000E+00  0.69658371812E+03  0.69658371814E+03  0.50400001928E-02 0. -1.
        1   -1    0    0  501    0  0.00000000000E+00  0.00000000000E+00 -0.22387840809E+04  0.22387840809E+04  0.50400001928E-02 0.  1.
    10030    2    1    2    0    0  0.00000000000E+00  0.00000000000E+00 -0.15422003628E+04  0.29353677990E+04  0.24975992787E+04 0.  0.
        1    1    3    3  502    0  0.49445408898E+02  0.29557462940E+03  0.65369629166E+03  0.71911616013E+03  0.50400001928E-02 0. -1.
       -1    1    3    3    0  502 -0.49445408898E+02 -0.29557462940E+03 -0.21958966544E+04  0.22162516389E+04  0.50400001928E-02 0.  1.
</event>
<event>
 5   0  0.3713394E-06  0.2498374E+04  0.7818609E-02  0.8403565E-01
       -2   -1    0    0    0  501  0.00000000000E+00  0.00000000000E+00  0.10233134761E+04  0.10233134761E+04  0.25500000920E-02 0. -1.
        2   -1    0    0  501    0  0.00000000000E+00  0.00000000000E+00 -0.15249174466E+04  0.15249174466E+04  0.25500000920E-02 0.  1.
    10030    2    1    2    0    0  0.00000000000E+00  0.00000000000E+00 -0.50160397051E+03  0.25482309227E+04  0.24983743299E+04 0.  0.
        3    1    3    3  502    0 -0.99823209067E+03  0.72071156243E+03 -0.46614575237E+03  0.13165045901E+04  0.10100000352E+00 0.  1.
       -3    1    3    3    0  502  0.99823209067E+03 -0.72071156243E+03 -0.35458218140E+02  0.12317263326E+04  0.10100000352E+00 0. -1.
</event>
<event>
 5   0  0.3971759E-06  0.2502614E+04  0.7818609E-02  0.8402055E-01
       -2   -1    0    0    0  501  0.00000000000E+00  0.00000000000E+00  0.11820783708E+04  0.11820783708E+04  0.25500000920E-02 0. -1.
        2   -1    0    0  501    0  0.00000000000E+00  0.00000000000E+00 -0.13245904580E+04  0.13245904580E+04  0.25500000920E-02 0.  1.
    10030    2    1    2    0    0  0.00000000000E+00  0.00000000000E+00 -0.14251208714E+03  0.25066688288E+04  0.25026144174E+04 0.  0.
        4    1    3    3  502    0 -0.84904544165E+03  0.62196959044E+03  0.60662972319E+03  0.12147944548E+04  0.12699999809E+01 0. -1.
       -4    1    3    3    0  502  0.84904544165E+03 -0.62196959044E+03 -0.74914181033E+03  0.12918743740E+04  0.12699999809E+01 0.  1.
</event>
<event>
 5   0  0.1519145E-06  0.2492649E+04  0.7818609E-02  0.8405609E-01
       -1   -1    0    0    0  501  0.00000000000E+00  0.00000000000E+00  0.12557674028E+04  0.12557674028E+04  0.50400001928E-02 0. -1.
        1   -1    0    0  501    0  0.00000000000E+00  0.00000000000E+00 -0.12369525573E+04  0.12369525573E+04  0.50400001928E-02 0.  1.
    10030    2    1    2    0    0  0.00000000000E+00  0.00000000000E+00  0.18814845493E+02  0.24927199602E+04  0.24926489527E+04 0.  0.
        4    1    3    3  502    0  0.97266469725E+03  0.52522400913E+03  0.58508536652E+03  0.12507051499E+04  0.12699999809E+01 0. -1.
       -4    1    3    3    0  502 -0.97266469725E+03 -0.52522400913E+03 -0.56627052103E+03  0.12420148103E+04  0.12699999809E+01 0.  1.
</event>
<event>
 5   0  0.1553604E-06  0.2496701E+04  0.7818609E-02  0.8404162E-01
       -1   -1    0    0    0  501  0.00000000000E+00  0.00000000000E+00  0.53352710708E+03  0.53352710710E+03  0.50400001928E-02 0. -1.
        1   -1    0    0  501    0  0.00000000000E+00  0.00000000000E+00 -0.29208986114E+04  0.29208986114E+04  0.50400001928E-02 0.  1.
    10030    2    1    2    0    0  0.00000000000E+00  0.00000000000E+00 -0.23873715043E+04  0.34544257185E+04  0.24967006919E+04 0.  0.
        1    1    3    3  502    0 -0.62680739237E+03 -0.44278257020E+03  0.16860137081E+03  0.78572917336E+03  0.50400001928E-02 0. -1.
       -1    1    3    3    0  502  0.62680739237E+03  0.44278257020E+03 -0.25559728751E+04  0.26686965451E+04  0.50400001928E-02 0.  1.
</event>
<event>
 5   0  0.3924441E-06  0.2501482E+04  0.7818609E-02  0.8402458E-01
       -2   -1    0    0    0  501  0.00000000000E+00  0.00000000000E+00  0.15947228061E+04  0.15947228061E+04  0.25500000920E-02 0.  1.
        2   -1    0    0  501    0  0.00000000000E+00  0.00000000000E+00 -0.98095623443E+03  0.98095623444E+03  0.25500000920E-02 0. -1.
    10030    2    1    2    0    0  0.00000000000E+00  0.00000000000E+00  0.61376657167E+03  0.25756790405E+04  0.25014821837E+04 0.  0.
        2    1    3    3  502    0 -0.78312775340E+03 -0.41191178150E+03 -0.60330041918E+03  0.10709490136E+04  0.25500000920E-02 0. -1.
       -2    1    3    3    0  502  0.78312775340E+03  0.41191178150E+03  0.12170669908E+04  0.15047300270E+04  0.25500000920E-02 0.  1.
</event>
<event>
 5   0  0.3713394E-06  0.2497313E+04  0.7818609E-02  0.8403944E-01
        2   -1    0    0  501    0  0.00000000000E+00  0.00000000000E+00  0.13493657244E+04  0.13493657244E+04  0.25500000920E-02 0. -1.
       -2   -1    0    0    0  501  0.00000000000E+00  0.00000000000E+00 -0.11554633710E+04  0.11554633710E+04  0.25500000920E-02 0.  1.
    10030    2    1    2    0    0  0.00000000000E+00  0.00000000000E+00  0.19390235341E+03  0.25048290955E+04  0.24973126906E+04 0.  0.
        3    1    3    3  502    0 -0.12740408468E+03  0.10108587070E+04  0.82097943296E+03  0.13084625963E+04  0.10100000352E+00 0. -1.
       -3    1    3    3    0  502  0.12740408468E+03 -0.10108587070E+04 -0.62707707955E+03  0.11963664992E+04  0.10100000352E+00 0.  1.
</event>
<event>
 5   0  0.1519145E-06  0.2488490E+04  0.7818609E-02  0.8407098E-01
       -1   -1    0    0    0  501  0.00000000000E+00  0.00000000000E+00  0.59472976801E+03  0.59472976803E+03  0.50400001928E-02 0.  1.
        1   -1    0    0  501    0  0.00000000000E+00  0.00000000000E+00 -0.26031070960E+04  0.26031070960E+04  0.50400001928E-02 0. -1.
    10030    2    1    2    0    0  0.00000000000E+00  0.00000000000E+00 -0.20083773280E+04  0.31978368640E+04  0.24884897262E+04 0.  0.
        4    1    3    3  502    0  0.34490293900E+03 -0.43372600666E+03 -0.24357769399E+04  0.24980166533E+04  0.12699999809E+01 0. -1.
       -4    1    3    3    0  502 -0.34490293900E+03  0.43372600666E+03  0.42739961193E+03  0.69982021074E+03  0.12699999809E+01 0.  1.
</event>
<event>
 5   0  0.1501747E-06  0.2494533E+04  0.7818609E-02  0.8404936E-01
        1   -1    0    0  501    0  0.00000000000E+00  0.00000000000E+00  0.99170573262E+03  0.99170573263E+03  0.50400001928E-02 0.  1.
       -1   -1    0    0    0  501  0.00000000000E+00  0.00000000000E+00 -0.15686849019E+04  0.15686849020E+04  0.50400001928E-02 0. -1.
    10030    2    1    2    0    0  0.00000000000E+00  0.00000000000E+00 -0.57697916933E+03  0.25603906346E+04  0.24945330705E+04 0.  0.
        2    1    3    3  502    0 -0.90634289687E+02  0.84815062975E+03 -0.12225141306E+04  0.14906759757E+04  0.25500000920E-02 0.  1.
       -2    1    3    3    0  502  0.90634289687E+02 -0.84815062975E+03  0.64553496123E+03  0.10697146589E+04  0.25500000920E-02 0. -1.
</event>
<event>
 5   0  0.1553604E-06  0.2505314E+04  0.7818609E-02  0.8401095E-01
       -1   -1    0    0    0  501  0.00000000000E+00  0.00000000000E+00  0.10866356709E+04  0.10866356709E+04  0.50400001928E-02 0.  1.
        1   -1    0    0  501    0  0.00000000000E+00  0.00000000000E+00 -0.14440441831E+04  0.14440441831E+04  0.50400001928E-02 0. -1.
    10030    2    1    2    0    0  0.00000000000E+00  0.00000000000E+00 -0.35740851225E+03  0.25306798540E+04  0.25053142874E+04 0.  0.
        1    1    3    3  502    0 -0.91701875970E+02  0.51885667372E+02 -0.14395602512E+04  0.14434109164E+04  0.50400001928E-02 0. -1.
       -1    1    3    3    0  502  0.91701875970E+02 -0.51885667372E+02  0.10821517390E+04  0.10872689376E+04  0.50400001928E-02 0.  1.
</event>
<event>
 5   0  0.3924441E-06  0.2469721E+04  0.7818609E-02  0.8413853E-01
        2   -1    0    0  501    0  0.00000000000E+00  0.00000000000E+00  0.14512531695E+04  0.14512531695E+04  0.25500000920E-02 0. -1.
       -2   -1    0    0    0  501  0.00000000000E+00  0.00000000000E+00 -0.10507337658E+04  0.10507337658E+04  0.25500000920E-02 0.  1.
    10030    2    1    2    0    0  0.00000000000E+00  0.00000000000E+00  0.40051940368E+03  0.25019869353E+04  0.24697212053E+04 0.  0.
        2    1    3    3  502    0  0.11775322329E+04  0.93289997289E+02 -0.16443722978E+03  0.11926125882E+04  0.25500000920E-02 0. -1.
       -2    1    3    3    0  502 -0.11775322329E+04 -0.93289997289E+02  0.56495663346E+03  0.13093743471E+04  0.25500000920E-02 0.  1.
</event>
<event>
 5   0  0.1541852E-06  0.2503868E+04  0.7818609E-02  0.8401609E-01
       -1   -1    0    0    0  501  0.00000000000E+00  0.00000000000E+00  0.14567729745E+04  0.14567729745E+04  0.50400001928E-02 0. -1.
        1   -1    0    0  501    0  0.00000000000E+00  0.00000000000E+00 -0.10758977485E+04  0.10758977485E+04  0.50400001928E-02 0.  1.
    10030    2    1    2    0    0  0.00000000000E+00  0.00000000000E+00  0.38087522603E+03  0.25326707230E+04  0.25038680183E+04 0.  0.
        5    1    3    3  502    0  0.79003349161E+03  0.77146286327E+03  0.78714637336E+03  0.13560712999E+04  0.46999998093E+01 0. -1.
       -5    1    3    3    0  502 -0.79003349161E+03 -0.77146286327E+03 -0.40627114733E+03  0.11765994231E+04  0.46999998093E+01 0.  1.
</event>
<event>
 5   0  0.1574896E-06  0.2512518E+04  0.7818609E-02  0.8398540E-01
       -1   -1    0    0    0  501  0.00000000000E+00  0.00000000000E+00  0.10099048782E+04  0.10099048782E+04  0.50400001928E-02 0.  1.
        1   -1    0    0  501    0  0.00000000000E+00  0.00000000000E+00 -0.15627080132E+04  0.15627080132E+04  0.50400001928E-02 0. -1.
    10030    2    1    2    0    0  0.00000000000E+00  0.00000000000E+00 -0.55280313507E+03  0.25726128914E+04  0.25125178174E+04 0.  0.
        3    1    3    3  502    0  0.93259510423E+03  0.35528893539E+03 -0.10576871559E+04  0.14541891163E+04  0.10100000352E+00 0. -1.
       -3    1    3    3    0  502 -0.93259510423E+03 -0.35528893539E+03  0.50488402080E+03  0.11184237751E+04  0.10100000352E+00 0.  1.
</event>
<event>
 5   0  0.3713394E-06  0.2512453E+04  0.7818609E-02  0.8398562E-01
       -2   -1    0    0    0  501  0.00000000000E+00  0.00000000000E+00  0.72941575157E+03  0.72941575157E+03  0.25500000920E-02 0. -1.
        2   -1    0    0  501    0  0.00000000000E+00  0.00000000000E+00 -0.21635199163E+04  0.21635199163E+04  0.25500000920E-02 0.  1.
    10030    2    1    2    0    0  0.00000000000E+00  0.00000000000E+00 -0.14341041647E+04  0.28929356678E+04  0.25124533872E+04 0.  0.
        3    1    3    3  502    0  0.79179500144E+03 -0.82631615662E+03 -0.13135459046E+04  0.17421654826E+04  0.10100000352E+00 0.  1.
       -3    1    3    3    0  502 -0.79179500144E+03  0.82631615662E+03 -0.12055826008E+03  0.11507701852E+04  0.10100000352E+00 0. -1.
</event>
<event>
 5   0  0.3713394E-06  0.2482125E+04  0.7818609E-02  0.8409381E-01
       -2   -1    0    0    0  501  0.00000000000E+00  0.00000000000E+00  0.12029831209E+04  0.12029831209E+04  0.25500000920E-02 0.  1.
        2   -1    0    0  501    0  0.00000000000E+00  0.00000000000E+00 -0.12803471635E+04  0.12803471635E+04  0.25500000920E-02 0. -1.
    10030    2    1    2    0    0  0.00000000000E+00  0.00000000000E+00 -0.77364042600E+02  0.24833302843E+04  0.24821249175E+04 0.  0.
        3    1    3    3  502    0  0.89749868579E+03 -0.47706480664E+03 -0.75116638604E+03  0.12638614127E+04  0.10100000352E+00 0. -1.
       -3    1    3    3    0  502 -0.89749868579E+03  0.47706480664E+03  0.67380234344E+03  0.12194688717E+04  0.10100000352E+00 0.  1.
</event>
<event>
 5   0  0.1553604E-06  0.2500683E+04  0.7818609E-02  0.8402742E-01
        1   -1    0    0  501    0  0.00000000000E+00  0.00000000000E+00  0.10297523085E+04  0.10297523085E+04  0.50400001928E-02 0. -1.
       -1   -1    0    0    0  501  0.00000000000E+00  0.00000000000E+00 -0.15181839035E+04  0.15181839035E+04  0.50400001928E-02 0.  1.
    10030    2    1    2    0    0  0.00000000000E+00  0.00000000000E+00 -0.48843159508E+03  0.25479362120E+04  0.25006826103E+04 0.  0.
        1    1    3    3  502    0 -0.10912035999E+03  0.75843259883E+03  0.76249607106E+03  0.10809845135E+04  0.50400001928E-02 0. -1.
       -1    1    3    3    0  502  0.10912035999E+03 -0.75843259883E+03 -0.12509276661E+04  0.14669516985E+04  0.50400001928E-02 0.  1.
</event>
<event>
 5   0  0.3808293E-06  0.2498618E+04  0.7818609E-02  0.8403478E-01
        2   -1    0    0  501    0  0.00000000000E+00  0.00000000000E+00  0.21128825502E+04  0.21128825502E+04  0.25500000920E-02 0.  1.
       -2   -1    0    0    0  501  0.00000000000E+00  0.00000000000E+00 -0.73869362431E+03  0.73869362431E+03  0.25500000920E-02 0. -1.
    10030    2    1    2    0    0  0.00000000000E+00  0.00000000000E+00  0.13741889259E+04  0.28515761745E+04  0.24986179130E+04 0.  0.
        1    1    3    3  502    0 -0.34560209498E+03 -0.62950995661E+03  0.18537791896E+04  0.19880193353E+04  0.50400001928E-02 0.  1.
       -1    1    3    3    0  502  0.34560209498E+03  0.62950995661E+03 -0.47959026372E+03  0.86355683925E+03  0.50400001928E-02 0. -1.
</event>
<event>
 5   0  0.1519145E-06  0.2497959E+04  0.7818609E-02  0.8403713E-01
        1   -1    0    0  501    0  0.00000000000E+00  0.00000000000E+00  0.22094128074E+04  0.22094128074E+04  0.50400001928E-02 0.  1.
       -1   -1    0    0    0  501  0.00000000000E+00  0.00000000000E+00 -0.70604721478E+03  0.70604721479E+03  0.50400001928E-02 0. -1.
    10030    2    1    2    0    0  0.00000000000E+00  0.00000000000E+00  0.15033655926E+04  0.29154600222E+04  0.24979589740E+04 0.  0.
        4    1    3    3  502    0  0.54269493626E+03  0.68530101267E+02  0.20621722130E+04  0.21334877589E+04  0.12699999809E+01 0.  1.
       -4    1    3    3    0  502 -0.54269493626E+03 -0.68530101267E+02 -0.55880662037E+03  0.78197226325E+03  0.12699999809E+01 0. -1.
</event>
<event>
 5   0  0.1553604E-06  0.2499245E+04  0.7818609E-02  0.8403255E-01
        1   -1    0    0  501    0  0.00000000000E+00  0.00000000000E+00  0.94654208181E+03  0.94654208183E+03  0.50400001928E-02 0.  1.
       -1   -1    0    0    0  501  0.00000000000E+00  0.00000000000E+00 -0.16497486427E+04  0.16497486427E+04  0.50400001928E-02 0. -1.
    10030    2    1    2    0    0  0.00000000000E+00  0.00000000000E+00 -0.70320656085E+03  0.25962907245E+04  0.24992450978E+04 0.  0.
        1    1    3    3  502    0  0.10571398103E+04  0.24102233220E+03 -0.99695015702E+03  0.14729378666E+04  0.50400001928E-02 0. -1.
       -1    1    3    3    0  502 -0.10571398103E+04 -0.24102233220E+03  0.29374359617E+03  0.11233528579E+04  0.50400001928E-02 0.  1.
</event>
<event>
 5   0  0.1501747E-06  0.2501370E+04  0.7818609E-02  0.8402498E-01
       -1   -1    0    0    0  501  0.00000000000E+00  0.00000000000E+00  0.14825604516E+04  0.14825604516E+04  0.50400001928E-02 0.  1.
        1   -1    0    0  501    0  0.00000000000E+00  0.00000000000E+00 -0.10550751768E+04  0.10550751769E+04  0.50400001928E-02 0. -1.
    10030    2    1    2    0    0  0.00000000000E+00  0.00000000000E+00  0.42748527476E+03  0.25376356285E+04  0.25013698093E+04 0.  0.
        2    1    3    3  502    0  0.74697323838E+02 -0.39877478938E+03  0.14139468390E+04  0.14710019329E+04  0.25500000920E-02 0.  1.
       -2    1    3    3    0  502 -0.74697323838E+02  0.39877478938E+03 -0.98646156427E+03  0.10666336956E+04  0.25500000920E-02 0. -1.
</event>
<event>
 5   0  0.3713394E-06  0.2498761E+04  0.7818609E-02  0.8403427E-01
       -2   -1    0    0    0  501  0.00000000000E+00  0.00000000000E+00  0.65493417038E+03  0.65493417038E+03  0.25500000920E-02 0.  1.
        2   -1    0    0  501    0  0.00000000000E+00  0.00000000000E+00 -0.23833722537E+04  0.23833722537E+04  0.25500000920E-02 0. -1.
    10030    2    1    2    0    0  0.00000000000E+00  0.00000000000E+00 -0.17284380833E+04  0.30383064240E+04  0.24987612368E+04 0.  0.
        3    1    3    3  502    0 -0.75149155096E+03  0.13660067390E+02 -0.20777255207E+04  0.22094953040E+04  0.10100000352E+00 0. -1.
       -3    1    3    3    0  502  0.75149155096E+03 -0.13660067390E+02  0.34928743743E+03  0.82881112007E+03  0.10100000352E+00 0.  1.
</event>
<event>
 5   0  0.1519145E-06  0.2499814E+04  0.7818609E-02  0.8403052E-01
        1   -1    0    0  501    0  0.00000000000E+00  0.00000000000E+00  0.12824863735E+04  0.12824863735E+04  0.50400001928E-02 0. -1.
       -1   -1    0    0    0  501  0.00000000000E+00  0.00000000000E+00 -0.12181554585E+04  0.12181554585E+04  0.50400001928E-02 0.  1.
    10030    2    1    2    0    0  0.00000000000E+00  0.00000000000E+00  0.64330915027E+02  0.25006418320E+04  0.24998142141E+04 0.  0.
        4    1    3    3  502    0  0.19331790193E+03  0.54910041420E+02  0.12662185799E+04  0.12820678721E+04  0.12699999809E+01 0. -1.
       -4    1    3    3    0  502 -0.19331790193E+03 -0.54910041420E+02 -0.12018876648E+04  0.12185739598E+04  0.12699999809E+01 0.  1.
</event>
<event>
 5   0  0.1501747E-06  0.2509645E+04  0.7818609E-02  0.8399558E-01
       -1   -1    0    0    0  501  0.00000000000E+00  0.00000000000E+00  0.91179752353E+03  0.91179752355E+03  0.50400001928E-02 0. -1.
        1   -1    0    0  501    0  0.00000000000E+00  0.00000000000E+00 -0.17268959856E+04  0.17268959856E+04  0.50400001928E-02 0.  1.
    10030    2    1    2    0    0  0.00000000000E+00  0.00000000000E+00 -0.81509846209E+03  0.26386935092E+04  0.25096449814E+04 0.  0.
        2    1    3    3  502    0 -0.63456865205E+03  0.87871925294E+03 -0.10723222507E+04  0.15246966613E+04  0.25500000920E-02 0.  1.
       -2    1    3    3    0  502  0.63456865205E+03 -0.87871925294E+03  0.25722378861E+03  0.11139968479E+04  0.25500000920E-02 0. -1.
</event>
<event>
 5   0  0.3924441E-06  0.2500763E+04  0.7818609E-02  0.8402714E-01
       -2   -1    0    0    0  501  0.00000000000E+00  0.00000000000E+00  0.16793424868E+04  0.16793424868E+04  0.25500000920E-02 0. -1.
        2   -1    0    0  501    0  0.00000000000E+00  0.00000000000E+00 -0.93099156860E+03  0.93099156860E+03  0.25500000920E-02 0.  1.
    10030    2    1    2    0    0  0.00000000000E+00  0.00000000000E+00  0.74835091822E+03  0.26103340554E+04  0.25007628404E+04 0.  0.
        2    1    3    3  502    0 -0.25657752434E+03 -0.60551870563E+03  0.14842416811E+04  0.16234094667E+04  0.25500000920E-02 0. -1.
       -2    1    3    3    0  502  0.25657752434E+03  0.60551870563E+03 -0.73589076286E+03  0.98692458868E+03  0.25500000920E-02 0.  1.
</event>
<event>
 5   0  0.1574896E-06  0.2502166E+04  0.7818609E-02  0.8402214E-01
        1   -1    0    0  501    0  0.00000000000E+00  0.00000000000E+00  0.11591519723E+04  0.11591519723E+04  0.50400001928E-02 0.  1.
       -1   -1    0    0    0  501  0.00000000000E+00  0.00000000000E+00 -0.13503047852E+04  0.13503047852E+04  0.50400001928E-02 0. -1.
    10030    2    1    2    0    0  0.00000000000E+00  0.00000000000E+00 -0.19115281297E+03  0.25094567575E+04  0.25021658258E+04 0.  0.
        3    1    3    3  502    0 -0.37431395066E+03 -0.90117686851E+03  0.68963389385E+03  0.11949165660E+04  0.10100000352E+00 0.  1.
       -3    1    3    3    0  502  0.37431395066E+03  0.90117686851E+03 -0.88078670682E+03  0.13145401915E+04  0.10100000352E+00 0. -1.
</event>
<event>
 5   0  0.3814260E-06  0.2500540E+04  0.7818609E-02  0.8402793E-01
        2   -1    0    0  501    0  0.00000000000E+00  0.00000000000E+00  0.16561718489E+04  0.16561718489E+04  0.25500000920E-02 0. -1.
       -2   -1    0    0    0  501  0.00000000000E+00  0.00000000000E+00 -0.94384808015E+03  0.94384808015E+03  0.25500000920E-02 0.  1.
    10030    2    1    2    0    0  0.00000000000E+00  0.00000000000E+00  0.71232376874E+03  0.26000199290E+04  0.25005396377E+04 0.  0.
        5    1    3    3  502    0  0.12043830916E+04  0.31312670554E+03  0.23067261229E+03  0.12656298468E+04  0.46999998093E+01 0.  1.
       -5    1    3    3    0  502 -0.12043830916E+04 -0.31312670554E+03  0.48165115645E+03  0.13343900822E+04  0.46999998093E+01 0. -1.
</event>
<event>
 5   0  0.1574896E-06  0.2504112E+04  0.7818609E-02  0.8401522E-01
        1   -1    0    0  501    0  0.00000000000E+00  0.00000000000E+00  0.19323963595E+04  0.19323963595E+04  0.50400001928E-02 0.  1.
       -1   -1    0    0    0  501  0.00000000000E+00  0.00000000000E+00 -0.81124340146E+03  0.81124340148E+03  0.50400001928E-02 0. -1.
    10030    2    1    2    0    0  0.00000000000E+00  0.00000000000E+00  0.11211529581E+04  0.27436397610E+04  0.25041116554E+04 0.  0.
        3    1    3    3  502    0 -0.12399655869E+04 -0.16977395129E+03  0.52098205344E+03  0.13556401298E+04  0.10100000352E+00 0.  1.
       -3    1    3    3    0  502  0.12399655869E+04  0.16977395129E+03  0.60017090462E+03  0.13879996312E+04  0.10100000352E+00 0. -1.
</event>
<event>
 5   0  0.3924441E-06  0.2458527E+04  0.7818609E-02  0.8417911E-01
       -2   -1    0    0    0  501  0.00000000000E+00  0.00000000000E+00  0.83682592516E+03  0.83682592517E+03  0.25500000920E-02 0. -1.
        2   -1    0    0  501    0  0.00000000000E+00  0.00000000000E+00 -0.18057382854E+04  0.18057382854E+04  0.25500000920E-02 0.  1.
    10030    2    1    2    0    0  0.00000000000E+00  0.00000000000E+00 -0.96891236025E+03  0.26425642106E+04  0.24585268852E+04 0.  0.
        2    1    3    3  502    0 -0.38975539598E+02  0.89032401762E+03  0.42561980524E+03  0.98759716872E+03  0.25500000920E-02 0. -1.
       -2    1    3    3    0  502  0.38975539598E+02 -0.89032401762E+03 -0.13945321655E+04  0.16549670419E+04  0.25500000920E-02 0.  1.
</event>
<event>
 5   0  0.3971759E-06  0.2504015E+04  0.7818609E-02  0.8401557E-01
       -2   -1    0    0    0  501  0.00000000000E+00  0.00000000000E+00  0.94780722558E+03  0.94780722558E+03  0.25500000920E-02 0.  1.
        2   -1    0    0  501    0  0.00000000000E+00  0.00000000000E+00 -0.16538412363E+04  0.16538412363E+04  0.25500000920E-02 0. -1.
    10030    2    1    2    0    0  0.00000000000E+00  0.00000000000E+00 -0.70603401076E+03  0.26016484619E+04  0.25040149151E+04 0.  0.
        4    1    3    3  502    0 -0.10706473780E+04 -0.55375461196E+03 -0.13050641157E+01  0.12053768267E+04  0.12699999809E+01 0.  1.
       -4    1    3    3    0  502  0.10706473780E+04  0.55375461196E+03 -0.70472894664E+03  0.13962716352E+04  0.12699999809E+01 0. -1.
</event>
<event>
 5   0  0.1553604E-06  0.2500230E+04  0.7818609E-02  0.8402904E-01
        1   -1    0    0  501    0  0.00000000000E+00  0.00000000000E+00  0.18895409380E+04  0.18895409380E+04  0.50400001928E-02 0.  1.
       -1   -1    0    0    0  501  0.00000000000E+00  0.00000000000E+00 -0.82707234169E+03  0.82707234171E+03  0.50400001928E-02 0. -1.
    10030    2    1    2    0    0  0.00000000000E+00  0.00000000000E+00  0.10624685963E+04  0.27166132797E+04  0.25002296281E+04 0.  0.
        1    1    3    3  502    0  0.10857560310E+04  0.46502743079E+03  0.97614832062E+03  0.15323127012E+04  0.50400001928E-02 0.  1.
       -1    1    3    3    0  502 -0.10857560310E+04 -0.46502743079E+03  0.86320275659E+02  0.11843005785E+04  0.50400001928E-02 0. -1.
</event>
<event>
 5   0  0.3713394E-06  0.2502821E+04  0.7818609E-02  0.8401981E-01
        2   -1    0    0  501    0  0.00000000000E+00  0.00000000000E+00  0.12640066864E+04  0.12640066864E+04  0.25500000920E-02 0. -1.
       -2   -1    0    0    0  501  0.00000000000E+00  0.00000000000E+00 -0.12389396785E+04  0.12389396785E+04  0.25500000920E-02 0.  1.
    10030    2    1    2    0    0  0.00000000000E+00  0.00000000000E+00  0.25067007995E+02  0.25029463649E+04  0.25028208387E+04 0.  0.
        3    1    3    3  502    0  0.20426066475E+03  0.11471587818E+04 -0.44392376175E+03  0.12469017629E+04  0.10100000352E+00 0.  1.
       -3    1    3    3    0  502 -0.20426066475E+03 -0.11471587818E+04  0.46899076975E+03  0.12560446020E+04  0.10100000352E+00 0. -1.
</event>
<event>
 5   0  0.3924441E-06  0.2495164E+04  0.7818609E-02  0.8404711E-01
       -2   -1    0    0    0  501  0.00000000000E+00  0.00000000000E+00  0.90177781837E+03  0.90177781837E+03  0.25500000920E-02 0.  1.
        2   -1    0    0  501    0  0.00000000000E+00  0.00000000000E+00 -0.17259910051E+04  0.17259910051E+04  0.25500000920E-02 0. -1.
    10030    2    1    2    0    0  0.00000000000E+00  0.00000000000E+00 -0.82421318675E+03  0.26277688235E+04  0.24951636444E+04 0.  0.
        2    1    3    3  502    0 -0.56615226122E+03 -0.31200886348E+03  0.71164513315E+03  0.96141391155E+03  0.25500000920E-02 0.  1.
       -2    1    3    3    0  502  0.56615226122E+03  0.31200886348E+03 -0.15358583199E+04  0.16663549120E+04  0.25500000920E-02 0. -1.
</event>
<event>
 5   0  0.1574896E-06  0.2486140E+04  0.7818609E-02  0.8407940E-01
       -1   -1    0    0    0  501  0.00000000000E+00  0.00000000000E+00  0.18091004701E+04  0.18091004701E+04  0.50400001928E-02 0.  1.
        1   -1    0    0  501    0  0.00000000000E+00  0.00000000000E+00 -0.85413904569E+03  0.85413904571E+03  0.50400001928E-02 0. -1.
    10030    2    1    2    0    0  0.00000000000E+00  0.00000000000E+00  0.95496142439E+03  0.26632395158E+04  0.24861402608E+04 0.  0.
        3    1    3    3  502    0  0.54668823153E+02  0.10547033417E+04 -0.22484044216E+03  0.10797875040E+04  0.10100000352E+00 0. -1.
       -3    1    3    3    0  502 -0.54668823153E+02 -0.10547033417E+04  0.11798018665E+04  0.15834520118E+04  0.10100000352E+00 0.  1.
</event>
<event>
 5   0  0.1574896E-06  0.2499141E+04  0.7818609E-02  0.8403292E-01
        1   -1    0    0  501    0  0.00000000000E+00  0.00000000000E+00  0.22387646762E+04  0.22387646762E+04  0.50400001928E-02 0. -1.
       -1   -1    0    0    0  501  0.00000000000E+00  0.00000000000E+00 -0.69744992706E+03  0.69744992708E+03  0.50400001928E-02 0.  1.
    10030    2    1    2    0    0  0.00000000000E+00  0.00000000000E+00  0.15413147491E+04  0.29362146032E+04  0.24991408605E+04 0.  0.
        3    1    3    3  502    0  0.80039076075E+03 -0.77864100013E+03  0.11175578910E+03  0.11222283830E+04  0.10100000352E+00 0.  1.
       -3    1    3    3    0  502 -0.80039076075E+03  0.77864100013E+03  0.14295589600E+04  0.18139862203E+04  0.10100000352E+00 0. -1.
</event>
<event>
 5   0  0.1519145E-06  0.2500517E+04  0.7818609E-02  0.8402801E-01
        1   -1    0    0  501    0  0.00000000000E+00  0.00000000000E+00  0.11640073367E+04  0.11640073367E+04  0.50400001928E-02 0.  1.
       -1   -1    0    0    0  501  0.00000000000E+00  0.00000000000E+00 -0.13429004399E+04  0.13429004399E+04  0.50400001928E-02 0. -1.
    10030    2    1    2    0    0  0.00000000000E+00  0.00000000000E+00 -0.17889310321E+03  0.25069077767E+04  0.25005167183E+04 0.  0.
        4    1    3    3  502    0  0.11959165131E+04 -0.52979408491E+02  0.27219861983E+03  0.12276468652E+04  0.12699999809E+01 0. -1.
       -4    1    3    3    0  502 -0.11959165131E+04  0.52979408491E+02 -0.45109172304E+03  0.12792609115E+04  0.12699999809E+01 0.  1.
</event>
<event>
 5   0  0.3713394E-06  0.2497029E+04  0.7818609E-02  0.8404045E-01
        2   -1    0    0  501    0  0.00000000000E+00  0.00000000000E+00  0.18955476871E+04  0.18955476871E+04  0.25500000920E-02 0. -1.
       -2   -1    0    0    0  501  0.00000000000E+00  0.00000000000E+00 -0.82234189315E+03  0.82234189316E+03  0.25500000920E-02 0.  1.
    10030    2    1    2    0    0  0.00000000000E+00  0.00000000000E+00  0.10732057940E+04  0.27178895803E+04  0.24970288533E+04 0.  0.
        3    1    3    3  502    0  0.25364874587E+03  0.21022677323E+03  0.18473849177E+04  0.18765297831E+04  0.10100000352E+00 0. -1.
       -3    1    3    3    0  502 -0.25364874587E+03 -0.21022677323E+03 -0.77417912375E+03  0.84135979718E+03  0.10100000352E+00 0.  1.
</event>
<event>
 5   0  0.3924441E-06  0.2498173E+04  0.7818609E-02  0.8403637E-01
        2   -1    0    0  501    0  0.00000000000E+00  0.00000000000E+00  0.56796517733E+03  0.56796517734E+03  0.25500000920E-02 0. -1.
       -2   -1    0    0    0  501  0.00000000000E+00  0.00000000000E+00 -0.27470290735E+04  0.27470290735E+04  0.25500000920E-02 0.  1.
    10030    2    1    2    0    0  0.00000000000E+00  0.00000000000E+00 -0.21790638962E+04  0.33149942509E+04  0.24981728162E+04 0.  0.
        2    1    3    3  502    0  0.27234559027E+03  0.52183685920E+03 -0.25514449488E+04  0.26184646560E+04  0.25500000920E-02 0.  1.
       -2    1    3    3    0  502 -0.27234559027E+03 -0.52183685920E+03  0.37238105259E+03  0.69652959484E+03  0.25500000920E-02 0. -1.
</event>
<event>
 5   0  0.3971759E-06  0.2499084E+04  0.7818609E-02  0.8403312E-01
        2   -1    0    0  501    0  0.00000000000E+00  0.00000000000E+00  0.21769236260E+04  0.21769236260E+04  0.25500000920E-02 0. -1.
       -2   -1    0    0    0  501  0.00000000000E+00  0.00000000000E+00 -0.71722985405E+03  0.71722985405E+03  0.25500000920E-02 0.  1.
    10030    2    1    2    0    0  0.00000000000E+00  0.00000000000E+00  0.14596937720E+04  0.28941534801E+04  0.24990835237E+04 0.  0.
        4    1    3    3  502    0 -0.74459881056E+03 -0.71967219492E+03 -0.79983609056E+02  0.10386310449E+04  0.12699999809E+01 0.  1.
       -4    1    3    3    0  502  0.74459881056E+03  0.71967219492E+03  0.15396773810E+04  0.18555224352E+04  0.12699999809E+01 0. -1.
</event>
<event>
 5   0  0.1501747E-06  0.2495199E+04  0.7818609E-02  0.8404698E-01
        1   -1    0    0  501    0  0.00000000000E+00  0.00000000000E+00  0.12276699091E+04  0.12276699091E+04  0.50400001928E-02 0. -1.
       -1   -1    0    0    0  501  0.00000000000E+00  0.00000000000E+00 -0.12678529662E+04  0.12678529663E+04  0.50400001928E-02 0.  1.
    10030    2    1    2    0    0  0.00000000000E+00  0.00000000000E+00 -0.40183057120E+02  0.24955228754E+04  0.24951993394E+04 0.  0.
        2    1    3    3  502    0 -0.19742429280E+03  0.11485483830E+04  0.42534830031E+03  0.12405889392E+04  0.25500000920E-02 0. -1.
       -2    1    3    3    0  502  0.19742429280E+03 -0.11485483830E+04 -0.46553135743E+03  0.12549339362E+04  0.25500000920E-02 0.  1.
</event>
<event>
 5   0  0.3713394E-06  0.2512537E+04  0.7818609E-02  0.8398533E-01
       -2   -1    0    0    0  501  0.00000000000E+00  0.00000000000E+00  0.90282866567E+03  0.90282866568E+03  0.25500000920E-02 0.  1.
        2   -1    0    0  501    0  0.00000000000E+00  0.00000000000E+00 -0.17480734299E+04  0.17480734299E+04  0.25500000920E-02 0. -1.
    10030    2    1    2    0    0  0.00000000000E+00  0.00000000000E+00 -0.84524476421E+03  0.26509020956E+04  0.25125372055E+04 0.  0.
        3    1    3    3  502    0 -0.97472183064E+03  0.63219682659E+03  0.81669320302E+02  0.11646567575E+04  0.10100000352E+00 0.  1.
       -3    1    3    3    0  502  0.97472183064E+03 -0.63219682659E+03 -0.92691408452E+03  0.14862453381E+04  0.10100000352E+00 0. -1.
</event>
<event>
 5   0  0.3924441E-06  0.2501366E+04  0.7818609E-02  0.8402499E-01
       -2   -1    0    0    0  501  0.00000000000E+00  0.00000000000E+00  0.76623852153E+03  0.76623852154E+03  0.25500000920E-02 0.  1.
        2   -1    0    0  501    0  0.00000000000E+00  0.00000000000E+00 -0.20414119498E+04  0.20414119498E+04  0.25500000920E-02 0. -1.
    10030    2    1    2    0    0  0.00000000000E+00  0.00000000000E+00 -0.12751734283E+04  0.28076504713E+04  0.25013664060E+04 0.  0.
        2    1    3    3  502    0 -0.37918442962E+03 -0.55502324963E+03 -0.18214231326E+04  0.19414978411E+04  0.25500000920E-02 0. -1.
       -2    1    3    3    0  502  0.37918442962E+03  0.55502324963E+03  0.54624970431E+03  0.86615263018E+03  0.25500000920E-02 0.  1.
</event>
<event>
 5   0  0.1553604E-06  0.2460582E+04  0.7818609E-02  0.8417165E-01
        1   -1    0    0  501    0  0.00000000000E+00  0.00000000000E+00  0.22345779718E+04  0.22345779719E+04  0.50400001928E-02 0.  1.
       -1   -1    0    0    0  501  0.00000000000E+00  0.00000000000E+00 -0.67736088779E+03  0.67736088781E+03  0.50400001928E-02 0. -1.
    10030    2    1    2    0    0  0.00000000000E+00  0.00000000000E+00  0.15572170841E+04  0.29119388597E+04  0.24605818165E+04 0.  0.
        1    1    3    3  502    0 -0.10833416066E+04 -0.58014825453E+03  0.84776293367E+03  0.14929511129E+04  0.50400001928E-02 0.  1.
       -1    1    3    3    0  502  0.10833416066E+04  0.58014825453E+03  0.70945415038E+03  0.14189877467E+04  0.50400001928E-02 0. -1.
</event>
<event>
 5   0  0.1574896E-06  0.2505287E+04  0.7818609E-02  0.8401104E-01
        1   -1    0    0  501    0  0.00000000000E+00  0.00000000000E+00  0.12798979954E+04  0.12798979954E+04  0.50400001928E-02 0. -1.
       -1   -1    0    0    0  501  0.00000000000E+00  0.00000000000E+00 -0.12259697514E+04  0.12259697515E+04  0.50400001928E-02 0.  1.
    10030    2    1    2    0    0  0.00000000000E+00  0.00000000000E+00  0.53928243949E+02  0.25058677469E+04  0.25052873906E+04 0.  0.
        3    1    3    3  502    0  0.98816247910E+03  0.21399854389E+03 -0.71270414534E+03  0.12370156308E+04  0.10100000352E+00 0.  1.
       -3    1    3    3    0  502 -0.98816247910E+03 -0.21399854389E+03  0.76663238929E+03  0.12688521160E+04  0.10100000352E+00 0. -1.
</event>
<event>
 5   0  0.1519145E-06  0.2502195E+04  0.7818609E-02  0.8402204E-01
        1   -1    0    0  501    0  0.00000000000E+00  0.00000000000E+00  0.22314818742E+04  0.22314818742E+04  0.50400001928E-02 0. -1.
       -1   -1    0    0    0  501  0.00000000000E+00  0.00000000000E+00 -0.70143769987E+03  0.70143769989E+03  0.50400001928E-02 0.  1.
    10030    2    1    2    0    0  0.00000000000E+00  0.00000000000E+00  0.15300441743E+04  0.29329195741E+04  0.25021954465E+04 0.  0.
        4    1    3    3  502    0 -0.94501008675E+03  0.39981276257E+03  0.16040223977E+04  0.19041490946E+04  0.12699999809E+01 0. -1.
       -4    1    3    3    0  502  0.94501008675E+03 -0.39981276257E+03 -0.73978223328E+02  0.10287704796E+04  0.12699999809E+01 0.  1.
</event>
<event>
 5   0  0.1574896E-06  0.2508384E+04  0.7818609E-02  0.8400005E-01
       -1   -1    0    0    0  501  0.00000000000E+00  0.00000000000E+00  0.12332778368E+04  0.12332778368E+04  0.50400001928E-02 0. -1.
        1   -1    0    0  501    0  0.00000000000E+00  0.00000000000E+00 -0.12754604812E+04  0.12754604812E+04  0.50400001928E-02 0.  1.
    10030    2    1    2    0    0  0.00000000000E+00  0.00000000000E+00 -0.42182644403E+02  0.25087383179E+04  0.25083836573E+04 0.  0.
        3    1    3    3  502    0  0.11392993267E+04 -0.34672467085E+03 -0.41456298642E+03  0.12609851042E+04  0.10100000352E+00 0.  1.
       -3    1    3    3    0  502 -0.11392993267E+04  0.34672467085E+03  0.37238034202E+03  0.12477532137E+04  0.10100000352E+00 0. -1.
</event>
<event>
 5   0  0.3713394E-06  0.2504972E+04  0.7818609E-02  0.8401216E-01
        2   -1    0    0  501    0  0.00000000000E+00  0.00000000000E+00  0.31530503033E+04  0.31530503033E+04  0.25500000920E-02 0.  1.
       -2   -1    0    0    0  501  0.00000000000E+00  0.00000000000E+00 -0.49752513161E+03  0.49752513161E+03  0.25500000920E-02 0. -1.
    10030    2    1    2    0    0  0.00000000000E+00  0.00000000000E+00  0.26555251717E+04  0.36505754350E+04  0.25049724686E+04 0.  0.
        3    1    3    3  502    0  0.19520469321E+03  0.11521967948E+04  0.67105814654E+03  0.13475835308E+04  0.10100000352E+00 0.  1.
       -3    1    3    3    0  502 -0.19520469321E+03 -0.11521967948E+04  0.19844670252E+04  0.23029919041E+04  0.10100000352E+00 0. -1.
</event>
<event>
 5   0  0.1519145E-06  0.2499057E+04  0.7818609E-02  0.8403322E-01
        1   -1    0    0  501    0  0.00000000000E+00  0.00000000000E+00  0.23872103486E+04  0.23872103486E+04  0.50400001928E-02 0. -1.
       -1   -1    0    0    0  501  0.00000000000E+00  0.00000000000E+00 -0.65403604128E+03  0.65403604130E+03  0.50400001928E-02 0.  1.
    10030    2    1    2    0    0  0.00000000000E+00  0.00000000000E+00  0.17331743073E+04  0.30412463899E+04  0.24990571071E+04 0.  0.
        4    1    3    3  502    0  0.11237398379E+04  0.43206966662E+03  0.12735763530E+04  0.17525620559E+04  0.12699999809E+01 0. -1.
       -4    1    3    3    0  502 -0.11237398379E+04 -0.43206966662E+03  0.45959795433E+03  0.12886843340E+04  0.12699999809E+01 0.  1.
</event>
<event>
 5   0  0.3808293E-06  0.2501067E+04  0.7818609E-02  0.8402605E-01
       -2   -1    0    0    0  501  0.00000000000E+00  0.00000000000E+00  0.73659732240E+03  0.73659732241E+03  0.25500000920E-02 0. -1.
        2   -1    0    0  501    0  0.00000000000E+00  0.00000000000E+00 -0.21230521053E+04  0.21230521053E+04  0.25500000920E-02 0.  1.
    10030    2    1    2    0    0  0.00000000000E+00  0.00000000000E+00 -0.13864547829E+04  0.28596494277E+04  0.25010673690E+04 0.  0.
        1    1    3    3  502    0 -0.18664989102E+03 -0.12357455666E+04 -0.74344743027E+03  0.14541730876E+04  0.50400001928E-02 0.  1.
       -1    1    3    3    0  502  0.18664989102E+03  0.12357455666E+04 -0.64300735267E+03  0.14054763401E+04  0.50400001928E-02 0. -1.
</event>
<event>
 5   0  0.1501747E-06  0.2501601E+04  0.7818609E-02  0.8402415E-01
       -1   -1    0    0    0  501  0.00000000000E+00  0.00000000000E+00  0.10874631460E+04  0.10874631460E+04  0.50400001928E-02 0.  1.
        1   -1    0    0  501    0  0.00000000000E+00  0.00000000000E+00 -0.14386715296E+04  0.14386715296E+04  0.50400001928E-02 0. -1.
    10030    2    1    2    0    0  0.00000000000E+00  0.00000000000E+00 -0.35120838356E+03  0.25261346756E+04  0.25016013013E+04 0.  0.
        2    1    3    3  502    0  0.27104151401E+03 -0.48943121033E+03  0.95406975808E+03  0.11060088224E+04  0.25500000920E-02 0.  1.
       -2    1    3    3    0  502 -0.27104151401E+03  0.48943121033E+03 -0.13052781416E+04  0.14201258532E+04  0.25500000920E-02 0. -1.
</event>
<event>
 5   0  0.1574896E-06  0.2497720E+04  0.7818609E-02  0.8403798E-01
        1   -1    0    0  501    0  0.00000000000E+00  0.00000000000E+00  0.11998615807E+04  0.11998615807E+04  0.50400001928E-02 0.  1.
       -1   -1    0    0    0  501  0.00000000000E+00  0.00000000000E+00 -0.12998589350E+04  0.12998589350E+04  0.50400001928E-02 0. -1.
    10030    2    1    2    0    0  0.00000000000E+00  0.00000000000E+00 -0.99997354363E+02  0.24997205157E+04  0.24977195971E+04 0.  0.
        3    1    3    3  502    0 -0.26552494152E+03 -0.99074148588E+03 -0.76301492257E+03  0.12783833418E+04  0.10100000352E+00 0. -1.
       -3    1    3    3    0  502  0.26552494152E+03  0.99074148588E+03  0.66301756821E+03  0.12213371739E+04  0.10100000352E+00 0.  1.
</event>
<event>
 5   0  0.3808293E-06  0.2501484E+04  0.7818609E-02  0.8402457E-01
       -2   -1    0    0    0  501  0.00000000000E+00  0.00000000000E+00  0.80675318782E+03  0.80675318783E+03  0.25500000920E-02 0. -1.
        2   -1    0    0  501    0  0.00000000000E+00  0.00000000000E+00 -0.19390751730E+04  0.19390751730E+04  0.25500000920E-02 0.  1.
    10030    2    1    2    0    0  0.00000000000E+00  0.00000000000E+00 -0.11323219852E+04  0.27458283608E+04  0.25014836216E+04 0.  0.
        1    1    3    3  502    0 -0.67933021557E+03 -0.91735329237E+03 -0.11272982273E+04  0.16043153986E+04  0.50400001928E-02 0.  1.
       -1    1    3    3    0  502  0.67933021557E+03  0.91735329237E+03 -0.50237578657E+01  0.11415129622E+04  0.50400001928E-02 0. -1.
</event>
<event>
 5   0  0.1519145E-06  0.2497492E+04  0.7818609E-02  0.8403880E-01
       -1   -1    0    0    0  501  0.00000000000E+00  0.00000000000E+00  0.78375468347E+03  0.78375468349E+03  0.50400001928E-02 0.  1.
        1   -1    0    0  501    0  0.00000000000E+00  0.00000000000E+00 -0.19896107402E+04  0.19896107402E+04  0.50400001928E-02 0. -1.
    10030    2    1    2    0    0  0.00000000000E+00  0.00000000000E+00 -0.12058560568E+04  0.27733654237E+04  0.24974921309E+04 0.  0.
        4    1    3    3  502    0 -0.48871914068E+03 -0.10360752801E+04 -0.50964846549E+02  0.11466897631E+04  0.12699999809E+01 0.  1.
       -4    1    3    3    0  502  0.48871914068E+03  0.10360752801E+04 -0.11548912102E+04  0.16266756606E+04  0.12699999809E+01 0. -1.
</event>
<event>
 5   0  0.3924441E-06  0.2499753E+04  0.7818609E-02  0.8403074E-01
        2   -1    0    0  501    0  0.00000000000E+00  0.00000000000E+00  0.12301335678E+04  0.12301335678E+04  0.25500000920E-02 0.  1.
       -2   -1    0    0    0  501  0.00000000000E+00  0.00000000000E+00 -0.12699363652E+04  0.12699363652E+04  0.25500000920E-02 0. -1.
    10030    2    1    2    0    0  0.00000000000E+00  0.00000000000E+00 -0.39802797471E+02  0.25000699330E+04  0.24997530693E+04 0.  0.
        2    1    3    3  502    0 -0.24680149817E+03  0.93863936951E+02 -0.12417231217E+04  0.12694871914E+04  0.25500000920E-02 0. -1.
       -2    1    3    3    0  502  0.24680149817E+03 -0.93863936951E+02  0.12019203242E+04  0.12305827416E+04  0.25500000920E-02 0.  1.
</event>
<event>
 5   0  0.1541852E-06  0.2498886E+04  0.7818609E-02  0.8403382E-01
        1   -1    0    0  501    0  0.00000000000E+00  0.00000000000E+00  0.26353228110E+04  0.26353228110E+04  0.50400001928E-02 0. -1.
       -1   -1    0    0    0  501  0.00000000000E+00  0.00000000000E+00 -0.59237823747E+03  0.59237823749E+03  0.50400001928E-02 0.  1.
    10030    2    1    2    0    0  0.00000000000E+00  0.00000000000E+00  0.20429445735E+04  0.32277010485E+04  0.24988860574E+04 0.  0.
        5    1    3    3  502    0 -0.87448967706E+03 -0.81525354292E+03  0.55269680164E+03  0.13171432644E+04  0.46999998093E+01 0.  1.
       -5    1    3    3    0  502  0.87448967706E+03  0.81525354292E+03  0.14902477719E+04  0.19105577840E+04  0.46999998093E+01 0. -1.
</event>
<event>
 5   0  0.3713394E-06  0.2499783E+04  0.7818609E-02  0.8403063E-01
        2   -1    0    0  501    0  0.00000000000E+00  0.00000000000E+00  0.18992603882E+04  0.18992603882E+04  0.25500000920E-02 0.  1.
       -2   -1    0    0    0  501  0.00000000000E+00  0.00000000000E+00 -0.82254580072E+03  0.82254580072E+03  0.25500000920E-02 0. -1.
    10030    2    1    2    0    0  0.00000000000E+00  0.00000000000E+00  0.10767145875E+04  0.27218061890E+04  0.24997829160E+04 0.  0.
        3    1    3    3  502    0  0.27619704760E+03  0.76664551180E+03 -0.49355090612E+03  0.95269232022E+03  0.10100000352E+00 0. -1.
       -3    1    3    3    0  502 -0.27619704760E+03 -0.76664551180E+03  0.15702654936E+04  0.17691138687E+04  0.10100000352E+00 0.  1.
</event>
<event>
 5   0  0.1501747E-06  0.2521343E+04  0.7818609E-02  0.8395421E-01
       -1   -1    0    0    0  501  0.00000000000E+00  0.00000000000E+00  0.14397719958E+04  0.14397719958E+04  0.50400001928E-02 0. -1.
        1   -1    0    0  501    0  0.00000000000E+00  0.00000000000E+00 -0.11038501247E+04  0.11038501247E+04  0.50400001928E-02 0.  1.
    10030    2    1    2    0    0  0.00000000000E+00  0.00000000000E+00  0.33592187104E+03  0.25436221205E+04  0.25213428939E+04 0.  0.
        2    1    3    3  502    0  0.74844636031E+03  0.98726458280E+03  0.40332307451E+03  0.13028940145E+04  0.25500000920E-02 0.  1.
       -2    1    3    3    0  502 -0.74844636031E+03 -0.98726458280E+03 -0.67401203470E+02  0.12407281060E+04  0.25500000920E-02 0. -1.
</event>
<event>
 5   0  0.3924441E-06  0.2499528E+04  0.7818609E-02  0.8403154E-01
        2   -1    0    0  501    0  0.00000000000E+00  0.00000000000E+00  0.10286691537E+04  0.10286691537E+04  0.25500000920E-02 0. -1.
       -2   -1    0    0    0  501  0.00000000000E+00  0.00000000000E+00 -0.15183794831E+04  0.15183794831E+04  0.25500000920E-02 0.  1.
    10030    2    1    2    0    0  0.00000000000E+00  0.00000000000E+00 -0.48971032945E+03  0.25470486368E+04  0.24995280657E+04 0.  0.
        2    1    3    3  502    0 -0.10753688044E+04 -0.18315450821E+03 -0.86632414712E+03  0.13930115460E+04  0.25500000920E-02 0.  1.
       -2    1    3    3    0  502  0.10753688044E+04  0.18315450821E+03  0.37661381767E+03  0.11540370908E+04  0.25500000920E-02 0. -1.
</event>
<event>
 5   0  0.3713394E-06  0.2497905E+04  0.7818609E-02  0.8403732E-01
        2   -1    0    0  501    0  0.00000000000E+00  0.00000000000E+00  0.15470917013E+04  0.15470917013E+04  0.25500000920E-02 0.  1.
       -2   -1    0    0    0  501  0.00000000000E+00  0.00000000000E+00 -0.10082676789E+04  0.10082676789E+04  0.25500000920E-02 0. -1.
    10030    2    1    2    0    0  0.00000000000E+00  0.00000000000E+00  0.53882402237E+03  0.25553593802E+04  0.24979051693E+04 0.  0.
        3    1    3    3  502    0  0.14532323114E+03 -0.61566627899E+03 -0.83226015663E+03  0.10453806900E+04  0.10100000352E+00 0. -1.
       -3    1    3    3    0  502 -0.14532323114E+03  0.61566627899E+03  0.13710841790E+04  0.15099786901E+04  0.10100000352E+00 0.  1.
</event>
<event>
 5   0  0.1574896E-06  0.2501104E+04  0.7818609E-02  0.8402593E-01
        1   -1    0    0  501    0  0.00000000000E+00  0.00000000000E+00  0.16785001844E+04  0.16785001845E+04  0.50400001928E-02 0.  1.
       -1   -1    0    0    0  501  0.00000000000E+00  0.00000000000E+00 -0.93171256145E+03  0.93171256146E+03  0.50400001928E-02 0. -1.
    10030    2    1    2    0    0  0.00000000000E+00  0.00000000000E+00  0.74678762300E+03  0.26102127459E+04  0.25011035215E+04 0.  0.
        3    1    3    3  502    0  0.10217940505E+04 -0.71425528928E+03  0.27084213151E+03  0.12757661111E+04  0.10100000352E+00 0. -1.
       -3    1    3    3    0  502 -0.10217940505E+04  0.71425528928E+03  0.47594549149E+03  0.13344466348E+04  0.10100000352E+00 0.  1.
</event>
<event>
 5   0  0.1519145E-06  0.2499139E+04  0.7818609E-02  0.8403292E-01
        1   -1    0    0  501    0  0.00000000000E+00  0.00000000000E+00  0.14695808989E+04  0.14695808989E+04  0.50400001928E-02 0. -1.
       -1   -1    0    0    0  501  0.00000000000E+00  0.00000000000E+00 -0.10624964184E+04  0.10624964184E+04  0.50400001928E-02 0.  1.
    10030    2    1    2    0    0  0.00000000000E+00  0.00000000000E+00  0.40708448048E+03  0.25320773174E+04  0.24991394052E+04 0.  0.
        4    1    3    3  502    0  0.11830605023E+04  0.40222194483E+03  0.20064379453E+03  0.12655726728E+04  0.12699999809E+01 0. -1.
       -4    1    3    3    0  502 -0.11830605023E+04 -0.40222194483E+03  0.20644068595E+03  0.12665046446E+04  0.12699999809E+01 0.  1.
</event>
<event>
 5   0  0.3924441E-06  0.2497489E+04  0.7818609E-02  0.8403881E-01
       -2   -1    0    0    0  501  0.00000000000E+00  0.00000000000E+00  0.16784203490E+04  0.16784203490E+04  0.25500000920E-02 0.  1.
        2   -1    0    0  501    0  0.00000000000E+00  0.00000000000E+00 -0.92906543007E+03  0.92906543008E+03  0.25500000920E-02 0. -1.
    10030    2    1    2    0    0  0.00000000000E+00  0.00000000000E+00  0.74935491898E+03  0.26074857791E+04  0.24974885973E+04 0.  0.
        2    1    3    3  502    0 -0.80924249134E+03 -0.35471973336E+03  0.12959606661E+04  0.15685067890E+04  0.25500000920E-02 0.  1.
       -2    1    3    3    0  502  0.80924249134E+03  0.35471973336E+03 -0.54660574717E+03  0.10389789901E+04  0.25500000920E-02 0. -1.
</event>
<event>
 5   0  0.3971759E-06  0.2499501E+04  0.7818609E-02  0.8403163E-01
       -2   -1    0    0    0  501  0.00000000000E+00  0.00000000000E+00  0.78427958737E+03  0.78427958737E+03  0.25500000920E-02 0. -1.
        2   -1    0    0  501    0  0.00000000000E+00  0.00000000000E+00 -0.19914788691E+04  0.19914788691E+04  0.25500000920E-02 0.  1.
    10030    2    1    2    0    0  0.00000000000E+00  0.00000000000E+00 -0.12071992818E+04  0.27757584565E+04  0.24995009308E+04 0.  0.
        4    1    3    3  502    0  0.57921090628E+03 -0.87302287674E+02  0.62239572259E+03  0.85468415908E+03  0.12699999809E+01 0. -1.
       -4    1    3    3    0  502 -0.57921090628E+03  0.87302287674E+02 -0.18295950043E+04  0.19210742974E+04  0.12699999809E+01 0.  1.
</event>
<event>
 5   0  0.3713394E-06  0.2535683E+04  0.7818609E-02  0.8390383E-01
        2   -1    0    0  501    0  0.00000000000E+00  0.00000000000E+00  0.15879184412E+04  0.15879184412E+04  0.25500000920E-02 0. -1.
       -2   -1    0    0    0  501  0.00000000000E+00  0.00000000000E+00 -0.10122822635E+04  0.10122822635E+04  0.25500000920E-02 0.  1.
    10030    2    1    2    0    0  0.00000000000E+00  0.00000000000E+00  0.57563617762E+03  0.26002007047E+04  0.25356826883E+04 0.  0.
        3    1    3    3  502    0 -0.31949741027E+03 -0.72697530029E+03  0.13013231045E+04  0.15244715527E+04  0.10100000352E+00 0. -1.
       -3    1    3    3    0  502  0.31949741027E+03  0.72697530029E+03 -0.72568692690E+03  0.10757291520E+04  0.10100000352E+00 0.  1.
</event>
<event>
 5   0  0.3814260E-06  0.2500440E+04  0.7818609E-02  0.8402829E-01
        2   -1    0    0  501    0  0.00000000000E+00  0.00000000000E+00  0.14545147350E+04  0.14545147350E+04  0.25500000920E-02 0.  1.
       -2   -1    0    0    0  501  0.00000000000E+00  0.00000000000E+00 -0.10746198252E+04  0.10746198252E+04  0.25500000920E-02 0. -1.
    10030    2    1    2    0    0  0.00000000000E+00  0.00000000000E+00  0.37989490975E+03  0.25291345602E+04  0.25004402575E+04 0.  0.
        5    1    3    3  502    0 -0.68509831502E+03  0.68958311135E+03  0.98519105264E+03  0.13840188109E+04  0.46999998093E+01 0.  1.
       -5    1    3    3    0  502  0.68509831502E+03 -0.68958311135E+03 -0.60529614290E+03  0.11451157493E+04  0.46999998093E+01 0. -1.
</event>
<event>
 5   0  0.1519145E-06  0.2495720E+04  0.7818609E-02  0.8404512E-01
        1   -1    0    0  501    0  0.00000000000E+00  0.00000000000E+00  0.13343962597E+04  0.13343962598E+04  0.50400001928E-02 0.  1.
       -1   -1    0    0    0  501  0.00000000000E+00  0.00000000000E+00 -0.11669358152E+04  0.11669358153E+04  0.50400001928E-02 0. -1.
    10030    2    1    2    0    0  0.00000000000E+00  0.00000000000E+00  0.16746044451E+03  0.25013320750E+04  0.24957201664E+04 0.  0.
        4    1    3    3  502    0  0.36689890346E+03  0.83185482747E+02 -0.11087428628E+04  0.11708317465E+04  0.12699999809E+01 0. -1.
       -4    1    3    3    0  502 -0.36689890346E+03 -0.83185482747E+02  0.12762033073E+04  0.13305003286E+04  0.12699999809E+01 0.  1.
</event>
<event>
 5   0  0.1541852E-06  0.2494653E+04  0.7818609E-02  0.8404893E-01
       -1   -1    0    0    0  501  0.00000000000E+00  0.00000000000E+00  0.14151246872E+04  0.14151246872E+04  0.50400001928E-02 0.  1.
        1   -1    0    0  501    0  0.00000000000E+00  0.00000000000E+00 -0.10994252606E+04  0.10994252606E+04  0.50400001928E-02 0. -1.
    10030    2    1    2    0    0  0.00000000000E+00  0.00000000000E+00  0.31569942659E+03  0.25145499477E+04  0.24946533450E+04 0.  0.
        5    1    3    3  502    0  0.22159698412E+03 -0.60123821334E+03 -0.92082987740E+03  0.11218477462E+04  0.46999998093E+01 0. -1.
       -5    1    3    3    0  502 -0.22159698412E+03  0.60123821334E+03  0.12365293040E+04  0.13927022015E+04  0.46999998093E+01 0.  1.
</event>
<event>
 5   0  0.1553604E-06  0.2498986E+04  0.7818609E-02  0.8403347E-01
        1   -1    0    0  501    0  0.00000000000E+00  0.00000000000E+00  0.16314566361E+04  0.16314566361E+04  0.50400001928E-02 0.  1.
       -1   -1    0    0    0  501  0.00000000000E+00  0.00000000000E+00 -0.95695650483E+03  0.95695650484E+03  0.50400001928E-02 0. -1.
    10030    2    1    2    0    0  0.00000000000E+00  0.00000000000E+00  0.67450013126E+03  0.25884131409E+04  0.24989862267E+04 0.  0.
        1    1    3    3  502    0 -0.12392006161E+04  0.14926320412E+03  0.27743071436E+03  0.12786185796E+04  0.50400001928E-02 0. -1.
       -1    1    3    3    0  502  0.12392006161E+04 -0.14926320412E+03  0.39706941691E+03  0.13097945613E+04  0.50400001928E-02 0.  1.
</event>
<event>
 5   0  0.3971759E-06  0.2499257E+04  0.7818609E-02  0.8403250E-01
        2   -1    0    0  501    0  0.00000000000E+00  0.00000000000E+00  0.13914436483E+04  0.13914436483E+04  0.25500000920E-02 0.  1.
       -2   -1    0    0    0  501  0.00000000000E+00  0.00000000000E+00 -0.11222666962E+04  0.11222666962E+04  0.25500000920E-02 0. -1.
    10030    2    1    2    0    0  0.00000000000E+00  0.00000000000E+00  0.26917695215E+03  0.25137103445E+04  0.24992565823E+04 0.  0.
        4    1    3    3  502    0 -0.94374865983E+03  0.36040113260E+03 -0.60520507920E+03  0.11776354742E+04  0.12699999809E+01 0. -1.
       -4    1    3    3    0  502  0.94374865983E+03 -0.36040113260E+03  0.87438203135E+03  0.13360748703E+04  0.12699999809E+01 0.  1.
</event>
<event>
 5   0  0.3971759E-06  0.2494820E+04  0.7818609E-02  0.8404833E-01
       -2   -1    0    0    0  501  0.00000000000E+00  0.00000000000E+00  0.16657467157E+04  0.16657467157E+04  0.25500000920E-02 0.  1.
        2   -1    0    0  501    0  0.00000000000E+00  0.00000000000E+00 -0.93413469172E+03  0.93413469173E+03  0.25500000920E-02 0. -1.
    10030    2    1    2    0    0  0.00000000000E+00  0.00000000000E+00  0.73161202395E+03  0.25998814074E+04  0.24948200695E+04 0.  0.
        4    1    3    3  502    0  0.54966874556E+03 -0.85117674248E+03  0.11240399940E+04  0.15133093199E+04  0.12699999809E+01 0.  1.
       -4    1    3    3    0  502 -0.54966874556E+03  0.85117674248E+03 -0.39242797001E+03  0.10865720875E+04  0.12699999809E+01 0. -1.
</event>
<event>
 5   0  0.1287375E-06  0.2462918E+04  0.7818609E-02  0.8416317E-01
        3   -1    0    0  501    0  0.00000000000E+00  0.00000000000E+00  0.15749980638E+04  0.15749980670E+04  0.10100000352E+00 0. -1.
       -3   -1    0    0    0  501  0.00000000000E+00  0.00000000000E+00 -0.96285256167E+03  0.96285256697E+03  0.10100000352E+00 0.  1.
    10030    2    1    2    0    0  0.00000000000E+00  0.00000000000E+00  0.61214550209E+03  0.25378506340E+04  0.24629177259E+04 0.  0.
        4    1    3    3  502    0 -0.63782421203E+03 -0.39948651148E+03 -0.69830311577E+03  0.10266635538E+04  0.12699999809E+01 0.  1.
       -4    1    3    3    0  502  0.63782421203E+03  0.39948651148E+03  0.13104486179E+04  0.15111870802E+04  0.12699999809E+01 0. -1.
</event>
<event>
 5   0  0.3924441E-06  0.2503114E+04  0.7818609E-02  0.8401877E-01
        2   -1    0    0  501    0  0.00000000000E+00  0.00000000000E+00  0.11807504142E+04  0.11807504142E+04  0.25500000920E-02 0. -1.
       -2   -1    0    0    0  501  0.00000000000E+00  0.00000000000E+00 -0.13266091542E+04  0.13266091542E+04  0.25500000920E-02 0.  1.
    10030    2    1    2    0    0  0.00000000000E+00  0.00000000000E+00 -0.14585873999E+03  0.25073595684E+04  0.25031135079E+04 0.  0.
        2    1    3    3  502    0  0.47772527626E+02  0.28645725993E+02 -0.13253668630E+04  0.13265368873E+04  0.25500000920E-02 0.  1.
       -2    1    3    3    0  502 -0.47772527626E+02 -0.28645725993E+02  0.11795081230E+04  0.11808226811E+04  0.25500000920E-02 0. -1.
</event>
<event>
 5   0  0.1501747E-06  0.2497995E+04  0.7818609E-02  0.8403700E-01
        1   -1    0    0  501    0  0.00000000000E+00  0.00000000000E+00  0.23178863955E+04  0.23178863955E+04  0.50400001928E-02 0. -1.
       -1   -1    0    0    0  501  0.00000000000E+00  0.00000000000E+00 -0.67302472927E+03  0.67302472929E+03  0.50400001928E-02 0.  1.
    10030    2    1    2    0    0  0.00000000000E+00  0.00000000000E+00  0.16448616662E+04  0.29909111248E+04  0.24979950871E+04 0.  0.
        2    1    3    3  502    0  0.33852907105E+03  0.74406599897E+03 -0.30823849426E+03  0.87364015025E+03  0.25500000920E-02 0.  1.
       -2    1    3    3    0  502 -0.33852907105E+03 -0.74406599897E+03  0.19531001604E+04  0.21172709745E+04  0.25500000920E-02 0. -1.
</event>
<event>
 5   0  0.1574896E-06  0.2499483E+04  0.7818609E-02  0.8403170E-01
        1   -1    0    0  501    0  0.00000000000E+00  0.00000000000E+00  0.18442929145E+04  0.18442929145E+04  0.50400001928E-02 0.  1.
       -1   -1    0    0    0  501  0.00000000000E+00  0.00000000000E+00 -0.84685765997E+03  0.84685765998E+03  0.50400001928E-02 0. -1.
    10030    2    1    2    0    0  0.00000000000E+00  0.00000000000E+00  0.99743525450E+03  0.26911505745E+04  0.24994828120E+04 0.  0.
        3    1    3    3  502    0 -0.71780625057E+03  0.68210406608E+03 -0.32220763305E+03  0.10413114516E+04  0.10100000352E+00 0. -1.
       -3    1    3    3    0  502  0.71780625057E+03 -0.68210406608E+03  0.13196428875E+04  0.16498391228E+04  0.10100000352E+00 0.  1.
</event>
<event>
 5   0  0.3814260E-06  0.2499021E+04  0.7818609E-02  0.8403334E-01
       -2   -1    0    0    0  501  0.00000000000E+00  0.00000000000E+00  0.11831349856E+04  0.11831349856E+04  0.25500000920E-02 0.  1.
        2   -1    0    0  501    0  0.00000000000E+00  0.00000000000E+00 -0.13196096602E+04  0.13196096602E+04  0.25500000920E-02 0. -1.
    10030    2    1    2    0    0  0.00000000000E+00  0.00000000000E+00 -0.13647467456E+03  0.25027446458E+04  0.24990208934E+04 0.  0.
        5    1    3    3  502    0  0.10164648253E+04  0.67994352562E+03 -0.32499862869E+03  0.12653735171E+04  0.46999998093E+01 0. -1.
       -5    1    3    3    0  502 -0.10164648253E+04 -0.67994352562E+03  0.18852395412E+03  0.12373711288E+04  0.46999998093E+01 0.  1.
</event>
<event>
 5   0  0.3808293E-06  0.2476118E+04  0.7818609E-02  0.8411543E-01
        2   -1    0    0  501    0  0.00000000000E+00  0.00000000000E+00  0.18174463476E+04  0.18174463476E+04  0.25500000920E-02 0.  1.
       -2   -1    0    0    0  501  0.00000000000E+00  0.00000000000E+00 -0.84337557855E+03  0.84337557855E+03  0.25500000920E-02 0. -1.
    10030    2    1    2    0    0  0.00000000000E+00  0.00000000000E+00  0.97407076908E+03  0.26608219262E+04  0.24761178202E+04 0.  0.
        1    1    3    3  502    0 -0.11043677475E+03  0.12254465410E+04  0.63466742014E+03  0.13844559366E+04  0.50400001928E-02 0.  1.
       -1    1    3    3    0  502  0.11043677475E+03 -0.12254465410E+04  0.33940334894E+03  0.12763659896E+04  0.50400001928E-02 0. -1.
</event>
<event>
 5   0  0.1519145E-06  0.2500624E+04  0.7818609E-02  0.8402763E-01
        1   -1    0    0  501    0  0.00000000000E+00  0.00000000000E+00  0.10485213821E+04  0.10485213821E+04  0.50400001928E-02 0. -1.
       -1   -1    0    0    0  501  0.00000000000E+00  0.00000000000E+00 -0.14909383162E+04  0.14909383162E+04  0.50400001928E-02 0.  1.
    10030    2    1    2    0    0  0.00000000000E+00  0.00000000000E+00 -0.44241693407E+03  0.25394596983E+04  0.25006244852E+04 0.  0.
        4    1    3    3  502    0  0.84502860941E+03  0.84196073242E+03 -0.60160263890E+03  0.13360009632E+04  0.12699999809E+01 0.  1.
       -4    1    3    3    0  502 -0.84502860941E+03 -0.84196073242E+03  0.15918570483E+03  0.12034587351E+04  0.12699999809E+01 0. -1.
</event>
<event>
 5   0  0.1519145E-06  0.2485848E+04  0.7818609E-02  0.8408045E-01
        1   -1    0    0  501    0  0.00000000000E+00  0.00000000000E+00  0.14567286958E+04  0.14567286958E+04  0.50400001928E-02 0.  1.
       -1   -1    0    0    0  501  0.00000000000E+00  0.00000000000E+00 -0.10604991475E+04  0.10604991475E+04  0.50400001928E-02 0. -1.
    10030    2    1    2    0    0  0.00000000000E+00  0.00000000000E+00  0.39622954829E+03  0.25172278433E+04  0.24858475738E+04 0.  0.
        4    1    3    3  502    0  0.25629127515E+03 -0.11447399221E+04 -0.21785444781E+03  0.11931374105E+04  0.12699999809E+01 0.  1.
       -4    1    3    3    0  502 -0.25629127515E+03  0.11447399221E+04  0.61408399611E+03  0.13240904328E+04  0.12699999809E+01 0. -1.
</event>
<event>
 5   0  0.1541852E-06  0.2498603E+04  0.7818609E-02  0.8403483E-01
        1   -1    0    0  501    0  0.00000000000E+00  0.00000000000E+00  0.18043193898E+04  0.18043193898E+04  0.50400001928E-02 0. -1.
       -1   -1    0    0    0  501  0.00000000000E+00  0.00000000000E+00 -0.86501020417E+03  0.86501020419E+03  0.50400001928E-02 0.  1.
    10030    2    1    2    0    0  0.00000000000E+00  0.00000000000E+00  0.93930918561E+03  0.26693295940E+04  0.24986033569E+04 0.  0.
        5    1    3    3  502    0 -0.69004077972E+03  0.67078864606E+03  0.13207169582E+04  0.16341447485E+04  0.46999998093E+01 0. -1.
       -5    1    3    3    0  502  0.69004077972E+03 -0.67078864606E+03 -0.38140777258E+03  0.10351848455E+04  0.46999998093E+01 0.  1.
</event>
<event>
 5   0  0.3971759E-06  0.2461059E+04  0.7818609E-02  0.8416991E-01
        2   -1    0    0  501    0  0.00000000000E+00  0.00000000000E+00  0.14609812522E+04  0.14609812522E+04  0.25500000920E-02 0.  1.
       -2   -1    0    0    0  501  0.00000000000E+00  0.00000000000E+00 -0.10364283109E+04  0.10364283109E+04  0.25500000920E-02 0. -1.
    10030    2    1    2    0    0  0.00000000000E+00  0.00000000000E+00  0.42455294132E+03  0.24974095630E+04  0.24610585783E+04 0.  0.
        4    1    3    3  502    0 -0.11082195902E+04 -0.56596570987E+02 -0.32741247276E+03  0.11569591056E+04  0.12699999809E+01 0. -1.
       -4    1    3    3    0  502  0.11082195902E+04  0.56596570987E+02  0.75196541407E+03  0.13404504574E+04  0.12699999809E+01 0.  1.
</event>
<event>
 5   0  0.1541852E-06  0.2508067E+04  0.7818609E-02  0.8400117E-01
        1   -1    0    0  501    0  0.00000000000E+00  0.00000000000E+00  0.14897349095E+04  0.14897349095E+04  0.50400001928E-02 0. -1.
       -1   -1    0    0    0  501  0.00000000000E+00  0.00000000000E+00 -0.10556240067E+04  0.10556240067E+04  0.50400001928E-02 0.  1.
    10030    2    1    2    0    0  0.00000000000E+00  0.00000000000E+00  0.43411090281E+03  0.25453589161E+04  0.25080669321E+04 0.  0.
        5    1    3    3  502    0 -0.39106325748E+03  0.41782490287E+03 -0.91536249655E+03  0.10795456039E+04  0.46999998093E+01 0.  1.
       -5    1    3    3    0  502  0.39106325748E+03 -0.41782490287E+03  0.13494733994E+04  0.14658133122E+04  0.46999998093E+01 0. -1.
</event>
<event>
 5   0  0.3713394E-06  0.2501141E+04  0.7818609E-02  0.8402579E-01
       -2   -1    0    0    0  501  0.00000000000E+00  0.00000000000E+00  0.11070061842E+04  0.11070061842E+04  0.25500000920E-02 0. -1.
        2   -1    0    0  501    0  0.00000000000E+00  0.00000000000E+00 -0.14127527914E+04  0.14127527914E+04  0.25500000920E-02 0.  1.
    10030    2    1    2    0    0  0.00000000000E+00  0.00000000000E+00 -0.30574660723E+03  0.25197589755E+04  0.25011406012E+04 0.  0.
        3    1    3    3  502    0  0.44218933980E+03  0.50392358490E+03  0.91066294027E+03  0.11308303996E+04  0.10100000352E+00 0. -1.
       -3    1    3    3    0  502 -0.44218933980E+03 -0.50392358490E+03 -0.12164095475E+04  0.13889285759E+04  0.10100000352E+00 0.  1.
</event>
<event>
 5   0  0.3713394E-06  0.2501561E+04  0.7818609E-02  0.8402430E-01
       -2   -1    0    0    0  501  0.00000000000E+00  0.00000000000E+00  0.14712372827E+04  0.14712372827E+04  0.25500000920E-02 0.  1.
        2   -1    0    0  501    0  0.00000000000E+00  0.00000000000E+00 -0.10633581326E+04  0.10633581326E+04  0.25500000920E-02 0. -1.
    10030    2    1    2    0    0  0.00000000000E+00  0.00000000000E+00  0.40787915004E+03  0.25345954153E+04  0.25015612162E+04 0.  0.
        3    1    3    3  502    0 -0.42021359815E+03  0.34888806888E+03 -0.93615282221E+03  0.10838286163E+04  0.10100000352E+00 0. -1.
       -3    1    3    3    0  502  0.42021359815E+03 -0.34888806888E+03  0.13440319723E+04  0.14507667991E+04  0.10100000352E+00 0.  1.
</event>
<event>
 5   0  0.1287375E-06  0.2501627E+04  0.7818609E-02  0.8402406E-01
       -3   -1    0    0    0  501  0.00000000000E+00  0.00000000000E+00  0.13525380911E+04  0.13525380949E+04  0.10100000352E+00 0.  1.
        3   -1    0    0  501    0  0.00000000000E+00  0.00000000000E+00 -0.11567393896E+04  0.11567393940E+04  0.10100000352E+00 0. -1.
    10030    2    1    2    0    0  0.00000000000E+00  0.00000000000E+00  0.19579870146E+03  0.25092774889E+04  0.25016267477E+04 0.  0.
        3    1    3    3  502    0  0.10998811541E+04 -0.36080472290E+03  0.57328495375E+03  0.12917330412E+04  0.10100000352E+00 0.  1.
       -3    1    3    3    0  502 -0.10998811541E+04  0.36080472290E+03 -0.37748625229E+03  0.12175444477E+04  0.10100000352E+00 0. -1.
</event>
<event>
 5   0  0.1541852E-06  0.2473106E+04  0.7818609E-02  0.8412630E-01
        1   -1    0    0  501    0  0.00000000000E+00  0.00000000000E+00  0.14689135823E+04  0.14689135823E+04  0.50400001928E-02 0. -1.
       -1   -1    0    0    0  501  0.00000000000E+00  0.00000000000E+00 -0.10409485149E+04  0.10409485149E+04  0.50400001928E-02 0.  1.
    10030    2    1    2    0    0  0.00000000000E+00  0.00000000000E+00  0.42796506744E+03  0.25098620972E+04  0.24731060730E+04 0.  0.
        5    1    3    3  502    0  0.85615477220E+03 -0.67996821466E+02 -0.68885527472E+03  0.11009851231E+04  0.46999998093E+01 0.  1.
       -5    1    3    3    0  502 -0.85615477220E+03  0.67996821466E+02  0.11168203422E+04  0.14088769742E+04  0.46999998093E+01 0. -1.
</event>
<event>
 5   0  0.3713394E-06  0.2501032E+04  0.7818609E-02  0.8402618E-01
       -2   -1    0    0    0  501  0.00000000000E+00  0.00000000000E+00  0.17714384983E+04  0.17714384983E+04  0.25500000920E-02 0.  1.
        2   -1    0    0  501    0  0.00000000000E+00  0.00000000000E+00 -0.88277990820E+03  0.88277990820E+03  0.25500000920E-02 0. -1.
    10030    2    1    2    0    0  0.00000000000E+00  0.00000000000E+00  0.88865859005E+03  0.26542184065E+04  0.25010320389E+04 0.  0.
        3    1    3    3  502    0  0.39902750674E+03  0.97949700378E+03 -0.26373393281E+03  0.10900426272E+04  0.10100000352E+00 0. -1.
       -3    1    3    3    0  502 -0.39902750674E+03 -0.97949700378E+03  0.11523925229E+04  0.15641757793E+04  0.10100000352E+00 0.  1.
</event>
<event>
 5   0  0.3924441E-06  0.2512203E+04  0.7818609E-02  0.8398651E-01
        2   -1    0    0  501    0  0.00000000000E+00  0.00000000000E+00  0.18791215921E+04  0.18791215921E+04  0.25500000920E-02 0.  1.
       -2   -1    0    0    0  501  0.00000000000E+00  0.00000000000E+00 -0.83964293784E+03  0.83964293784E+03  0.25500000920E-02 0. -1.
    10030    2    1    2    0    0  0.00000000000E+00  0.00000000000E+00  0.10394786542E+04  0.27187645299E+04  0.25122031559E+04 0.  0.
        2    1    3    3  502    0  0.26733633165E+03  0.29911050522E+03  0.18079283618E+04  0.18519019332E+04  0.25500000920E-02 0.  1.
       -2    1    3    3    0  502 -0.26733633165E+03 -0.29911050522E+03 -0.76844970759E+03  0.86686259675E+03  0.25500000920E-02 0. -1.
</event>
<event>
 5   0  0.3808293E-06  0.2503503E+04  0.7818609E-02  0.8401739E-01
       -2   -1    0    0    0  501  0.00000000000E+00  0.00000000000E+00  0.17584185095E+04  0.17584185095E+04  0.25500000920E-02 0. -1.
        2   -1    0    0  501    0  0.00000000000E+00  0.00000000000E+00 -0.89107410870E+03  0.89107410870E+03  0.25500000920E-02 0.  1.
    10030    2    1    2    0    0  0.00000000000E+00  0.00000000000E+00  0.86734440076E+03  0.26494926182E+04  0.25035025113E+04 0.  0.
        1    1    3    3  502    0  0.30921054993E+03 -0.98786460755E+03  0.11785582835E+04  0.15685940439E+04  0.50400001928E-02 0. -1.
       -1    1    3    3    0  502 -0.30921054993E+03  0.98786460755E+03 -0.31121388270E+03  0.10808985743E+04  0.50400001928E-02 0.  1.
</event>
<event>
 5   0  0.1553604E-06  0.2506575E+04  0.7818609E-02  0.8400647E-01
       -1   -1    0    0    0  501  0.00000000000E+00  0.00000000000E+00  0.10829164427E+04  0.10829164427E+04  0.50400001928E-02 0. -1.
        1   -1    0    0  501    0  0.00000000000E+00  0.00000000000E+00 -0.14504620410E+04  0.14504620410E+04  0.50400001928E-02 0.  1.
    10030    2    1    2    0    0  0.00000000000E+00  0.00000000000E+00 -0.36754559831E+03  0.25333784836E+04  0.25065747096E+04 0.  0.
        1    1    3    3  502    0  0.51930738886E+03  0.37578798882E+03  0.90469865959E+03  0.11087724931E+04  0.50400001928E-02 0. -1.
       -1    1    3    3    0  502 -0.51930738886E+03 -0.37578798882E+03 -0.12722442579E+04  0.14246059906E+04  0.50400001928E-02 0.  1.
</event>
<event>
 5   0  0.3971759E-06  0.2499019E+04  0.7818609E-02  0.8403335E-01
       -2   -1    0    0    0  501  0.00000000000E+00  0.00000000000E+00  0.11586400343E+04  0.11586400343E+04  0.25500000920E-02 0.  1.
        2   -1    0    0  501    0  0.00000000000E+00  0.00000000000E+00 -0.13475061105E+04  0.13475061105E+04  0.25500000920E-02 0. -1.
    10030    2    1    2    0    0  0.00000000000E+00  0.00000000000E+00 -0.18886607624E+03  0.25061461448E+04  0.24990194286E+04 0.  0.
        4    1    3    3  502    0 -0.20526402271E+03  0.42073843258E+02 -0.13297614194E+04  0.13461688500E+04  0.12699999809E+01 0. -1.
       -4    1    3    3    0  502  0.20526402271E+03 -0.42073843258E+02  0.11408953432E+04  0.11599772947E+04  0.12699999809E+01 0.  1.
</event>
<event>
 5   0  0.3971759E-06  0.2505651E+04  0.7818609E-02  0.8400975E-01
       -2   -1    0    0    0  501  0.00000000000E+00  0.00000000000E+00  0.14537877207E+04  0.14537877207E+04  0.25500000920E-02 0. -1.
        2   -1    0    0  501    0  0.00000000000E+00  0.00000000000E+00 -0.10796430273E+04  0.10796430273E+04  0.25500000920E-02 0.  1.
    10030    2    1    2    0    0  0.00000000000E+00  0.00000000000E+00  0.37414469345E+03  0.25334307480E+04  0.25056510338E+04 0.  0.
        4    1    3    3  502    0  0.51125507287E+02  0.93860651345E+03 -0.65034572532E+03  0.11430429475E+04  0.12699999809E+01 0.  1.
       -4    1    3    3    0  502 -0.51125507287E+02 -0.93860651345E+03  0.10244904188E+04  0.13903878004E+04  0.12699999809E+01 0. -1.
</event>
<event>
 5   0  0.3814260E-06  0.2500404E+04  0.7818609E-02  0.8402842E-01
       -2   -1    0    0    0  501  0.00000000000E+00  0.00000000000E+00  0.14057391404E+04  0.14057391404E+04  0.25500000920E-02 0. -1.
        2   -1    0    0  501    0  0.00000000000E+00  0.00000000000E+00 -0.11118737480E+04  0.11118737480E+04  0.25500000920E-02 0.  1.
    10030    2    1    2    0    0  0.00000000000E+00  0.00000000000E+00  0.29386539247E+03  0.25176128884E+04  0.25004035248E+04 0.  0.
        5    1    3    3  502    0 -0.77491714796E+03 -0.64095011113E+03 -0.60092339080E+03  0.11715138253E+04  0.46999998093E+01 0.  1.
       -5    1    3    3    0  502  0.77491714796E+03  0.64095011113E+03  0.89478878327E+03  0.13460990632E+04  0.46999998093E+01 0. -1.
</event>
<event>
 5   0  0.1519145E-06  0.2494950E+04  0.7818609E-02  0.8404787E-01
        1   -1    0    0  501    0  0.00000000000E+00  0.00000000000E+00  0.89757542414E+03  0.89757542415E+03  0.50400001928E-02 0.  1.
       -1   -1    0    0    0  501  0.00000000000E+00  0.00000000000E+00 -0.17337753282E+04  0.17337753282E+04  0.50400001928E-02 0. -1.
    10030    2    1    2    0    0  0.00000000000E+00  0.00000000000E+00 -0.83619990403E+03  0.26313507523E+04  0.24949502004E+04 0.  0.
        4    1    3    3  502    0 -0.64970764596E+03 -0.98872513767E+03 -0.83532196908E+03  0.14482616573E+04  0.12699999809E+01 0. -1.
       -4    1    3    3    0  502  0.64970764596E+03  0.98872513767E+03 -0.87793494779E+00  0.11830890950E+04  0.12699999809E+01 0.  1.
</event>
<event>
 5   0  0.1501747E-06  0.2500414E+04  0.7818609E-02  0.8402838E-01
       -1   -1    0    0    0  501  0.00000000000E+00  0.00000000000E+00  0.12656990028E+04  0.12656990029E+04  0.50400001928E-02 0.  1.
        1   -1    0    0  501    0  0.00000000000E+00  0.00000000000E+00 -0.12349046732E+04  0.12349046733E+04  0.50400001928E-02 0. -1.
    10030    2    1    2    0    0  0.00000000000E+00  0.00000000000E+00  0.30794329597E+02  0.25006036761E+04  0.25004140566E+04 0.  0.
        2    1    3    3  502    0  0.97489531692E+03  0.78268300226E+03  0.13383911873E+02  0.12502770453E+04  0.25500000920E-02 0.  1.
       -2    1    3    3    0  502 -0.97489531692E+03 -0.78268300226E+03  0.17410417724E+02  0.12503266308E+04  0.25500000920E-02 0. -1.
</event>
<event>
 5   0  0.3713394E-06  0.2499700E+04  0.7818609E-02  0.8403093E-01
       -2   -1    0    0    0  501  0.00000000000E+00  0.00000000000E+00  0.93725126104E+03  0.93725126104E+03  0.25500000920E-02 0. -1.
        2   -1    0    0  501    0  0.00000000000E+00  0.00000000000E+00 -0.16667084869E+04  0.16667084869E+04  0.25500000920E-02 0.  1.
    10030    2    1    2    0    0  0.00000000000E+00  0.00000000000E+00 -0.72945722589E+03  0.26039597480E+04  0.24996996869E+04 0.  0.
        3    1    3    3  502    0 -0.93817469511E+03  0.82565334168E+03 -0.38118042022E+03  0.13065885818E+04  0.10100000352E+00 0.  1.
       -3    1    3    3    0  502  0.93817469511E+03 -0.82565334168E+03 -0.34827680567E+03  0.12973711661E+04  0.10100000352E+00 0. -1.
</event>
<event>
 5   0  0.3808293E-06  0.2498617E+04  0.7818609E-02  0.8403478E-01
        2   -1    0    0  501    0  0.00000000000E+00  0.00000000000E+00  0.17591228361E+04  0.17591228361E+04  0.25500000920E-02 0.  1.
       -2   -1    0    0    0  501  0.00000000000E+00  0.00000000000E+00 -0.88724446641E+03  0.88724446642E+03  0.25500000920E-02 0. -1.
    10030    2    1    2    0    0  0.00000000000E+00  0.00000000000E+00  0.87187836967E+03  0.26463673025E+04  0.24986172192E+04 0.  0.
        1    1    3    3  502    0 -0.12339914051E+04 -0.18312390726E+03  0.36486791523E+03  0.12997683443E+04  0.50400001928E-02 0.  1.
       -1    1    3    3    0  502  0.12339914051E+04  0.18312390726E+03  0.50701045444E+03  0.13465989582E+04  0.50400001928E-02 0. -1.
</event>
<event>
 5   0  0.3971759E-06  0.2500891E+04  0.7818609E-02  0.8402668E-01
        2   -1    0    0  501    0  0.00000000000E+00  0.00000000000E+00  0.25188900956E+04  0.25188900957E+04  0.25500000920E-02 0. -1.
       -2   -1    0    0    0  501  0.00000000000E+00  0.00000000000E+00 -0.62075493925E+03  0.62075493925E+03  0.25500000920E-02 0.  1.
    10030    2    1    2    0    0  0.00000000000E+00  0.00000000000E+00  0.18981351564E+04  0.31396450349E+04  0.25008906160E+04 0.  0.
        4    1    3    3  502    0  0.10711356650E+04 -0.47824380597E+03  0.14927678616E+04  0.18985273904E+04  0.12699999809E+01 0. -1.
       -4    1    3    3    0  502 -0.10711356650E+04  0.47824380597E+03  0.40536729484E+03  0.12411176445E+04  0.12699999809E+01 0.  1.
</event>
<event>
 5   0  0.1574896E-06  0.2503746E+04  0.7818609E-02  0.8401652E-01
       -1   -1    0    0    0  501  0.00000000000E+00  0.00000000000E+00  0.65399831812E+03  0.65399831814E+03  0.50400001928E-02 0. -1.
        1   -1    0    0  501    0  0.00000000000E+00  0.00000000000E+00 -0.23963156956E+04  0.23963156956E+04  0.50400001928E-02 0.  1.
    10030    2    1    2    0    0  0.00000000000E+00  0.00000000000E+00 -0.17423173774E+04  0.30503140137E+04  0.25037463407E+04 0.  0.
        3    1    3    3  502    0  0.10669641245E+04 -0.54069438765E+03 -0.42117278147E+03  0.12681283002E+04  0.10100000352E+00 0. -1.
       -3    1    3    3    0  502 -0.10669641245E+04  0.54069438765E+03 -0.13211445960E+04  0.17821857135E+04  0.10100000352E+00 0.  1.
</event>
<event>
 5   0  0.1553604E-06  0.2502285E+04  0.7818609E-02  0.8402172E-01
        1   -1    0    0  501    0  0.00000000000E+00  0.00000000000E+00  0.23910690808E+04  0.23910690808E+04  0.50400001928E-02 0. -1.
       -1   -1    0    0    0  501  0.00000000000E+00  0.00000000000E+00 -0.65466844624E+03  0.65466844626E+03  0.50400001928E-02 0.  1.
    10030    2    1    2    0    0  0.00000000000E+00  0.00000000000E+00  0.17364006345E+04  0.30457375270E+04  0.25022849398E+04 0.  0.
        1    1    3    3  502    0  0.35112062407E+03 -0.24834927829E+03  0.22982703640E+04  0.23381637502E+04  0.50400001928E-02 0. -1.
       -1    1    3    3    0  502 -0.35112062407E+03  0.24834927829E+03 -0.56186972950E+03  0.70757377681E+03  0.50400001928E-02 0.  1.
</event>
<event>
 5   0  0.1519145E-06  0.2503695E+04  0.7818609E-02  0.8401670E-01
        1   -1    0    0  501    0  0.00000000000E+00  0.00000000000E+00  0.12325836098E+04  0.12325836098E+04  0.50400001928E-02 0.  1.
       -1   -1    0    0    0  501  0.00000000000E+00  0.00000000000E+00 -0.12714123992E+04  0.12714123992E+04  0.50400001928E-02 0. -1.
    10030    2    1    2    0    0  0.00000000000E+00  0.00000000000E+00 -0.38828789384E+02  0.25039960090E+04  0.25036949371E+04 0.  0.
        4    1    3    3  502    0  0.29745022233E+03 -0.29374861506E+03 -0.11995374699E+04  0.12702978541E+04  0.12699999809E+01 0. -1.
       -4    1    3    3    0  502 -0.29745022233E+03  0.29374861506E+03  0.11607086805E+04  0.12336981549E+04  0.12699999809E+01 0.  1.
</event>
<event>
 5   0  0.3808293E-06  0.2501231E+04  0.7818609E-02  0.8402547E-01
       -2   -1    0    0    0  501  0.00000000000E+00  0.00000000000E+00  0.90979712608E+03  0.90979712608E+03  0.25500000920E-02 0.  1.
        2   -1    0    0  501    0  0.00000000000E+00  0.00000000000E+00 -0.17191081936E+04  0.17191081936E+04  0.25500000920E-02 0. -1.
    10030    2    1    2    0    0  0.00000000000E+00  0.00000000000E+00 -0.80931106753E+03  0.26289053197E+04  0.25012314519E+04 0.  0.
        1    1    3    3  502    0 -0.64995814322E+03 -0.60729152351E+03  0.51930223888E+03  0.10300113581E+04  0.50400001928E-02 0.  1.
       -1    1    3    3    0  502  0.64995814322E+03  0.60729152351E+03 -0.13286133064E+04  0.15988939616E+04  0.50400001928E-02 0. -1.
</event>
<event>
 5   0  0.3971759E-06  0.2500993E+04  0.7818609E-02  0.8402632E-01
        2   -1    0    0  501    0  0.00000000000E+00  0.00000000000E+00  0.15530194675E+04  0.15530194675E+04  0.25500000920E-02 0.  1.
       -2   -1    0    0    0  501  0.00000000000E+00  0.00000000000E+00 -0.10069036360E+04  0.10069036361E+04  0.25500000920E-02 0. -1.
    10030    2    1    2    0    0  0.00000000000E+00  0.00000000000E+00  0.54611583150E+03  0.25599231036E+04  0.25009925619E+04 0.  0.
        4    1    3    3  502    0  0.88083095186E+03 -0.35403379662E+03  0.11062005123E+04  0.14576982819E+04  0.12699999809E+01 0.  1.
       -4    1    3    3    0  502 -0.88083095186E+03  0.35403379662E+03 -0.56008468080E+03  0.11022248216E+04  0.12699999809E+01 0. -1.
</event>
<event>
 5   0  0.1541852E-06  0.2504848E+04  0.7818609E-02  0.8401260E-01
       -1   -1    0    0    0  501  0.00000000000E+00  0.00000000000E+00  0.71022921866E+03  0.71022921868E+03  0.50400001928E-02 0. -1.
        1   -1    0    0  501    0  0.00000000000E+00  0.00000000000E+00 -0.22085351678E+04  0.22085351678E+04  0.50400001928E-02 0.  1.
    10030    2    1    2    0    0  0.00000000000E+00  0.00000000000E+00 -0.14983059491E+04  0.29187643865E+04  0.25048482642E+04 0.  0.
        5    1    3    3  502    0  0.62932603202E+03  0.27030667179E+02 -0.20105080488E+04  0.21068807788E+04  0.46999998093E+01 0.  1.
       -5    1    3    3    0  502 -0.62932603202E+03 -0.27030667179E+02  0.51220209969E+03  0.81188360771E+03  0.46999998093E+01 0. -1.
</event>
<event>
 5   0  0.3808293E-06  0.2501249E+04  0.7818609E-02  0.8402541E-01
        2   -1    0    0  501    0  0.00000000000E+00  0.00000000000E+00  0.11911024000E+04  0.11911024000E+04  0.25500000920E-02 0. -1.
       -2   -1    0    0    0  501  0.00000000000E+00  0.00000000000E+00 -0.13131207123E+04  0.13131207123E+04  0.25500000920E-02 0.  1.
    10030    2    1    2    0    0  0.00000000000E+00  0.00000000000E+00 -0.12201831232E+03  0.25042231124E+04  0.25012486738E+04 0.  0.
        1    1    3    3  502    0 -0.73171508271E+01  0.12462792033E+04  0.43017429023E+02  0.12470428591E+04  0.50400001928E-02 0.  1.
       -1    1    3    3    0  502  0.73171508271E+01 -0.12462792033E+04 -0.16503574134E+03  0.12571802533E+04  0.50400001928E-02 0. -1.
</event>
<event>
 5   0  0.1574896E-06  0.2501365E+04  0.7818609E-02  0.8402499E-01
        1   -1    0    0  501    0  0.00000000000E+00  0.00000000000E+00  0.16205107451E+04  0.16205107451E+04  0.50400001928E-02 0.  1.
       -1   -1    0    0    0  501  0.00000000000E+00  0.00000000000E+00 -0.96525538719E+03  0.96525538720E+03  0.50400001928E-02 0. -1.
    10030    2    1    2    0    0  0.00000000000E+00  0.00000000000E+00  0.65525535786E+03  0.25857661323E+04  0.25013650087E+04 0.  0.
        3    1    3    3  502    0  0.75006826635E+03 -0.71400250972E+03 -0.39732310290E+03  0.11091743084E+04  0.10100000352E+00 0. -1.
       -3    1    3    3    0  502 -0.75006826635E+03  0.71400250972E+03  0.10525784608E+04  0.14765918239E+04  0.10100000352E+00 0.  1.
</event>
<event>
 5   0  0.1287375E-06  0.2499630E+04  0.7818609E-02  0.8403117E-01
       -3   -1    0    0    0  501  0.00000000000E+00  0.00000000000E+00  0.16504255291E+04  0.16504255322E+04  0.10100000352E+00 0. -1.
        3   -1    0    0  501    0  0.00000000000E+00  0.00000000000E+00 -0.94644523868E+03  0.94644524407E+03  0.10100000352E+00 0.  1.
    10030    2    1    2    0    0  0.00000000000E+00  0.00000000000E+00  0.70398029042E+03  0.25968707763E+04  0.24996298885E+04 0.  0.
        2    1    3    3  502    0  0.11003203713E+04  0.23762079986E+03  0.91613296385E+03  0.14513676899E+04  0.25500000920E-02 0.  1.
       -2    1    3    3    0  502 -0.11003203713E+04 -0.23762079986E+03 -0.21215267343E+03  0.11455030863E+04  0.25500000920E-02 0. -1.
</event>
<event>
 5   0  0.1541852E-06  0.2501534E+04  0.7818609E-02  0.8402439E-01
        1   -1    0    0  501    0  0.00000000000E+00  0.00000000000E+00  0.20047448320E+04  0.20047448320E+04  0.50400001928E-02 0.  1.
       -1   -1    0    0    0  501  0.00000000000E+00  0.00000000000E+00 -0.78035756905E+03  0.78035756906E+03  0.50400001928E-02 0. -1.
    10030    2    1    2    0    0  0.00000000000E+00  0.00000000000E+00  0.12243872630E+04  0.27851024011E+04  0.25015337725E+04 0.  0.
        5    1    3    3  502    0  0.23621864902E+03  0.20432287383E+03 -0.73623338872E+03  0.79975544986E+03  0.46999998093E+01 0. -1.
       -5    1    3    3    0  502 -0.23621864902E+03 -0.20432287383E+03  0.19606206517E+04  0.19853469512E+04  0.46999998093E+01 0.  1.
</event>
<event>
 5   0  0.1501747E-06  0.2497593E+04  0.7818609E-02  0.8403844E-01
       -1   -1    0    0    0  501  0.00000000000E+00  0.00000000000E+00  0.11169978668E+04  0.11169978668E+04  0.50400001928E-02 0. -1.
        1   -1    0    0  501    0  0.00000000000E+00  0.00000000000E+00 -0.13961464991E+04  0.13961464991E+04  0.50400001928E-02 0.  1.
    10030    2    1    2    0    0  0.00000000000E+00  0.00000000000E+00 -0.27914863238E+03  0.25131443659E+04  0.24975929702E+04 0.  0.
        2    1    3    3  502    0  0.11587194412E+04  0.13524773002E+03  0.30881221440E+03  0.12067674489E+04  0.25500000920E-02 0. -1.
       -2    1    3    3    0  502 -0.11587194412E+04 -0.13524773002E+03 -0.58796084678E+03  0.13063769170E+04  0.25500000920E-02 0.  1.
</event>
<event>
 5   0  0.3814260E-06  0.2500330E+04  0.7818609E-02  0.8402868E-01
       -2   -1    0    0    0  501  0.00000000000E+00  0.00000000000E+00  0.74219338990E+03  0.74219338990E+03  0.25500000920E-02 0. -1.
        2   -1    0    0  501    0  0.00000000000E+00  0.00000000000E+00 -0.21058017602E+04  0.21058017602E+04  0.25500000920E-02 0.  1.
    10030    2    1    2    0    0  0.00000000000E+00  0.00000000000E+00 -0.13636083703E+04  0.28479951501E+04  0.25003296958E+04 0.  0.
        5    1    3    3  502    0  0.53406825983E+03  0.83114898684E+03 -0.15543865883E+04  0.18417864427E+04  0.46999998093E+01 0.  1.
       -5    1    3    3    0  502 -0.53406825983E+03 -0.83114898684E+03  0.19077821801E+03  0.10062087074E+04  0.46999998093E+01 0. -1.
</event>
<event>
 5   0  0.3971759E-06  0.2495899E+04  0.7818609E-02  0.8404448E-01
       -2   -1    0    0    0  501  0.00000000000E+00  0.00000000000E+00  0.82663917874E+03  0.82663917875E+03  0.25500000920E-02 0.  1.
        2   -1    0    0  501    0  0.00000000000E+00  0.00000000000E+00 -0.18839877009E+04  0.18839877009E+04  0.25500000920E-02 0. -1.
    10030    2    1    2    0    0  0.00000000000E+00  0.00000000000E+00 -0.10573485221E+04  0.27106268796E+04  0.24958990731E+04 0.  0.
        4    1    3    3  502    0  0.36935483975E+03  0.47484268644E+03  0.65877070118E+03  0.89212052109E+03  0.12699999809E+01 0.  1.
       -4    1    3    3    0  502 -0.36935483975E+03 -0.47484268644E+03 -0.17161192233E+04  0.18185063585E+04  0.12699999809E+01 0. -1.
</event>
<event>
 5   0  0.1553604E-06  0.2482461E+04  0.7818609E-02  0.8409261E-01
        1   -1    0    0  501    0  0.00000000000E+00  0.00000000000E+00  0.16349220220E+04  0.16349220220E+04  0.50400001928E-02 0. -1.
       -1   -1    0    0    0  501  0.00000000000E+00  0.00000000000E+00 -0.94234046422E+03  0.94234046424E+03  0.50400001928E-02 0.  1.
    10030    2    1    2    0    0  0.00000000000E+00  0.00000000000E+00  0.69258155777E+03  0.25772624862E+04  0.24824610186E+04 0.  0.
        1    1    3    3  502    0  0.99738625390E+03  0.95046267354E+02 -0.41438338658E+03  0.10842171016E+04  0.50400001928E-02 0.  1.
       -1    1    3    3    0  502 -0.99738625390E+03 -0.95046267354E+02  0.11069649444E+04  0.14930453846E+04  0.50400001928E-02 0. -1.
</event>
<event>
 5   0  0.3814260E-06  0.2497372E+04  0.7818609E-02  0.8403923E-01
       -2   -1    0    0    0  501  0.00000000000E+00  0.00000000000E+00  0.85170311900E+03  0.85170311901E+03  0.25500000920E-02 0.  1.
        2   -1    0    0  501    0  0.00000000000E+00  0.00000000000E+00 -0.18307039197E+04  0.18307039197E+04  0.25500000920E-02 0. -1.
    10030    2    1    2    0    0  0.00000000000E+00  0.00000000000E+00 -0.97900080074E+03  0.26824070388E+04  0.24973716091E+04 0.  0.
        5    1    3    3  502    0  0.79566494879E+03 -0.73098811602E+03 -0.11617892145E+04  0.15865694455E+04  0.46999998093E+01 0. -1.
       -5    1    3    3    0  502 -0.79566494879E+03  0.73098811602E+03  0.18278841379E+03  0.10958375932E+04  0.46999998093E+01 0.  1.
</event>
<event>
 5   0  0.1541852E-06  0.2502990E+04  0.7818609E-02  0.8401921E-01
        1   -1    0    0  501    0  0.00000000000E+00  0.00000000000E+00  0.11515852805E+04  0.11515852805E+04  0.50400001928E-02 0.  1.
       -1   -1    0    0    0  501  0.00000000000E+00  0.00000000000E+00 -0.13600726573E+04  0.13600726573E+04  0.50400001928E-02 0. -1.
    10030    2    1    2    0    0  0.00000000000E+00  0.00000000000E+00 -0.20848737686E+03  0.25116579378E+04  0.25029899341E+04 0.  0.
        5    1    3    3  502    0  0.11329318464E+04 -0.16249377010E+03 -0.61223666029E+03  0.12979963837E+04  0.46999998093E+01 0. -1.
       -5    1    3    3    0  502 -0.11329318464E+04  0.16249377010E+03  0.40374928343E+03  0.12136615541E+04  0.46999998093E+01 0.  1.
</event>
<event>
 5   0  0.3713394E-06  0.2500208E+04  0.7818609E-02  0.8402911E-01
        2   -1    0    0  501    0  0.00000000000E+00  0.00000000000E+00  0.16887316791E+04  0.16887316791E+04  0.25500000920E-02 0.  1.
       -2   -1    0    0    0  501  0.00000000000E+00  0.00000000000E+00 -0.92540492722E+03  0.92540492722E+03  0.25500000920E-02 0. -1.
    10030    2    1    2    0    0  0.00000000000E+00  0.00000000000E+00  0.76332675187E+03  0.26141366063E+04  0.25002084846E+04 0.  0.
        3    1    3    3  502    0  0.12192770193E+03 -0.99470310744E+03 -0.39969105323E+03  0.10789131497E+04  0.10100000352E+00 0. -1.
       -3    1    3    3    0  502 -0.12192770193E+03  0.99470310744E+03  0.11630178051E+04  0.15352234566E+04  0.10100000352E+00 0.  1.
</event>
<event>
 5   0  0.3814260E-06  0.2470398E+04  0.7818609E-02  0.8413608E-01
        2   -1    0    0  501    0  0.00000000000E+00  0.00000000000E+00  0.20953464114E+04  0.20953464114E+04  0.25500000920E-02 0.  1.
       -2   -1    0    0    0  501  0.00000000000E+00  0.00000000000E+00 -0.72814511343E+03  0.72814511344E+03  0.25500000920E-02 0. -1.
    10030    2    1    2    0    0  0.00000000000E+00  0.00000000000E+00  0.13672012979E+04  0.28234915248E+04  0.24703977416E+04 0.  0.
        5    1    3    3  502    0 -0.27601972326E+02  0.11990397491E+04  0.34602787866E+03  0.12482850523E+04  0.46999998093E+01 0.  1.
       -5    1    3    3    0  502  0.27601972326E+02 -0.11990397491E+04  0.10211734193E+04  0.15752064725E+04  0.46999998093E+01 0. -1.
</event>
<event>
 5   0  0.1519145E-06  0.2500623E+04  0.7818609E-02  0.8402764E-01
       -1   -1    0    0    0  501  0.00000000000E+00  0.00000000000E+00  0.11753794818E+04  0.11753794818E+04  0.50400001928E-02 0. -1.
        1   -1    0    0  501    0  0.00000000000E+00  0.00000000000E+00 -0.13300206781E+04  0.13300206781E+04  0.50400001928E-02 0.  1.
    10030    2    1    2    0    0  0.00000000000E+00  0.00000000000E+00 -0.15464119636E+03  0.25054001599E+04  0.25006231347E+04 0.  0.
        4    1    3    3  502    0  0.81561978798E+03  0.67355175219E+03  0.59056353264E+03  0.12114761658E+04  0.12699999809E+01 0. -1.
       -4    1    3    3    0  502 -0.81561978798E+03 -0.67355175219E+03 -0.74520472900E+03  0.12939239941E+04  0.12699999809E+01 0.  1.
</event>
<event>
 5   0  0.3713394E-06  0.2498544E+04  0.7818609E-02  0.8403504E-01
        2   -1    0    0  501    0  0.00000000000E+00  0.00000000000E+00  0.15033658656E+04  0.15033658656E+04  0.25500000920E-02 0. -1.
       -2   -1    0    0    0  501  0.00000000000E+00  0.00000000000E+00 -0.10381243170E+04  0.10381243170E+04  0.25500000920E-02 0.  1.
    10030    2    1    2    0    0  0.00000000000E+00  0.00000000000E+00  0.46524154860E+03  0.25414901826E+04  0.24985441060E+04 0.  0.
        3    1    3    3  502    0  0.67279644657E+02 -0.12138898031E+04  0.52500830932E+03  0.13242691342E+04  0.10100000352E+00 0. -1.
       -3    1    3    3    0  502 -0.67279644657E+02  0.12138898031E+04 -0.59766760723E+02  0.12172210484E+04  0.10100000352E+00 0.  1.
</event>
<event>
 5   0  0.3924441E-06  0.2499724E+04  0.7818609E-02  0.8403084E-01
       -2   -1    0    0    0  501  0.00000000000E+00  0.00000000000E+00  0.11549503140E+04  0.11549503140E+04  0.25500000920E-02 0.  1.
        2   -1    0    0  501    0  0.00000000000E+00  0.00000000000E+00 -0.13525735817E+04  0.13525735817E+04  0.25500000920E-02 0. -1.
    10030    2    1    2    0    0  0.00000000000E+00  0.00000000000E+00 -0.19762326773E+03  0.25075238956E+04  0.24997242110E+04 0.  0.
        2    1    3    3  502    0  0.97658937933E+00 -0.11172428233E+04 -0.66084799781E+03  0.12980572237E+04  0.25500000920E-02 0.  1.
       -2    1    3    3    0  502 -0.97658937933E+00  0.11172428233E+04  0.46322473009E+03  0.12094666719E+04  0.25500000920E-02 0. -1.
</event>
<event>
 5   0  0.3971759E-06  0.2495363E+04  0.7818609E-02  0.8404639E-01
        2   -1    0    0  501    0  0.00000000000E+00  0.00000000000E+00  0.13996873545E+04  0.13996873545E+04  0.25500000920E-02 0.  1.
       -2   -1    0    0    0  501  0.00000000000E+00  0.00000000000E+00 -0.11121836116E+04  0.11121836116E+04  0.25500000920E-02 0. -1.
    10030    2    1    2    0    0  0.00000000000E+00  0.00000000000E+00  0.28750374293E+03  0.25118709661E+04  0.24953631696E+04 0.  0.
        4    1    3    3  502    0  0.37731410314E+03 -0.11482214038E+04  0.45552553661E+03  0.12916204752E+04  0.12699999809E+01 0.  1.
       -4    1    3    3    0  502 -0.37731410314E+03  0.11482214038E+04 -0.16802179367E+03  0.12202504909E+04  0.12699999809E+01 0. -1.
</event>
<event>
 5   0  0.3814260E-06  0.2469559E+04  0.7818609E-02  0.8413911E-01
       -2   -1    0    0    0  501  0.00000000000E+00  0.00000000000E+00  0.10210198409E+04  0.10210198409E+04  0.25500000920E-02 0. -1.
        2   -1    0    0  501    0  0.00000000000E+00  0.00000000000E+00 -0.14932920448E+04  0.14932920448E+04  0.25500000920E-02 0.  1.
    10030    2    1    2    0    0  0.00000000000E+00  0.00000000000E+00 -0.47227220391E+03  0.25143118857E+04  0.24695593178E+04 0.  0.
        5    1    3    3  502    0  0.16383466016E+03 -0.10023041836E+04 -0.95114697867E+03  0.13914589959E+04  0.46999998093E+01 0.  1.
       -5    1    3    3    0  502 -0.16383466016E+03  0.10023041836E+04  0.47887477476E+03  0.11228528898E+04  0.46999998093E+01 0. -1.
</event>
<event>
 5   0  0.3808293E-06  0.2499352E+04  0.7818609E-02  0.8403216E-01
       -2   -1    0    0    0  501  0.00000000000E+00  0.00000000000E+00  0.10280027954E+04  0.10280027954E+04  0.25500000920E-02 0. -1.
        2   -1    0    0  501    0  0.00000000000E+00  0.00000000000E+00 -0.15191498332E+04  0.15191498332E+04  0.25500000920E-02 0.  1.
    10030    2    1    2    0    0  0.00000000000E+00  0.00000000000E+00 -0.49114703786E+03  0.25471526286E+04  0.24993521362E+04 0.  0.
        1    1    3    3  502    0  0.65980680069E+03 -0.87361707221E+03  0.36856120209E+03  0.11551576355E+04  0.50400001928E-02 0. -1.
       -1    1    3    3    0  502 -0.65980680069E+03  0.87361707221E+03 -0.85970823995E+03  0.13919949932E+04  0.50400001928E-02 0.  1.
</event>
<event>
 5   0  0.3808293E-06  0.2504586E+04  0.7818609E-02  0.8401354E-01
        2   -1    0    0  501    0  0.00000000000E+00  0.00000000000E+00  0.12258828147E+04  0.12258828147E+04  0.25500000920E-02 0. -1.
       -2   -1    0    0    0  501  0.00000000000E+00  0.00000000000E+00 -0.12792722172E+04  0.12792722172E+04  0.25500000920E-02 0.  1.
    10030    2    1    2    0    0  0.00000000000E+00  0.00000000000E+00 -0.53389402520E+02  0.25051550319E+04  0.25045860547E+04 0.  0.
        1    1    3    3  502    0  0.32666387292E+03  0.12083429521E+04  0.11206525617E+02  0.12517697720E+04  0.50400001928E-02 0.  1.
       -1    1    3    3    0  502 -0.32666387292E+03 -0.12083429521E+04 -0.64595928137E+02  0.12533852599E+04  0.50400001928E-02 0. -1.
</event>
<event>
 5   0  0.1553604E-06  0.2503718E+04  0.7818609E-02  0.8401662E-01
       -1   -1    0    0    0  501  0.00000000000E+00  0.00000000000E+00  0.21517493129E+04  0.21517493129E+04  0.50400001928E-02 0. -1.
        1   -1    0    0  501    0  0.00000000000E+00  0.00000000000E+00 -0.72831474648E+03  0.72831474649E+03  0.50400001928E-02 0.  1.
    10030    2    1    2    0    0  0.00000000000E+00  0.00000000000E+00  0.14234345664E+04  0.28800640594E+04  0.25037178398E+04 0.  0.
        1    1    3    3  502    0  0.47333539175E+03  0.88746522597E+03 -0.14564157607E+03  0.10162934562E+04  0.50400001928E-02 0.  1.
       -1    1    3    3    0  502 -0.47333539175E+03 -0.88746522597E+03  0.15690761425E+04  0.18637706032E+04  0.50400001928E-02 0. -1.
</event>
<event>
 5   0  0.1501747E-06  0.2494200E+04  0.7818609E-02  0.8405055E-01
        1   -1    0    0  501    0  0.00000000000E+00  0.00000000000E+00  0.13993583945E+04  0.13993583945E+04  0.50400001928E-02 0.  1.
       -1   -1    0    0    0  501  0.00000000000E+00  0.00000000000E+00 -0.11114078405E+04  0.11114078405E+04  0.50400001928E-02 0. -1.
    10030    2    1    2    0    0  0.00000000000E+00  0.00000000000E+00  0.28795055397E+03  0.25107662350E+04  0.24941995841E+04 0.  0.
        2    1    3    3  502    0  0.40794629918E+03  0.10187962027E+04  0.74027116444E+03  0.13237701018E+04  0.25500000920E-02 0.  1.
       -2    1    3    3    0  502 -0.40794629918E+03 -0.10187962027E+04 -0.45232061048E+03  0.11869961332E+04  0.25500000920E-02 0. -1.
</event>
<event>
 5   0  0.3808293E-06  0.2500799E+04  0.7818609E-02  0.8402701E-01
        2   -1    0    0  501    0  0.00000000000E+00  0.00000000000E+00  0.11637650110E+04  0.11637650110E+04  0.25500000920E-02 0. -1.
       -2   -1    0    0    0  501  0.00000000000E+00  0.00000000000E+00 -0.13434832608E+04  0.13434832608E+04  0.25500000920E-02 0.  1.
    10030    2    1    2    0    0  0.00000000000E+00  0.00000000000E+00 -0.17971824986E+03  0.25072482718E+04  0.25007989218E+04 0.  0.
        1    1    3    3  502    0 -0.66540066502E+03 -0.10329242521E+04  0.14270516277E+03  0.12369540489E+04  0.50400001928E-02 0. -1.
       -1    1    3    3    0  502  0.66540066502E+03  0.10329242521E+04 -0.32242341263E+03  0.12702942229E+04  0.50400001928E-02 0.  1.
</event>
<event>
 5   0  0.1541852E-06  0.2499036E+04  0.7818609E-02  0.8403329E-01
        1   -1    0    0  501    0  0.00000000000E+00  0.00000000000E+00  0.10006672249E+04  0.10006672249E+04  0.50400001928E-02 0. -1.
       -1   -1    0    0    0  501  0.00000000000E+00  0.00000000000E+00 -0.15602537635E+04  0.15602537635E+04  0.50400001928E-02 0.  1.
    10030    2    1    2    0    0  0.00000000000E+00  0.00000000000E+00 -0.55958653854E+03  0.25609209884E+04  0.24990356570E+04 0.  0.
        5    1    3    3  502    0 -0.25264048632E+03 -0.86081340658E+03 -0.11710701230E+04  0.14752132928E+04  0.46999998093E+01 0.  1.
       -5    1    3    3    0  502  0.25264048632E+03  0.86081340658E+03  0.61148358446E+03  0.10857076956E+04  0.46999998093E+01 0. -1.
</event>
<event>
 5   0  0.3814260E-06  0.2499988E+04  0.7818609E-02  0.8402990E-01
       -2   -1    0    0    0  501  0.00000000000E+00  0.00000000000E+00  0.11984834177E+04  0.11984834177E+04  0.25500000920E-02 0.  1.
        2   -1    0    0  501    0  0.00000000000E+00  0.00000000000E+00 -0.13037186737E+04  0.13037186737E+04  0.25500000920E-02 0. -1.
    10030    2    1    2    0    0  0.00000000000E+00  0.00000000000E+00 -0.10523525603E+03  0.25022020914E+04  0.24999881694E+04 0.  0.
        5    1    3    3  502    0  0.12619142112E+03  0.10625665049E+04  0.59409021573E+03  0.12239024171E+04  0.46999998093E+01 0.  1.
       -5    1    3    3    0  502 -0.12619142112E+03 -0.10625665049E+04 -0.69932547175E+03  0.12782996744E+04  0.46999998093E+01 0. -1.
</event>
<event>
 5   0  0.1574896E-06  0.2502446E+04  0.7818609E-02  0.8402115E-01
       -1   -1    0    0    0  501  0.00000000000E+00  0.00000000000E+00  0.10891150920E+04  0.10891150920E+04  0.50400001928E-02 0. -1.
        1   -1    0    0  501    0  0.00000000000E+00  0.00000000000E+00 -0.14374598356E+04  0.14374598356E+04  0.50400001928E-02 0.  1.
    10030    2    1    2    0    0  0.00000000000E+00  0.00000000000E+00 -0.34834474362E+03  0.25265749277E+04  0.25024461642E+04 0.  0.
        3    1    3    3  502    0 -0.23535092851E+03  0.11395381409E+04  0.29028707653E+03  0.11992513627E+04  0.10100000352E+00 0. -1.
       -3    1    3    3    0  502  0.23535092851E+03 -0.11395381409E+04 -0.63863182015E+03  0.13273235649E+04  0.10100000352E+00 0.  1.
</event>
<event>
 5   0  0.3924441E-06  0.2497632E+04  0.7818609E-02  0.8403830E-01
       -2   -1    0    0    0  501  0.00000000000E+00  0.00000000000E+00  0.96670413370E+03  0.96670413371E+03  0.25500000920E-02 0. -1.
        2   -1    0    0  501    0  0.00000000000E+00  0.00000000000E+00 -0.16132558218E+04  0.16132558218E+04  0.25500000920E-02 0.  1.
    10030    2    1    2    0    0  0.00000000000E+00  0.00000000000E+00 -0.64655168813E+03  0.25799599555E+04  0.24976317356E+04 0.  0.
        2    1    3    3  502    0  0.11400236373E+04 -0.10127648689E+03  0.19282333485E+03  0.11606427783E+04  0.25500000920E-02 0. -1.
       -2    1    3    3    0  502 -0.11400236373E+04  0.10127648689E+03 -0.83937502298E+03  0.14193171772E+04  0.25500000920E-02 0.  1.
</event>
<event>
 5   0  0.1519145E-06  0.2455316E+04  0.7818609E-02  0.8419080E-01
        1   -1    0    0  501    0  0.00000000000E+00  0.00000000000E+00  0.89333375384E+03  0.89333375386E+03  0.50400001928E-02 0. -1.
       -1   -1    0    0    0  501  0.00000000000E+00  0.00000000000E+00 -0.16871005215E+04  0.16871005215E+04  0.50400001928E-02 0.  1.
    10030    2    1    2    0    0  0.00000000000E+00  0.00000000000E+00 -0.79376676763E+03  0.25804342753E+04  0.24553157369E+04 0.  0.
        4    1    3    3  502    0 -0.98953716497E+02 -0.10895762128E+03  0.88402674083E+03  0.89619668189E+03  0.12699999809E+01 0. -1.
       -4    1    3    3    0  502  0.98953716497E+02  0.10895762128E+03 -0.16777935085E+04  0.16842375934E+04  0.12699999809E+01 0.  1.
</event>
<event>
 5   0  0.1541852E-06  0.2501030E+04  0.7818609E-02  0.8402619E-01
       -1   -1    0    0    0  501  0.00000000000E+00  0.00000000000E+00  0.81252968296E+03  0.81252968298E+03  0.50400001928E-02 0.  1.
        1   -1    0    0  501    0  0.00000000000E+00  0.00000000000E+00 -0.19245914872E+04  0.19245914872E+04  0.50400001928E-02 0. -1.
    10030    2    1    2    0    0  0.00000000000E+00  0.00000000000E+00 -0.11120618042E+04  0.27371211702E+04  0.25010299566E+04 0.  0.
        5    1    3    3  502    0 -0.19958850041E+02  0.95573027152E+02  0.80834236553E+03  0.81423094335E+03  0.46999998093E+01 0.  1.
       -5    1    3    3    0  502  0.19958850041E+02 -0.95573027152E+02 -0.19204041697E+04  0.19228902268E+04  0.46999998093E+01 0. -1.
</event>
<event>
 5   0  0.1553604E-06  0.2502344E+04  0.7818609E-02  0.8402151E-01
       -1   -1    0    0    0  501  0.00000000000E+00  0.00000000000E+00  0.12370580638E+04  0.12370580638E+04  0.50400001928E-02 0.  1.
        1   -1    0    0  501    0  0.00000000000E+00  0.00000000000E+00 -0.12654472363E+04  0.12654472363E+04  0.50400001928E-02 0. -1.
    10030    2    1    2    0    0  0.00000000000E+00  0.00000000000E+00 -0.28389172493E+02  0.25025053001E+04  0.25023442672E+04 0.  0.
        1    1    3    3  502    0  0.61991362810E+03 -0.10776398814E+04 -0.15502654308E+03  0.12528502901E+04  0.50400001928E-02 0. -1.
       -1    1    3    3    0  502 -0.61991362810E+03  0.10776398814E+04  0.12663737059E+03  0.12496550100E+04  0.50400001928E-02 0.  1.
</event>
<event>
 5   0  0.1501747E-06  0.2501323E+04  0.7818609E-02  0.8402514E-01
        1   -1    0    0  501    0  0.00000000000E+00  0.00000000000E+00  0.12097290963E+04  0.12097290963E+04  0.50400001928E-02 0.  1.
       -1   -1    0    0    0  501  0.00000000000E+00  0.00000000000E+00 -0.12929785966E+04  0.12929785966E+04  0.50400001928E-02 0. -1.
    10030    2    1    2    0    0  0.00000000000E+00  0.00000000000E+00 -0.83249500310E+02  0.25027076928E+04  0.25013227134E+04 0.  0.
        2    1    3    3  502    0  0.95401500730E+03  0.63439702410E+03  0.46020017283E+03  0.12346612561E+04  0.25500000920E-02 0. -1.
       -2    1    3    3    0  502 -0.95401500730E+03 -0.63439702410E+03 -0.54344967314E+03  0.12680464367E+04  0.25500000920E-02 0.  1.
</event>
<event>
 5   0  0.3713394E-06  0.2491799E+04  0.7818609E-02  0.8405913E-01
       -2   -1    0    0    0  501  0.00000000000E+00  0.00000000000E+00  0.90617201636E+03  0.90617201637E+03  0.25500000920E-02 0.  1.
        2   -1    0    0  501    0  0.00000000000E+00  0.00000000000E+00 -0.17129916710E+04  0.17129916711E+04  0.25500000920E-02 0. -1.
    10030    2    1    2    0    0  0.00000000000E+00  0.00000000000E+00 -0.80681965469E+03  0.26191636874E+04  0.24917986408E+04 0.  0.
        3    1    3    3  502    0  0.23451518334E+02  0.11307542536E+04  0.14590137794E+03  0.11403694042E+04  0.10100000352E+00 0.  1.
       -3    1    3    3    0  502 -0.23451518334E+02 -0.11307542536E+04 -0.95272103262E+03  0.14787942832E+04  0.10100000352E+00 0. -1.
</event>
<event>
 5   0  0.3808293E-06  0.2500121E+04  0.7818609E-02  0.8402942E-01
        2   -1    0    0  501    0  0.00000000000E+00  0.00000000000E+00  0.57238541233E+03  0.57238541234E+03  0.25500000920E-02 0.  1.
       -2   -1    0    0    0  501  0.00000000000E+00  0.00000000000E+00 -0.27300680737E+04  0.27300680737E+04  0.25500000920E-02 0. -1.
    10030    2    1    2    0    0  0.00000000000E+00  0.00000000000E+00 -0.21576826614E+04  0.33024534861E+04  0.25001209091E+04 0.  0.
        1    1    3    3  502    0  0.11356994154E+03  0.98971514764E+03 -0.20763019375E+04  0.23029250836E+04  0.50400001928E-02 0. -1.
       -1    1    3    3    0  502 -0.11356994154E+03 -0.98971514764E+03 -0.81380723934E+02  0.99952840247E+03  0.50400001928E-02 0.  1.
</event>
<event>
 5   0  0.1501747E-06  0.2499096E+04  0.7818609E-02  0.8403308E-01
       -1   -1    0    0    0  501  0.00000000000E+00  0.00000000000E+00  0.81495210221E+03  0.81495210222E+03  0.50400001928E-02 0.  1.
        1   -1    0    0  501    0  0.00000000000E+00  0.00000000000E+00 -0.19159039747E+04  0.19159039747E+04  0.50400001928E-02 0. -1.
    10030    2    1    2    0    0  0.00000000000E+00  0.00000000000E+00 -0.11009518725E+04  0.27308560769E+04  0.24990958140E+04 0.  0.
        2    1    3    3  502    0  0.30721338656E+03 -0.10498403259E+03 -0.18690115329E+04  0.18969991624E+04  0.25500000920E-02 0. -1.
       -2    1    3    3    0  502 -0.30721338656E+03  0.10498403259E+03  0.76805966040E+03  0.83385691454E+03  0.25500000920E-02 0.  1.
</event>
<event>
 5   0  0.1519145E-06  0.2514593E+04  0.7818609E-02  0.8397805E-01
       -1   -1    0    0    0  501  0.00000000000E+00  0.00000000000E+00  0.12778382027E+04  0.12778382027E+04  0.50400001928E-02 0. -1.
        1   -1    0    0  501    0  0.00000000000E+00  0.00000000000E+00 -0.12370849224E+04  0.12370849224E+04  0.50400001928E-02 0.  1.
    10030    2    1    2    0    0  0.00000000000E+00  0.00000000000E+00  0.40753280263E+02  0.25149231251E+04  0.25145929084E+04 0.  0.
        4    1    3    3  502    0 -0.10751652962E+04  0.96676597007E+02 -0.62427451172E+03  0.12470152595E+04  0.12699999809E+01 0.  1.
       -4    1    3    3    0  502  0.10751652962E+04 -0.96676597007E+02  0.66502779198E+03  0.12679078656E+04  0.12699999809E+01 0. -1.
</event>
<event>
 5   0  0.1574896E-06  0.2503402E+04  0.7818609E-02  0.8401775E-01
       -1   -1    0    0    0  501  0.00000000000E+00  0.00000000000E+00  0.20095660097E+04  0.20095660097E+04  0.50400001928E-02 0.  1.
        1   -1    0    0  501    0  0.00000000000E+00  0.00000000000E+00 -0.77964854842E+03  0.77964854843E+03  0.50400001928E-02 0. -1.
    10030    2    1    2    0    0  0.00000000000E+00  0.00000000000E+00  0.12299174613E+04  0.27892145582E+04  0.25034018634E+04 0.  0.
        3    1    3    3  502    0 -0.89041132868E+02 -0.11684579786E+03 -0.77001023172E+03  0.78389861014E+03  0.10100000352E+00 0. -1.
       -3    1    3    3    0  502  0.89041132868E+02  0.11684579786E+03  0.19999276930E+04  0.20053159480E+04  0.10100000352E+00 0.  1.
</event>
<event>
 5   0  0.1519145E-06  0.2504806E+04  0.7818609E-02  0.8401275E-01
       -1   -1    0    0    0  501  0.00000000000E+00  0.00000000000E+00  0.11205384923E+04  0.11205384923E+04  0.50400001928E-02 0.  1.
        1   -1    0    0  501    0  0.00000000000E+00  0.00000000000E+00 -0.13997849437E+04  0.13997849437E+04  0.50400001928E-02 0. -1.
    10030    2    1    2    0    0  0.00000000000E+00  0.00000000000E+00 -0.27924645142E+03  0.25203234360E+04  0.25048057093E+04 0.  0.
        4    1    3    3  502    0  0.11116602731E+04  0.66116608982E+01 -0.71997984277E+03  0.13244639911E+04  0.12699999809E+01 0. -1.
       -4    1    3    3    0  502 -0.11116602731E+04 -0.66116608982E+01  0.44073339135E+03  0.11958594449E+04  0.12699999809E+01 0.  1.
</event>
<event>
 5   0  0.3924441E-06  0.2501723E+04  0.7818609E-02  0.8402372E-01
       -2   -1    0    0    0  501  0.00000000000E+00  0.00000000000E+00  0.92367144728E+03  0.92367144728E+03  0.25500000920E-02 0. -1.
        2   -1    0    0  501    0  0.00000000000E+00  0.00000000000E+00 -0.16939517703E+04  0.16939517703E+04  0.25500000920E-02 0.  1.
    10030    2    1    2    0    0  0.00000000000E+00  0.00000000000E+00 -0.77028032307E+03  0.26176232176E+04  0.25017233127E+04 0.  0.
        2    1    3    3  502    0 -0.98208496125E+03  0.21751874398E+03  0.39284508556E+03  0.10798761671E+04  0.25500000920E-02 0. -1.
       -2    1    3    3    0  502  0.98208496125E+03 -0.21751874398E+03 -0.11631254086E+04  0.15377470505E+04  0.25500000920E-02 0.  1.
</event>
<event>
 5   0  0.3808293E-06  0.2498963E+04  0.7818609E-02  0.8403355E-01
       -2   -1    0    0    0  501  0.00000000000E+00  0.00000000000E+00  0.87845899426E+03  0.87845899426E+03  0.25500000920E-02 0.  1.
        2   -1    0    0  501    0  0.00000000000E+00  0.00000000000E+00 -0.17772079373E+04  0.17772079373E+04  0.25500000920E-02 0. -1.
    10030    2    1    2    0    0  0.00000000000E+00  0.00000000000E+00 -0.89874894301E+03  0.26556669315E+04  0.24989632228E+04 0.  0.
        1    1    3    3  502    0 -0.65591954336E+03  0.10565241503E+04 -0.32039413344E+03  0.12841830587E+04  0.50400001928E-02 0. -1.
       -1    1    3    3    0  502  0.65591954336E+03 -0.10565241503E+04 -0.57835480957E+03  0.13714838728E+04  0.50400001928E-02 0.  1.
</event>
<event>
 5   0  0.1553604E-06  0.2502435E+04  0.7818609E-02  0.8402119E-01
       -1   -1    0    0    0  501  0.00000000000E+00  0.00000000000E+00  0.67764190418E+03  0.67764190419E+03  0.50400001928E-02 0. -1.
        1   -1    0    0  501    0  0.00000000000E+00  0.00000000000E+00 -0.23102831331E+04  0.23102831331E+04  0.50400001928E-02 0.  1.
    10030    2    1    2    0    0  0.00000000000E+00  0.00000000000E+00 -0.16326412290E+04  0.29879250373E+04  0.25024345439E+04 0.  0.
        1    1    3    3  502    0 -0.46550816864E+03  0.62143052354E+03 -0.19878303322E+04  0.21340907151E+04  0.50400001928E-02 0.  1.
       -1    1    3    3    0  502  0.46550816864E+03 -0.62143052354E+03  0.35518910328E+03  0.85383432220E+03  0.50400001928E-02 0. -1.
</event>
<event>
 5   0  0.3924441E-06  0.2499041E+04  0.7818609E-02  0.8403327E-01
       -2   -1    0    0    0  501  0.00000000000E+00  0.00000000000E+00  0.12299874764E+04  0.12299874764E+04  0.25500000920E-02 0.  1.
        2   -1    0    0  501    0  0.00000000000E+00  0.00000000000E+00 -0.12693634772E+04  0.12693634772E+04  0.25500000920E-02 0. -1.
    10030    2    1    2    0    0  0.00000000000E+00  0.00000000000E+00 -0.39376000821E+02  0.24993509535E+04  0.24990407599E+04 0.  0.
        2    1    3    3  502    0 -0.56161290419E+03  0.10053440815E+04  0.46532106076E+03  0.12420344061E+04  0.25500000920E-02 0.  1.
       -2    1    3    3    0  502  0.56161290419E+03 -0.10053440815E+04 -0.50469706158E+03  0.12573165474E+04  0.25500000920E-02 0. -1.
</event>
<event>
 5   0  0.1574896E-06  0.2505730E+04  0.7818609E-02  0.8400947E-01
        1   -1    0    0  501    0  0.00000000000E+00  0.00000000000E+00  0.14405249333E+04  0.14405249333E+04  0.50400001928E-02 0.  1.
       -1   -1    0    0    0  501  0.00000000000E+00  0.00000000000E+00 -0.10896516417E+04  0.10896516417E+04  0.50400001928E-02 0. -1.
    10030    2    1    2    0    0  0.00000000000E+00  0.00000000000E+00  0.35087329165E+03  0.25301765750E+04  0.25057297208E+04 0.  0.
        3    1    3    3  502    0  0.27752348452E+03  0.44139584236E+03  0.13257706747E+04  0.14246113386E+04  0.10100000352E+00 0.  1.
       -3    1    3    3    0  502 -0.27752348452E+03 -0.44139584236E+03 -0.97489738304E+03  0.11055652363E+04  0.10100000352E+00 0. -1.
</event>
<event>
 5   0  0.3808293E-06  0.2492768E+04  0.7818609E-02  0.8405566E-01
        2   -1    0    0  501    0  0.00000000000E+00  0.00000000000E+00  0.14810545680E+04  0.14810545680E+04  0.25500000920E-02 0.  1.
       -2   -1    0    0    0  501  0.00000000000E+00  0.00000000000E+00 -0.10488968908E+04  0.10488968908E+04  0.25500000920E-02 0. -1.
    10030    2    1    2    0    0  0.00000000000E+00  0.00000000000E+00  0.43215767722E+03  0.25299514588E+04  0.24927683659E+04 0.  0.
        1    1    3    3  502    0  0.10847470044E+04 -0.59610279264E+03  0.67405094077E+02  0.12395797876E+04  0.50400001928E-02 0.  1.
       -1    1    3    3    0  502 -0.10847470044E+04  0.59610279264E+03  0.36475258314E+03  0.12903716712E+04  0.50400001928E-02 0. -1.
</event>
<event>
 5   0  0.1574896E-06  0.2505361E+04  0.7818609E-02  0.8401078E-01
       -1   -1    0    0    0  501  0.00000000000E+00  0.00000000000E+00  0.91024712033E+03  0.91024712035E+03  0.50400001928E-02 0. -1.
        1   -1    0    0  501    0  0.00000000000E+00  0.00000000000E+00 -0.17239367900E+04  0.17239367900E+04  0.50400001928E-02 0.  1.
    10030    2    1    2    0    0  0.00000000000E+00  0.00000000000E+00 -0.81368966969E+03  0.26341839104E+04  0.25053610509E+04 0.  0.
        3    1    3    3  502    0  0.74815359388E+02 -0.91478337138E+03 -0.13031956385E+04  0.15939714041E+04  0.10100000352E+00 0.  1.
       -3    1    3    3    0  502 -0.74815359388E+02  0.91478337138E+03  0.48950596883E+03  0.10402125063E+04  0.10100000352E+00 0. -1.
</event>
<event>
 5   0  0.3814260E-06  0.2499512E+04  0.7818609E-02  0.8403159E-01
        2   -1    0    0  501    0  0.00000000000E+00  0.00000000000E+00  0.27889169038E+04  0.27889169038E+04  0.25500000920E-02 0.  1.
       -2   -1    0    0    0  501  0.00000000000E+00  0.00000000000E+00 -0.56003473713E+03  0.56003473714E+03  0.25500000920E-02 0. -1.
    10030    2    1    2    0    0  0.00000000000E+00  0.00000000000E+00  0.22288821667E+04  0.33489516409E+04  0.24995122285E+04 0.  0.
        5    1    3    3  502    0 -0.12639911116E+03 -0.37404520965E+03 -0.47426458363E+03  0.61711874015E+03  0.46999998093E+01 0. -1.
       -5    1    3    3    0  502  0.12639911116E+03  0.37404520965E+03  0.27031467503E+04  0.27318329008E+04  0.46999998093E+01 0.  1.
</event>
<event>
 5   0  0.3808293E-06  0.2569845E+04  0.7818609E-02  0.8378517E-01
       -2   -1    0    0    0  501  0.00000000000E+00  0.00000000000E+00  0.14931805591E+04  0.14931805591E+04  0.25500000920E-02 0. -1.
        2   -1    0    0  501    0  0.00000000000E+00  0.00000000000E+00 -0.11057107017E+04  0.11057107017E+04  0.25500000920E-02 0.  1.
    10030    2    1    2    0    0  0.00000000000E+00  0.00000000000E+00  0.38746985737E+03  0.25988912608E+04  0.25698449165E+04 0.  0.
        1    1    3    3  502    0 -0.12124421172E+04  0.39804929038E+03  0.34565468165E+03  0.13220954141E+04  0.50400001928E-02 0. -1.
       -1    1    3    3    0  502  0.12124421172E+04 -0.39804929038E+03  0.41815175718E+02  0.12767958466E+04  0.50400001928E-02 0.  1.
</event>
<event>
 5   0  0.1501747E-06  0.2497670E+04  0.7818609E-02  0.8403816E-01
       -1   -1    0    0    0  501  0.00000000000E+00  0.00000000000E+00  0.11999579058E+04  0.11999579058E+04  0.50400001928E-02 0.  1.
        1   -1    0    0  501    0  0.00000000000E+00  0.00000000000E+00 -0.12997029051E+04  0.12997029051E+04  0.50400001928E-02 0. -1.
    10030    2    1    2    0    0  0.00000000000E+00  0.00000000000E+00 -0.99744999235E+02  0.24996608109E+04  0.24976699351E+04 0.  0.
        2    1    3    3  502    0 -0.42780572341E+03 -0.11732394113E+04 -0.40903041297E+02  0.12494724935E+04  0.25500000920E-02 0. -1.
       -2    1    3    3    0  502  0.42780572341E+03  0.11732394113E+04 -0.58841957937E+02  0.12501883175E+04  0.25500000920E-02 0.  1.
</event>
<event>
 5   0  0.3924441E-06  0.2500502E+04  0.7818609E-02  0.8402807E-01
       -2   -1    0    0    0  501  0.00000000000E+00  0.00000000000E+00  0.10636209064E+04  0.10636209064E+04  0.25500000920E-02 0. -1.
        2   -1    0    0  501    0  0.00000000000E+00  0.00000000000E+00 -0.14696289071E+04  0.14696289071E+04  0.25500000920E-02 0.  1.
    10030    2    1    2    0    0  0.00000000000E+00  0.00000000000E+00 -0.40600800063E+03  0.25332498135E+04  0.25005023737E+04 0.  0.
        2    1    3    3  502    0 -0.76265365532E+03 -0.89626400495E+03 -0.63066779457E+03  0.13351672673E+04  0.25500000920E-02 0.  1.
       -2    1    3    3    0  502  0.76265365532E+03  0.89626400495E+03  0.22465979394E+03  0.11980825462E+04  0.25500000920E-02 0. -1.
</event>
<event>
 5   0  0.3808293E-06  0.2468709E+04  0.7818609E-02  0.8414219E-01
        2   -1    0    0  501    0  0.00000000000E+00  0.00000000000E+00  0.62750203315E+03  0.62750203315E+03  0.25500000920E-02 0.  1.
       -2   -1    0    0    0  501  0.00000000000E+00  0.00000000000E+00 -0.24280897942E+04  0.24280897942E+04  0.25500000920E-02 0. -1.
    10030    2    1    2    0    0  0.00000000000E+00  0.00000000000E+00 -0.18005877610E+04  0.30555918273E+04  0.24687092032E+04 0.  0.
        1    1    3    3  502    0  0.23066250469E+03 -0.77435189699E+01 -0.24011468495E+04  0.24122129562E+04  0.50400001928E-02 0. -1.
       -1    1    3    3    0  502 -0.23066250469E+03  0.77435189699E+01  0.60055908843E+03  0.64337887118E+03  0.50400001928E-02 0.  1.
</event>
<event>
 5   0  0.1501747E-06  0.2500358E+04  0.7818609E-02  0.8402858E-01
        1   -1    0    0  501    0  0.00000000000E+00  0.00000000000E+00  0.20260982190E+04  0.20260982190E+04  0.50400001928E-02 0.  1.
       -1   -1    0    0    0  501  0.00000000000E+00  0.00000000000E+00 -0.77140771556E+03  0.77140771558E+03  0.50400001928E-02 0. -1.
    10030    2    1    2    0    0  0.00000000000E+00  0.00000000000E+00  0.12546905034E+04  0.27975059346E+04  0.25003582132E+04 0.  0.
        2    1    3    3  502    0 -0.46605602285E+03  0.21178983480E+03  0.19034554474E+04  0.19710925373E+04  0.25500000920E-02 0.  1.
       -2    1    3    3    0  502  0.46605602285E+03 -0.21178983480E+03 -0.64876494398E+03  0.82641339722E+03  0.25500000920E-02 0. -1.
</event>
<event>
 5   0  0.1519145E-06  0.2505487E+04  0.7818609E-02  0.8401033E-01
        1   -1    0    0  501    0  0.00000000000E+00  0.00000000000E+00  0.17434617587E+04  0.17434617587E+04  0.50400001928E-02 0. -1.
       -1   -1    0    0    0  501  0.00000000000E+00  0.00000000000E+00 -0.90014404861E+03  0.90014404862E+03  0.50400001928E-02 0.  1.
    10030    2    1    2    0    0  0.00000000000E+00  0.00000000000E+00  0.84331771005E+03  0.26436058073E+04  0.25054873586E+04 0.  0.
        4    1    3    3  502    0  0.23520026399E+03 -0.53359777754E+03  0.15915268023E+04  0.16949940790E+04  0.12699999809E+01 0. -1.
       -4    1    3    3    0  502 -0.23520026399E+03  0.53359777754E+03 -0.74820909229E+03  0.94861172830E+03  0.12699999809E+01 0.  1.
</event>
<event>
 5   0  0.3814260E-06  0.2504729E+04  0.7818609E-02  0.8401303E-01
       -2   -1    0    0    0  501  0.00000000000E+00  0.00000000000E+00  0.13738212543E+04  0.13738212543E+04  0.25500000920E-02 0. -1.
        2   -1    0    0  501    0  0.00000000000E+00  0.00000000000E+00 -0.11416453286E+04  0.11416453286E+04  0.25500000920E-02 0.  1.
    10030    2    1    2    0    0  0.00000000000E+00  0.00000000000E+00  0.23217592563E+03  0.25154665829E+04  0.25047288215E+04 0.  0.
        5    1    3    3  502    0 -0.10506296487E+04  0.64049718477E+03  0.35018643192E+03  0.12793404275E+04  0.46999998093E+01 0. -1.
       -5    1    3    3    0  502  0.10506296487E+04 -0.64049718477E+03 -0.11801050629E+03  0.12361261554E+04  0.46999998093E+01 0.  1.
</event>
<event>
 5   0  0.1541852E-06  0.2492789E+04  0.7818609E-02  0.8405559E-01
       -1   -1    0    0    0  501  0.00000000000E+00  0.00000000000E+00  0.73196602799E+03  0.73196602801E+03  0.50400001928E-02 0.  1.
        1   -1    0    0  501    0  0.00000000000E+00  0.00000000000E+00 -0.21223654444E+04  0.21223654444E+04  0.50400001928E-02 0. -1.
    10030    2    1    2    0    0  0.00000000000E+00  0.00000000000E+00 -0.13903994164E+04  0.28543314724E+04  0.24927891241E+04 0.  0.
        5    1    3    3  502    0 -0.75709668115E+03 -0.36196275727E+03  0.36001406325E+03  0.91315093933E+03  0.46999998093E+01 0.  1.
       -5    1    3    3    0  502  0.75709668115E+03  0.36196275727E+03 -0.17504134797E+04  0.19411805331E+04  0.46999998093E+01 0. -1.
</event>
<event>
 5   0  0.1574896E-06  0.2502895E+04  0.7818609E-02  0.8401955E-01
       -1   -1    0    0    0  501  0.00000000000E+00  0.00000000000E+00  0.12836422581E+04  0.12836422581E+04  0.50400001928E-02 0. -1.
        1   -1    0    0  501    0  0.00000000000E+00  0.00000000000E+00 -0.12200600295E+04  0.12200600295E+04  0.50400001928E-02 0.  1.
    10030    2    1    2    0    0  0.00000000000E+00  0.00000000000E+00  0.63582228603E+02  0.25037022876E+04  0.25028948130E+04 0.  0.
        3    1    3    3  502    0 -0.12437249979E+04  0.12357751439E+03  0.95035941069E+02  0.12534572641E+04  0.10100000352E+00 0. -1.
       -3    1    3    3    0  502  0.12437249979E+04 -0.12357751439E+03 -0.31453712466E+02  0.12502450235E+04  0.10100000352E+00 0.  1.
</event>
<event>
 5   0  0.3713394E-06  0.2499881E+04  0.7818609E-02  0.8403028E-01
        2   -1    0    0  501    0  0.00000000000E+00  0.00000000000E+00  0.20060126760E+04  0.20060126760E+04  0.25500000920E-02 0. -1.
       -2   -1    0    0    0  501  0.00000000000E+00  0.00000000000E+00 -0.77883410130E+03  0.77883410131E+03  0.25500000920E-02 0.  1.
    10030    2    1    2    0    0  0.00000000000E+00  0.00000000000E+00  0.12271785747E+04  0.27848467773E+04  0.24998808609E+04 0.  0.
        3    1    3    3  502    0 -0.30619311941E+03 -0.51405707528E+03 -0.60893343454E+03  0.85370301682E+03  0.10100000352E+00 0.  1.
       -3    1    3    3    0  502  0.30619311941E+03  0.51405707528E+03  0.18361120092E+04  0.19311437605E+04  0.10100000352E+00 0. -1.
</event>
<event>
 5   0  0.3814260E-06  0.2495416E+04  0.7818609E-02  0.8404620E-01
        2   -1    0    0  501    0  0.00000000000E+00  0.00000000000E+00  0.89718267894E+03  0.89718267894E+03  0.25500000920E-02 0. -1.
       -2   -1    0    0    0  501  0.00000000000E+00  0.00000000000E+00 -0.17351820654E+04  0.17351820654E+04  0.25500000920E-02 0.  1.
    10030    2    1    2    0    0  0.00000000000E+00  0.00000000000E+00 -0.83799938642E+03  0.26323647443E+04  0.24954160325E+04 0.  0.
        5    1    3    3  502    0  0.18764442836E+02  0.18272832777E+02 -0.17348827021E+04  0.17350867647E+04  0.46999998093E+01 0.  1.
       -5    1    3    3    0  502 -0.18764442836E+02 -0.18272832777E+02  0.89688331572E+03  0.89727797964E+03  0.46999998093E+01 0. -1.
</event>
<event>
 5   0  0.1541852E-06  0.2497170E+04  0.7818609E-02  0.8403994E-01
        1   -1    0    0  501    0  0.00000000000E+00  0.00000000000E+00  0.16921576873E+04  0.16921576873E+04  0.50400001928E-02 0.  1.
       -1   -1    0    0    0  501  0.00000000000E+00  0.00000000000E+00 -0.92128816820E+03  0.92128816822E+03  0.50400001928E-02 0. -1.
    10030    2    1    2    0    0  0.00000000000E+00  0.00000000000E+00  0.77086951914E+03  0.26134458556E+04  0.24971702834E+04 0.  0.
        5    1    3    3  502    0  0.10777969545E+04  0.58369474767E+02 -0.27139458659E+03  0.11129826514E+04  0.46999998093E+01 0. -1.
       -5    1    3    3    0  502 -0.10777969545E+04 -0.58369474767E+02  0.10422641057E+04  0.15004632041E+04  0.46999998093E+01 0.  1.
</event>
<event>
 5   0  0.1501747E-06  0.2503046E+04  0.7818609E-02  0.8401901E-01
       -1   -1    0    0    0  501  0.00000000000E+00  0.00000000000E+00  0.86890715530E+03  0.86890715532E+03  0.50400001928E-02 0.  1.
        1   -1    0    0  501    0  0.00000000000E+00  0.00000000000E+00 -0.18026204080E+04  0.18026204080E+04  0.50400001928E-02 0. -1.
    10030    2    1    2    0    0  0.00000000000E+00  0.00000000000E+00 -0.93371325265E+03  0.26715275633E+04  0.25030459611E+04 0.  0.
        2    1    3    3  502    0 -0.81468820900E+02  0.88136649158E+03 -0.14112098573E+04  0.16658203152E+04  0.25500000920E-02 0. -1.
       -2    1    3    3    0  502  0.81468820900E+02 -0.88136649158E+03  0.47749660468E+03  0.10057072480E+04  0.25500000920E-02 0.  1.
</event>
<event>
 5   0  0.3808293E-06  0.2498344E+04  0.7818609E-02  0.8403576E-01
        2   -1    0    0  501    0  0.00000000000E+00  0.00000000000E+00  0.12401904034E+04  0.12401904034E+04  0.25500000920E-02 0.  1.
       -2   -1    0    0    0  501  0.00000000000E+00  0.00000000000E+00 -0.12582187943E+04  0.12582187943E+04  0.25500000920E-02 0. -1.
    10030    2    1    2    0    0  0.00000000000E+00  0.00000000000E+00 -0.18028390881E+02  0.24984091977E+04  0.24983441509E+04 0.  0.
        1    1    3    3  502    0  0.80727505566E+03 -0.47524578964E+03 -0.83540082243E+03  0.12551677618E+04  0.50400001928E-02 0. -1.
       -1    1    3    3    0  502 -0.80727505566E+03  0.47524578964E+03  0.81737243155E+03  0.12432414359E+04  0.50400001928E-02 0.  1.
</event>
<event>
 5   0  0.1287375E-06  0.2501847E+04  0.7818609E-02  0.8402328E-01
       -4   -1    0    0    0  501  0.00000000000E+00  0.00000000000E+00  0.14585197240E+04  0.14585202769E+04  0.12699999809E+01 0. -1.
        4   -1    0    0  501    0  0.00000000000E+00  0.00000000000E+00 -0.10728736995E+04  0.10728744512E+04  0.12699999809E+01 0.  1.
    10030    2    1    2    0    0  0.00000000000E+00  0.00000000000E+00  0.38564602446E+03  0.25313947280E+04  0.25018466006E+04 0.  0.
        2    1    3    3  502    0  0.18257725407E+03  0.62584589006E+03  0.12730422669E+04  0.14302636628E+04  0.25500000920E-02 0. -1.
       -2    1    3    3    0  502 -0.18257725407E+03 -0.62584589006E+03 -0.88739624241E+03  0.11011310653E+04  0.25500000920E-02 0.  1.
</event>
<event>
 5   0  0.1553604E-06  0.2544419E+04  0.7818609E-02  0.8387330E-01
       -1   -1    0    0    0  501  0.00000000000E+00  0.00000000000E+00  0.19703786439E+04  0.19703786439E+04  0.50400001928E-02 0. -1.
        1   -1    0    0  501    0  0.00000000000E+00  0.00000000000E+00 -0.82142466683E+03  0.82142466684E+03  0.50400001928E-02 0.  1.
    10030    2    1    2    0    0  0.00000000000E+00  0.00000000000E+00  0.11489539771E+04  0.27918033107E+04  0.25444194789E+04 0.  0.
        1    1    3    3  502    0  0.81638533966E+03  0.75040317439E+03  0.12587517619E+04  0.16775118316E+04  0.50400001928E-02 0. -1.
       -1    1    3    3    0  502 -0.81638533966E+03 -0.75040317439E+03 -0.10979778484E+03  0.11142914792E+04  0.50400001928E-02 0.  1.
</event>
<event>
 5   0  0.3924441E-06  0.2501179E+04  0.7818609E-02  0.8402566E-01
        2   -1    0    0  501    0  0.00000000000E+00  0.00000000000E+00  0.17876111367E+04  0.17876111367E+04  0.25500000920E-02 0.  1.
       -2   -1    0    0    0  501  0.00000000000E+00  0.00000000000E+00 -0.87489628466E+03  0.87489628466E+03  0.25500000920E-02 0. -1.
    10030    2    1    2    0    0  0.00000000000E+00  0.00000000000E+00  0.91271485204E+03  0.26625074214E+04  0.25011791954E+04 0.  0.
        2    1    3    3  502    0 -0.33253615353E+02  0.57815946140E+03 -0.72355915995E+03  0.92677506640E+03  0.25500000920E-02 0. -1.
       -2    1    3    3    0  502  0.33253615353E+02 -0.57815946140E+03  0.16362740120E+04  0.17357323550E+04  0.25500000920E-02 0.  1.
</event>
<event>
 5   0  0.1501747E-06  0.2497328E+04  0.7818609E-02  0.8403938E-01
        1   -1    0    0  501    0  0.00000000000E+00  0.00000000000E+00  0.17208057469E+04  0.17208057469E+04  0.50400001928E-02 0. -1.
       -1   -1    0    0    0  501  0.00000000000E+00  0.00000000000E+00 -0.90606524595E+03  0.90606524596E+03  0.50400001928E-02 0.  1.
    10030    2    1    2    0    0  0.00000000000E+00  0.00000000000E+00  0.81474050096E+03  0.26268709929E+04  0.24973283984E+04 0.  0.
        2    1    3    3  502    0 -0.38553328135E+02  0.51280672073E+02  0.17190709177E+04  0.17202676788E+04  0.25500000920E-02 0. -1.
       -2    1    3    3    0  502  0.38553328135E+02 -0.51280672073E+02 -0.90433041677E+03  0.90660331410E+03  0.25500000920E-02 0.  1.
</event>
<event>
 5   0  0.3808293E-06  0.2507588E+04  0.7818609E-02  0.8400287E-01
       -2   -1    0    0    0  501  0.00000000000E+00  0.00000000000E+00  0.92946116020E+03  0.92946116020E+03  0.25500000920E-02 0.  1.
        2   -1    0    0  501    0  0.00000000000E+00  0.00000000000E+00 -0.16913014136E+04  0.16913014136E+04  0.25500000920E-02 0. -1.
    10030    2    1    2    0    0  0.00000000000E+00  0.00000000000E+00 -0.76184025336E+03  0.26207625738E+04  0.25075876647E+04 0.  0.
        1    1    3    3  502    0 -0.11376329058E+04 -0.59668427288E+02  0.16638441815E+03  0.11512830773E+04  0.50400001928E-02 0.  1.
       -1    1    3    3    0  502  0.11376329058E+04  0.59668427288E+02 -0.92822467152E+03  0.14694794964E+04  0.50400001928E-02 0. -1.
</event>
<event>
 5   0  0.1574896E-06  0.2503545E+04  0.7818609E-02  0.8401724E-01
        1   -1    0    0  501    0  0.00000000000E+00  0.00000000000E+00  0.18999974290E+04  0.18999974290E+04  0.50400001928E-02 0.  1.
       -1   -1    0    0    0  501  0.00000000000E+00  0.00000000000E+00 -0.82470322705E+03  0.82470322707E+03  0.50400001928E-02 0. -1.
    10030    2    1    2    0    0  0.00000000000E+00  0.00000000000E+00  0.10752942020E+04  0.27247006561E+04  0.25035446959E+04 0.  0.
        3    1    3    3  502    0 -0.43727570521E+03  0.10825461394E+03 -0.73342858644E+03  0.86072446544E+03  0.10100000352E+00 0. -1.
       -3    1    3    3    0  502  0.43727570521E+03 -0.10825461394E+03  0.18087227884E+04  0.18639761906E+04  0.10100000352E+00 0.  1.
</event>
<event>
 5   0  0.1574896E-06  0.2531421E+04  0.7818609E-02  0.8391876E-01
        1   -1    0    0  501    0  0.00000000000E+00  0.00000000000E+00  0.67814978106E+03  0.67814978108E+03  0.50400001928E-02 0. -1.
       -1   -1    0    0    0  501  0.00000000000E+00  0.00000000000E+00 -0.23623439382E+04  0.23623439382E+04  0.50400001928E-02 0.  1.
    10030    2    1    2    0    0  0.00000000000E+00  0.00000000000E+00 -0.16841941571E+04  0.30404937193E+04  0.25314209642E+04 0.  0.
        3    1    3    3  502    0  0.88985785331E+03  0.65302215329E+03 -0.15861386285E+04  0.19323873035E+04  0.10100000352E+00 0.  1.
       -3    1    3    3    0  502 -0.88985785331E+03 -0.65302215329E+03 -0.98055528645E+02  0.11081064158E+04  0.10100000352E+00 0. -1.
</event>
<event>
 5   0  0.3971759E-06  0.2498799E+04  0.7818609E-02  0.8403414E-01
       -2   -1    0    0    0  501  0.00000000000E+00  0.00000000000E+00  0.11654455117E+04  0.11654455117E+04  0.25500000920E-02 0. -1.
        2   -1    0    0  501    0  0.00000000000E+00  0.00000000000E+00 -0.13394011204E+04  0.13394011204E+04  0.25500000920E-02 0.  1.
    10030    2    1    2    0    0  0.00000000000E+00  0.00000000000E+00 -0.17395560872E+03  0.25048466320E+04  0.24987989307E+04 0.  0.
        4    1    3    3  502    0  0.10346454955E+04 -0.66407331913E+03  0.13607531133E+03  0.12369328105E+04  0.12699999809E+01 0.  1.
       -4    1    3    3    0  502 -0.10346454955E+04  0.66407331913E+03 -0.31003092005E+03  0.12679138215E+04  0.12699999809E+01 0. -1.
</event>
<event>
 5   0  0.3808293E-06  0.2488183E+04  0.7818609E-02  0.8407207E-01
       -2   -1    0    0    0  501  0.00000000000E+00  0.00000000000E+00  0.14260671563E+04  0.14260671563E+04  0.25500000920E-02 0. -1.
        2   -1    0    0  501    0  0.00000000000E+00  0.00000000000E+00 -0.10853372880E+04  0.10853372880E+04  0.25500000920E-02 0.  1.
    10030    2    1    2    0    0  0.00000000000E+00  0.00000000000E+00  0.34072986833E+03  0.25114044443E+04  0.24881831604E+04 0.  0.
        1    1    3    3  502    0  0.33833814170E+03  0.55898359767E+03 -0.89820732285E+03  0.11107257787E+04  0.50400001928E-02 0.  1.
       -1    1    3    3    0  502 -0.33833814170E+03 -0.55898359767E+03  0.12389371912E+04  0.14006786656E+04  0.50400001928E-02 0. -1.
</event>
<event>
 5   0  0.1501747E-06  0.2498269E+04  0.7818609E-02  0.8403603E-01
       -1   -1    0    0    0  501  0.00000000000E+00  0.00000000000E+00  0.75995254412E+03  0.75995254414E+03  0.50400001928E-02 0. -1.
        1   -1    0    0  501    0  0.00000000000E+00  0.00000000000E+00 -0.20532024151E+04  0.20532024151E+04  0.50400001928E-02 0.  1.
    10030    2    1    2    0    0  0.00000000000E+00  0.00000000000E+00 -0.12932498710E+04  0.28131549593E+04  0.24982685196E+04 0.  0.
        2    1    3    3  502    0 -0.10427993821E+04  0.67191225913E+03 -0.81150362895E+03  0.14823747081E+04  0.25500000920E-02 0. -1.
       -2    1    3    3    0  502  0.10427993821E+04 -0.67191225913E+03 -0.48174624205E+03  0.13307802512E+04  0.25500000920E-02 0.  1.
</event>
<event>
 5   0  0.1519145E-06  0.2499708E+04  0.7818609E-02  0.8403090E-01
       -1   -1    0    0    0  501  0.00000000000E+00  0.00000000000E+00  0.10592741971E+04  0.10592741971E+04  0.50400001928E-02 0. -1.
        1   -1    0    0  501    0  0.00000000000E+00  0.00000000000E+00 -0.14747218500E+04  0.14747218500E+04  0.50400001928E-02 0.  1.
    10030    2    1    2    0    0  0.00000000000E+00  0.00000000000E+00 -0.41544765284E+03  0.25339960471E+04  0.24997078258E+04 0.  0.
        4    1    3    3  502    0 -0.17507029360E+03 -0.66997438220E+02 -0.14603903754E+04  0.14723722104E+04  0.12699999809E+01 0.  1.
       -4    1    3    3    0  502  0.17507029360E+03  0.66997438220E+02  0.10449427225E+04  0.10616238367E+04  0.12699999809E+01 0. -1.
</event>
<event>
 5   0  0.1541852E-06  0.2499193E+04  0.7818609E-02  0.8403273E-01
       -1   -1    0    0    0  501  0.00000000000E+00  0.00000000000E+00  0.18293386638E+04  0.18293386638E+04  0.50400001928E-02 0. -1.
        1   -1    0    0  501    0  0.00000000000E+00  0.00000000000E+00 -0.85358254959E+03  0.85358254961E+03  0.50400001928E-02 0.  1.
    10030    2    1    2    0    0  0.00000000000E+00  0.00000000000E+00  0.97575611425E+03  0.26829212135E+04  0.24991931184E+04 0.  0.
        5    1    3    3  502    0 -0.10406094969E+04 -0.49413472344E+03 -0.31898578633E+02  0.11524221706E+04  0.46999998093E+01 0.  1.
       -5    1    3    3    0  502  0.10406094969E+04  0.49413472344E+03  0.10076546929E+04  0.15304990428E+04  0.46999998093E+01 0. -1.
</event>
<event>
 5   0  0.3924441E-06  0.2497822E+04  0.7818609E-02  0.8403762E-01
       -2   -1    0    0    0  501  0.00000000000E+00  0.00000000000E+00  0.84500826231E+03  0.84500826231E+03  0.25500000920E-02 0. -1.
        2   -1    0    0  501    0  0.00000000000E+00  0.00000000000E+00 -0.18458739655E+04  0.18458739655E+04  0.25500000920E-02 0.  1.
    10030    2    1    2    0    0  0.00000000000E+00  0.00000000000E+00 -0.10008657032E+04  0.26908822278E+04  0.24978220530E+04 0.  0.
        2    1    3    3  502    0  0.31583306023E+03  0.18018296105E+03  0.78672181199E+03  0.86668773549E+03  0.25500000920E-02 0. -1.
       -2    1    3    3    0  502 -0.31583306023E+03 -0.18018296105E+03 -0.17875875152E+04  0.18241944923E+04  0.25500000920E-02 0.  1.
</event>
<event>
 5   0  0.1519145E-06  0.2501399E+04  0.7818609E-02  0.8402487E-01
        1   -1    0    0  501    0  0.00000000000E+00  0.00000000000E+00  0.18939749068E+04  0.18939749068E+04  0.50400001928E-02 0.  1.
       -1   -1    0    0    0  501  0.00000000000E+00  0.00000000000E+00 -0.82590839843E+03  0.82590839844E+03  0.50400001928E-02 0. -1.
    10030    2    1    2    0    0  0.00000000000E+00  0.00000000000E+00  0.10680665083E+04  0.27198833052E+04  0.25013994339E+04 0.  0.
        4    1    3    3  502    0  0.55270947873E+03 -0.63509317208E+03  0.15397048377E+04  0.17548571751E+04  0.12699999809E+01 0.  1.
       -4    1    3    3    0  502 -0.55270947873E+03  0.63509317208E+03 -0.47163832934E+03  0.96502613006E+03  0.12699999809E+01 0. -1.
</event>
<event>
 5   0  0.3814260E-06  0.2500047E+04  0.7818609E-02  0.8402969E-01
        2   -1    0    0  501    0  0.00000000000E+00  0.00000000000E+00  0.14358800150E+04  0.14358800150E+04  0.25500000920E-02 0. -1.
       -2   -1    0    0    0  501  0.00000000000E+00  0.00000000000E+00 -0.10882239526E+04  0.10882239526E+04  0.25500000920E-02 0.  1.
    10030    2    1    2    0    0  0.00000000000E+00  0.00000000000E+00  0.34765606236E+03  0.25241039676E+04  0.25000472199E+04 0.  0.
        5    1    3    3  502    0 -0.59555337648E+03 -0.10705416123E+04  0.42480355250E+03  0.12966199583E+04  0.46999998093E+01 0. -1.
       -5    1    3    3    0  502  0.59555337648E+03  0.10705416123E+04 -0.77147490145E+02  0.12274840094E+04  0.46999998093E+01 0.  1.
</event>
<event>
 5   0  0.1541852E-06  0.2499066E+04  0.7818609E-02  0.8403318E-01
        1   -1    0    0  501    0  0.00000000000E+00  0.00000000000E+00  0.13636151001E+04  0.13636151001E+04  0.50400001928E-02 0.  1.
       -1   -1    0    0    0  501  0.00000000000E+00  0.00000000000E+00 -0.11449956252E+04  0.11449956252E+04  0.50400001928E-02 0. -1.
    10030    2    1    2    0    0  0.00000000000E+00  0.00000000000E+00  0.21861947489E+03  0.25086107253E+04  0.24990664850E+04 0.  0.
        5    1    3    3  502    0  0.71814222018E+03  0.37535643342E+03  0.10640945177E+04  0.13375125918E+04  0.46999998093E+01 0.  1.
       -5    1    3    3    0  502 -0.71814222018E+03 -0.37535643342E+03 -0.84547504280E+03  0.11710981336E+04  0.46999998093E+01 0. -1.
</event>
<event>
 5   0  0.1553604E-06  0.2485983E+04  0.7818609E-02  0.8407996E-01
       -1   -1    0    0    0  501  0.00000000000E+00  0.00000000000E+00  0.12076137820E+04  0.12076137821E+04  0.50400001928E-02 0.  1.
        1   -1    0    0  501    0  0.00000000000E+00  0.00000000000E+00 -0.12794053272E+04  0.12794053272E+04  0.50400001928E-02 0. -1.
    10030    2    1    2    0    0  0.00000000000E+00  0.00000000000E+00 -0.71791545119E+02  0.24870191092E+04  0.24859827079E+04 0.  0.
        1    1    3    3  502    0  0.47598037242E+03 -0.49099643726E+03 -0.10743037861E+04  0.12734847629E+04  0.50400001928E-02 0. -1.
       -1    1    3    3    0  502 -0.47598037242E+03  0.49099643726E+03  0.10025122410E+04  0.12135343464E+04  0.50400001928E-02 0.  1.
</event>
<event>
 5   0  0.3924441E-06  0.2511661E+04  0.7818609E-02  0.8398843E-01
       -2   -1    0    0    0  501  0.00000000000E+00  0.00000000000E+00  0.10369069630E+04  0.10369069630E+04  0.25500000920E-02 0.  1.
        2   -1    0    0  501    0  0.00000000000E+00  0.00000000000E+00 -0.15209760276E+04  0.15209760276E+04  0.25500000920E-02 0. -1.
    10030    2    1    2    0    0  0.00000000000E+00  0.00000000000E+00 -0.48406906458E+03  0.25578829906E+04  0.25116613097E+04 0.  0.
        2    1    3    3  502    0 -0.83631163829E+03  0.78493162870E+03  0.27882233236E+03  0.11803714293E+04  0.25500000920E-02 0.  1.
       -2    1    3    3    0  502  0.83631163829E+03 -0.78493162870E+03 -0.76289139693E+03  0.13775115613E+04  0.25500000920E-02 0. -1.
</event>
<event>
 5   0  0.1541852E-06  0.2497677E+04  0.7818609E-02  0.8403814E-01
       -1   -1    0    0    0  501  0.00000000000E+00  0.00000000000E+00  0.13927696661E+04  0.13927696662E+04  0.50400001928E-02 0. -1.
        1   -1    0    0  501    0  0.00000000000E+00  0.00000000000E+00 -0.11197812254E+04  0.11197812254E+04  0.50400001928E-02 0.  1.
    10030    2    1    2    0    0  0.00000000000E+00  0.00000000000E+00  0.27298844078E+03  0.25125508915E+04  0.24976767793E+04 0.  0.
        5    1    3    3  502    0  0.26973719044E+02  0.61631696193E+03 -0.95579017079E+03  0.11375988395E+04  0.46999998093E+01 0.  1.
       -5    1    3    3    0  502 -0.26973719044E+02 -0.61631696193E+03  0.12287786116E+04  0.13749520520E+04  0.46999998093E+01 0. -1.
</event>
<event>
 5   0  0.3808293E-06  0.2515968E+04  0.7818609E-02  0.8397319E-01
       -2   -1    0    0    0  501  0.00000000000E+00  0.00000000000E+00  0.11288631053E+04  0.11288631053E+04  0.25500000920E-02 0.  1.
        2   -1    0    0  501    0  0.00000000000E+00  0.00000000000E+00 -0.14018742357E+04  0.14018742357E+04  0.25500000920E-02 0. -1.
    10030    2    1    2    0    0  0.00000000000E+00  0.00000000000E+00 -0.27301113045E+03  0.25307373410E+04  0.25159682851E+04 0.  0.
        1    1    3    3  502    0 -0.42071270913E+03 -0.10767561244E+04 -0.63552377553E+03  0.13192018058E+04  0.50400001928E-02 0. -1.
       -1    1    3    3    0  502  0.42071270913E+03  0.10767561244E+04  0.36251264507E+03  0.12115355352E+04  0.50400001928E-02 0.  1.
</event>
<event>
 5   0  0.1553604E-06  0.2499822E+04  0.7818609E-02  0.8403049E-01
       -1   -1    0    0    0  501  0.00000000000E+00  0.00000000000E+00  0.10135124436E+04  0.10135124436E+04  0.50400001928E-02 0.  1.
        1   -1    0    0  501    0  0.00000000000E+00  0.00000000000E+00 -0.15414482481E+04  0.15414482481E+04  0.50400001928E-02 0. -1.
    10030    2    1    2    0    0  0.00000000000E+00  0.00000000000E+00 -0.52793580449E+03  0.25549606918E+04  0.24998215782E+04 0.  0.
        1    1    3    3  502    0  0.90950536566E+02 -0.16133186955E+03  0.99941099981E+03  0.10164262486E+04  0.50400001928E-02 0.  1.
       -1    1    3    3    0  502 -0.90950536566E+02  0.16133186955E+03 -0.15273468043E+04  0.15385344432E+04  0.50400001928E-02 0. -1.
</event>
<event>
 5   0  0.1501747E-06  0.2478830E+04  0.7818609E-02  0.8410566E-01
        1   -1    0    0  501    0  0.00000000000E+00  0.00000000000E+00  0.12128638168E+04  0.12128638168E+04  0.50400001928E-02 0. -1.
       -1   -1    0    0    0  501  0.00000000000E+00  0.00000000000E+00 -0.12665474183E+04  0.12665474184E+04  0.50400001928E-02 0.  1.
    10030    2    1    2    0    0  0.00000000000E+00  0.00000000000E+00 -0.53683601569E+02  0.24794112351E+04  0.24788299950E+04 0.  0.
        2    1    3    3  502    0  0.61162659764E+03  0.90389954628E+02 -0.11012873758E+04  0.12629692486E+04  0.25500000920E-02 0.  1.
       -2    1    3    3    0  502 -0.61162659764E+03 -0.90389954628E+02  0.10476037742E+04  0.12164419865E+04  0.25500000920E-02 0. -1.
</event>
<event>
 5   0  0.3971759E-06  0.2505919E+04  0.7818609E-02  0.8400880E-01
        2   -1    0    0  501    0  0.00000000000E+00  0.00000000000E+00  0.13930719646E+04  0.13930719646E+04  0.25500000920E-02 0.  1.
       -2   -1    0    0    0  501  0.00000000000E+00  0.00000000000E+00 -0.11269397137E+04  0.11269397137E+04  0.25500000920E-02 0. -1.
    10030    2    1    2    0    0  0.00000000000E+00  0.00000000000E+00  0.26613225093E+03  0.25200116784E+04  0.25059194888E+04 0.  0.
        4    1    3    3  502    0  0.30759794351E+03  0.12139893070E+04  0.17227223719E+03  0.12641463005E+04  0.12699999809E+01 0.  1.
       -4    1    3    3    0  502 -0.30759794351E+03 -0.12139893070E+04  0.93860013735E+02  0.12558653779E+04  0.12699999809E+01 0. -1.
</event>
<event>
 5   0  0.3924441E-06  0.2481181E+04  0.7818609E-02  0.8409721E-01
        2   -1    0    0  501    0  0.00000000000E+00  0.00000000000E+00  0.30762684874E+04  0.30762684874E+04  0.25500000920E-02 0. -1.
       -2   -1    0    0    0  501  0.00000000000E+00  0.00000000000E+00 -0.50030250757E+03  0.50030250758E+03  0.25500000920E-02 0.  1.
    10030    2    1    2    0    0  0.00000000000E+00  0.00000000000E+00  0.25759659798E+04  0.35765709949E+04  0.24811810399E+04 0.  0.
        2    1    3    3  502    0  0.58828884227E+03 -0.10746280481E+04  0.10064121114E+04  0.15854887391E+04  0.25500000920E-02 0.  1.
       -2    1    3    3    0  502 -0.58828884227E+03  0.10746280481E+04  0.15695538684E+04  0.19910822559E+04  0.25500000920E-02 0. -1.
</event>
<event>
 5   0  0.3971759E-06  0.2499506E+04  0.7818609E-02  0.8403162E-01
        2   -1    0    0  501    0  0.00000000000E+00  0.00000000000E+00  0.89646789566E+03  0.89646789567E+03  0.25500000920E-02 0. -1.
       -2   -1    0    0    0  501  0.00000000000E+00  0.00000000000E+00 -0.17422628074E+04  0.17422628074E+04  0.25500000920E-02 0.  1.
    10030    2    1    2    0    0  0.00000000000E+00  0.00000000000E+00 -0.84579491176E+03  0.26387307031E+04  0.24995060893E+04 0.  0.
        4    1    3    3  502    0  0.68266761468E+03 -0.66596620444E+03  0.42976317707E+03  0.10460612118E+04  0.12699999809E+01 0. -1.
       -4    1    3    3    0  502 -0.68266761468E+03  0.66596620444E+03 -0.12755580888E+04  0.15926694913E+04  0.12699999809E+01 0.  1.
</event>
<event>
 5   0  0.1501747E-06  0.2496860E+04  0.7818609E-02  0.8404105E-01
        1   -1    0    0  501    0  0.00000000000E+00  0.00000000000E+00  0.11871998151E+04  0.11871998151E+04  0.50400001928E-02 0.  1.
       -1   -1    0    0    0  501  0.00000000000E+00  0.00000000000E+00 -0.13128184719E+04  0.13128184719E+04  0.50400001928E-02 0. -1.
    10030    2    1    2    0    0  0.00000000000E+00  0.00000000000E+00 -0.12561865679E+03  0.25000182871E+04  0.24968603062E+04 0.  0.
        2    1    3    3  502    0  0.71658785665E+03  0.99574078787E+03  0.16895691983E+03  0.12383635628E+04  0.25500000920E-02 0.  1.
       -2    1    3    3    0  502 -0.71658785665E+03 -0.99574078787E+03 -0.29457557661E+03  0.12616547243E+04  0.25500000920E-02 0. -1.
</event>
<event>
 5   0  0.3808293E-06  0.2499048E+04  0.7818609E-02  0.8403325E-01
       -2   -1    0    0    0  501  0.00000000000E+00  0.00000000000E+00  0.82906331626E+03  0.82906331626E+03  0.25500000920E-02 0.  1.
        2   -1    0    0  501    0  0.00000000000E+00  0.00000000000E+00 -0.18832223519E+04  0.18832223519E+04  0.25500000920E-02 0. -1.
    10030    2    1    2    0    0  0.00000000000E+00  0.00000000000E+00 -0.10541590356E+04  0.27122856682E+04  0.24990482735E+04 0.  0.
        1    1    3    3  502    0  0.70359527649E+03  0.73390317676E+03 -0.13154564572E+04  0.16625540222E+04  0.50400001928E-02 0. -1.
       -1    1    3    3    0  502 -0.70359527649E+03 -0.73390317676E+03  0.26129742155E+03  0.10497316459E+04  0.50400001928E-02 0.  1.
</event>
<event>
 5   0  0.1519145E-06  0.2503228E+04  0.7818609E-02  0.8401836E-01
        1   -1    0    0  501    0  0.00000000000E+00  0.00000000000E+00  0.13456794056E+04  0.13456794057E+04  0.50400001928E-02 0.  1.
       -1   -1    0    0    0  501  0.00000000000E+00  0.00000000000E+00 -0.11641242482E+04  0.11641242482E+04  0.50400001928E-02 0. -1.
    10030    2    1    2    0    0  0.00000000000E+00  0.00000000000E+00  0.18155515748E+03  0.25098036538E+04  0.25032283367E+04 0.  0.
        4    1    3    3  502    0 -0.12174925299E+04 -0.28975086362E+03  0.10793363416E+03  0.12561428684E+04  0.12699999809E+01 0.  1.
       -4    1    3    3    0  502  0.12174925299E+04  0.28975086362E+03  0.73621523318E+02  0.12536607855E+04  0.12699999809E+01 0. -1.
</event>
<event>
 5   0  0.1501747E-06  0.2499696E+04  0.7818609E-02  0.8403094E-01
       -1   -1    0    0    0  501  0.00000000000E+00  0.00000000000E+00  0.13130472899E+04  0.13130472899E+04  0.50400001928E-02 0. -1.
        1   -1    0    0  501    0  0.00000000000E+00  0.00000000000E+00 -0.11896903966E+04  0.11896903966E+04  0.50400001928E-02 0.  1.
    10030    2    1    2    0    0  0.00000000000E+00  0.00000000000E+00  0.12335689336E+03  0.25027376865E+04  0.24996957824E+04 0.  0.
        2    1    3    3  502    0  0.10822859254E+03 -0.76794708356E+03 -0.91964876894E+03  0.12030004196E+04  0.25500000920E-02 0.  1.
       -2    1    3    3    0  502 -0.10822859254E+03  0.76794708356E+03  0.10430056623E+04  0.12997372669E+04  0.25500000920E-02 0. -1.
</event>
<event>
 5   0  0.1553604E-06  0.2554386E+04  0.7818609E-02  0.8383862E-01
       -1   -1    0    0    0  501  0.00000000000E+00  0.00000000000E+00  0.73173628269E+03  0.73173628271E+03  0.50400001928E-02 0.  1.
        1   -1    0    0  501    0  0.00000000000E+00  0.00000000000E+00 -0.22292490759E+04  0.22292490759E+04  0.50400001928E-02 0. -1.
    10030    2    1    2    0    0  0.00000000000E+00  0.00000000000E+00 -0.14975127932E+04  0.29609853586E+04  0.25543863702E+04 0.  0.
        1    1    3    3  502    0  0.34599177216E+03  0.11045001025E+04 -0.13747028928E+04  0.17970639461E+04  0.50400001928E-02 0.  1.
       -1    1    3    3    0  502 -0.34599177216E+03 -0.11045001025E+04 -0.12280990041E+03  0.11639214125E+04  0.50400001928E-02 0. -1.
</event>
<event>
 5   0  0.3808293E-06  0.2495615E+04  0.7818609E-02  0.8404549E-01
        2   -1    0    0  501    0  0.00000000000E+00  0.00000000000E+00  0.20144473990E+04  0.20144473991E+04  0.25500000920E-02 0.  1.
       -2   -1    0    0    0  501  0.00000000000E+00  0.00000000000E+00 -0.77292842552E+03  0.77292842553E+03  0.25500000920E-02 0. -1.
    10030    2    1    2    0    0  0.00000000000E+00  0.00000000000E+00  0.12415189735E+04  0.27873758246E+04  0.24956150797E+04 0.  0.
        1    1    3    3  502    0  0.68872953874E+03 -0.25243945608E+03 -0.50668269513E+03  0.89151635435E+03  0.50400001928E-02 0. -1.
       -1    1    3    3    0  502 -0.68872953874E+03  0.25243945608E+03  0.17482016687E+04  0.18958594702E+04  0.50400001928E-02 0.  1.
</event>
<event>
 5   0  0.1574896E-06  0.2503660E+04  0.7818609E-02  0.8401683E-01
        1   -1    0    0  501    0  0.00000000000E+00  0.00000000000E+00  0.23111595445E+04  0.23111595445E+04  0.50400001928E-02 0. -1.
       -1   -1    0    0    0  501  0.00000000000E+00  0.00000000000E+00 -0.67804830804E+03  0.67804830806E+03  0.50400001928E-02 0.  1.
    10030    2    1    2    0    0  0.00000000000E+00  0.00000000000E+00  0.16331112365E+04  0.29892078526E+04  0.25036595765E+04 0.  0.
        3    1    3    3  502    0  0.91704523161E+02  0.11775564521E+04  0.13117566399E+04  0.17651499681E+04  0.10100000352E+00 0. -1.
       -3    1    3    3    0  502 -0.91704523161E+02 -0.11775564521E+04  0.32135459658E+03  0.12240578844E+04  0.10100000352E+00 0.  1.
</event>
<event>
 5   0  0.1541852E-06  0.2500699E+04  0.7818609E-02  0.8402737E-01
        1   -1    0    0  501    0  0.00000000000E+00  0.00000000000E+00  0.10407777635E+04  0.10407777636E+04  0.50400001928E-02 0.  1.
       -1   -1    0    0    0  501  0.00000000000E+00  0.00000000000E+00 -0.15021203164E+04  0.15021203164E+04  0.50400001928E-02 0. -1.
    10030    2    1    2    0    0  0.00000000000E+00  0.00000000000E+00 -0.46134255286E+03  0.25428980800E+04  0.25006986412E+04 0.  0.
        5    1    3    3  502    0  0.17194686797E+03 -0.72259198387E+03 -0.12534506783E+04  0.14570056944E+04  0.46999998093E+01 0. -1.
       -5    1    3    3    0  502 -0.17194686797E+03  0.72259198387E+03  0.79210812547E+03  0.10858923855E+04  0.46999998093E+01 0.  1.
</event>
<event>
 5   0  0.1574896E-06  0.2500590E+04  0.7818609E-02  0.8402775E-01
       -1   -1    0    0    0  501  0.00000000000E+00  0.00000000000E+00  0.12342851102E+04  0.12342851102E+04  0.50400001928E-02 0. -1.
        1   -1    0    0  501    0  0.00000000000E+00  0.00000000000E+00 -0.12665122130E+04  0.12665122130E+04  0.50400001928E-02 0.  1.
    10030    2    1    2    0    0  0.00000000000E+00  0.00000000000E+00 -0.32227102808E+02  0.25007973233E+04  0.25005896636E+04 0.  0.
        3    1    3    3  502    0 -0.50473715708E+03  0.10231552855E+04  0.49542752808E+03  0.12438065693E+04  0.10100000352E+00 0. -1.
       -3    1    3    3    0  502  0.50473715708E+03 -0.10231552855E+04 -0.52765463089E+03  0.12569907540E+04  0.10100000352E+00 0.  1.
</event>
<event>
 5   0  0.3924441E-06  0.2501792E+04  0.7818609E-02  0.8402347E-01
        2   -1    0    0  501    0  0.00000000000E+00  0.00000000000E+00  0.17973919977E+04  0.17973919977E+04  0.25500000920E-02 0.  1.
       -2   -1    0    0    0  501  0.00000000000E+00  0.00000000000E+00 -0.87056198970E+03  0.87056198970E+03  0.25500000920E-02 0. -1.
    10030    2    1    2    0    0  0.00000000000E+00  0.00000000000E+00  0.92683000796E+03  0.26679539874E+04  0.25017922805E+04 0.  0.
        2    1    3    3  502    0  0.29952954011E+03  0.66884848173E+03 -0.61765259809E+03  0.95842108118E+03  0.25500000920E-02 0. -1.
       -2    1    3    3    0  502 -0.29952954011E+03 -0.66884848173E+03  0.15444826060E+04  0.17095329062E+04  0.25500000920E-02 0.  1.
</event>
<event>
 5   0  0.3971759E-06  0.2502032E+04  0.7818609E-02  0.8402262E-01
        2   -1    0    0  501    0  0.00000000000E+00  0.00000000000E+00  0.19709243974E+04  0.19709243974E+04  0.25500000920E-02 0. -1.
       -2   -1    0    0    0  501  0.00000000000E+00  0.00000000000E+00 -0.79406469540E+03  0.79406469540E+03  0.25500000920E-02 0.  1.
    10030    2    1    2    0    0  0.00000000000E+00  0.00000000000E+00  0.11768597020E+04  0.27649890928E+04  0.25020323589E+04 0.  0.
        4    1    3    3  502    0 -0.61030984924E+03  0.69322646689E+03 -0.34405146320E+03  0.98560340335E+03  0.12699999809E+01 0.  1.
       -4    1    3    3    0  502  0.61030984924E+03 -0.69322646689E+03  0.15209111652E+04  0.17793856894E+04  0.12699999809E+01 0. -1.
</event>
<event>
 5   0  0.3971759E-06  0.2498923E+04  0.7818609E-02  0.8403369E-01
        2   -1    0    0  501    0  0.00000000000E+00  0.00000000000E+00  0.15561796323E+04  0.15561796323E+04  0.25500000920E-02 0. -1.
       -2   -1    0    0    0  501  0.00000000000E+00  0.00000000000E+00 -0.10031966069E+04  0.10031966069E+04  0.25500000920E-02 0.  1.
    10030    2    1    2    0    0  0.00000000000E+00  0.00000000000E+00  0.55298302534E+03  0.25593762392E+04  0.24989230695E+04 0.  0.
        4    1    3    3  502    0 -0.50464824334E+03 -0.65598922053E+03  0.12351703895E+04  0.14868218491E+04  0.12699999809E+01 0. -1.
       -4    1    3    3    0  502  0.50464824334E+03  0.65598922053E+03 -0.68218736418E+03  0.10725543901E+04  0.12699999809E+01 0.  1.
</event>
<event>
 5   0  0.1287375E-06  0.2501440E+04  0.7818609E-02  0.8402473E-01
        3   -1    0    0  501    0  0.00000000000E+00  0.00000000000E+00  0.15277861124E+04  0.15277861157E+04  0.10100000352E+00 0.  1.
       -3   -1    0    0    0  501  0.00000000000E+00  0.00000000000E+00 -0.10239001805E+04  0.10239001855E+04  0.10100000352E+00 0. -1.
    10030    2    1    2    0    0  0.00000000000E+00  0.00000000000E+00  0.50388593185E+03  0.25516863013E+04  0.25014399748E+04 0.  0.
        3    1    3    3  502    0  0.73334605708E+03 -0.98774144589E+03  0.48201921741E+03  0.13212767082E+04  0.10100000352E+00 0.  1.
       -3    1    3    3    0  502 -0.73334605708E+03  0.98774144589E+03  0.21866714444E+02  0.12304095931E+04  0.10100000352E+00 0. -1.
</event>
<event>
 5   0  0.1574896E-06  0.2457847E+04  0.7818609E-02  0.8418158E-01
       -1   -1    0    0    0  501  0.00000000000E+00  0.00000000000E+00  0.72890374277E+03  0.72890374278E+03  0.50400001928E-02 0.  1.
        1   -1    0    0  501    0  0.00000000000E+00  0.00000000000E+00 -0.20719514982E+04  0.20719514982E+04  0.50400001928E-02 0. -1.
    10030    2    1    2    0    0  0.00000000000E+00  0.00000000000E+00 -0.13430477554E+04  0.28008552410E+04  0.24578471896E+04 0.  0.
        3    1    3    3  502    0 -0.58328036016E+03  0.40913422852E+03  0.46953928131E+03  0.85327249012E+03  0.10100000352E+00 0.  1.
       -3    1    3    3    0  502  0.58328036016E+03 -0.40913422852E+03 -0.18125870368E+04  0.19475827509E+04  0.10100000352E+00 0. -1.
</event>
<event>
 5   0  0.1519145E-06  0.2484871E+04  0.7818609E-02  0.8408395E-01
       -1   -1    0    0    0  501  0.00000000000E+00  0.00000000000E+00  0.11659872355E+04  0.11659872355E+04  0.50400001928E-02 0.  1.
        1   -1    0    0  501    0  0.00000000000E+00  0.00000000000E+00 -0.13238955934E+04  0.13238955934E+04  0.50400001928E-02 0. -1.
    10030    2    1    2    0    0  0.00000000000E+00  0.00000000000E+00 -0.15790835787E+03  0.24898828289E+04  0.24848705101E+04 0.  0.
        4    1    3    3  502    0  0.85326584582E+03 -0.65019041896E+03 -0.70698280924E+03  0.12847709874E+04  0.12699999809E+01 0. -1.
       -4    1    3    3    0  502 -0.85326584582E+03  0.65019041896E+03  0.54907445136E+03  0.12051118415E+04  0.12699999809E+01 0.  1.
</event>
<event>
 5   0  0.3814260E-06  0.2502733E+04  0.7818609E-02  0.8402012E-01
        2   -1    0    0  501    0  0.00000000000E+00  0.00000000000E+00  0.26755277399E+04  0.26755277399E+04  0.25500000920E-02 0. -1.
       -2   -1    0    0    0  501  0.00000000000E+00  0.00000000000E+00 -0.58527469994E+03  0.58527469995E+03  0.25500000920E-02 0.  1.
    10030    2    1    2    0    0  0.00000000000E+00  0.00000000000E+00  0.20902530400E+04  0.32608024399E+04  0.25027334618E+04 0.  0.
        5    1    3    3  502    0  0.10658885534E+03  0.12393882378E+04  0.12221105845E+04  0.17438522755E+04  0.46999998093E+01 0.  1.
       -5    1    3    3    0  502 -0.10658885534E+03 -0.12393882378E+04  0.86814245548E+03  0.15169501643E+04  0.46999998093E+01 0. -1.
</event>
<event>
 5   0  0.1541852E-06  0.2499622E+04  0.7818609E-02  0.8403120E-01
       -1   -1    0    0    0  501  0.00000000000E+00  0.00000000000E+00  0.88930085547E+03  0.88930085548E+03  0.50400001928E-02 0.  1.
        1   -1    0    0  501    0  0.00000000000E+00  0.00000000000E+00 -0.17564665253E+04  0.17564665253E+04  0.50400001928E-02 0. -1.
    10030    2    1    2    0    0  0.00000000000E+00  0.00000000000E+00 -0.86716566980E+03  0.26457673808E+04  0.24996217182E+04 0.  0.
        5    1    3    3  502    0 -0.38517537205E+03  0.50345831346E+03 -0.15736726700E+04  0.16965547745E+04  0.46999998093E+01 0. -1.
       -5    1    3    3    0  502  0.38517537205E+03 -0.50345831346E+03  0.70650700017E+03  0.94921260627E+03  0.46999998093E+01 0.  1.
</event>
<event>
 5   0  0.1501747E-06  0.2499219E+04  0.7818609E-02  0.8403264E-01
       -1   -1    0    0    0  501  0.00000000000E+00  0.00000000000E+00  0.15092554950E+04  0.15092554950E+04  0.50400001928E-02 0.  1.
        1   -1    0    0  501    0  0.00000000000E+00  0.00000000000E+00 -0.10346317892E+04  0.10346317892E+04  0.50400001928E-02 0. -1.
    10030    2    1    2    0    0  0.00000000000E+00  0.00000000000E+00  0.47462370586E+03  0.25438872842E+04  0.24992188485E+04 0.  0.
        2    1    3    3  502    0 -0.25458508080E+03  0.49079705345E+03 -0.90335475307E+03  0.10591246957E+04  0.25500000920E-02 0. -1.
       -2    1    3    3    0  502  0.25458508080E+03 -0.49079705345E+03  0.13779784589E+04  0.14847625885E+04  0.25500000920E-02 0.  1.
</event>
<event>
 5   0  0.3814260E-06  0.2481859E+04  0.7818609E-02  0.8409477E-01
       -2   -1    0    0    0  501  0.00000000000E+00  0.00000000000E+00  0.14714661950E+04  0.14714661950E+04  0.25500000920E-02 0.  1.
        2   -1    0    0  501    0  0.00000000000E+00  0.00000000000E+00 -0.10465115571E+04  0.10465115571E+04  0.25500000920E-02 0. -1.
    10030    2    1    2    0    0  0.00000000000E+00  0.00000000000E+00  0.42495463785E+03  0.25179777521E+04  0.24818592861E+04 0.  0.
        5    1    3    3  502    0 -0.89333694648E+03 -0.41600623555E+03 -0.55266798091E+03  0.11298566613E+04  0.46999998093E+01 0. -1.
       -5    1    3    3    0  502  0.89333694648E+03  0.41600623555E+03  0.97762261876E+03  0.13881210908E+04  0.46999998093E+01 0.  1.
</event>
<event>
 5   0  0.1574896E-06  0.2486847E+04  0.7818609E-02  0.8407686E-01
       -1   -1    0    0    0  501  0.00000000000E+00  0.00000000000E+00  0.11198454852E+04  0.11198454852E+04  0.50400001928E-02 0. -1.
        1   -1    0    0  501    0  0.00000000000E+00  0.00000000000E+00 -0.13806392024E+04  0.13806392024E+04  0.50400001928E-02 0.  1.
    10030    2    1    2    0    0  0.00000000000E+00  0.00000000000E+00 -0.26079371722E+03  0.25004846876E+04  0.24868474642E+04 0.  0.
        3    1    3    3  502    0 -0.65991207380E+03 -0.87543529749E+03  0.45953310930E+03  0.11887142609E+04  0.10100000352E+00 0. -1.
       -3    1    3    3    0  502  0.65991207380E+03  0.87543529749E+03 -0.72032682652E+03  0.13117704267E+04  0.10100000352E+00 0.  1.
</event>
<event>
 5   0  0.1574896E-06  0.2493105E+04  0.7818609E-02  0.8405446E-01
       -1   -1    0    0    0  501  0.00000000000E+00  0.00000000000E+00  0.11009866602E+04  0.11009866602E+04  0.50400001928E-02 0. -1.
        1   -1    0    0  501    0  0.00000000000E+00  0.00000000000E+00 -0.14113645630E+04  0.14113645630E+04  0.50400001928E-02 0.  1.
    10030    2    1    2    0    0  0.00000000000E+00  0.00000000000E+00 -0.31037790279E+03  0.25123512232E+04  0.24931053380E+04 0.  0.
        3    1    3    3  502    0  0.48128997555E+03  0.10463925679E+04 -0.63564628017E+03  0.13155316987E+04  0.10100000352E+00 0.  1.
       -3    1    3    3    0  502 -0.48128997555E+03 -0.10463925679E+04  0.32526837737E+03  0.11968195245E+04  0.10100000352E+00 0. -1.
</event>
<event>
 5   0  0.1574896E-06  0.2504180E+04  0.7818609E-02  0.8401498E-01
       -1   -1    0    0    0  501  0.00000000000E+00  0.00000000000E+00  0.11720454771E+04  0.11720454771E+04  0.50400001928E-02 0. -1.
        1   -1    0    0  501    0  0.00000000000E+00  0.00000000000E+00 -0.13376013822E+04  0.13376013822E+04  0.50400001928E-02 0.  1.
    10030    2    1    2    0    0  0.00000000000E+00  0.00000000000E+00 -0.16555590510E+03  0.25096468593E+04  0.25041802253E+04 0.  0.
        3    1    3    3  502    0  0.53278426101E+03  0.10179100201E+04 -0.58158907169E+03  0.12877289064E+04  0.10100000352E+00 0.  1.
       -3    1    3    3    0  502 -0.53278426101E+03 -0.10179100201E+04  0.41603316659E+03  0.12219179530E+04  0.10100000352E+00 0. -1.
</event>
<event>
 5   0  0.1501747E-06  0.2502925E+04  0.7818609E-02  0.8401944E-01
       -1   -1    0    0    0  501  0.00000000000E+00  0.00000000000E+00  0.10468468340E+04  0.10468468341E+04  0.50400001928E-02 0.  1.
        1   -1    0    0  501    0  0.00000000000E+00  0.00000000000E+00 -0.14960721481E+04  0.14960721481E+04  0.50400001928E-02 0. -1.
    10030    2    1    2    0    0  0.00000000000E+00  0.00000000000E+00 -0.44922531409E+03  0.25429189822E+04  0.25029250023E+04 0.  0.
        2    1    3    3  502    0 -0.41854837904E+03  0.91887726607E+03  0.52655257251E+03  0.11387606365E+04  0.25500000920E-02 0.  1.
       -2    1    3    3    0  502  0.41854837904E+03 -0.91887726607E+03 -0.97577788661E+03  0.14041583457E+04  0.25500000920E-02 0. -1.
</event>
<event>
 5   0  0.1519145E-06  0.2500455E+04  0.7818609E-02  0.8402823E-01
       -1   -1    0    0    0  501  0.00000000000E+00  0.00000000000E+00  0.77174745799E+03  0.77174745801E+03  0.50400001928E-02 0. -1.
        1   -1    0    0  501    0  0.00000000000E+00  0.00000000000E+00 -0.20253635705E+04  0.20253635705E+04  0.50400001928E-02 0.  1.
    10030    2    1    2    0    0  0.00000000000E+00  0.00000000000E+00 -0.12536161125E+04  0.27971110285E+04  0.25004553082E+04 0.  0.
        4    1    3    3  502    0  0.73243162278E+03 -0.55210866682E+03  0.32356757281E+03  0.97261382321E+03  0.12699999809E+01 0. -1.
       -4    1    3    3    0  502 -0.73243162278E+03  0.55210866682E+03 -0.15771836853E+04  0.18244972053E+04  0.12699999809E+01 0.  1.
</event>
<event>
 5   0  0.1519145E-06  0.2501449E+04  0.7818609E-02  0.8402469E-01
       -1   -1    0    0    0  501  0.00000000000E+00  0.00000000000E+00  0.94568817710E+03  0.94568817712E+03  0.50400001928E-02 0. -1.
        1   -1    0    0  501    0  0.00000000000E+00  0.00000000000E+00 -0.16541518922E+04  0.16541518922E+04  0.50400001928E-02 0.  1.
    10030    2    1    2    0    0  0.00000000000E+00  0.00000000000E+00 -0.70846371506E+03  0.25998400693E+04  0.25014490901E+04 0.  0.
        4    1    3    3  502    0  0.11575965517E+04  0.46805820130E+03 -0.27926990300E+03  0.12794926917E+04  0.12699999809E+01 0. -1.
       -4    1    3    3    0  502 -0.11575965517E+04 -0.46805820130E+03 -0.42919381207E+03  0.13203473776E+04  0.12699999809E+01 0.  1.
</event>
<event>
 5   0  0.3713394E-06  0.2506094E+04  0.7818609E-02  0.8400818E-01
       -2   -1    0    0    0  501  0.00000000000E+00  0.00000000000E+00  0.93469569251E+03  0.93469569251E+03  0.25500000920E-02 0. -1.
        2   -1    0    0  501    0  0.00000000000E+00  0.00000000000E+00 -0.16798264150E+04  0.16798264150E+04  0.25500000920E-02 0.  1.
    10030    2    1    2    0    0  0.00000000000E+00  0.00000000000E+00 -0.74513072248E+03  0.26145221075E+04  0.25060937846E+04 0.  0.
        3    1    3    3  502    0 -0.43727407630E+03  0.93979748451E+03 -0.11070857137E+04  0.15165970847E+04  0.10100000352E+00 0.  1.
       -3    1    3    3    0  502  0.43727407630E+03 -0.93979748451E+03  0.36195499127E+03  0.10979250228E+04  0.10100000352E+00 0. -1.
</event>
<event>
 5   0  0.3971759E-06  0.2497924E+04  0.7818609E-02  0.8403725E-01
       -2   -1    0    0    0  501  0.00000000000E+00  0.00000000000E+00  0.74422815819E+03  0.74422815819E+03  0.25500000920E-02 0.  1.
        2   -1    0    0  501    0  0.00000000000E+00  0.00000000000E+00 -0.20960056063E+04  0.20960056063E+04  0.25500000920E-02 0. -1.
    10030    2    1    2    0    0  0.00000000000E+00  0.00000000000E+00 -0.13517774481E+04  0.28402337645E+04  0.24979242518E+04 0.  0.
        4    1    3    3  502    0  0.96066566055E+03 -0.53391706259E+02 -0.15813702279E+04  0.18510706621E+04  0.12699999809E+01 0. -1.
       -4    1    3    3    0  502 -0.96066566055E+03  0.53391706259E+02  0.22959277977E+03  0.98916310237E+03  0.12699999809E+01 0.  1.
</event>
<event>
 5   0  0.3971759E-06  0.2496445E+04  0.7818609E-02  0.8404253E-01
       -2   -1    0    0    0  501  0.00000000000E+00  0.00000000000E+00  0.82893957826E+03  0.82893957827E+03  0.25500000920E-02 0.  1.
        2   -1    0    0  501    0  0.00000000000E+00  0.00000000000E+00 -0.18795814925E+04  0.18795814925E+04  0.25500000920E-02 0. -1.
    10030    2    1    2    0    0  0.00000000000E+00  0.00000000000E+00 -0.10506419142E+04  0.27085210707E+04  0.24964450642E+04 0.  0.
        4    1    3    3  502    0 -0.11361579683E+04  0.34532061459E+03 -0.10799306959E+03  0.11923780323E+04  0.12699999809E+01 0. -1.
       -4    1    3    3    0  502  0.11361579683E+04 -0.34532061459E+03 -0.94264884463E+03  0.15161430385E+04  0.12699999809E+01 0.  1.
</event>
<event>
 5   0  0.1541852E-06  0.2501931E+04  0.7818609E-02  0.8402298E-01
       -1   -1    0    0    0  501  0.00000000000E+00  0.00000000000E+00  0.10506616395E+04  0.10506616395E+04  0.50400001928E-02 0.  1.
        1   -1    0    0  501    0  0.00000000000E+00  0.00000000000E+00 -0.14894562643E+04  0.14894562643E+04  0.50400001928E-02 0. -1.
    10030    2    1    2    0    0  0.00000000000E+00  0.00000000000E+00 -0.43879462481E+03  0.25401179039E+04  0.25019309029E+04 0.  0.
        5    1    3    3  502    0  0.87753011300E+03 -0.39484867969E+03 -0.10309271418E+04  0.14102472977E+04  0.46999998093E+01 0. -1.
       -5    1    3    3    0  502 -0.87753011300E+03  0.39484867969E+03  0.59213251694E+03  0.11298706062E+04  0.46999998093E+01 0.  1.
</event>
<event>
 5   0  0.1574896E-06  0.2503238E+04  0.7818609E-02  0.8401833E-01
       -1   -1    0    0    0  501  0.00000000000E+00  0.00000000000E+00  0.63936183117E+03  0.63936183119E+03  0.50400001928E-02 0. -1.
        1   -1    0    0  501    0  0.00000000000E+00  0.00000000000E+00 -0.24501782561E+04  0.24501782561E+04  0.50400001928E-02 0.  1.
    10030    2    1    2    0    0  0.00000000000E+00  0.00000000000E+00 -0.18108164249E+04  0.30895400873E+04  0.25032382680E+04 0.  0.
        3    1    3    3  502    0 -0.31984569269E+03  0.12039520396E+04 -0.10552966072E+04  0.16326214259E+04  0.10100000352E+00 0. -1.
       -3    1    3    3    0  502  0.31984569269E+03 -0.12039520396E+04 -0.75551981770E+03  0.14569186614E+04  0.10100000352E+00 0.  1.
</event>
<event>
 5   0  0.3971759E-06  0.2498943E+04  0.7818609E-02  0.8403362E-01
       -2   -1    0    0    0  501  0.00000000000E+00  0.00000000000E+00  0.98762565799E+03  0.98762565799E+03  0.25500000920E-02 0.  1.
        2   -1    0    0  501    0  0.00000000000E+00  0.00000000000E+00 -0.15807391889E+04  0.15807391889E+04  0.25500000920E-02 0. -1.
    10030    2    1    2    0    0  0.00000000000E+00  0.00000000000E+00 -0.59311353091E+03  0.25683648469E+04  0.24989426416E+04 0.  0.
        4    1    3    3  502    0  0.77310705503E+03  0.14058768176E+02  0.71217984528E+03  0.10512344707E+04  0.12699999809E+01 0.  1.
       -4    1    3    3    0  502 -0.77310705503E+03 -0.14058768176E+02 -0.13052933762E+04  0.15171303762E+04  0.12699999809E+01 0. -1.
</event>
<event>
 5   0  0.3814260E-06  0.2504506E+04  0.7818609E-02  0.8401382E-01
        2   -1    0    0  501    0  0.00000000000E+00  0.00000000000E+00  0.18626417333E+04  0.18626417333E+04  0.25500000920E-02 0. -1.
       -2   -1    0    0    0  501  0.00000000000E+00  0.00000000000E+00 -0.84188905208E+03  0.84188905208E+03  0.25500000920E-02 0.  1.
    10030    2    1    2    0    0  0.00000000000E+00  0.00000000000E+00  0.10207526812E+04  0.27045307853E+04  0.25045060856E+04 0.  0.
        5    1    3    3  502    0  0.31069550830E+03 -0.10998257342E+04  0.10630812695E+04  0.15608690592E+04  0.46999998093E+01 0. -1.
       -5    1    3    3    0  502 -0.31069550830E+03  0.10998257342E+04 -0.42328588304E+02  0.11436617261E+04  0.46999998093E+01 0.  1.
</event>
<event>
 5   0  0.1541852E-06  0.2506552E+04  0.7818609E-02  0.8400655E-01
        1   -1    0    0  501    0  0.00000000000E+00  0.00000000000E+00  0.12499268556E+04  0.12499268556E+04  0.50400001928E-02 0. -1.
       -1   -1    0    0    0  501  0.00000000000E+00  0.00000000000E+00 -0.12566341547E+04  0.12566341547E+04  0.50400001928E-02 0.  1.
    10030    2    1    2    0    0  0.00000000000E+00  0.00000000000E+00 -0.67072990300E+01  0.25065610103E+04  0.25065520363E+04 0.  0.
        5    1    3    3  502    0 -0.88672088446E+03  0.77033190434E+03  0.43367596672E+03  0.12521110589E+04  0.46999998093E+01 0. -1.
       -5    1    3    3    0  502  0.88672088446E+03 -0.77033190434E+03 -0.44038326575E+03  0.12544499514E+04  0.46999998093E+01 0.  1.
</event>
<event>
 5   0  0.1574896E-06  0.2501133E+04  0.7818609E-02  0.8402582E-01
       -1   -1    0    0    0  501  0.00000000000E+00  0.00000000000E+00  0.78362874089E+03  0.78362874091E+03  0.50400001928E-02 0. -1.
        1   -1    0    0  501    0  0.00000000000E+00  0.00000000000E+00 -0.19957366327E+04  0.19957366327E+04  0.50400001928E-02 0.  1.
    10030    2    1    2    0    0  0.00000000000E+00  0.00000000000E+00 -0.12121078918E+04  0.27793653736E+04  0.25011330110E+04 0.  0.
        3    1    3    3  502    0  0.64968829981E+02  0.12354530088E+04 -0.80899339024E+03  0.14781865246E+04  0.10100000352E+00 0.  1.
       -3    1    3    3    0  502 -0.64968829981E+02 -0.12354530088E+04 -0.40311450160E+03  0.13011788491E+04  0.10100000352E+00 0. -1.
</event>
<event>
 5   0  0.3924441E-06  0.2498424E+04  0.7818609E-02  0.8403547E-01
        2   -1    0    0  501    0  0.00000000000E+00  0.00000000000E+00  0.24575445343E+04  0.24575445343E+04  0.25500000920E-02 0. -1.
       -2   -1    0    0    0  501  0.00000000000E+00  0.00000000000E+00 -0.63499612061E+03  0.63499612062E+03  0.25500000920E-02 0.  1.
    10030    2    1    2    0    0  0.00000000000E+00  0.00000000000E+00  0.18225484137E+04  0.30925406549E+04  0.24984245000E+04 0.  0.
        2    1    3    3  502    0  0.87118339411E+03 -0.58465895310E+03  0.17505554720E+04  0.20408897712E+04  0.25500000920E-02 0. -1.
       -2    1    3    3    0  502 -0.87118339411E+03  0.58465895310E+03  0.71992941714E+02  0.10516508837E+04  0.25500000920E-02 0.  1.
</event>
<event>
 5   0  0.3814260E-06  0.2497759E+04  0.7818609E-02  0.8403784E-01
       -2   -1    0    0    0  501  0.00000000000E+00  0.00000000000E+00  0.17144762051E+04  0.17144762051E+04  0.25500000920E-02 0.  1.
        2   -1    0    0  501    0  0.00000000000E+00  0.00000000000E+00 -0.90972373658E+03  0.90972373658E+03  0.25500000920E-02 0. -1.
    10030    2    1    2    0    0  0.00000000000E+00  0.00000000000E+00  0.80475246850E+03  0.26241999417E+04  0.24977587550E+04 0.  0.
        5    1    3    3  502    0  0.27530669284E+03  0.70041026882E+03 -0.64472502089E+03  0.99098978923E+03  0.46999998093E+01 0. -1.
       -5    1    3    3    0  502 -0.27530669284E+03 -0.70041026882E+03  0.14494774894E+04  0.16332101524E+04  0.46999998093E+01 0.  1.
</event>
<event>
 5   0  0.3808293E-06  0.2499854E+04  0.7818609E-02  0.8403037E-01
       -2   -1    0    0    0  501  0.00000000000E+00  0.00000000000E+00  0.10815980563E+04  0.10815980563E+04  0.25500000920E-02 0. -1.
        2   -1    0    0  501    0  0.00000000000E+00  0.00000000000E+00 -0.14444533861E+04  0.14444533861E+04  0.25500000920E-02 0.  1.
    10030    2    1    2    0    0  0.00000000000E+00  0.00000000000E+00 -0.36285532981E+03  0.25260514424E+04  0.24998543756E+04 0.  0.
        1    1    3    3  502    0  0.40057794314E+03 -0.11611054098E+04 -0.41556583254E+03  0.12966585604E+04  0.50400001928E-02 0.  1.
       -1    1    3    3    0  502 -0.40057794314E+03  0.11611054098E+04  0.52710502729E+02  0.12293928820E+04  0.50400001928E-02 0. -1.
</event>
<event>
 5   0  0.3971759E-06  0.2499958E+04  0.7818609E-02  0.8403000E-01
       -2   -1    0    0    0  501  0.00000000000E+00  0.00000000000E+00  0.90648349560E+03  0.90648349561E+03  0.25500000920E-02 0.  1.
        2   -1    0    0  501    0  0.00000000000E+00  0.00000000000E+00 -0.17236365268E+04  0.17236365268E+04  0.25500000920E-02 0. -1.
    10030    2    1    2    0    0  0.00000000000E+00  0.00000000000E+00 -0.81715303119E+03  0.26301200224E+04  0.24999584508E+04 0.  0.
        4    1    3    3  502    0  0.58427692763E+03 -0.17352038260E+03 -0.15567061501E+04  0.16717728620E+04  0.12699999809E+01 0. -1.
       -4    1    3    3    0  502 -0.58427692763E+03  0.17352038260E+03  0.73955311891E+03  0.95834716044E+03  0.12699999809E+01 0.  1.
</event>
<event>
 5   0  0.3814260E-06  0.2496845E+04  0.7818609E-02  0.8404110E-01
        2   -1    0    0  501    0  0.00000000000E+00  0.00000000000E+00  0.11553937525E+04  0.11553937525E+04  0.25500000920E-02 0. -1.
       -2   -1    0    0    0  501  0.00000000000E+00  0.00000000000E+00 -0.13489420157E+04  0.13489420157E+04  0.25500000920E-02 0.  1.
    10030    2    1    2    0    0  0.00000000000E+00  0.00000000000E+00 -0.19354826320E+03  0.25043357682E+04  0.24968453515E+04 0.  0.
        5    1    3    3  502    0  0.43938888006E+03 -0.83317122349E+03 -0.91856120278E+03  0.13156799188E+04  0.46999998093E+01 0.  1.
       -5    1    3    3    0  502 -0.43938888006E+03  0.83317122349E+03  0.72501293958E+03  0.11886558493E+04  0.46999998093E+01 0. -1.
</event>
<event>
 5   0  0.3713394E-06  0.2496005E+04  0.7818609E-02  0.8404410E-01
        2   -1    0    0  501    0  0.00000000000E+00  0.00000000000E+00  0.14358441230E+04  0.14358441230E+04  0.25500000920E-02 0.  1.
       -2   -1    0    0    0  501  0.00000000000E+00  0.00000000000E+00 -0.10847349299E+04  0.10847349299E+04  0.25500000920E-02 0. -1.
    10030    2    1    2    0    0  0.00000000000E+00  0.00000000000E+00  0.35110919302E+03  0.25205790529E+04  0.24960050273E+04 0.  0.
        3    1    3    3  502    0 -0.25730714468E+03 -0.70602011770E+03 -0.83066844341E+03  0.11201256387E+04  0.10100000352E+00 0. -1.
       -3    1    3    3    0  502  0.25730714468E+03  0.70602011770E+03  0.11817776364E+04  0.14004534142E+04  0.10100000352E+00 0.  1.
</event>
<event>
 5   0  0.1519145E-06  0.2498502E+04  0.7818609E-02  0.8403519E-01
       -1   -1    0    0    0  501  0.00000000000E+00  0.00000000000E+00  0.12783105920E+04  0.12783105920E+04  0.50400001928E-02 0. -1.
        1   -1    0    0  501    0  0.00000000000E+00  0.00000000000E+00 -0.12208519502E+04  0.12208519503E+04  0.50400001928E-02 0.  1.
    10030    2    1    2    0    0  0.00000000000E+00  0.00000000000E+00  0.57458641786E+02  0.24991625423E+04  0.24985019346E+04 0.  0.
        4    1    3    3  502    0 -0.56716614108E+03  0.11129412110E+04  0.11095258133E+02  0.12491758436E+04  0.12699999809E+01 0. -1.
       -4    1    3    3    0  502  0.56716614108E+03 -0.11129412110E+04  0.46363383652E+02  0.12499866987E+04  0.12699999809E+01 0.  1.
</event>
<event>
 5   0  0.3814260E-06  0.2498034E+04  0.7818609E-02  0.8403686E-01
       -2   -1    0    0    0  501  0.00000000000E+00  0.00000000000E+00  0.96144709769E+03  0.96144709770E+03  0.25500000920E-02 0.  1.
        2   -1    0    0  501    0  0.00000000000E+00  0.00000000000E+00 -0.16225998708E+04  0.16225998708E+04  0.25500000920E-02 0. -1.
    10030    2    1    2    0    0  0.00000000000E+00  0.00000000000E+00 -0.66115277312E+03  0.25840469685E+04  0.24980343765E+04 0.  0.
        5    1    3    3  502    0 -0.76291526163E+03  0.97328037267E+03 -0.14930720066E+03  0.12456440545E+04  0.46999998093E+01 0. -1.
       -5    1    3    3    0  502  0.76291526163E+03 -0.97328037267E+03 -0.51184557245E+03  0.13384029140E+04  0.46999998093E+01 0.  1.
</event>
<event>
 5   0  0.1541852E-06  0.2495300E+04  0.7818609E-02  0.8404662E-01
        1   -1    0    0  501    0  0.00000000000E+00  0.00000000000E+00  0.17260481441E+04  0.17260481441E+04  0.50400001928E-02 0.  1.
       -1   -1    0    0    0  501  0.00000000000E+00  0.00000000000E+00 -0.90184616549E+03  0.90184616551E+03  0.50400001928E-02 0. -1.
    10030    2    1    2    0    0  0.00000000000E+00  0.00000000000E+00  0.82420197864E+03  0.26278943097E+04  0.24952995013E+04 0.  0.
        5    1    3    3  502    0  0.15376812431E+03  0.18199254394E+03  0.17018581686E+04  0.17184612996E+04  0.46999998093E+01 0.  1.
       -5    1    3    3    0  502 -0.15376812431E+03 -0.18199254394E+03 -0.87765618994E+03  0.90943301009E+03  0.46999998093E+01 0. -1.
</event>
<event>
 5   0  0.1541852E-06  0.2500776E+04  0.7818609E-02  0.8402709E-01
        1   -1    0    0  501    0  0.00000000000E+00  0.00000000000E+00  0.19262535287E+04  0.19262535288E+04  0.50400001928E-02 0.  1.
       -1   -1    0    0    0  501  0.00000000000E+00  0.00000000000E+00 -0.81166397516E+03  0.81166397518E+03  0.50400001928E-02 0. -1.
    10030    2    1    2    0    0  0.00000000000E+00  0.00000000000E+00  0.11145895536E+04  0.27379175039E+04  0.25007763565E+04 0.  0.
        5    1    3    3  502    0 -0.43238680137E+03 -0.82634773327E+01  0.18417568544E+04  0.18918554469E+04  0.46999998093E+01 0.  1.
       -5    1    3    3    0  502  0.43238680137E+03  0.82634773327E+01 -0.72716730081E+03  0.84606205708E+03  0.46999998093E+01 0. -1.
</event>
<event>
 5   0  0.1541852E-06  0.2504503E+04  0.7818609E-02  0.8401383E-01
       -1   -1    0    0    0  501  0.00000000000E+00  0.00000000000E+00  0.14973237053E+04  0.14973237053E+04  0.50400001928E-02 0. -1.
        1   -1    0    0  501    0  0.00000000000E+00  0.00000000000E+00 -0.10472911292E+04  0.10472911292E+04  0.50400001928E-02 0.  1.
    10030    2    1    2    0    0  0.00000000000E+00  0.00000000000E+00  0.45003257607E+03  0.25446148345E+04  0.25045030119E+04 0.  0.
        5    1    3    3  502    0  0.84972494963E+03 -0.20450530512E+03 -0.68615048964E+03  0.11111613268E+04  0.46999998093E+01 0.  1.
       -5    1    3    3    0  502 -0.84972494963E+03  0.20450530512E+03  0.11361830657E+04  0.14334535077E+04  0.46999998093E+01 0. -1.
</event>
<event>
 5   0  0.1553604E-06  0.2501313E+04  0.7818609E-02  0.8402518E-01
        1   -1    0    0  501    0  0.00000000000E+00  0.00000000000E+00  0.13428511257E+04  0.13428511257E+04  0.50400001928E-02 0.  1.
       -1   -1    0    0    0  501  0.00000000000E+00  0.00000000000E+00 -0.11647913740E+04  0.11647913740E+04  0.50400001928E-02 0. -1.
    10030    2    1    2    0    0  0.00000000000E+00  0.00000000000E+00  0.17805975174E+03  0.25076424997E+04  0.25013127816E+04 0.  0.
        1    1    3    3  502    0 -0.54862721130E+03 -0.10494035104E+03  0.12108508706E+04  0.13334782057E+04  0.50400001928E-02 0.  1.
       -1    1    3    3    0  502  0.54862721130E+03  0.10494035104E+03 -0.10327911188E+04  0.11741642940E+04  0.50400001928E-02 0. -1.
</event>
<event>
 5   0  0.3713394E-06  0.2498217E+04  0.7818609E-02  0.8403621E-01
       -2   -1    0    0    0  501  0.00000000000E+00  0.00000000000E+00  0.77138254819E+03  0.77138254819E+03  0.25500000920E-02 0. -1.
        2   -1    0    0  501    0  0.00000000000E+00  0.00000000000E+00 -0.20226960407E+04  0.20226960407E+04  0.25500000920E-02 0.  1.
    10030    2    1    2    0    0  0.00000000000E+00  0.00000000000E+00 -0.12513134925E+04  0.27940785889E+04  0.24982173053E+04 0.  0.
        3    1    3    3  502    0 -0.48872565681E+02 -0.14636310207E+03  0.76068173614E+03  0.77617485094E+03  0.10100000352E+00 0. -1.
       -3    1    3    3    0  502  0.48872565681E+02  0.14636310207E+03 -0.20119952286E+04  0.20179037379E+04  0.10100000352E+00 0.  1.
</event>
<event>
 5   0  0.1501747E-06  0.2502252E+04  0.7818609E-02  0.8402184E-01
        1   -1    0    0  501    0  0.00000000000E+00  0.00000000000E+00  0.10685243018E+04  0.10685243019E+04  0.50400001928E-02 0. -1.
       -1   -1    0    0    0  501  0.00000000000E+00  0.00000000000E+00 -0.14649325476E+04  0.14649325476E+04  0.50400001928E-02 0.  1.
    10030    2    1    2    0    0  0.00000000000E+00  0.00000000000E+00 -0.39640824571E+03  0.25334568494E+04  0.25022518080E+04 0.  0.
        2    1    3    3  502    0  0.11122357356E+04 -0.51730850926E+03  0.51117917303E+02  0.12277171771E+04  0.25500000920E-02 0. -1.
       -2    1    3    3    0  502 -0.11122357356E+04  0.51730850926E+03 -0.44752616301E+03  0.13057396724E+04  0.25500000920E-02 0.  1.
</event>
<event>
 5   0  0.1519145E-06  0.2499541E+04  0.7818609E-02  0.8403149E-01
        1   -1    0    0  501    0  0.00000000000E+00  0.00000000000E+00  0.10975759644E+04  0.10975759644E+04  0.50400001928E-02 0. -1.
       -1   -1    0    0    0  501  0.00000000000E+00  0.00000000000E+00 -0.14230693357E+04  0.14230693357E+04  0.50400001928E-02 0.  1.
    10030    2    1    2    0    0  0.00000000000E+00  0.00000000000E+00 -0.32549337133E+03  0.25206453001E+04  0.24995413167E+04 0.  0.
        4    1    3    3  502    0  0.60743137829E+02 -0.93019620867E+03  0.67673021385E+03  0.11519201842E+04  0.12699999809E+01 0. -1.
       -4    1    3    3    0  502 -0.60743137829E+02  0.93019620867E+03 -0.10022235852E+04  0.13687251159E+04  0.12699999809E+01 0.  1.
</event>
<event>
 5   0  0.3971759E-06  0.2501114E+04  0.7818609E-02  0.8402589E-01
        2   -1    0    0  501    0  0.00000000000E+00  0.00000000000E+00  0.24061651284E+04  0.24061651284E+04  0.25500000920E-02 0. -1.
       -2   -1    0    0    0  501  0.00000000000E+00  0.00000000000E+00 -0.64995247558E+03  0.64995247559E+03  0.25500000920E-02 0.  1.
    10030    2    1    2    0    0  0.00000000000E+00  0.00000000000E+00  0.17562126528E+04  0.30561176040E+04  0.25011141373E+04 0.  0.
        4    1    3    3  502    0 -0.89467111644E+03 -0.26804939805E+03  0.18942741784E+04  0.21120045366E+04  0.12699999809E+01 0. -1.
       -4    1    3    3    0  502  0.89467111644E+03  0.26804939805E+03 -0.13806152561E+03  0.94411306746E+03  0.12699999809E+01 0.  1.
</event>
<event>
 5   0  0.3924441E-06  0.2497743E+04  0.7818609E-02  0.8403790E-01
       -2   -1    0    0    0  501  0.00000000000E+00  0.00000000000E+00  0.89188399261E+03  0.89188399262E+03  0.25500000920E-02 0.  1.
        2   -1    0    0  501    0  0.00000000000E+00  0.00000000000E+00 -0.17487473488E+04  0.17487473488E+04  0.25500000920E-02 0. -1.
    10030    2    1    2    0    0  0.00000000000E+00  0.00000000000E+00 -0.85686335620E+03  0.26406313414E+04  0.24977427950E+04 0.  0.
        2    1    3    3  502    0 -0.56474124564E+03  0.10896850425E+04 -0.67258380576E+03  0.13995410470E+04  0.25500000920E-02 0. -1.
       -2    1    3    3    0  502  0.56474124564E+03 -0.10896850425E+04 -0.18427955044E+03  0.12410902945E+04  0.25500000920E-02 0.  1.
</event>
<event>
 5   0  0.1553604E-06  0.2498320E+04  0.7818609E-02  0.8403584E-01
       -1   -1    0    0    0  501  0.00000000000E+00  0.00000000000E+00  0.12461009762E+04  0.12461009762E+04  0.50400001928E-02 0. -1.
        1   -1    0    0  501    0  0.00000000000E+00  0.00000000000E+00 -0.12522262068E+04  0.12522262068E+04  0.50400001928E-02 0.  1.
    10030    2    1    2    0    0  0.00000000000E+00  0.00000000000E+00 -0.61252306276E+01  0.24983271830E+04  0.24983196743E+04 0.  0.
        1    1    3    3  502    0 -0.12177100561E+04  0.16190996536E+03  0.22358245949E+03  0.12486079183E+04  0.50400001928E-02 0. -1.
       -1    1    3    3    0  502  0.12177100561E+04 -0.16190996536E+03 -0.22970769012E+03  0.12497192647E+04  0.50400001928E-02 0.  1.
</event>
<event>
 5   0  0.3814260E-06  0.2500532E+04  0.7818609E-02  0.8402796E-01
       -2   -1    0    0    0  501  0.00000000000E+00  0.00000000000E+00  0.10376800092E+04  0.10376800092E+04  0.25500000920E-02 0.  1.
        2   -1    0    0  501    0  0.00000000000E+00  0.00000000000E+00 -0.15064039584E+04  0.15064039584E+04  0.25500000920E-02 0. -1.
    10030    2    1    2    0    0  0.00000000000E+00  0.00000000000E+00 -0.46872394916E+03  0.25440839676E+04  0.25005321621E+04 0.  0.
        5    1    3    3  502    0 -0.39295074390E+03 -0.32744496032E+03 -0.13950705697E+04  0.14858918109E+04  0.46999998093E+01 0. -1.
       -5    1    3    3    0  502  0.39295074390E+03  0.32744496032E+03  0.92634662054E+03  0.10581921567E+04  0.46999998093E+01 0.  1.
</event>
<event>
 5   0  0.1574896E-06  0.2480574E+04  0.7818609E-02  0.8409939E-01
        1   -1    0    0  501    0  0.00000000000E+00  0.00000000000E+00  0.15464745436E+04  0.15464745436E+04  0.50400001928E-02 0. -1.
       -1   -1    0    0    0  501  0.00000000000E+00  0.00000000000E+00 -0.99472202003E+03  0.99472202005E+03  0.50400001928E-02 0.  1.
    10030    2    1    2    0    0  0.00000000000E+00  0.00000000000E+00  0.55175252358E+03  0.25411965637E+04  0.24805743544E+04 0.  0.
        3    1    3    3  502    0  0.10389114327E+04  0.27291305200E+02  0.96934677969E+03  0.14211667635E+04  0.10100000352E+00 0. -1.
       -3    1    3    3    0  502 -0.10389114327E+04 -0.27291305200E+02 -0.41759425611E+03  0.11200298001E+04  0.10100000352E+00 0.  1.
</event>
<event>
 5   0  0.3971759E-06  0.2500289E+04  0.7818609E-02  0.8402883E-01
        2   -1    0    0  501    0  0.00000000000E+00  0.00000000000E+00  0.13325821785E+04  0.13325821785E+04  0.25500000920E-02 0.  1.
       -2   -1    0    0    0  501  0.00000000000E+00  0.00000000000E+00 -0.11728067771E+04  0.11728067771E+04  0.25500000920E-02 0. -1.
    10030    2    1    2    0    0  0.00000000000E+00  0.00000000000E+00  0.15977540139E+03  0.25053889556E+04  0.25002891113E+04 0.  0.
        4    1    3    3  502    0 -0.48570764818E+03  0.13680137025E+03 -0.10662255211E+04  0.11796037509E+04  0.12699999809E+01 0. -1.
       -4    1    3    3    0  502  0.48570764818E+03 -0.13680137025E+03  0.12260009224E+04  0.13257852048E+04  0.12699999809E+01 0.  1.
</event>
<event>
 5   0  0.1501747E-06  0.2501125E+04  0.7818609E-02  0.8402585E-01
       -1   -1    0    0    0  501  0.00000000000E+00  0.00000000000E+00  0.92296891917E+03  0.92296891918E+03  0.50400001928E-02 0. -1.
        1   -1    0    0  501    0  0.00000000000E+00  0.00000000000E+00 -0.16944301123E+04  0.16944301123E+04  0.50400001928E-02 0.  1.
    10030    2    1    2    0    0  0.00000000000E+00  0.00000000000E+00 -0.77146119309E+03  0.26173990314E+04  0.25011248104E+04 0.  0.
        2    1    3    3  502    0 -0.16999239036E+03 -0.11385341668E+04  0.12560406516E+03  0.11579869788E+04  0.25500000920E-02 0. -1.
       -2    1    3    3    0  502  0.16999239036E+03  0.11385341668E+04 -0.89706525825E+03  0.14594120527E+04  0.25500000920E-02 0.  1.
</event>
<event>
 5   0  0.1553604E-06  0.2500349E+04  0.7818609E-02  0.8402861E-01
       -1   -1    0    0    0  501  0.00000000000E+00  0.00000000000E+00  0.88468931275E+03  0.88468931276E+03  0.50400001928E-02 0.  1.
        1   -1    0    0  501    0  0.00000000000E+00  0.00000000000E+00 -0.17666500020E+04  0.17666500020E+04  0.50400001928E-02 0. -1.
    10030    2    1    2    0    0  0.00000000000E+00  0.00000000000E+00 -0.88196068926E+03  0.26513393148E+04  0.25003490766E+04 0.  0.
        1    1    3    3  502    0  0.50457071981E+03 -0.23571834527E+03 -0.16278481628E+04  0.17204779541E+04  0.50400001928E-02 0. -1.
       -1    1    3    3    0  502 -0.50457071981E+03  0.23571834527E+03  0.74588747351E+03  0.93086136065E+03  0.50400001928E-02 0.  1.
</event>
<event>
 5   0  0.1553604E-06  0.2501904E+04  0.7818609E-02  0.8402308E-01
        1   -1    0    0  501    0  0.00000000000E+00  0.00000000000E+00  0.11269018938E+04  0.11269018938E+04  0.50400001928E-02 0.  1.
       -1   -1    0    0    0  501  0.00000000000E+00  0.00000000000E+00 -0.13886573180E+04  0.13886573181E+04  0.50400001928E-02 0. -1.
    10030    2    1    2    0    0  0.00000000000E+00  0.00000000000E+00 -0.26175542427E+03  0.25155592118E+04  0.25019037244E+04 0.  0.
        1    1    3    3  502    0  0.17297046861E+03  0.57845453873E+02 -0.13752171130E+04  0.13872588033E+04  0.50400001928E-02 0. -1.
       -1    1    3    3    0  502 -0.17297046861E+03 -0.57845453873E+02  0.11134616887E+04  0.11283004085E+04  0.50400001928E-02 0.  1.
</event>
<event>
 5   0  0.1574896E-06  0.2501695E+04  0.7818609E-02  0.8402382E-01
        1   -1    0    0  501    0  0.00000000000E+00  0.00000000000E+00  0.20832117846E+04  0.20832117846E+04  0.50400001928E-02 0.  1.
       -1   -1    0    0    0  501  0.00000000000E+00  0.00000000000E+00 -0.75106095924E+03  0.75106095926E+03  0.50400001928E-02 0. -1.
    10030    2    1    2    0    0  0.00000000000E+00  0.00000000000E+00  0.13321508254E+04  0.28342727439E+04  0.25016946587E+04 0.  0.
        3    1    3    3  502    0  0.11166612018E+04  0.56363614805E+03  0.66489584791E+03  0.14165819587E+04  0.10100000352E+00 0.  1.
       -3    1    3    3    0  502 -0.11166612018E+04 -0.56363614805E+03  0.66725497747E+03  0.14176907851E+04  0.10100000352E+00 0. -1.
</event>
<event>
 5   0  0.3971759E-06  0.2502661E+04  0.7818609E-02  0.8402038E-01
       -2   -1    0    0    0  501  0.00000000000E+00  0.00000000000E+00  0.84793787837E+03  0.84793787837E+03  0.25500000920E-02 0.  1.
        2   -1    0    0  501    0  0.00000000000E+00  0.00000000000E+00 -0.18466301170E+04  0.18466301170E+04  0.25500000920E-02 0. -1.
    10030    2    1    2    0    0  0.00000000000E+00  0.00000000000E+00 -0.99869223866E+03  0.26945679954E+04  0.25026606830E+04 0.  0.
        4    1    3    3  502    0 -0.77077201916E+03 -0.28932710075E+02  0.56155349961E+03  0.95408099921E+03  0.12699999809E+01 0.  1.
       -4    1    3    3    0  502  0.77077201916E+03  0.28932710075E+02 -0.15602457383E+04  0.17404869962E+04  0.12699999809E+01 0. -1.
</event>
<event>
 5   0  0.3808293E-06  0.2497394E+04  0.7818609E-02  0.8403915E-01
       -2   -1    0    0    0  501  0.00000000000E+00  0.00000000000E+00  0.11960442889E+04  0.11960442889E+04  0.25500000920E-02 0.  1.
        2   -1    0    0  501    0  0.00000000000E+00  0.00000000000E+00 -0.13036674668E+04  0.13036674668E+04  0.25500000920E-02 0. -1.
    10030    2    1    2    0    0  0.00000000000E+00  0.00000000000E+00 -0.10762317792E+03  0.24997117557E+04  0.24973938642E+04 0.  0.
        1    1    3    3  502    0  0.14704614351E+03 -0.96322424247E+03 -0.83544642836E+03  0.12835085681E+04  0.50400001928E-02 0. -1.
       -1    1    3    3    0  502 -0.14704614351E+03  0.96322424247E+03  0.72782325044E+03  0.12162031876E+04  0.50400001928E-02 0.  1.
</event>
<event>
 5   0  0.1501747E-06  0.2496411E+04  0.7818609E-02  0.8404265E-01
        1   -1    0    0  501    0  0.00000000000E+00  0.00000000000E+00  0.16864302952E+04  0.16864302953E+04  0.50400001928E-02 0. -1.
       -1   -1    0    0    0  501  0.00000000000E+00  0.00000000000E+00 -0.92385485462E+03  0.92385485463E+03  0.50400001928E-02 0.  1.
    10030    2    1    2    0    0  0.00000000000E+00  0.00000000000E+00  0.76257544063E+03  0.26102851499E+04  0.24964108759E+04 0.  0.
        2    1    3    3  502    0  0.77253384808E+03  0.38200803772E+03  0.13254024696E+04  0.15809586945E+04  0.25500000920E-02 0. -1.
       -2    1    3    3    0  502 -0.77253384808E+03 -0.38200803772E+03 -0.56282702893E+03  0.10293264554E+04  0.25500000920E-02 0.  1.
</event>
<event>
 5   0  0.1501747E-06  0.2501396E+04  0.7818609E-02  0.8402488E-01
       -1   -1    0    0    0  501  0.00000000000E+00  0.00000000000E+00  0.74944982721E+03  0.74944982723E+03  0.50400001928E-02 0. -1.
        1   -1    0    0  501    0  0.00000000000E+00  0.00000000000E+00 -0.20871911733E+04  0.20871911733E+04  0.50400001928E-02 0.  1.
    10030    2    1    2    0    0  0.00000000000E+00  0.00000000000E+00 -0.13377413461E+04  0.28366410006E+04  0.25013956618E+04 0.  0.
        2    1    3    3  502    0 -0.49133925352E+01  0.11267323917E+04 -0.12844845442E+04  0.17086399762E+04  0.25500000920E-02 0. -1.
       -2    1    3    3    0  502  0.49133925352E+01 -0.11267323917E+04 -0.53256801944E+02  0.11280010244E+04  0.25500000920E-02 0.  1.
</event>
<event>
 5   0  0.1287375E-06  0.2500435E+04  0.7818609E-02  0.8402831E-01
       -3   -1    0    0    0  501  0.00000000000E+00  0.00000000000E+00  0.26974964400E+04  0.26974964418E+04  0.10100000352E+00 0. -1.
        3   -1    0    0  501    0  0.00000000000E+00  0.00000000000E+00 -0.57944233562E+03  0.57944234442E+03  0.10100000352E+00 0.  1.
    10030    2    1    2    0    0  0.00000000000E+00  0.00000000000E+00  0.21180541043E+04  0.32769387863E+04  0.25004348862E+04 0.  0.
        2    1    3    3  502    0 -0.11702596383E+03  0.27326745832E+03 -0.53245121920E+03  0.60981512020E+03  0.25500000920E-02 0.  1.
       -2    1    3    3    0  502  0.11702596383E+03 -0.27326745832E+03  0.26505053235E+04  0.26671236661E+04  0.25500000920E-02 0. -1.
</event>
<event>
 5   0  0.3971759E-06  0.2511297E+04  0.7818609E-02  0.8398972E-01
        2   -1    0    0  501    0  0.00000000000E+00  0.00000000000E+00  0.91669806376E+03  0.91669806377E+03  0.25500000920E-02 0. -1.
       -2   -1    0    0    0  501  0.00000000000E+00  0.00000000000E+00 -0.17199258836E+04  0.17199258836E+04  0.25500000920E-02 0.  1.
    10030    2    1    2    0    0  0.00000000000E+00  0.00000000000E+00 -0.80322781987E+03  0.26366239474E+04  0.25112966590E+04 0.  0.
        4    1    3    3  502    0 -0.10951501466E+04  0.26496062946E+03  0.18020151083E+03  0.11410662453E+04  0.12699999809E+01 0.  1.
       -4    1    3    3    0  502  0.10951501466E+04 -0.26496062946E+03 -0.98342933070E+03  0.14955577021E+04  0.12699999809E+01 0. -1.
</event>
<event>
 5   0  0.1574896E-06  0.2497177E+04  0.7818609E-02  0.8403992E-01
       -1   -1    0    0    0  501  0.00000000000E+00  0.00000000000E+00  0.11670425381E+04  0.11670425382E+04  0.50400001928E-02 0.  1.
        1   -1    0    0  501    0  0.00000000000E+00  0.00000000000E+00 -0.13358321400E+04  0.13358321400E+04  0.50400001928E-02 0. -1.
    10030    2    1    2    0    0  0.00000000000E+00  0.00000000000E+00 -0.16878960182E+03  0.25028746781E+04  0.24971767508E+04 0.  0.
        3    1    3    3  502    0  0.50486830031E+03  0.47015755024E+03 -0.11274580071E+04  0.13217797437E+04  0.10100000352E+00 0. -1.
       -3    1    3    3    0  502 -0.50486830031E+03 -0.47015755024E+03  0.95866840530E+03  0.11810949345E+04  0.10100000352E+00 0.  1.
</event>
<event>
 5   0  0.3971759E-06  0.2499800E+04  0.7818609E-02  0.8403057E-01
       -2   -1    0    0    0  501  0.00000000000E+00  0.00000000000E+00  0.63992229123E+03  0.63992229124E+03  0.25500000920E-02 0. -1.
        2   -1    0    0  501    0  0.00000000000E+00  0.00000000000E+00 -0.24413129071E+04  0.24413129071E+04  0.25500000920E-02 0.  1.
    10030    2    1    2    0    0  0.00000000000E+00  0.00000000000E+00 -0.18013906159E+04  0.30812351984E+04  0.24998004314E+04 0.  0.
        4    1    3    3  502    0 -0.18703199667E+03 -0.12234083528E+04 -0.11160993356E+04  0.16665498208E+04  0.12699999809E+01 0.  1.
       -4    1    3    3    0  502  0.18703199667E+03  0.12234083528E+04 -0.68529128030E+03  0.14146853775E+04  0.12699999809E+01 0. -1.
</event>
<event>
 5   0  0.1574896E-06  0.2497258E+04  0.7818609E-02  0.8403963E-01
        1   -1    0    0  501    0  0.00000000000E+00  0.00000000000E+00  0.11330810460E+04  0.11330810460E+04  0.50400001928E-02 0.  1.
       -1   -1    0    0    0  501  0.00000000000E+00  0.00000000000E+00 -0.13759606345E+04  0.13759606345E+04  0.50400001928E-02 0. -1.
    10030    2    1    2    0    0  0.00000000000E+00  0.00000000000E+00 -0.24287958848E+03  0.25090416806E+04  0.24972584288E+04 0.  0.
        3    1    3    3  502    0  0.25476153549E+03 -0.47324985909E+03 -0.12537918538E+04  0.13641344846E+04  0.10100000352E+00 0. -1.
       -3    1    3    3    0  502 -0.25476153549E+03  0.47324985909E+03  0.10109122653E+04  0.11449071960E+04  0.10100000352E+00 0.  1.
</event>
<event>
 5   0  0.1574896E-06  0.2508419E+04  0.7818609E-02  0.8399992E-01
        1   -1    0    0  501    0  0.00000000000E+00  0.00000000000E+00  0.17723094646E+04  0.17723094646E+04  0.50400001928E-02 0.  1.
       -1   -1    0    0    0  501  0.00000000000E+00  0.00000000000E+00 -0.88756592769E+03  0.88756592770E+03  0.50400001928E-02 0. -1.
    10030    2    1    2    0    0  0.00000000000E+00  0.00000000000E+00  0.88474353694E+03  0.26598753923E+04  0.25084190194E+04 0.  0.
        3    1    3    3  502    0  0.90431302039E+03 -0.84893176962E+03  0.63954042501E+03  0.13955211047E+04  0.10100000352E+00 0.  1.
       -3    1    3    3    0  502 -0.90431302039E+03  0.84893176962E+03  0.24520311193E+03  0.12643542876E+04  0.10100000352E+00 0. -1.
</event>
<event>
 5   0  0.3808293E-06  0.2499788E+04  0.7818609E-02  0.8403061E-01
       -2   -1    0    0    0  501  0.00000000000E+00  0.00000000000E+00  0.10686141663E+04  0.10686141663E+04  0.25500000920E-02 0. -1.
        2   -1    0    0  501    0  0.00000000000E+00  0.00000000000E+00 -0.14619259838E+04  0.14619259838E+04  0.25500000920E-02 0.  1.
    10030    2    1    2    0    0  0.00000000000E+00  0.00000000000E+00 -0.39331181754E+03  0.25305401501E+04  0.24997878441E+04 0.  0.
        1    1    3    3  502    0 -0.36588914093E+03  0.10414792054E+04 -0.79011099083E+03  0.13575084444E+04  0.50400001928E-02 0.  1.
       -1    1    3    3    0  502  0.36588914093E+03 -0.10414792054E+04  0.39679917329E+03  0.11730317057E+04  0.50400001928E-02 0. -1.
</event>
<event>
 5   0  0.3808293E-06  0.2494562E+04  0.7818609E-02  0.8404925E-01
       -2   -1    0    0    0  501  0.00000000000E+00  0.00000000000E+00  0.97837606516E+03  0.97837606516E+03  0.25500000920E-02 0.  1.
        2   -1    0    0  501    0  0.00000000000E+00  0.00000000000E+00 -0.15900937914E+04  0.15900937914E+04  0.25500000920E-02 0. -1.
    10030    2    1    2    0    0  0.00000000000E+00  0.00000000000E+00 -0.61171772628E+03  0.25684698566E+04  0.24945618508E+04 0.  0.
        1    1    3    3  502    0 -0.21922646566E+02 -0.11791723183E+04  0.11210116506E+03  0.11846917869E+04  0.50400001928E-02 0.  1.
       -1    1    3    3    0  502  0.21922646566E+02  0.11791723183E+04 -0.72381889134E+03  0.13837780697E+04  0.50400001928E-02 0. -1.
</event>
<event>
 5   0  0.3971759E-06  0.2493459E+04  0.7818609E-02  0.8405320E-01
        2   -1    0    0  501    0  0.00000000000E+00  0.00000000000E+00  0.16076317249E+04  0.16076317249E+04  0.25500000920E-02 0. -1.
       -2   -1    0    0    0  501  0.00000000000E+00  0.00000000000E+00 -0.96684728710E+03  0.96684728710E+03  0.25500000920E-02 0.  1.
    10030    2    1    2    0    0  0.00000000000E+00  0.00000000000E+00  0.64078443780E+03  0.25744790120E+04  0.24934589404E+04 0.  0.
        4    1    3    3  502    0  0.22961433311E+02  0.37275991905E+03 -0.90773452755E+03  0.98156037515E+03  0.12699999809E+01 0.  1.
       -4    1    3    3    0  502 -0.22961433311E+02 -0.37275991905E+03  0.15485189654E+04  0.15929186368E+04  0.12699999809E+01 0. -1.
</event>
<event>
 5   0  0.3971759E-06  0.2500664E+04  0.7818609E-02  0.8402749E-01
        2   -1    0    0  501    0  0.00000000000E+00  0.00000000000E+00  0.23714743147E+04  0.23714743147E+04  0.25500000920E-02 0. -1.
       -2   -1    0    0    0  501  0.00000000000E+00  0.00000000000E+00 -0.65922286734E+03  0.65922286734E+03  0.25500000920E-02 0.  1.
    10030    2    1    2    0    0  0.00000000000E+00  0.00000000000E+00  0.17122514474E+04  0.30306971821E+04  0.25006639899E+04 0.  0.
        4    1    3    3  502    0 -0.21481907334E+03 -0.43164173835E+03  0.22542780117E+04  0.23052619789E+04  0.12699999809E+01 0. -1.
       -4    1    3    3    0  502  0.21481907334E+03  0.43164173835E+03 -0.54202656434E+03  0.72543520311E+03  0.12699999809E+01 0.  1.
</event>
<event>
 5   0  0.1553604E-06  0.2500006E+04  0.7818609E-02  0.8402983E-01
        1   -1    0    0  501    0  0.00000000000E+00  0.00000000000E+00  0.17629778147E+04  0.17629778147E+04  0.50400001928E-02 0.  1.
       -1   -1    0    0    0  501  0.00000000000E+00  0.00000000000E+00 -0.88628859961E+03  0.88628859963E+03  0.50400001928E-02 0. -1.
    10030    2    1    2    0    0  0.00000000000E+00  0.00000000000E+00  0.87668921506E+03  0.26492664143E+04  0.25000057108E+04 0.  0.
        1    1    3    3  502    0 -0.53158918395E+03  0.41482925254E+03  0.15537237546E+04  0.16937319372E+04  0.50400001928E-02 0.  1.
       -1    1    3    3    0  502  0.53158918395E+03 -0.41482925254E+03 -0.67703453955E+03  0.95553447715E+03  0.50400001928E-02 0. -1.
</event>
<event>
 5   0  0.1574896E-06  0.2470041E+04  0.7818609E-02  0.8413737E-01
       -1   -1    0    0    0  501  0.00000000000E+00  0.00000000000E+00  0.56650749794E+03  0.56650749796E+03  0.50400001928E-02 0.  1.
        1   -1    0    0  501    0  0.00000000000E+00  0.00000000000E+00 -0.26924182645E+04  0.26924182645E+04  0.50400001928E-02 0. -1.
    10030    2    1    2    0    0  0.00000000000E+00  0.00000000000E+00 -0.21259107666E+04  0.32589257625E+04  0.24700405944E+04 0.  0.
        3    1    3    3  502    0 -0.93191032770E+03  0.33181332272E+03 -0.20385112302E+04  0.22658519338E+04  0.10100000352E+00 0. -1.
       -3    1    3    3    0  502  0.93191032770E+03 -0.33181332272E+03 -0.87399536342E+02  0.99307382866E+03  0.10100000352E+00 0.  1.
</event>
<event>
 5   0  0.3924441E-06  0.2500685E+04  0.7818609E-02  0.8402742E-01
       -2   -1    0    0    0  501  0.00000000000E+00  0.00000000000E+00  0.12994833803E+04  0.12994833803E+04  0.25500000920E-02 0.  1.
        2   -1    0    0  501    0  0.00000000000E+00  0.00000000000E+00 -0.12030598174E+04  0.12030598174E+04  0.25500000920E-02 0. -1.
    10030    2    1    2    0    0  0.00000000000E+00  0.00000000000E+00  0.96423562900E+02  0.25025431976E+04  0.25006848967E+04 0.  0.
        2    1    3    3  502    0 -0.12254881441E+04  0.11362446314E+03 -0.17246178380E+03  0.12427689958E+04  0.25500000920E-02 0. -1.
       -2    1    3    3    0  502  0.12254881441E+04 -0.11362446314E+03  0.26888534670E+03  0.12597742019E+04  0.25500000920E-02 0.  1.
</event>
<event>
 5   0  0.1501747E-06  0.2501485E+04  0.7818609E-02  0.8402457E-01
       -1   -1    0    0    0  501  0.00000000000E+00  0.00000000000E+00  0.16254095210E+04  0.16254095210E+04  0.50400001928E-02 0.  1.
        1   -1    0    0  501    0  0.00000000000E+00  0.00000000000E+00 -0.96243818118E+03  0.96243818119E+03  0.50400001928E-02 0. -1.
    10030    2    1    2    0    0  0.00000000000E+00  0.00000000000E+00  0.66297133981E+03  0.25878477022E+04  0.25014845057E+04 0.  0.
        2    1    3    3  502    0  0.84368277404E+03  0.89134800346E+03  0.58074882073E+03  0.13577816759E+04  0.25500000920E-02 0.  1.
       -2    1    3    3    0  502 -0.84368277404E+03 -0.89134800346E+03  0.82222519073E+02  0.12300660263E+04  0.25500000920E-02 0. -1.
</event>
<event>
 5   0  0.1519145E-06  0.2516712E+04  0.7818609E-02  0.8397056E-01
       -1   -1    0    0    0  501  0.00000000000E+00  0.00000000000E+00  0.66075461503E+03  0.66075461505E+03  0.50400001928E-02 0. -1.
        1   -1    0    0  501    0  0.00000000000E+00  0.00000000000E+00 -0.23964415360E+04  0.23964415360E+04  0.50400001928E-02 0.  1.
    10030    2    1    2    0    0  0.00000000000E+00  0.00000000000E+00 -0.17356869210E+04  0.30571961510E+04  0.25167119856E+04 0.  0.
        4    1    3    3  502    0  0.12421123884E+04 -0.15914962702E+03 -0.71765297155E+03  0.14433292035E+04  0.12699999809E+01 0. -1.
       -4    1    3    3    0  502 -0.12421123884E+04  0.15914962702E+03 -0.10180339494E+04  0.16138669475E+04  0.12699999809E+01 0.  1.
</event>
<event>
 5   0  0.1519145E-06  0.2501744E+04  0.7818609E-02  0.8402365E-01
        1   -1    0    0  501    0  0.00000000000E+00  0.00000000000E+00  0.11501457600E+04  0.11501457600E+04  0.50400001928E-02 0.  1.
       -1   -1    0    0    0  501  0.00000000000E+00  0.00000000000E+00 -0.13604192555E+04  0.13604192556E+04  0.50400001928E-02 0. -1.
    10030    2    1    2    0    0  0.00000000000E+00  0.00000000000E+00 -0.21027349558E+03  0.25105650155E+04  0.25017437427E+04 0.  0.
        4    1    3    3  502    0  0.99784442720E+03 -0.20734917674E+03  0.62267334331E+03  0.11943244481E+04  0.12699999809E+01 0.  1.
       -4    1    3    3    0  502 -0.99784442720E+03  0.20734917674E+03 -0.83294683889E+03  0.13162405674E+04  0.12699999809E+01 0. -1.
</event>
<event>
 5   0  0.3924441E-06  0.2501442E+04  0.7818609E-02  0.8402472E-01
        2   -1    0    0  501    0  0.00000000000E+00  0.00000000000E+00  0.13012037832E+04  0.13012037832E+04  0.25500000920E-02 0.  1.
       -2   -1    0    0    0  501  0.00000000000E+00  0.00000000000E+00 -0.12021971757E+04  0.12021971757E+04  0.25500000920E-02 0. -1.
    10030    2    1    2    0    0  0.00000000000E+00  0.00000000000E+00  0.99006607482E+02  0.25034009588E+04  0.25014423944E+04 0.  0.
        2    1    3    3  502    0  0.81527628253E+03  0.86148066080E+03  0.44665046546E+03  0.12674071895E+04  0.25500000920E-02 0. -1.
       -2    1    3    3    0  502 -0.81527628253E+03 -0.86148066080E+03 -0.34764385798E+03  0.12359937693E+04  0.25500000920E-02 0.  1.
</event>
<event>
 5   0  0.1553604E-06  0.2501810E+04  0.7818609E-02  0.8402341E-01
        1   -1    0    0  501    0  0.00000000000E+00  0.00000000000E+00  0.14911643064E+04  0.14911643064E+04  0.50400001928E-02 0. -1.
       -1   -1    0    0    0  501  0.00000000000E+00  0.00000000000E+00 -0.10493570622E+04  0.10493570622E+04  0.50400001928E-02 0.  1.
    10030    2    1    2    0    0  0.00000000000E+00  0.00000000000E+00  0.44180724421E+03  0.25405213686E+04  0.25018103811E+04 0.  0.
        1    1    3    3  502    0  0.92714351040E+03  0.28189302467E+03 -0.58235109541E+03  0.11305713443E+04  0.50400001928E-02 0.  1.
       -1    1    3    3    0  502 -0.92714351040E+03 -0.28189302467E+03  0.10241583396E+04  0.14099500243E+04  0.50400001928E-02 0. -1.
</event>
<event>
 5   0  0.3924441E-06  0.2500701E+04  0.7818609E-02  0.8402736E-01
       -2   -1    0    0    0  501  0.00000000000E+00  0.00000000000E+00  0.92717113176E+03  0.92717113177E+03  0.25500000920E-02 0.  1.
        2   -1    0    0  501    0  0.00000000000E+00  0.00000000000E+00 -0.16861787476E+04  0.16861787476E+04  0.25500000920E-02 0. -1.
    10030    2    1    2    0    0  0.00000000000E+00  0.00000000000E+00 -0.75900761579E+03  0.26133498793E+04  0.25007009079E+04 0.  0.
        2    1    3    3  502    0  0.57502709633E+03 -0.62502499232E+02 -0.15379578221E+04  0.16431302403E+04  0.25500000920E-02 0. -1.
       -2    1    3    3    0  502 -0.57502709633E+03  0.62502499232E+02  0.77895020636E+03  0.97021963901E+03  0.25500000920E-02 0.  1.
</event>
<event>
 5   0  0.3924441E-06  0.2505784E+04  0.7818609E-02  0.8400928E-01
        2   -1    0    0  501    0  0.00000000000E+00  0.00000000000E+00  0.99721970936E+03  0.99721970936E+03  0.25500000920E-02 0.  1.
       -2   -1    0    0    0  501  0.00000000000E+00  0.00000000000E+00 -0.15741150390E+04  0.15741150390E+04  0.25500000920E-02 0. -1.
    10030    2    1    2    0    0  0.00000000000E+00  0.00000000000E+00 -0.57689532960E+03  0.25713347483E+04  0.25057841421E+04 0.  0.
        2    1    3    3  502    0 -0.58094518070E+02  0.36145098750E+03 -0.15180065889E+04  0.15615267508E+04  0.25500000920E-02 0. -1.
       -2    1    3    3    0  502  0.58094518070E+02 -0.36145098750E+03  0.94111125934E+03  0.10098079975E+04  0.25500000920E-02 0.  1.
</event>
<event>
 5   0  0.3924441E-06  0.2498383E+04  0.7818609E-02  0.8403562E-01
        2   -1    0    0  501    0  0.00000000000E+00  0.00000000000E+00  0.22333876597E+04  0.22333876597E+04  0.25500000920E-02 0.  1.
       -2   -1    0    0    0  501  0.00000000000E+00  0.00000000000E+00 -0.69870520727E+03  0.69870520728E+03  0.25500000920E-02 0. -1.
    10030    2    1    2    0    0  0.00000000000E+00  0.00000000000E+00  0.15346824524E+04  0.29320928670E+04  0.24983831473E+04 0.  0.
        2    1    3    3  502    0  0.51240203662E+03  0.53680063158E+03  0.19466557806E+04  0.20833097449E+04  0.25500000920E-02 0.  1.
       -2    1    3    3    0  502 -0.51240203662E+03 -0.53680063158E+03 -0.41197332814E+03  0.84878312207E+03  0.25500000920E-02 0. -1.
</event>
<event>
 5   0  0.3808293E-06  0.2500705E+04  0.7818609E-02  0.8402735E-01
        2   -1    0    0  501    0  0.00000000000E+00  0.00000000000E+00  0.18902471633E+04  0.18902471633E+04  0.25500000920E-02 0.  1.
       -2   -1    0    0    0  501  0.00000000000E+00  0.00000000000E+00 -0.82707758869E+03  0.82707758869E+03  0.25500000920E-02 0. -1.
    10030    2    1    2    0    0  0.00000000000E+00  0.00000000000E+00  0.10631695746E+04  0.27173247520E+04  0.25007047533E+04 0.  0.
        1    1    3    3  502    0  0.12256428938E+04 -0.24683496821E+03  0.51429889554E+03  0.13518991674E+04  0.50400001928E-02 0.  1.
       -1    1    3    3    0  502 -0.12256428938E+04  0.24683496821E+03  0.54887067908E+03  0.13654255846E+04  0.50400001928E-02 0. -1.
</event>
<event>
 5   0  0.1501747E-06  0.2499333E+04  0.7818609E-02  0.8403223E-01
        1   -1    0    0  501    0  0.00000000000E+00  0.00000000000E+00  0.13967381664E+04  0.13967381664E+04  0.50400001928E-02 0.  1.
       -1   -1    0    0    0  501  0.00000000000E+00  0.00000000000E+00 -0.11180813604E+04  0.11180813604E+04  0.50400001928E-02 0. -1.
    10030    2    1    2    0    0  0.00000000000E+00  0.00000000000E+00  0.27865680599E+03  0.25148195269E+04  0.24993334386E+04 0.  0.
        2    1    3    3  502    0  0.34380506936E+02 -0.11288510293E+04 -0.39894441464E+03  0.11977659669E+04  0.25500000920E-02 0. -1.
       -2    1    3    3    0  502 -0.34380506936E+02  0.11288510293E+04  0.67760122063E+03  0.13170535599E+04  0.25500000920E-02 0.  1.
</event>
<event>
 5   0  0.3971759E-06  0.2510978E+04  0.7818609E-02  0.8399085E-01
       -2   -1    0    0    0  501  0.00000000000E+00  0.00000000000E+00  0.11876113996E+04  0.11876113996E+04  0.25500000920E-02 0.  1.
        2   -1    0    0  501    0  0.00000000000E+00  0.00000000000E+00 -0.13272460514E+04  0.13272460514E+04  0.25500000920E-02 0. -1.
    10030    2    1    2    0    0  0.00000000000E+00  0.00000000000E+00 -0.13963465186E+03  0.25148574510E+04  0.25109779296E+04 0.  0.
        4    1    3    3  502    0  0.48472400474E+03 -0.73680984969E+03 -0.96473286812E+03  0.13071179117E+04  0.12699999809E+01 0. -1.
       -4    1    3    3    0  502 -0.48472400474E+03  0.73680984969E+03  0.82509821626E+03  0.12077395393E+04  0.12699999809E+01 0.  1.
</event>
<event>
 5   0  0.3814260E-06  0.2498104E+04  0.7818609E-02  0.8403661E-01
       -2   -1    0    0    0  501  0.00000000000E+00  0.00000000000E+00  0.13442633933E+04  0.13442633933E+04  0.25500000920E-02 0. -1.
        2   -1    0    0  501    0  0.00000000000E+00  0.00000000000E+00 -0.11605845811E+04  0.11605845811E+04  0.25500000920E-02 0.  1.
    10030    2    1    2    0    0  0.00000000000E+00  0.00000000000E+00  0.18367881225E+03  0.25048479744E+04  0.24981043751E+04 0.  0.
        5    1    3    3  502    0  0.97224037317E+03 -0.64943460547E+03  0.53244868461E+03  0.12847335684E+04  0.46999998093E+01 0. -1.
       -5    1    3    3    0  502 -0.97224037317E+03  0.64943460547E+03 -0.34876987236E+03  0.12201144061E+04  0.46999998093E+01 0.  1.
</event>
<event>
 5   0  0.1574896E-06  0.2500954E+04  0.7818609E-02  0.8402646E-01
       -1   -1    0    0    0  501  0.00000000000E+00  0.00000000000E+00  0.10637123140E+04  0.10637123140E+04  0.50400001928E-02 0.  1.
        1   -1    0    0  501    0  0.00000000000E+00  0.00000000000E+00 -0.14700335982E+04  0.14700335982E+04  0.50400001928E-02 0. -1.
    10030    2    1    2    0    0  0.00000000000E+00  0.00000000000E+00 -0.40632128419E+03  0.25337459122E+04  0.25009540903E+04 0.  0.
        3    1    3    3  502    0  0.52377234906E+03  0.10215268896E+04 -0.70548241053E+03  0.13474272157E+04  0.10100000352E+00 0. -1.
       -3    1    3    3    0  502 -0.52377234906E+03 -0.10215268896E+04  0.29916112634E+03  0.11863186965E+04  0.10100000352E+00 0.  1.
</event>
<event>
 5   0  0.3814260E-06  0.2498656E+04  0.7818609E-02  0.8403464E-01
       -2   -1    0    0    0  501  0.00000000000E+00  0.00000000000E+00  0.14009466316E+04  0.14009466316E+04  0.25500000920E-02 0.  1.
        2   -1    0    0  501    0  0.00000000000E+00  0.00000000000E+00 -0.11141186229E+04  0.11141186229E+04  0.25500000920E-02 0. -1.
    10030    2    1    2    0    0  0.00000000000E+00  0.00000000000E+00  0.28682800870E+03  0.25150652545E+04  0.24986562244E+04 0.  0.
        5    1    3    3  502    0  0.10461111808E+04  0.63580390222E+03  0.39445805952E+03  0.12861626862E+04  0.46999998093E+01 0. -1.
       -5    1    3    3    0  502 -0.10461111808E+04 -0.63580390222E+03 -0.10763005082E+03  0.12289025683E+04  0.46999998093E+01 0.  1.
</event>
<event>
 5   0  0.1541852E-06  0.2498363E+04  0.7818609E-02  0.8403569E-01
       -1   -1    0    0    0  501  0.00000000000E+00  0.00000000000E+00  0.13248288734E+04  0.13248288734E+04  0.50400001928E-02 0. -1.
        1   -1    0    0  501    0  0.00000000000E+00  0.00000000000E+00 -0.11778532786E+04  0.11778532786E+04  0.50400001928E-02 0.  1.
    10030    2    1    2    0    0  0.00000000000E+00  0.00000000000E+00  0.14697559478E+03  0.25026821520E+04  0.24983626896E+04 0.  0.
        5    1    3    3  502    0  0.11498969231E+04 -0.35457857796E+03 -0.26241722789E+03  0.12316143038E+04  0.46999998093E+01 0.  1.
       -5    1    3    3    0  502 -0.11498969231E+04  0.35457857796E+03  0.40939282267E+03  0.12710678483E+04  0.46999998093E+01 0. -1.
</event>
<event>
 5   0  0.3814260E-06  0.2504308E+04  0.7818609E-02  0.8401452E-01
        2   -1    0    0  501    0  0.00000000000E+00  0.00000000000E+00  0.10201651805E+04  0.10201651805E+04  0.25500000920E-02 0.  1.
       -2   -1    0    0    0  501  0.00000000000E+00  0.00000000000E+00 -0.15368974771E+04  0.15368974771E+04  0.25500000920E-02 0. -1.
    10030    2    1    2    0    0  0.00000000000E+00  0.00000000000E+00 -0.51673229663E+03  0.25570626577E+04  0.25043077225E+04 0.  0.
        5    1    3    3  502    0  0.11615934098E+04  0.21343609659E+03  0.16634437993E+03  0.11927056468E+04  0.46999998093E+01 0.  1.
       -5    1    3    3    0  502 -0.11615934098E+04 -0.21343609659E+03 -0.68307667656E+03  0.13643570109E+04  0.46999998093E+01 0. -1.
</event>
<event>
 5   0  0.3924441E-06  0.2505277E+04  0.7818609E-02  0.8401108E-01
       -2   -1    0    0    0  501  0.00000000000E+00  0.00000000000E+00  0.10198217994E+04  0.10198217994E+04  0.25500000920E-02 0.  1.
        2   -1    0    0  501    0  0.00000000000E+00  0.00000000000E+00 -0.15386058693E+04  0.15386058693E+04  0.25500000920E-02 0. -1.
    10030    2    1    2    0    0  0.00000000000E+00  0.00000000000E+00 -0.51878406990E+03  0.25584276687E+04  0.25052774747E+04 0.  0.
        2    1    3    3  502    0  0.37541309447E+03  0.11315501961E+04  0.13316260340E+03  0.11996137365E+04  0.25500000920E-02 0.  1.
       -2    1    3    3    0  502 -0.37541309447E+03 -0.11315501961E+04 -0.65194667329E+03  0.13588139323E+04  0.25500000920E-02 0. -1.
</event>
<event>
 5   0  0.1553604E-06  0.2502353E+04  0.7818609E-02  0.8402148E-01
       -1   -1    0    0    0  501  0.00000000000E+00  0.00000000000E+00  0.11122572921E+04  0.11122572921E+04  0.50400001928E-02 0.  1.
        1   -1    0    0  501    0  0.00000000000E+00  0.00000000000E+00 -0.14074464119E+04  0.14074464119E+04  0.50400001928E-02 0. -1.
    10030    2    1    2    0    0  0.00000000000E+00  0.00000000000E+00 -0.29518911976E+03  0.25197037040E+04  0.25023529207E+04 0.  0.
        1    1    3    3  502    0  0.12097631992E+04  0.59049872395E+02  0.16831420588E+03  0.12228424091E+04  0.50400001928E-02 0.  1.
       -1    1    3    3    0  502 -0.12097631992E+04 -0.59049872395E+02 -0.46350332564E+03  0.12968612950E+04  0.50400001928E-02 0. -1.
</event>
<event>
 5   0  0.1574896E-06  0.2497651E+04  0.7818609E-02  0.8403823E-01
        1   -1    0    0  501    0  0.00000000000E+00  0.00000000000E+00  0.15017033506E+04  0.15017033506E+04  0.50400001928E-02 0.  1.
       -1   -1    0    0    0  501  0.00000000000E+00  0.00000000000E+00 -0.10385306646E+04  0.10385306646E+04  0.50400001928E-02 0. -1.
    10030    2    1    2    0    0  0.00000000000E+00  0.00000000000E+00  0.46317268598E+03  0.25402340152E+04  0.24976508793E+04 0.  0.
        3    1    3    3  502    0 -0.11578625751E+04 -0.14777495324E+03 -0.21992144151E+03  0.11877914927E+04  0.10100000352E+00 0. -1.
       -3    1    3    3    0  502  0.11578625751E+04  0.14777495324E+03  0.68309412749E+03  0.13524425225E+04  0.10100000352E+00 0.  1.
</event>
<event>
 5   0  0.3971759E-06  0.2505214E+04  0.7818609E-02  0.8401130E-01
        2   -1    0    0  501    0  0.00000000000E+00  0.00000000000E+00  0.15221963435E+04  0.15221963435E+04  0.25500000920E-02 0. -1.
       -2   -1    0    0    0  501  0.00000000000E+00  0.00000000000E+00 -0.10307634608E+04  0.10307634608E+04  0.25500000920E-02 0.  1.
    10030    2    1    2    0    0  0.00000000000E+00  0.00000000000E+00  0.49143288266E+03  0.25529598044E+04  0.25052140596E+04 0.  0.
        4    1    3    3  502    0 -0.21000676905E+03  0.95791184067E+03 -0.54844656326E+03  0.11236072193E+04  0.12699999809E+01 0.  1.
       -4    1    3    3    0  502  0.21000676905E+03 -0.95791184067E+03  0.10398794459E+04  0.14293525851E+04  0.12699999809E+01 0. -1.
</event>
<event>
 5   0  0.3971759E-06  0.2498532E+04  0.7818609E-02  0.8403509E-01
       -2   -1    0    0    0  501  0.00000000000E+00  0.00000000000E+00  0.19725737382E+04  0.19725737382E+04  0.25500000920E-02 0. -1.
        2   -1    0    0  501    0  0.00000000000E+00  0.00000000000E+00 -0.79118221003E+03  0.79118221004E+03  0.25500000920E-02 0.  1.
    10030    2    1    2    0    0  0.00000000000E+00  0.00000000000E+00  0.11813915282E+04  0.27637559482E+04  0.24985317686E+04 0.  0.
        4    1    3    3  502    0  0.62312857391E+03  0.73360223433E+03  0.14715999615E+04  0.17584281383E+04  0.12699999809E+01 0. -1.
       -4    1    3    3    0  502 -0.62312857391E+03 -0.73360223433E+03 -0.29020843334E+03  0.10053278100E+04  0.12699999809E+01 0.  1.
</event>
<event>
 5   0  0.3808293E-06  0.2502776E+04  0.7818609E-02  0.8401997E-01
       -2   -1    0    0    0  501  0.00000000000E+00  0.00000000000E+00  0.20852450772E+04  0.20852450772E+04  0.25500000920E-02 0.  1.
        2   -1    0    0  501    0  0.00000000000E+00  0.00000000000E+00 -0.75097769102E+03  0.75097769102E+03  0.25500000920E-02 0. -1.
    10030    2    1    2    0    0  0.00000000000E+00  0.00000000000E+00  0.13342673862E+04  0.28362227682E+04  0.25027764849E+04 0.  0.
        1    1    3    3  502    0  0.93853674579E+03 -0.25963719343E+03  0.15577907889E+04  0.18371104587E+04  0.50400001928E-02 0. -1.
       -1    1    3    3    0  502 -0.93853674579E+03  0.25963719343E+03 -0.22352340275E+03  0.99911230951E+03  0.50400001928E-02 0.  1.
</event>
<event>
 5   0  0.1287375E-06  0.2501207E+04  0.7818609E-02  0.8402556E-01
       -4   -1    0    0    0  501  0.00000000000E+00  0.00000000000E+00  0.17447569435E+04  0.17447574057E+04  0.12699999809E+01 0.  1.
        4   -1    0    0  501    0  0.00000000000E+00  0.00000000000E+00 -0.89640410466E+03  0.89640500431E+03  0.12699999809E+01 0. -1.
    10030    2    1    2    0    0  0.00000000000E+00  0.00000000000E+00  0.84835283887E+03  0.26411624101E+04  0.25012069761E+04 0.  0.
        5    1    3    3  502    0  0.12081381699E+04 -0.71424524658E+02  0.91445478308E+02  0.12137065814E+04  0.46999998093E+01 0. -1.
       -5    1    3    3    0  502 -0.12081381699E+04  0.71424524658E+02  0.75690736057E+03  0.14274558286E+04  0.46999998093E+01 0.  1.
</event>
<event>
 5   0  0.1574896E-06  0.2501636E+04  0.7818609E-02  0.8402403E-01
        1   -1    0    0  501    0  0.00000000000E+00  0.00000000000E+00  0.15617788547E+04  0.15617788547E+04  0.50400001928E-02 0.  1.
       -1   -1    0    0    0  501  0.00000000000E+00  0.00000000000E+00 -0.10017717305E+04  0.10017717305E+04  0.50400001928E-02 0. -1.
    10030    2    1    2    0    0  0.00000000000E+00  0.00000000000E+00  0.56000712417E+03  0.25635505852E+04  0.25016361893E+04 0.  0.
        3    1    3    3  502    0  0.11200511519E+04 -0.51324257592E+03  0.50124832392E+03  0.13301061676E+04  0.10100000352E+00 0.  1.
       -3    1    3    3    0  502 -0.11200511519E+04  0.51324257592E+03  0.58758800244E+02  0.12334444176E+04  0.10100000352E+00 0. -1.
</event>
<event>
 5   0  0.1553604E-06  0.2509059E+04  0.7818609E-02  0.8399765E-01
       -1   -1    0    0    0  501  0.00000000000E+00  0.00000000000E+00  0.11834422130E+04  0.11834422130E+04  0.50400001928E-02 0.  1.
        1   -1    0    0  501    0  0.00000000000E+00  0.00000000000E+00 -0.13298866668E+04  0.13298866668E+04  0.50400001928E-02 0. -1.
    10030    2    1    2    0    0  0.00000000000E+00  0.00000000000E+00 -0.14644445379E+03  0.25133288798E+04  0.25090588037E+04 0.  0.
        1    1    3    3  502    0 -0.74669616471E+03  0.97186798091E+03  0.19511701676E+03  0.12410290831E+04  0.50400001928E-02 0.  1.
       -1    1    3    3    0  502  0.74669616471E+03 -0.97186798091E+03 -0.34156147055E+03  0.12722997968E+04  0.50400001928E-02 0. -1.
</event>
<event>
 5   0  0.3924441E-06  0.2501582E+04  0.7818609E-02  0.8402422E-01
        2   -1    0    0  501    0  0.00000000000E+00  0.00000000000E+00  0.11207273641E+04  0.11207273641E+04  0.25500000920E-02 0.  1.
       -2   -1    0    0    0  501  0.00000000000E+00  0.00000000000E+00 -0.13959493445E+04  0.13959493445E+04  0.25500000920E-02 0. -1.
    10030    2    1    2    0    0  0.00000000000E+00  0.00000000000E+00 -0.27522198037E+03  0.25166767087E+04  0.25015824027E+04 0.  0.
        2    1    3    3  502    0  0.11131768880E+04  0.27765482955E+03  0.36361569819E+03  0.12035245591E+04  0.25500000920E-02 0.  1.
       -2    1    3    3    0  502 -0.11131768880E+04 -0.27765482955E+03 -0.63883767856E+03  0.13131521496E+04  0.25500000920E-02 0. -1.
</event>
<event>
 5   0  0.1541852E-06  0.2497381E+04  0.7818609E-02  0.8403919E-01
        1   -1    0    0  501    0  0.00000000000E+00  0.00000000000E+00  0.15497533422E+04  0.15497533423E+04  0.50400001928E-02 0.  1.
       -1   -1    0    0    0  501  0.00000000000E+00  0.00000000000E+00 -0.10061134128E+04  0.10061134128E+04  0.50400001928E-02 0. -1.
    10030    2    1    2    0    0  0.00000000000E+00  0.00000000000E+00  0.54363992947E+03  0.25558667550E+04  0.24973807272E+04 0.  0.
        5    1    3    3  502    0  0.40825276324E+03 -0.52532184086E+03  0.13532460833E+04  0.15079557047E+04  0.46999998093E+01 0.  1.
       -5    1    3    3    0  502 -0.40825276324E+03  0.52532184086E+03 -0.80960615386E+03  0.10479110504E+04  0.46999998093E+01 0. -1.
</event>
<event>
 5   0  0.1574896E-06  0.2492930E+04  0.7818609E-02  0.8405508E-01
        1   -1    0    0  501    0  0.00000000000E+00  0.00000000000E+00  0.21600617555E+04  0.21600617555E+04  0.50400001928E-02 0.  1.
       -1   -1    0    0    0  501  0.00000000000E+00  0.00000000000E+00 -0.71927361859E+03  0.71927361860E+03  0.50400001928E-02 0. -1.
    10030    2    1    2    0    0  0.00000000000E+00  0.00000000000E+00  0.14407881369E+04  0.28793353741E+04  0.24929303523E+04 0.  0.
        3    1    3    3  502    0  0.81104869875E+03 -0.50809544133E+02  0.18120336470E+04  0.19859122714E+04  0.10100000352E+00 0.  1.
       -3    1    3    3    0  502 -0.81104869875E+03  0.50809544133E+02 -0.37124551010E+03  0.89342310273E+03  0.10100000352E+00 0. -1.
</event>
<event>
 5   0  0.1501747E-06  0.2500703E+04  0.7818609E-02  0.8402735E-01
       -1   -1    0    0    0  501  0.00000000000E+00  0.00000000000E+00  0.15159516747E+04  0.15159516747E+04  0.50400001928E-02 0.  1.
        1   -1    0    0  501    0  0.00000000000E+00  0.00000000000E+00 -0.10312853456E+04  0.10312853456E+04  0.50400001928E-02 0. -1.
    10030    2    1    2    0    0  0.00000000000E+00  0.00000000000E+00  0.48466632912E+03  0.25472370203E+04  0.25007028986E+04 0.  0.
        2    1    3    3  502    0  0.10901909431E+04  0.16226374050E+03  0.84368573386E+03  0.13880386995E+04  0.25500000920E-02 0.  1.
       -2    1    3    3    0  502 -0.10901909431E+04 -0.16226374050E+03 -0.35901940474E+03  0.11591983208E+04  0.25500000920E-02 0. -1.
</event>
<event>
 5   0  0.3924441E-06  0.2500999E+04  0.7818609E-02  0.8402630E-01
        2   -1    0    0  501    0  0.00000000000E+00  0.00000000000E+00  0.23345507195E+04  0.23345507196E+04  0.25500000920E-02 0.  1.
       -2   -1    0    0    0  501  0.00000000000E+00  0.00000000000E+00 -0.66982851249E+03  0.66982851250E+03  0.25500000920E-02 0. -1.
    10030    2    1    2    0    0  0.00000000000E+00  0.00000000000E+00  0.16647222071E+04  0.30043792320E+04  0.25009987092E+04 0.  0.
        2    1    3    3  502    0  0.17706974406E+03  0.63799786065E+03  0.21067025249E+04  0.22083003629E+04  0.25500000920E-02 0.  1.
       -2    1    3    3    0  502 -0.17706974406E+03 -0.63799786065E+03 -0.44198031787E+03  0.79607886911E+03  0.25500000920E-02 0. -1.
</event>
<event>
 5   0  0.3814260E-06  0.2499917E+04  0.7818609E-02  0.8403015E-01
        2   -1    0    0  501    0  0.00000000000E+00  0.00000000000E+00  0.17297289982E+04  0.17297289982E+04  0.25500000920E-02 0. -1.
       -2   -1    0    0    0  501  0.00000000000E+00  0.00000000000E+00 -0.90326053819E+03  0.90326053819E+03  0.25500000920E-02 0.  1.
    10030    2    1    2    0    0  0.00000000000E+00  0.00000000000E+00  0.82646846003E+03  0.26329895364E+04  0.24999167553E+04 0.  0.
        5    1    3    3  502    0  0.91596504469E+03 -0.81266007615E+03  0.67752067633E+03  0.13994515781E+04  0.46999998093E+01 0.  1.
       -5    1    3    3    0  502 -0.91596504469E+03  0.81266007615E+03  0.14894778371E+03  0.12335379584E+04  0.46999998093E+01 0. -1.
</event>
<event>
 5   0  0.1541852E-06  0.2491967E+04  0.7818609E-02  0.8405853E-01
        1   -1    0    0  501    0  0.00000000000E+00  0.00000000000E+00  0.18551992915E+04  0.18551992915E+04  0.50400001928E-02 0. -1.
       -1   -1    0    0    0  501  0.00000000000E+00  0.00000000000E+00 -0.83682399908E+03  0.83682399909E+03  0.50400001928E-02 0.  1.
    10030    2    1    2    0    0  0.00000000000E+00  0.00000000000E+00  0.10183752924E+04  0.26920232906E+04  0.24919673274E+04 0.  0.
        5    1    3    3  502    0 -0.54905448131E+03 -0.18797089190E+03  0.17002717021E+04  0.17965911696E+04  0.46999998093E+01 0. -1.
       -5    1    3    3    0  502  0.54905448131E+03  0.18797089190E+03 -0.68189640973E+03  0.89543212097E+03  0.46999998093E+01 0.  1.
</event>
<event>
 5   0  0.1553604E-06  0.2488335E+04  0.7818609E-02  0.8407153E-01
       -1   -1    0    0    0  501  0.00000000000E+00  0.00000000000E+00  0.12415747515E+04  0.12415747515E+04  0.50400001928E-02 0.  1.
        1   -1    0    0  501    0  0.00000000000E+00  0.00000000000E+00 -0.12467656615E+04  0.12467656615E+04  0.50400001928E-02 0. -1.
    10030    2    1    2    0    0  0.00000000000E+00  0.00000000000E+00 -0.51909100279E+01  0.24883404130E+04  0.24883349986E+04 0.  0.
        1    1    3    3  502    0 -0.96749098139E+03  0.11490013549E+03 -0.77636191304E+03  0.12457843554E+04  0.50400001928E-02 0. -1.
       -1    1    3    3    0  502  0.96749098139E+03 -0.11490013549E+03  0.77117100301E+03  0.12425560575E+04  0.50400001928E-02 0.  1.
</event>
<event>
 5   0  0.1541852E-06  0.2506116E+04  0.7818609E-02  0.8400810E-01
        1   -1    0    0  501    0  0.00000000000E+00  0.00000000000E+00  0.32586214268E+04  0.32586214268E+04  0.50400001928E-02 0.  1.
       -1   -1    0    0    0  501  0.00000000000E+00  0.00000000000E+00 -0.48184609448E+03  0.48184609451E+03  0.50400001928E-02 0. -1.
    10030    2    1    2    0    0  0.00000000000E+00  0.00000000000E+00  0.27767753324E+04  0.37404675214E+04  0.25061157260E+04 0.  0.
        5    1    3    3  502    0 -0.10232574895E+04  0.70795616953E+03  0.11676432302E+04  0.17063618112E+04  0.46999998093E+01 0.  1.
       -5    1    3    3    0  502  0.10232574895E+04 -0.70795616953E+03  0.16091321022E+04  0.20341057102E+04  0.46999998093E+01 0. -1.
</event>
<event>
 5   0  0.3814260E-06  0.2507485E+04  0.7818609E-02  0.8400324E-01
       -2   -1    0    0    0  501  0.00000000000E+00  0.00000000000E+00  0.10686162180E+04  0.10686162180E+04  0.25500000920E-02 0. -1.
        2   -1    0    0  501    0  0.00000000000E+00  0.00000000000E+00 -0.14709401386E+04  0.14709401386E+04  0.25500000920E-02 0.  1.
    10030    2    1    2    0    0  0.00000000000E+00  0.00000000000E+00 -0.40232392059E+03  0.25395563566E+04  0.25074851846E+04 0.  0.
        5    1    3    3  502    0  0.78181760001E+03  0.69674882518E+03 -0.89929014521E+03  0.13803776803E+04  0.46999998093E+01 0.  1.
       -5    1    3    3    0  502 -0.78181760001E+03 -0.69674882518E+03  0.49696622463E+03  0.11591786763E+04  0.46999998093E+01 0. -1.
</event>
<event>
 5   0  0.1287375E-06  0.2502652E+04  0.7818609E-02  0.8402041E-01
       -3   -1    0    0    0  501  0.00000000000E+00  0.00000000000E+00  0.15851536450E+04  0.15851536482E+04  0.10100000352E+00 0. -1.
        3   -1    0    0  501    0  0.00000000000E+00  0.00000000000E+00 -0.98780093556E+03  0.98780094072E+03  0.10100000352E+00 0.  1.
    10030    2    1    2    0    0  0.00000000000E+00  0.00000000000E+00  0.59735270946E+03  0.25729545890E+04  0.25026516053E+04 0.  0.
        5    1    3    3  502    0 -0.65606816790E+03  0.26689582839E+03  0.13592239436E+04  0.15327004414E+04  0.46999998093E+01 0. -1.
       -5    1    3    3    0  502  0.65606816790E+03 -0.26689582839E+03 -0.76187123414E+03  0.10402541476E+04  0.46999998093E+01 0.  1.
</event>
<event>
 5   0  0.3924441E-06  0.2504240E+04  0.7818609E-02  0.8401477E-01
       -2   -1    0    0    0  501  0.00000000000E+00  0.00000000000E+00  0.85444181427E+03  0.85444181427E+03  0.25500000920E-02 0. -1.
        2   -1    0    0  501    0  0.00000000000E+00  0.00000000000E+00 -0.18348874908E+04  0.18348874908E+04  0.25500000920E-02 0.  1.
    10030    2    1    2    0    0  0.00000000000E+00  0.00000000000E+00 -0.98044567655E+03  0.26893293051E+04  0.25042400817E+04 0.  0.
        2    1    3    3  502    0 -0.82124981054E+02  0.64097555523E+03  0.66152305155E+03  0.92477398463E+03  0.25500000920E-02 0. -1.
       -2    1    3    3    0  502  0.82124981054E+02 -0.64097555523E+03 -0.16419687281E+04  0.17645553205E+04  0.25500000920E-02 0.  1.
</event>
<event>
 5   0  0.3924441E-06  0.2494586E+04  0.7818609E-02  0.8404917E-01
        2   -1    0    0  501    0  0.00000000000E+00  0.00000000000E+00  0.17675337222E+04  0.17675337222E+04  0.25500000920E-02 0.  1.
       -2   -1    0    0    0  501  0.00000000000E+00  0.00000000000E+00 -0.88017569789E+03  0.88017569790E+03  0.25500000920E-02 0. -1.
    10030    2    1    2    0    0  0.00000000000E+00  0.00000000000E+00  0.88735802430E+03  0.26477094201E+04  0.24945863204E+04 0.  0.
        2    1    3    3  502    0  0.26776726690E+02  0.10774501688E+04 -0.22264954713E+03  0.11005401766E+04  0.25500000920E-02 0. -1.
       -2    1    3    3    0  502 -0.26776726690E+02 -0.10774501688E+04  0.11100075714E+04  0.15471692435E+04  0.25500000920E-02 0.  1.
</event>
<event>
 5   0  0.3814260E-06  0.2500275E+04  0.7818609E-02  0.8402888E-01
       -2   -1    0    0    0  501  0.00000000000E+00  0.00000000000E+00  0.14906877632E+04  0.14906877632E+04  0.25500000920E-02 0.  1.
        2   -1    0    0  501    0  0.00000000000E+00  0.00000000000E+00 -0.10484042259E+04  0.10484042259E+04  0.25500000920E-02 0. -1.
    10030    2    1    2    0    0  0.00000000000E+00  0.00000000000E+00  0.44228353737E+03  0.25390919891E+04  0.25002746653E+04 0.  0.
        5    1    3    3  502    0 -0.12033206463E+04 -0.28308612515E+03  0.31962397622E+02  0.12365929067E+04  0.46999998093E+01 0. -1.
       -5    1    3    3    0  502  0.12033206463E+04  0.28308612515E+03  0.41032113975E+03  0.13024990824E+04  0.46999998093E+01 0.  1.
</event>
<event>
 5   0  0.3808293E-06  0.2499997E+04  0.7818609E-02  0.8402986E-01
        2   -1    0    0  501    0  0.00000000000E+00  0.00000000000E+00  0.49876402329E+03  0.49876402330E+03  0.25500000920E-02 0. -1.
       -2   -1    0    0    0  501  0.00000000000E+00  0.00000000000E+00 -0.31327374784E+04  0.31327374784E+04  0.25500000920E-02 0.  1.
    10030    2    1    2    0    0  0.00000000000E+00  0.00000000000E+00 -0.26339734551E+04  0.36315015017E+04  0.24999973989E+04 0.  0.
        1    1    3    3  502    0  0.53266894222E+03  0.10637974381E+04 -0.18741037767E+04  0.22198347140E+04  0.50400001928E-02 0. -1.
       -1    1    3    3    0  502 -0.53266894222E+03 -0.10637974381E+04 -0.75986967836E+03  0.14116667877E+04  0.50400001928E-02 0.  1.
</event>
<event>
 5   0  0.3924441E-06  0.2496411E+04  0.7818609E-02  0.8404265E-01
        2   -1    0    0  501    0  0.00000000000E+00  0.00000000000E+00  0.14041173925E+04  0.14041173925E+04  0.25500000920E-02 0. -1.
       -2   -1    0    0    0  501  0.00000000000E+00  0.00000000000E+00 -0.11096058074E+04  0.11096058074E+04  0.25500000920E-02 0.  1.
    10030    2    1    2    0    0  0.00000000000E+00  0.00000000000E+00  0.29451158505E+03  0.25137231999E+04  0.24964108740E+04 0.  0.
        2    1    3    3  502    0  0.48402858883E+03 -0.87736367718E+03  0.89670635264E+03  0.13446683531E+04  0.25500000920E-02 0. -1.
       -2    1    3    3    0  502 -0.48402858883E+03  0.87736367718E+03 -0.60219476758E+03  0.11690548469E+04  0.25500000920E-02 0.  1.
</event>
<event>
 5   0  0.3808293E-06  0.2467107E+04  0.7818609E-02  0.8414798E-01
        2   -1    0    0  501    0  0.00000000000E+00  0.00000000000E+00  0.18793113559E+04  0.18793113559E+04  0.25500000920E-02 0.  1.
       -2   -1    0    0    0  501  0.00000000000E+00  0.00000000000E+00 -0.80968712402E+03  0.80968712402E+03  0.25500000920E-02 0. -1.
    10030    2    1    2    0    0  0.00000000000E+00  0.00000000000E+00  0.10696242319E+04  0.26889984799E+04  0.24671069753E+04 0.  0.
        1    1    3    3  502    0  0.25979616368E+03 -0.10286150737E+04 -0.15116737461E+03  0.10716317426E+04  0.50400001928E-02 0. -1.
       -1    1    3    3    0  502 -0.25979616368E+03  0.10286150737E+04  0.12207916065E+04  0.16173667373E+04  0.50400001928E-02 0.  1.
</event>
<event>
 5   0  0.1519145E-06  0.2447847E+04  0.7818609E-02  0.8421804E-01
       -1   -1    0    0    0  501  0.00000000000E+00  0.00000000000E+00  0.67076556392E+03  0.67076556394E+03  0.50400001928E-02 0.  1.
        1   -1    0    0  501    0  0.00000000000E+00  0.00000000000E+00 -0.22332524437E+04  0.22332524437E+04  0.50400001928E-02 0. -1.
    10030    2    1    2    0    0  0.00000000000E+00  0.00000000000E+00 -0.15624868798E+04  0.29040180077E+04  0.24478470825E+04 0.  0.
        4    1    3    3  502    0 -0.29770846111E+03 -0.98888666645E+03 -0.19781747745E+01  0.10327306972E+04  0.12699999809E+01 0.  1.
       -4    1    3    3    0  502  0.29770846111E+03  0.98888666645E+03 -0.15605087050E+04  0.18712873104E+04  0.12699999809E+01 0. -1.
</event>
<event>
 5   0  0.1519145E-06  0.2500276E+04  0.7818609E-02  0.8402887E-01
        1   -1    0    0  501    0  0.00000000000E+00  0.00000000000E+00  0.81454658711E+03  0.81454658713E+03  0.50400001928E-02 0. -1.
       -1   -1    0    0    0  501  0.00000000000E+00  0.00000000000E+00 -0.19186693416E+04  0.19186693416E+04  0.50400001928E-02 0.  1.
    10030    2    1    2    0    0  0.00000000000E+00  0.00000000000E+00 -0.11041227545E+04  0.27332159287E+04  0.25002764359E+04 0.  0.
        4    1    3    3  502    0  0.37945507903E+03  0.70198301967E+03  0.49992378180E+03  0.94164309449E+03  0.12699999809E+01 0. -1.
       -4    1    3    3    0  502 -0.37945507903E+03 -0.70198301967E+03 -0.16040465363E+04  0.17915728342E+04  0.12699999809E+01 0.  1.
</event>
<event>
 5   0  0.1519145E-06  0.2502738E+04  0.7818609E-02  0.8402011E-01
        1   -1    0    0  501    0  0.00000000000E+00  0.00000000000E+00  0.18340033388E+04  0.18340033388E+04  0.50400001928E-02 0. -1.
       -1   -1    0    0    0  501  0.00000000000E+00  0.00000000000E+00 -0.85382875247E+03  0.85382875248E+03  0.50400001928E-02 0.  1.
    10030    2    1    2    0    0  0.00000000000E+00  0.00000000000E+00  0.98017458629E+03  0.26878320913E+04  0.25027383265E+04 0.  0.
        4    1    3    3  502    0 -0.12020629085E+04 -0.85114911651E+02  0.12791803728E+03  0.12118433980E+04  0.12699999809E+01 0.  1.
       -4    1    3    3    0  502  0.12020629085E+04  0.85114911651E+02  0.85225654901E+03  0.14759886932E+04  0.12699999809E+01 0. -1.
</event>
<event>
 5   0  0.3971759E-06  0.2504432E+04  0.7818609E-02  0.8401408E-01
       -2   -1    0    0    0  501  0.00000000000E+00  0.00000000000E+00  0.59689412193E+03  0.59689412193E+03  0.25500000920E-02 0.  1.
        2   -1    0    0  501    0  0.00000000000E+00  0.00000000000E+00 -0.26270062997E+04  0.26270062997E+04  0.25500000920E-02 0. -1.
    10030    2    1    2    0    0  0.00000000000E+00  0.00000000000E+00 -0.20301121778E+04  0.32239004216E+04  0.25044317667E+04 0.  0.
        4    1    3    3  502    0  0.12341200179E+04 -0.20083735859E+03 -0.92722689447E+03  0.15566435655E+04  0.12699999809E+01 0.  1.
       -4    1    3    3    0  502 -0.12341200179E+04  0.20083735859E+03 -0.11028852833E+04  0.16672568561E+04  0.12699999809E+01 0. -1.
</event>
<event>
 5   0  0.1541852E-06  0.2494633E+04  0.7818609E-02  0.8404900E-01
       -1   -1    0    0    0  501  0.00000000000E+00  0.00000000000E+00  0.88830905689E+03  0.88830905690E+03  0.50400001928E-02 0. -1.
        1   -1    0    0  501    0  0.00000000000E+00  0.00000000000E+00 -0.17514158581E+04  0.17514158581E+04  0.50400001928E-02 0.  1.
    10030    2    1    2    0    0  0.00000000000E+00  0.00000000000E+00 -0.86310680121E+03  0.26397249150E+04  0.24946330946E+04 0.  0.
        5    1    3    3  502    0 -0.31708219822E+03 -0.85558779740E+03 -0.13314293937E+04  0.16140935289E+04  0.46999998093E+01 0.  1.
       -5    1    3    3    0  502  0.31708219822E+03  0.85558779740E+03  0.46832259254E+03  0.10256313861E+04  0.46999998093E+01 0. -1.
</event>
<event>
 5   0  0.1501747E-06  0.2499811E+04  0.7818609E-02  0.8403053E-01
       -1   -1    0    0    0  501  0.00000000000E+00  0.00000000000E+00  0.76081358764E+03  0.76081358765E+03  0.50400001928E-02 0. -1.
        1   -1    0    0  501    0  0.00000000000E+00  0.00000000000E+00 -0.20534121679E+04  0.20534121679E+04  0.50400001928E-02 0.  1.
    10030    2    1    2    0    0  0.00000000000E+00  0.00000000000E+00 -0.12925985803E+04  0.28142257556E+04  0.24998110956E+04 0.  0.
        2    1    3    3  502    0  0.37165740977E+03 -0.71836590421E+02  0.69473222523E+03  0.79116533717E+03  0.25500000920E-02 0. -1.
       -2    1    3    3    0  502 -0.37165740977E+03  0.71836590421E+02 -0.19873308055E+04  0.20230604184E+04  0.25500000920E-02 0.  1.
</event>
<event>
 5   0  0.1519145E-06  0.2477959E+04  0.7818609E-02  0.8410880E-01
       -1   -1    0    0    0  501  0.00000000000E+00  0.00000000000E+00  0.74600594055E+03  0.74600594057E+03  0.50400001928E-02 0. -1.
        1   -1    0    0  501    0  0.00000000000E+00  0.00000000000E+00 -0.20577181897E+04  0.20577181897E+04  0.50400001928E-02 0.  1.
    10030    2    1    2    0    0  0.00000000000E+00  0.00000000000E+00 -0.13117122492E+04  0.28037241303E+04  0.24779588322E+04 0.  0.
        4    1    3    3  502    0  0.74502200760E+03  0.58233441596E+02  0.46230368521E+03  0.87873502023E+03  0.12699999809E+01 0. -1.
       -4    1    3    3    0  502 -0.74502200760E+03 -0.58233441596E+02 -0.17740159344E+04  0.19249891101E+04  0.12699999809E+01 0.  1.
</event>
<event>
 5   0  0.1519145E-06  0.2502093E+04  0.7818609E-02  0.8402240E-01
       -1   -1    0    0    0  501  0.00000000000E+00  0.00000000000E+00  0.82580232247E+03  0.82580232249E+03  0.50400001928E-02 0. -1.
        1   -1    0    0  501    0  0.00000000000E+00  0.00000000000E+00 -0.18952681333E+04  0.18952681333E+04  0.50400001928E-02 0.  1.
    10030    2    1    2    0    0  0.00000000000E+00  0.00000000000E+00 -0.10694658108E+04  0.27210704558E+04  0.25020925852E+04 0.  0.
        4    1    3    3  502    0  0.55684555481E+03  0.11104788357E+04 -0.37388685127E+03  0.12973176970E+04  0.12699999809E+01 0.  1.
       -4    1    3    3    0  502 -0.55684555481E+03 -0.11104788357E+04 -0.69557895956E+03  0.14237527588E+04  0.12699999809E+01 0. -1.
</event>
<event>
 5   0  0.3713394E-06  0.2485349E+04  0.7818609E-02  0.8408224E-01
       -2   -1    0    0    0  501  0.00000000000E+00  0.00000000000E+00  0.77503748857E+03  0.77503748858E+03  0.25500000920E-02 0.  1.
        2   -1    0    0  501    0  0.00000000000E+00  0.00000000000E+00 -0.19924705458E+04  0.19924705458E+04  0.25500000920E-02 0. -1.
    10030    2    1    2    0    0  0.00000000000E+00  0.00000000000E+00 -0.12174330572E+04  0.27675080343E+04  0.24853485613E+04 0.  0.
        3    1    3    3  502    0  0.34161687105E+01  0.85259558873E+03  0.39797074680E+03  0.94091000295E+03  0.10100000352E+00 0.  1.
       -3    1    3    3    0  502 -0.34161687105E+01 -0.85259558873E+03 -0.16154038040E+04  0.18265980314E+04  0.10100000352E+00 0. -1.
</event>
<event>
 5   0  0.1501747E-06  0.2490007E+04  0.7818609E-02  0.8406554E-01
       -1   -1    0    0    0  501  0.00000000000E+00  0.00000000000E+00  0.10187219752E+04  0.10187219753E+04  0.50400001928E-02 0.  1.
        1   -1    0    0  501    0  0.00000000000E+00  0.00000000000E+00 -0.15215470034E+04  0.15215470034E+04  0.50400001928E-02 0. -1.
    10030    2    1    2    0    0  0.00000000000E+00  0.00000000000E+00 -0.50282502812E+03  0.25402689786E+04  0.24900067219E+04 0.  0.
        2    1    3    3  502    0  0.59731407477E+02  0.13330380136E+03 -0.15127743782E+04  0.15198105355E+04  0.25500000920E-02 0. -1.
       -2    1    3    3    0  502 -0.59731407477E+02 -0.13330380136E+03  0.10099493501E+04  0.10204584431E+04  0.25500000920E-02 0.  1.
</event>
<event>
 5   0  0.3713394E-06  0.2491496E+04  0.7818609E-02  0.8406021E-01
       -2   -1    0    0    0  501  0.00000000000E+00  0.00000000000E+00  0.14289356932E+04  0.14289356932E+04  0.25500000920E-02 0.  1.
        2   -1    0    0  501    0  0.00000000000E+00  0.00000000000E+00 -0.10860447065E+04  0.10860447065E+04  0.25500000920E-02 0. -1.
    10030    2    1    2    0    0  0.00000000000E+00  0.00000000000E+00  0.34289098674E+03  0.25149803997E+04  0.24914959727E+04 0.  0.
        3    1    3    3  502    0  0.11142874369E+04  0.42992615684E+03 -0.18603243356E+03  0.12087518641E+04  0.10100000352E+00 0. -1.
       -3    1    3    3    0  502 -0.11142874369E+04 -0.42992615684E+03  0.52892342030E+03  0.13062285356E+04  0.10100000352E+00 0.  1.
</event>
<event>
 5   0  0.1541852E-06  0.2500317E+04  0.7818609E-02  0.8402873E-01
       -1   -1    0    0    0  501  0.00000000000E+00  0.00000000000E+00  0.70107121189E+03  0.70107121191E+03  0.50400001928E-02 0. -1.
        1   -1    0    0  501    0  0.00000000000E+00  0.00000000000E+00 -0.22292975740E+04  0.22292975740E+04  0.50400001928E-02 0.  1.
    10030    2    1    2    0    0  0.00000000000E+00  0.00000000000E+00 -0.15282263621E+04  0.29303687859E+04  0.25003170614E+04 0.  0.
        5    1    3    3  502    0 -0.97307678306E+03  0.52868026638E+03 -0.14439664969E+04  0.18197369546E+04  0.46999998093E+01 0.  1.
       -5    1    3    3    0  502  0.97307678306E+03 -0.52868026638E+03 -0.84259865182E+02  0.11106318313E+04  0.46999998093E+01 0. -1.
</event>
<event>
 5   0  0.3814260E-06  0.2517386E+04  0.7818609E-02  0.8396818E-01
       -2   -1    0    0    0  501  0.00000000000E+00  0.00000000000E+00  0.69738179156E+03  0.69738179157E+03  0.25500000920E-02 0. -1.
        2   -1    0    0  501    0  0.00000000000E+00  0.00000000000E+00 -0.22717936191E+04  0.22717936191E+04  0.25500000920E-02 0.  1.
    10030    2    1    2    0    0  0.00000000000E+00  0.00000000000E+00 -0.15744118275E+04  0.29691754106E+04  0.25173855518E+04 0.  0.
        5    1    3    3  502    0 -0.78654092210E+03 -0.65817379011E+02  0.36921820736E+03  0.87139125779E+03  0.46999998093E+01 0. -1.
       -5    1    3    3    0  502  0.78654092210E+03  0.65817379011E+02 -0.19436300348E+04  0.20977841528E+04  0.46999998093E+01 0.  1.
</event>
<event>
 5   0  0.1574896E-06  0.2498804E+04  0.7818609E-02  0.8403412E-01
       -1   -1    0    0    0  501  0.00000000000E+00  0.00000000000E+00  0.12003210792E+04  0.12003210792E+04  0.50400001928E-02 0. -1.
        1   -1    0    0  501    0  0.00000000000E+00  0.00000000000E+00 -0.13004898520E+04  0.13004898520E+04  0.50400001928E-02 0.  1.
    10030    2    1    2    0    0  0.00000000000E+00  0.00000000000E+00 -0.10016877286E+03  0.25008109312E+04  0.24988040200E+04 0.  0.
        3    1    3    3  502    0 -0.11881730060E+04  0.38542981213E+03 -0.76452087501E+02  0.12514616111E+04  0.10100000352E+00 0.  1.
       -3    1    3    3    0  502  0.11881730060E+04 -0.38542981213E+03 -0.23716685358E+02  0.12493493201E+04  0.10100000352E+00 0. -1.
</event>
<event>
 5   0  0.1541852E-06  0.2502242E+04  0.7818609E-02  0.8402187E-01
        1   -1    0    0  501    0  0.00000000000E+00  0.00000000000E+00  0.16624226232E+04  0.16624226232E+04  0.50400001928E-02 0. -1.
       -1   -1    0    0    0  501  0.00000000000E+00  0.00000000000E+00 -0.94157965931E+03  0.94157965932E+03  0.50400001928E-02 0.  1.
    10030    2    1    2    0    0  0.00000000000E+00  0.00000000000E+00  0.72084296391E+03  0.26040022825E+04  0.25022416568E+04 0.  0.
        5    1    3    3  502    0  0.16751832610E+03 -0.45202061869E+03 -0.84104117505E+03  0.96941084037E+03  0.46999998093E+01 0.  1.
       -5    1    3    3    0  502 -0.16751832610E+03  0.45202061869E+03  0.15618841390E+04  0.16345914422E+04  0.46999998093E+01 0. -1.
</event>
<event>
 5   0  0.3814260E-06  0.2504350E+04  0.7818609E-02  0.8401437E-01
        2   -1    0    0  501    0  0.00000000000E+00  0.00000000000E+00  0.15402587299E+04  0.15402587299E+04  0.25500000920E-02 0. -1.
       -2   -1    0    0    0  501  0.00000000000E+00  0.00000000000E+00 -0.10179734563E+04  0.10179734563E+04  0.25500000920E-02 0.  1.
    10030    2    1    2    0    0  0.00000000000E+00  0.00000000000E+00  0.52228527352E+03  0.25582321862E+04  0.25043502175E+04 0.  0.
        5    1    3    3  502    0 -0.63102520580E+03  0.18641275915E+03 -0.82713222243E+03  0.10569353483E+04  0.46999998093E+01 0.  1.
       -5    1    3    3    0  502  0.63102520580E+03 -0.18641275915E+03  0.13494174960E+04  0.15012968379E+04  0.46999998093E+01 0. -1.
</event>
<event>
 5   0  0.1574896E-06  0.2499277E+04  0.7818609E-02  0.8403243E-01
       -1   -1    0    0    0  501  0.00000000000E+00  0.00000000000E+00  0.10089180674E+04  0.10089180674E+04  0.50400001928E-02 0. -1.
        1   -1    0    0  501    0  0.00000000000E+00  0.00000000000E+00 -0.15477934163E+04  0.15477934164E+04  0.50400001928E-02 0.  1.
    10030    2    1    2    0    0  0.00000000000E+00  0.00000000000E+00 -0.53887534892E+03  0.25567114838E+04  0.24992772895E+04 0.  0.
        3    1    3    3  502    0 -0.11883195160E+04  0.23419566268E+03 -0.58415312979E+03  0.13446879823E+04  0.10100000352E+00 0. -1.
       -3    1    3    3    0  502  0.11883195160E+04 -0.23419566268E+03  0.45277780874E+02  0.12120235015E+04  0.10100000352E+00 0.  1.
</event>
<event>
 5   0  0.1501747E-06  0.2500281E+04  0.7818609E-02  0.8402885E-01
       -1   -1    0    0    0  501  0.00000000000E+00  0.00000000000E+00  0.16179204022E+04  0.16179204022E+04  0.50400001928E-02 0.  1.
        1   -1    0    0  501    0  0.00000000000E+00  0.00000000000E+00 -0.96596327623E+03  0.96596327624E+03  0.50400001928E-02 0. -1.
    10030    2    1    2    0    0  0.00000000000E+00  0.00000000000E+00  0.65195712601E+03  0.25838836785E+04  0.25002813381E+04 0.  0.
        2    1    3    3  502    0  0.48974010966E+03 -0.45065785748E+03 -0.76766645752E+03  0.10159968846E+04  0.25500000920E-02 0. -1.
       -2    1    3    3    0  502 -0.48974010966E+03  0.45065785748E+03  0.14196235835E+04  0.15678867939E+04  0.25500000920E-02 0.  1.
</event>
<event>
 5   0  0.3924441E-06  0.2497101E+04  0.7818609E-02  0.8404019E-01
       -2   -1    0    0    0  501  0.00000000000E+00  0.00000000000E+00  0.85904278842E+03  0.85904278842E+03  0.25500000920E-02 0.  1.
        2   -1    0    0  501    0  0.00000000000E+00  0.00000000000E+00 -0.18146693686E+04  0.18146693686E+04  0.25500000920E-02 0. -1.
    10030    2    1    2    0    0  0.00000000000E+00  0.00000000000E+00 -0.95562658020E+03  0.26737121570E+04  0.24971012270E+04 0.  0.
        2    1    3    3  502    0 -0.18679035801E+03  0.68464492011E+03  0.62209391061E+03  0.94373202664E+03  0.25500000920E-02 0.  1.
       -2    1    3    3    0  502  0.18679035801E+03 -0.68464492011E+03 -0.15777204908E+04  0.17299801304E+04  0.25500000920E-02 0. -1.
</event>
<event>
 5   0  0.3924441E-06  0.2500172E+04  0.7818609E-02  0.8402924E-01
        2   -1    0    0  501    0  0.00000000000E+00  0.00000000000E+00  0.92605349576E+03  0.92605349576E+03  0.25500000920E-02 0.  1.
       -2   -1    0    0    0  501  0.00000000000E+00  0.00000000000E+00 -0.16875000481E+04  0.16875000481E+04  0.25500000920E-02 0. -1.
    10030    2    1    2    0    0  0.00000000000E+00  0.00000000000E+00 -0.76144655232E+03  0.26135535438E+04  0.25001722490E+04 0.  0.
        2    1    3    3  502    0 -0.10230785030E+04  0.11938383105E+03 -0.11212064608E+04  0.15225130706E+04  0.25500000920E-02 0. -1.
       -2    1    3    3    0  502  0.10230785030E+04 -0.11938383105E+03  0.35975990851E+03  0.10910404732E+04  0.25500000920E-02 0.  1.
</event>
<event>
 5   0  0.3971759E-06  0.2498038E+04  0.7818609E-02  0.8403685E-01
        2   -1    0    0  501    0  0.00000000000E+00  0.00000000000E+00  0.15777627099E+04  0.15777627099E+04  0.25500000920E-02 0.  1.
       -2   -1    0    0    0  501  0.00000000000E+00  0.00000000000E+00 -0.98877284498E+03  0.98877284498E+03  0.25500000920E-02 0. -1.
    10030    2    1    2    0    0  0.00000000000E+00  0.00000000000E+00  0.58898986490E+03  0.25665355549E+04  0.24980383691E+04 0.  0.
        4    1    3    3  502    0 -0.26715410650E+03 -0.11269220015E+04  0.77499693858E+03  0.13935373629E+04  0.12699999809E+01 0.  1.
       -4    1    3    3    0  502  0.26715410650E+03  0.11269220015E+04 -0.18600707368E+03  0.11729981920E+04  0.12699999809E+01 0. -1.
</event>
<event>
 5   0  0.3808293E-06  0.2499010E+04  0.7818609E-02  0.8403338E-01
        2   -1    0    0  501    0  0.00000000000E+00  0.00000000000E+00  0.13899892666E+04  0.13899892666E+04  0.25500000920E-02 0. -1.
       -2   -1    0    0    0  501  0.00000000000E+00  0.00000000000E+00 -0.11232195098E+04  0.11232195098E+04  0.25500000920E-02 0.  1.
    10030    2    1    2    0    0  0.00000000000E+00  0.00000000000E+00  0.26676975689E+03  0.25132087764E+04  0.24990102542E+04 0.  0.
        1    1    3    3  502    0 -0.11180997625E+04  0.18799370800E+03 -0.39474101844E+03  0.12005453698E+04  0.50400001928E-02 0.  1.
       -1    1    3    3    0  502  0.11180997625E+04 -0.18799370800E+03  0.66151077533E+03  0.13126634066E+04  0.50400001928E-02 0. -1.
</event>
<event>
 5   0  0.1501747E-06  0.2500899E+04  0.7818609E-02  0.8402665E-01
       -1   -1    0    0    0  501  0.00000000000E+00  0.00000000000E+00  0.94727463832E+03  0.94727463834E+03  0.50400001928E-02 0. -1.
        1   -1    0    0  501    0  0.00000000000E+00  0.00000000000E+00 -0.16506556840E+04  0.16506556840E+04  0.50400001928E-02 0.  1.
    10030    2    1    2    0    0  0.00000000000E+00  0.00000000000E+00 -0.70338104572E+03  0.25979303224E+04  0.25008992512E+04 0.  0.
        2    1    3    3  502    0 -0.59060131039E+03  0.66125562370E+03  0.56431261568E+03  0.10509603398E+04  0.25500000920E-02 0. -1.
       -2    1    3    3    0  502  0.59060131039E+03 -0.66125562370E+03 -0.12676936614E+04  0.15469699825E+04  0.25500000920E-02 0.  1.
</event>
<event>
 5   0  0.3971759E-06  0.2502152E+04  0.7818609E-02  0.8402219E-01
        2   -1    0    0  501    0  0.00000000000E+00  0.00000000000E+00  0.18450987034E+04  0.18450987034E+04  0.25500000920E-02 0. -1.
       -2   -1    0    0    0  501  0.00000000000E+00  0.00000000000E+00 -0.84829640603E+03  0.84829640603E+03  0.25500000920E-02 0.  1.
    10030    2    1    2    0    0  0.00000000000E+00  0.00000000000E+00  0.99680229739E+03  0.26933951095E+04  0.25021515533E+04 0.  0.
        4    1    3    3  502    0  0.10837335885E+04 -0.23429393516E+03 -0.12538782837E+03  0.11158386350E+04  0.12699999809E+01 0.  1.
       -4    1    3    3    0  502 -0.10837335885E+04  0.23429393516E+03  0.11221901258E+04  0.15775564745E+04  0.12699999809E+01 0. -1.
</event>
<event>
 5   0  0.3713394E-06  0.2474282E+04  0.7818609E-02  0.8412205E-01
        2   -1    0    0  501    0  0.00000000000E+00  0.00000000000E+00  0.17764548189E+04  0.17764548189E+04  0.25500000920E-02 0. -1.
       -2   -1    0    0    0  501  0.00000000000E+00  0.00000000000E+00 -0.86155742992E+03  0.86155742993E+03  0.25500000920E-02 0.  1.
    10030    2    1    2    0    0  0.00000000000E+00  0.00000000000E+00  0.91489738900E+03  0.26380122489E+04  0.24742819954E+04 0.  0.
        3    1    3    3  502    0  0.56934237354E+03 -0.13621026993E+03  0.16194371344E+04  0.17219990181E+04  0.10100000352E+00 0. -1.
       -3    1    3    3    0  502 -0.56934237354E+03  0.13621026993E+03 -0.70453974536E+03  0.91601323077E+03  0.10100000352E+00 0.  1.
</event>
<event>
 5   0  0.1574896E-06  0.2499816E+04  0.7818609E-02  0.8403051E-01
       -1   -1    0    0    0  501  0.00000000000E+00  0.00000000000E+00  0.69076373507E+03  0.69076373509E+03  0.50400001928E-02 0. -1.
        1   -1    0    0  501    0  0.00000000000E+00  0.00000000000E+00 -0.22616568811E+04  0.22616568811E+04  0.50400001928E-02 0.  1.
    10030    2    1    2    0    0  0.00000000000E+00  0.00000000000E+00 -0.15708931460E+04  0.29524206162E+04  0.24998164370E+04 0.  0.
        3    1    3    3  502    0 -0.58283805911E+03  0.86582029863E+03 -0.15976531455E+04  0.19083607039E+04  0.10100000352E+00 0.  1.
       -3    1    3    3    0  502  0.58283805911E+03 -0.86582029863E+03  0.26759999472E+02  0.10440599123E+04  0.10100000352E+00 0. -1.
</event>
<event>
 5   0  0.3814260E-06  0.2500301E+04  0.7818609E-02  0.8402878E-01
       -2   -1    0    0    0  501  0.00000000000E+00  0.00000000000E+00  0.10274909100E+04  0.10274909100E+04  0.25500000920E-02 0.  1.
        2   -1    0    0  501    0  0.00000000000E+00  0.00000000000E+00 -0.15210603947E+04  0.15210603947E+04  0.25500000920E-02 0. -1.
    10030    2    1    2    0    0  0.00000000000E+00  0.00000000000E+00 -0.49356948465E+03  0.25485513047E+04  0.25003005652E+04 0.  0.
        5    1    3    3  502    0  0.15996795827E+03 -0.38756464129E+03  0.95367721135E+03  0.10417861644E+04  0.46999998093E+01 0.  1.
       -5    1    3    3    0  502 -0.15996795827E+03  0.38756464129E+03 -0.14472466960E+04  0.15067651403E+04  0.46999998093E+01 0. -1.
</event>
<event>
 5   0  0.1519145E-06  0.2495025E+04  0.7818609E-02  0.8404760E-01
        1   -1    0    0  501    0  0.00000000000E+00  0.00000000000E+00  0.14763636369E+04  0.14763636369E+04  0.50400001928E-02 0.  1.
       -1   -1    0    0    0  501  0.00000000000E+00  0.00000000000E+00 -0.10541357610E+04  0.10541357610E+04  0.50400001928E-02 0. -1.
    10030    2    1    2    0    0  0.00000000000E+00  0.00000000000E+00  0.42222787582E+03  0.25304993979E+04  0.24950252150E+04 0.  0.
        4    1    3    3  502    0 -0.12576048442E+03 -0.99170681452E+03  0.96804131569E+03  0.13915472350E+04  0.12699999809E+01 0.  1.
       -4    1    3    3    0  502  0.12576048442E+03  0.99170681452E+03 -0.54581343986E+03  0.11389521629E+04  0.12699999809E+01 0. -1.
</event>
<event>
 5   0  0.3808293E-06  0.2497565E+04  0.7818609E-02  0.8403854E-01
       -2   -1    0    0    0  501  0.00000000000E+00  0.00000000000E+00  0.73762083433E+03  0.73762083434E+03  0.25500000920E-02 0.  1.
        2   -1    0    0  501    0  0.00000000000E+00  0.00000000000E+00 -0.21141726246E+04  0.21141726246E+04  0.25500000920E-02 0. -1.
    10030    2    1    2    0    0  0.00000000000E+00  0.00000000000E+00 -0.13765517902E+04  0.28517934589E+04  0.24975650344E+04 0.  0.
        1    1    3    3  502    0 -0.51124588387E+03  0.10956943253E+04 -0.10448840163E+04  0.15980303551E+04  0.50400001928E-02 0.  1.
       -1    1    3    3    0  502  0.51124588387E+03 -0.10956943253E+04 -0.33166777390E+03  0.12537631038E+04  0.50400001928E-02 0. -1.
</event>
<event>
 5   0  0.3924441E-06  0.2481447E+04  0.7818609E-02  0.8409625E-01
       -2   -1    0    0    0  501  0.00000000000E+00  0.00000000000E+00  0.12481154906E+04  0.12481154906E+04  0.25500000920E-02 0.  1.
        2   -1    0    0  501    0  0.00000000000E+00  0.00000000000E+00 -0.12333750888E+04  0.12333750888E+04  0.25500000920E-02 0. -1.
    10030    2    1    2    0    0  0.00000000000E+00  0.00000000000E+00  0.14740401800E+02  0.24814905795E+04  0.24814467991E+04 0.  0.
        2    1    3    3  502    0 -0.89043851015E+03 -0.94946945788E+02  0.86616290874E+03  0.12458466388E+04  0.25500000920E-02 0.  1.
       -2    1    3    3    0  502  0.89043851015E+03  0.94946945788E+02 -0.85142250694E+03  0.12356439407E+04  0.25500000920E-02 0. -1.
</event>
<event>
 5   0  0.1541852E-06  0.2504153E+04  0.7818609E-02  0.8401508E-01
        1   -1    0    0  501    0  0.00000000000E+00  0.00000000000E+00  0.17549415592E+04  0.17549415592E+04  0.50400001928E-02 0.  1.
       -1   -1    0    0    0  501  0.00000000000E+00  0.00000000000E+00 -0.89330321983E+03  0.89330321984E+03  0.50400001928E-02 0. -1.
    10030    2    1    2    0    0  0.00000000000E+00  0.00000000000E+00  0.86163833941E+03  0.26482447791E+04  0.25041525077E+04 0.  0.
        5    1    3    3  502    0  0.57095217127E+03 -0.83988782113E+03 -0.34362674660E+03  0.10721470818E+04  0.46999998093E+01 0. -1.
       -5    1    3    3    0  502 -0.57095217127E+03  0.83988782113E+03  0.12052650860E+04  0.15760976973E+04  0.46999998093E+01 0.  1.
</event>
<event>
 5   0  0.3971759E-06  0.2497821E+04  0.7818609E-02  0.8403762E-01
       -2   -1    0    0    0  501  0.00000000000E+00  0.00000000000E+00  0.13017023478E+04  0.13017023478E+04  0.25500000920E-02 0.  1.
        2   -1    0    0  501    0  0.00000000000E+00  0.00000000000E+00 -0.11982592172E+04  0.11982592172E+04  0.25500000920E-02 0. -1.
    10030    2    1    2    0    0  0.00000000000E+00  0.00000000000E+00  0.10344313067E+03  0.24999615650E+04  0.24978205190E+04 0.  0.
        4    1    3    3  502    0 -0.11238165314E+04  0.34926689912E+03  0.47019987466E+03  0.12672965313E+04  0.12699999809E+01 0.  1.
       -4    1    3    3    0  502  0.11238165314E+04 -0.34926689912E+03 -0.36675674399E+03  0.12326650337E+04  0.12699999809E+01 0. -1.
</event>
<event>
 5   0  0.3814260E-06  0.2490645E+04  0.7818609E-02  0.8406326E-01
        2   -1    0    0  501    0  0.00000000000E+00  0.00000000000E+00  0.17113562589E+04  0.17113562589E+04  0.25500000920E-02 0. -1.
       -2   -1    0    0    0  501  0.00000000000E+00  0.00000000000E+00 -0.90619824153E+03  0.90619824153E+03  0.25500000920E-02 0.  1.
    10030    2    1    2    0    0  0.00000000000E+00  0.00000000000E+00  0.80515801738E+03  0.26175545004E+04  0.24906449225E+04 0.  0.
        5    1    3    3  502    0  0.10057656609E+04  0.22201601158E+03 -0.33305181091E+03  0.10824977011E+04  0.46999998093E+01 0.  1.
       -5    1    3    3    0  502 -0.10057656609E+04 -0.22201601158E+03  0.11382098283E+04  0.15350567994E+04  0.46999998093E+01 0. -1.
</event>
<event>
 5   0  0.1519145E-06  0.2500966E+04  0.7818609E-02  0.8402641E-01
       -1   -1    0    0    0  501  0.00000000000E+00  0.00000000000E+00  0.81779613812E+03  0.81779613814E+03  0.50400001928E-02 0. -1.
        1   -1    0    0  501    0  0.00000000000E+00  0.00000000000E+00 -0.19121001302E+04  0.19121001302E+04  0.50400001928E-02 0.  1.
    10030    2    1    2    0    0  0.00000000000E+00  0.00000000000E+00 -0.10943039921E+04  0.27298962684E+04  0.25009662950E+04 0.  0.
        4    1    3    3  502    0  0.27619081200E+03  0.51514626112E+03 -0.17538058288E+04  0.18486464056E+04  0.12699999809E+01 0.  1.
       -4    1    3    3    0  502 -0.27619081200E+03 -0.51514626112E+03  0.65950183673E+03  0.88124986271E+03  0.12699999809E+01 0. -1.
</event>
<event>
 5   0  0.3713394E-06  0.2500706E+04  0.7818609E-02  0.8402734E-01
        2   -1    0    0  501    0  0.00000000000E+00  0.00000000000E+00  0.26818496711E+04  0.26818496711E+04  0.25500000920E-02 0.  1.
       -2   -1    0    0    0  501  0.00000000000E+00  0.00000000000E+00 -0.58294947829E+03  0.58294947829E+03  0.25500000920E-02 0. -1.
    10030    2    1    2    0    0  0.00000000000E+00  0.00000000000E+00  0.20989001929E+04  0.32647991494E+04  0.25007061936E+04 0.  0.
        3    1    3    3  502    0 -0.35113096561E+03  0.28780747881E+03  0.25704346551E+04  0.26102222944E+04  0.10100000352E+00 0.  1.
       -3    1    3    3    0  502  0.35113096561E+03 -0.28780747881E+03 -0.47153446224E+03  0.65457685503E+03  0.10100000352E+00 0. -1.
</event>
<event>
 5   0  0.1287375E-06  0.2509769E+04  0.7818609E-02  0.8399514E-01
        3   -1    0    0  501    0  0.00000000000E+00  0.00000000000E+00  0.10595280487E+04  0.10595280535E+04  0.10100000352E+00 0.  1.
       -3   -1    0    0    0  501  0.00000000000E+00  0.00000000000E+00 -0.14862604681E+04  0.14862604715E+04  0.10100000352E+00 0. -1.
    10030    2    1    2    0    0  0.00000000000E+00  0.00000000000E+00 -0.42673241945E+03  0.25457885250E+04  0.25097686460E+04 0.  0.
        2    1    3    3  502    0  0.49460280152E+03  0.36627468577E+03 -0.13226542879E+04  0.14588363315E+04  0.25500000920E-02 0. -1.
       -2    1    3    3    0  502 -0.49460280152E+03 -0.36627468577E+03  0.89592186845E+03  0.10869521936E+04  0.25500000920E-02 0.  1.
</event>
<event>
 5   0  0.1574896E-06  0.2494301E+04  0.7818609E-02  0.8405019E-01
        1   -1    0    0  501    0  0.00000000000E+00  0.00000000000E+00  0.14622092735E+04  0.14622092736E+04  0.50400001928E-02 0. -1.
       -1   -1    0    0    0  501  0.00000000000E+00  0.00000000000E+00 -0.10637217343E+04  0.10637217343E+04  0.50400001928E-02 0.  1.
    10030    2    1    2    0    0  0.00000000000E+00  0.00000000000E+00  0.39848753928E+03  0.25259310078E+04  0.24943005307E+04 0.  0.
        3    1    3    3  502    0 -0.17774590096E+03 -0.58654297286E+03  0.12991839841E+04  0.14364906192E+04  0.10100000352E+00 0. -1.
       -3    1    3    3    0  502  0.17774590096E+03  0.58654297286E+03 -0.90069644485E+03  0.10894403886E+04  0.10100000352E+00 0.  1.
</event>
<event>
 5   0  0.1574896E-06  0.2499367E+04  0.7818609E-02  0.8403211E-01
        1   -1    0    0  501    0  0.00000000000E+00  0.00000000000E+00  0.24171939470E+04  0.24171939470E+04  0.50400001928E-02 0.  1.
       -1   -1    0    0    0  501  0.00000000000E+00  0.00000000000E+00 -0.64608362564E+03  0.64608362566E+03  0.50400001928E-02 0. -1.
    10030    2    1    2    0    0  0.00000000000E+00  0.00000000000E+00  0.17711103214E+04  0.30632775727E+04  0.24993674633E+04 0.  0.
        3    1    3    3  502    0  0.29659185621E+03 -0.30131351249E+02  0.23729739275E+04  0.23916270400E+04  0.10100000352E+00 0.  1.
       -3    1    3    3    0  502 -0.29659185621E+03  0.30131351249E+02 -0.60186360613E+03  0.67165053271E+03  0.10100000352E+00 0. -1.
</event>
<event>
 5   0  0.1553604E-06  0.2542369E+04  0.7818609E-02  0.8388045E-01
        1   -1    0    0  501    0  0.00000000000E+00  0.00000000000E+00  0.25263806003E+04  0.25263806003E+04  0.50400001928E-02 0.  1.
       -1   -1    0    0    0  501  0.00000000000E+00  0.00000000000E+00 -0.63961454689E+03  0.63961454691E+03  0.50400001928E-02 0. -1.
    10030    2    1    2    0    0  0.00000000000E+00  0.00000000000E+00  0.18867660534E+04  0.31659951472E+04  0.25423688033E+04 0.  0.
        1    1    3    3  502    0 -0.64558987582E+03 -0.87831478903E+03  0.17577769590E+04  0.20683333856E+04  0.50400001928E-02 0.  1.
       -1    1    3    3    0  502  0.64558987582E+03  0.87831478903E+03  0.12898909442E+03  0.10976617616E+04  0.50400001928E-02 0. -1.
</event>
<event>
 5   0  0.3713394E-06  0.2497942E+04  0.7818609E-02  0.8403719E-01
       -2   -1    0    0    0  501  0.00000000000E+00  0.00000000000E+00  0.64528011632E+03  0.64528011632E+03  0.25500000920E-02 0. -1.
        2   -1    0    0  501    0  0.00000000000E+00  0.00000000000E+00 -0.24174435792E+04  0.24174435792E+04  0.25500000920E-02 0.  1.
    10030    2    1    2    0    0  0.00000000000E+00  0.00000000000E+00 -0.17721634629E+04  0.30627236955E+04  0.24979417719E+04 0.  0.
        3    1    3    3  502    0  0.85131704534E+03 -0.73418325363E+03 -0.21882871876E+03  0.11452736703E+04  0.10100000352E+00 0. -1.
       -3    1    3    3    0  502 -0.85131704534E+03  0.73418325363E+03 -0.15533347441E+04  0.19174500252E+04  0.10100000352E+00 0.  1.
</event>
<event>
 5   0  0.1287375E-06  0.2500165E+04  0.7818609E-02  0.8402927E-01
       -3   -1    0    0    0  501  0.00000000000E+00  0.00000000000E+00  0.23019632568E+04  0.23019632590E+04  0.10100000352E+00 0.  1.
        3   -1    0    0  501    0  0.00000000000E+00  0.00000000000E+00 -0.67885806672E+03  0.67885807424E+03  0.10100000352E+00 0. -1.
    10030    2    1    2    0    0  0.00000000000E+00  0.00000000000E+00  0.16231051901E+04  0.29808213333E+04  0.25001650671E+04 0.  0.
        3    1    3    3  502    0  0.12716525665E+03 -0.10980219501E+04  0.11545519081E+03  0.11113744268E+04  0.10100000352E+00 0. -1.
       -3    1    3    3    0  502 -0.12716525665E+03  0.10980219501E+04  0.15076499993E+04  0.18694469064E+04  0.10100000352E+00 0.  1.
</event>
<event>
 5   0  0.3713394E-06  0.2497418E+04  0.7818609E-02  0.8403906E-01
        2   -1    0    0  501    0  0.00000000000E+00  0.00000000000E+00  0.13856826694E+04  0.13856826694E+04  0.25500000920E-02 0. -1.
       -2   -1    0    0    0  501  0.00000000000E+00  0.00000000000E+00 -0.11252753206E+04  0.11252753206E+04  0.25500000920E-02 0.  1.
    10030    2    1    2    0    0  0.00000000000E+00  0.00000000000E+00  0.26040734881E+03  0.25109579901E+04  0.24974182751E+04 0.  0.
        3    1    3    3  502    0  0.52142617605E+02  0.15510829790E+03  0.13748558049E+04  0.13845598330E+04  0.10100000352E+00 0. -1.
       -3    1    3    3    0  502 -0.52142617605E+02 -0.15510829790E+03 -0.11144484561E+04  0.11263981571E+04  0.10100000352E+00 0.  1.
</event>
<event>
 5   0  0.3814260E-06  0.2500375E+04  0.7818609E-02  0.8402852E-01
       -2   -1    0    0    0  501  0.00000000000E+00  0.00000000000E+00  0.92291239216E+03  0.92291239216E+03  0.25500000920E-02 0.  1.
        2   -1    0    0  501    0  0.00000000000E+00  0.00000000000E+00 -0.16935176716E+04  0.16935176716E+04  0.25500000920E-02 0. -1.
    10030    2    1    2    0    0  0.00000000000E+00  0.00000000000E+00 -0.77060527941E+03  0.26164300637E+04  0.25003747283E+04 0.  0.
        5    1    3    3  502    0 -0.47472567452E+03  0.44036359384E+03 -0.15043612588E+04  0.16378062913E+04  0.46999998093E+01 0. -1.
       -5    1    3    3    0  502  0.47472567452E+03 -0.44036359384E+03  0.73375597935E+03  0.97862377248E+03  0.46999998093E+01 0.  1.
</event>
<event>
 5   0  0.1519145E-06  0.2498718E+04  0.7818609E-02  0.8403443E-01
       -1   -1    0    0    0  501  0.00000000000E+00  0.00000000000E+00  0.15803105417E+04  0.15803105417E+04  0.50400001928E-02 0.  1.
        1   -1    0    0  501    0  0.00000000000E+00  0.00000000000E+00 -0.98771557670E+03  0.98771557672E+03  0.50400001928E-02 0. -1.
    10030    2    1    2    0    0  0.00000000000E+00  0.00000000000E+00  0.59259496498E+03  0.25680261184E+04  0.24987175415E+04 0.  0.
        4    1    3    3  502    0 -0.76646432684E+03 -0.56381718931E+03  0.11284085888E+04  0.14760301296E+04  0.12699999809E+01 0.  1.
       -4    1    3    3    0  502  0.76646432684E+03  0.56381718931E+03 -0.53581362380E+03  0.10919959888E+04  0.12699999809E+01 0. -1.
</event>
<event>
 5   0  0.1519145E-06  0.2483679E+04  0.7818609E-02  0.8408823E-01
        1   -1    0    0  501    0  0.00000000000E+00  0.00000000000E+00  0.10303876774E+04  0.10303876774E+04  0.50400001928E-02 0.  1.
       -1   -1    0    0    0  501  0.00000000000E+00  0.00000000000E+00 -0.14966849373E+04  0.14966849373E+04  0.50400001928E-02 0. -1.
    10030    2    1    2    0    0  0.00000000000E+00  0.00000000000E+00 -0.46629725994E+03  0.25270726147E+04  0.24836793000E+04 0.  0.
        4    1    3    3  502    0 -0.69684958674E+03  0.36843013373E+03 -0.12095098405E+04  0.14436951815E+04  0.12699999809E+01 0. -1.
       -4    1    3    3    0  502  0.69684958674E+03 -0.36843013373E+03  0.74321258055E+03  0.10833774332E+04  0.12699999809E+01 0.  1.
</event>
<event>
 5   0  0.3924441E-06  0.2492034E+04  0.7818609E-02  0.8405829E-01
        2   -1    0    0  501    0  0.00000000000E+00  0.00000000000E+00  0.14249917420E+04  0.14249917420E+04  0.25500000920E-02 0. -1.
       -2   -1    0    0    0  501  0.00000000000E+00  0.00000000000E+00 -0.10895209691E+04  0.10895209691E+04  0.25500000920E-02 0.  1.
    10030    2    1    2    0    0  0.00000000000E+00  0.00000000000E+00  0.33547077289E+03  0.25145127111E+04  0.24920340156E+04 0.  0.
        2    1    3    3  502    0  0.18373122957E+03 -0.58440721880E+03  0.12625429806E+04  0.14033188304E+04  0.25500000920E-02 0. -1.
       -2    1    3    3    0  502 -0.18373122957E+03  0.58440721880E+03 -0.92707220768E+03  0.11111938806E+04  0.25500000920E-02 0.  1.
</event>
<event>
 5   0  0.3713394E-06  0.2486247E+04  0.7818609E-02  0.8407901E-01
        2   -1    0    0  501    0  0.00000000000E+00  0.00000000000E+00  0.21333517024E+04  0.21333517024E+04  0.25500000920E-02 0.  1.
       -2   -1    0    0    0  501  0.00000000000E+00  0.00000000000E+00 -0.72437951237E+03  0.72437951238E+03  0.25500000920E-02 0. -1.
    10030    2    1    2    0    0  0.00000000000E+00  0.00000000000E+00  0.14089721900E+04  0.28577312148E+04  0.24862471847E+04 0.  0.
        3    1    3    3  502    0  0.79661462706E+03 -0.73103692747E+03 -0.64677287352E+00  0.10812077885E+04  0.10100000352E+00 0.  1.
       -3    1    3    3    0  502 -0.79661462706E+03  0.73103692747E+03  0.14096189629E+04  0.17765234263E+04  0.10100000352E+00 0. -1.
</event>
<event>
 5   0  0.1553604E-06  0.2505234E+04  0.7818609E-02  0.8401123E-01
       -1   -1    0    0    0  501  0.00000000000E+00  0.00000000000E+00  0.12357454798E+04  0.12357454799E+04  0.50400001928E-02 0. -1.
        1   -1    0    0  501    0  0.00000000000E+00  0.00000000000E+00 -0.12697185397E+04  0.12697185397E+04  0.50400001928E-02 0.  1.
    10030    2    1    2    0    0  0.00000000000E+00  0.00000000000E+00 -0.33973059849E+02  0.25054640196E+04  0.25052336786E+04 0.  0.
        1    1    3    3  502    0  0.60426192703E+03 -0.10507679434E+04  0.29895895940E+03  0.12484479191E+04  0.50400001928E-02 0. -1.
       -1    1    3    3    0  502 -0.60426192703E+03  0.10507679434E+04 -0.33293201925E+03  0.12570161004E+04  0.50400001928E-02 0.  1.
</event>
<event>
 5   0  0.3814260E-06  0.2498873E+04  0.7818609E-02  0.8403387E-01
        2   -1    0    0  501    0  0.00000000000E+00  0.00000000000E+00  0.14377666522E+04  0.14377666522E+04  0.25500000920E-02 0. -1.
       -2   -1    0    0    0  501  0.00000000000E+00  0.00000000000E+00 -0.10857755217E+04  0.10857755217E+04  0.25500000920E-02 0.  1.
    10030    2    1    2    0    0  0.00000000000E+00  0.00000000000E+00  0.35199113054E+03  0.25235421739E+04  0.24988732155E+04 0.  0.
        5    1    3    3  502    0  0.22599505351E+03 -0.58977594865E+03 -0.91268223057E+03  0.11099190862E+04  0.46999998093E+01 0.  1.
       -5    1    3    3    0  502 -0.22599505351E+03  0.58977594865E+03  0.12646733611E+04  0.14136230877E+04  0.46999998093E+01 0. -1.
</event>
<event>
 5   0  0.1519145E-06  0.2516663E+04  0.7818609E-02  0.8397073E-01
       -1   -1    0    0    0  501  0.00000000000E+00  0.00000000000E+00  0.10831341642E+04  0.10831341642E+04  0.50400001928E-02 0.  1.
        1   -1    0    0  501    0  0.00000000000E+00  0.00000000000E+00 -0.14618667160E+04  0.14618667160E+04  0.50400001928E-02 0. -1.
    10030    2    1    2    0    0  0.00000000000E+00  0.00000000000E+00 -0.37873255178E+03  0.25450008802E+04  0.25166626978E+04 0.  0.
        4    1    3    3  502    0  0.22503549587E+03 -0.12211588709E+04 -0.39544068527E+03  0.13031672613E+04  0.12699999809E+01 0.  1.
       -4    1    3    3    0  502 -0.22503549587E+03  0.12211588709E+04  0.16708133487E+02  0.12418336189E+04  0.12699999809E+01 0. -1.
</event>
<event>
 5   0  0.1541852E-06  0.2501203E+04  0.7818609E-02  0.8402557E-01
       -1   -1    0    0    0  501  0.00000000000E+00  0.00000000000E+00  0.97612544061E+03  0.97612544063E+03  0.50400001928E-02 0. -1.
        1   -1    0    0  501    0  0.00000000000E+00  0.00000000000E+00 -0.16022573970E+04  0.16022573971E+04  0.50400001928E-02 0.  1.
    10030    2    1    2    0    0  0.00000000000E+00  0.00000000000E+00 -0.62613195643E+03  0.25783828377E+04  0.25012030767E+04 0.  0.
        5    1    3    3  502    0 -0.53217945369E+02  0.58289290849E+03 -0.14523313189E+04  0.15658494955E+04  0.46999998093E+01 0.  1.
       -5    1    3    3    0  502  0.53217945369E+02 -0.58289290849E+03  0.82619936251E+03  0.10125333422E+04  0.46999998093E+01 0. -1.
</event>
<event>
 5   0  0.3924441E-06  0.2493321E+04  0.7818609E-02  0.8405369E-01
        2   -1    0    0  501    0  0.00000000000E+00  0.00000000000E+00  0.12544663819E+04  0.12544663819E+04  0.25500000920E-02 0. -1.
       -2   -1    0    0    0  501  0.00000000000E+00  0.00000000000E+00 -0.12389028160E+04  0.12389028160E+04  0.25500000920E-02 0.  1.
    10030    2    1    2    0    0  0.00000000000E+00  0.00000000000E+00  0.15563565892E+02  0.24933691979E+04  0.24933206237E+04 0.  0.
        2    1    3    3  502    0  0.88839378781E+03 -0.76419082370E+03  0.43314967735E+03  0.12493397377E+04  0.25500000920E-02 0. -1.
       -2    1    3    3    0  502 -0.88839378781E+03  0.76419082370E+03 -0.41758611146E+03  0.12440294602E+04  0.25500000920E-02 0.  1.
</event>
<event>
 5   0  0.1553604E-06  0.2498582E+04  0.7818609E-02  0.8403491E-01
        1   -1    0    0  501    0  0.00000000000E+00  0.00000000000E+00  0.17373149552E+04  0.17373149552E+04  0.50400001928E-02 0. -1.
       -1   -1    0    0    0  501  0.00000000000E+00  0.00000000000E+00 -0.89835642702E+03  0.89835642703E+03  0.50400001928E-02 0.  1.
    10030    2    1    2    0    0  0.00000000000E+00  0.00000000000E+00  0.83895852815E+03  0.26356713822E+04  0.24985820425E+04 0.  0.
        1    1    3    3  502    0 -0.53329080637E+03 -0.46389356696E+03  0.15061107810E+04  0.16637205325E+04  0.50400001928E-02 0. -1.
       -1    1    3    3    0  502  0.53329080637E+03  0.46389356696E+03 -0.66715225288E+03  0.97195084967E+03  0.50400001928E-02 0.  1.
</event>
<event>
 5   0  0.1501747E-06  0.2494944E+04  0.7818609E-02  0.8404789E-01
       -1   -1    0    0    0  501  0.00000000000E+00  0.00000000000E+00  0.81623809879E+03  0.81623809881E+03  0.50400001928E-02 0.  1.
        1   -1    0    0  501    0  0.00000000000E+00  0.00000000000E+00 -0.19065349811E+04  0.19065349811E+04  0.50400001928E-02 0. -1.
    10030    2    1    2    0    0  0.00000000000E+00  0.00000000000E+00 -0.10902968823E+04  0.27227730800E+04  0.24949440782E+04 0.  0.
        2    1    3    3  502    0  0.66644464479E+03  0.62379249786E+03  0.38274057889E+03  0.98982619469E+03  0.25500000920E-02 0.  1.
       -2    1    3    3    0  502 -0.66644464479E+03 -0.62379249786E+03 -0.14730374612E+04  0.17329468853E+04  0.25500000920E-02 0. -1.
</event>
<event>
 5   0  0.3814260E-06  0.2496243E+04  0.7818609E-02  0.8404325E-01
       -2   -1    0    0    0  501  0.00000000000E+00  0.00000000000E+00  0.69086831251E+03  0.69086831251E+03  0.25500000920E-02 0. -1.
        2   -1    0    0  501    0  0.00000000000E+00  0.00000000000E+00 -0.22548549581E+04  0.22548549581E+04  0.25500000920E-02 0.  1.
    10030    2    1    2    0    0  0.00000000000E+00  0.00000000000E+00 -0.15639866456E+04  0.29457232707E+04  0.24962434496E+04 0.  0.
        5    1    3    3  502    0  0.87991647986E+03  0.19795860946E+01  0.26256452184E+03  0.91826964907E+03  0.46999998093E+01 0. -1.
       -5    1    3    3    0  502 -0.87991647986E+03 -0.19795860946E+01 -0.18265511675E+04  0.20274536216E+04  0.46999998093E+01 0.  1.
</event>
<event>
 5   0  0.3971759E-06  0.2501360E+04  0.7818609E-02  0.8402501E-01
       -2   -1    0    0    0  501  0.00000000000E+00  0.00000000000E+00  0.14295643200E+04  0.14295643200E+04  0.25500000920E-02 0. -1.
        2   -1    0    0  501    0  0.00000000000E+00  0.00000000000E+00 -0.10941801153E+04  0.10941801153E+04  0.25500000920E-02 0.  1.
    10030    2    1    2    0    0  0.00000000000E+00  0.00000000000E+00  0.33538420471E+03  0.25237444354E+04  0.25013603120E+04 0.  0.
        4    1    3    3  502    0 -0.29753246967E+02  0.95267557552E+03 -0.64932172160E+03  0.11532980183E+04  0.12699999809E+01 0.  1.
       -4    1    3    3    0  502  0.29753246967E+02 -0.95267557552E+03  0.98470592632E+03  0.13704464171E+04  0.12699999809E+01 0. -1.
</event>
<event>
 5   0  0.1501747E-06  0.2498299E+04  0.7818609E-02  0.8403592E-01
        1   -1    0    0  501    0  0.00000000000E+00  0.00000000000E+00  0.19363700889E+04  0.19363700889E+04  0.50400001928E-02 0.  1.
       -1   -1    0    0    0  501  0.00000000000E+00  0.00000000000E+00 -0.80582459256E+03  0.80582459258E+03  0.50400001928E-02 0. -1.
    10030    2    1    2    0    0  0.00000000000E+00  0.00000000000E+00  0.11305454964E+04  0.27421946815E+04  0.24982991318E+04 0.  0.
        2    1    3    3  502    0  0.90406968418E+03 -0.16716766375E+03 -0.36290996502E+03  0.98842838100E+03  0.25500000920E-02 0. -1.
       -2    1    3    3    0  502 -0.90406968418E+03  0.16716766375E+03  0.14934554614E+04  0.17537663005E+04  0.25500000920E-02 0.  1.
</event>
<event>
 5   0  0.1574896E-06  0.2501756E+04  0.7818609E-02  0.8402360E-01
       -1   -1    0    0    0  501  0.00000000000E+00  0.00000000000E+00  0.85968269681E+03  0.85968269683E+03  0.50400001928E-02 0.  1.
        1   -1    0    0  501    0  0.00000000000E+00  0.00000000000E+00 -0.18200848818E+04  0.18200848818E+04  0.50400001928E-02 0. -1.
    10030    2    1    2    0    0  0.00000000000E+00  0.00000000000E+00 -0.96040218501E+03  0.26797675787E+04  0.25017557672E+04 0.  0.
        3    1    3    3  502    0  0.11054548724E+04 -0.13844504511E+03 -0.10894405107E+04  0.15582291686E+04  0.10100000352E+00 0. -1.
       -3    1    3    3    0  502 -0.11054548724E+04  0.13844504511E+03  0.12903832569E+03  0.11215384100E+04  0.10100000352E+00 0.  1.
</event>
<event>
 5   0  0.1501747E-06  0.2499347E+04  0.7818609E-02  0.8403218E-01
        1   -1    0    0  501    0  0.00000000000E+00  0.00000000000E+00  0.89576412629E+03  0.89576412631E+03  0.50400001928E-02 0.  1.
       -1   -1    0    0    0  501  0.00000000000E+00  0.00000000000E+00 -0.17434103537E+04  0.17434103537E+04  0.50400001928E-02 0. -1.
    10030    2    1    2    0    0  0.00000000000E+00  0.00000000000E+00 -0.84764622742E+03  0.26391744800E+04  0.24993474767E+04 0.  0.
        2    1    3    3  502    0  0.16336180039E+02 -0.10766896708E+04 -0.10934598097E+04  0.15346601817E+04  0.25500000920E-02 0. -1.
       -2    1    3    3    0  502 -0.16336180039E+02  0.10766896708E+04  0.24581358226E+03  0.11045142983E+04  0.25500000920E-02 0.  1.
</event>
<event>
 5   0  0.3713394E-06  0.2496262E+04  0.7818609E-02  0.8404318E-01
       -2   -1    0    0    0  501  0.00000000000E+00  0.00000000000E+00  0.85541114436E+03  0.85541114436E+03  0.25500000920E-02 0.  1.
        2   -1    0    0  501    0  0.00000000000E+00  0.00000000000E+00 -0.18211487766E+04  0.18211487766E+04  0.25500000920E-02 0. -1.
    10030    2    1    2    0    0  0.00000000000E+00  0.00000000000E+00 -0.96573763228E+03  0.26765599210E+04  0.24962619727E+04 0.  0.
        3    1    3    3  502    0  0.17702591417E+03  0.94415578342E+03 -0.13373354112E+04  0.16465826217E+04  0.10100000352E+00 0. -1.
       -3    1    3    3    0  502 -0.17702591417E+03 -0.94415578342E+03  0.37159777893E+03  0.10299772993E+04  0.10100000352E+00 0.  1.
</event>
<event>
 5   0  0.1287375E-06  0.2496653E+04  0.7818609E-02  0.8404179E-01
        3   -1    0    0  501    0  0.00000000000E+00  0.00000000000E+00  0.12007381281E+04  0.12007381323E+04  0.10100000352E+00 0. -1.
       -3   -1    0    0    0  501  0.00000000000E+00  0.00000000000E+00 -0.12978006575E+04  0.12978006614E+04  0.10100000352E+00 0.  1.
    10030    2    1    2    0    0  0.00000000000E+00  0.00000000000E+00 -0.97062529448E+02  0.24985387937E+04  0.24966527530E+04 0.  0.
        4    1    3    3  502    0  0.14299815725E+03 -0.90607320665E+03  0.79880783032E+03  0.12163522070E+04  0.12699999809E+01 0. -1.
       -4    1    3    3    0  502 -0.14299815725E+03  0.90607320665E+03 -0.89587035977E+03  0.12821865867E+04  0.12699999809E+01 0.  1.
</event>
<event>
 5   0  0.1519145E-06  0.2509393E+04  0.7818609E-02  0.8399647E-01
        1   -1    0    0  501    0  0.00000000000E+00  0.00000000000E+00  0.78080362334E+03  0.78080362335E+03  0.50400001928E-02 0.  1.
       -1   -1    0    0    0  501  0.00000000000E+00  0.00000000000E+00 -0.20162084885E+04  0.20162084885E+04  0.50400001928E-02 0. -1.
    10030    2    1    2    0    0  0.00000000000E+00  0.00000000000E+00 -0.12354048651E+04  0.27970121118E+04  0.25093926701E+04 0.  0.
        4    1    3    3  502    0  0.45512687210E+03 -0.33077578021E+03 -0.18677187063E+04  0.19506224302E+04  0.12699999809E+01 0. -1.
       -4    1    3    3    0  502 -0.45512687210E+03  0.33077578021E+03  0.63231384118E+03  0.84638968161E+03  0.12699999809E+01 0.  1.
</event>
<event>
 5   0  0.1574896E-06  0.2498464E+04  0.7818609E-02  0.8403533E-01
       -1   -1    0    0    0  501  0.00000000000E+00  0.00000000000E+00  0.76684988875E+03  0.76684988876E+03  0.50400001928E-02 0. -1.
        1   -1    0    0  501    0  0.00000000000E+00  0.00000000000E+00 -0.20350535429E+04  0.20350535429E+04  0.50400001928E-02 0.  1.
    10030    2    1    2    0    0  0.00000000000E+00  0.00000000000E+00 -0.12682036541E+04  0.28019034316E+04  0.24984639945E+04 0.  0.
        3    1    3    3  502    0 -0.11591443708E+04 -0.34611878849E+03 -0.98367553425E+03  0.15591765311E+04  0.10100000352E+00 0.  1.
       -3    1    3    3    0  502  0.11591443708E+04  0.34611878849E+03 -0.28452811988E+03  0.12427269006E+04  0.10100000352E+00 0. -1.
</event>
<event>
 5   0  0.3808293E-06  0.2500098E+04  0.7818609E-02  0.8402951E-01
        2   -1    0    0  501    0  0.00000000000E+00  0.00000000000E+00  0.27369590927E+04  0.27369590927E+04  0.25500000920E-02 0.  1.
       -2   -1    0    0    0  501  0.00000000000E+00  0.00000000000E+00 -0.57093365718E+03  0.57093365719E+03  0.25500000920E-02 0. -1.
    10030    2    1    2    0    0  0.00000000000E+00  0.00000000000E+00  0.21660254356E+04  0.33078927499E+04  0.25000976496E+04 0.  0.
        1    1    3    3  502    0  0.24828166235E+03  0.24777292115E+03  0.26705114435E+04  0.26934488253E+04  0.50400001928E-02 0.  1.
       -1    1    3    3    0  502 -0.24828166235E+03 -0.24777292115E+03 -0.50448600796E+03  0.61444392467E+03  0.50400001928E-02 0. -1.
</event>
<event>
 5   0  0.1553604E-06  0.2501815E+04  0.7818609E-02  0.8402339E-01
       -1   -1    0    0    0  501  0.00000000000E+00  0.00000000000E+00  0.71921561686E+03  0.71921561688E+03  0.50400001928E-02 0. -1.
        1   -1    0    0  501    0  0.00000000000E+00  0.00000000000E+00 -0.21756607642E+04  0.21756607642E+04  0.50400001928E-02 0.  1.
    10030    2    1    2    0    0  0.00000000000E+00  0.00000000000E+00 -0.14564451473E+04  0.28948763810E+04  0.25018147003E+04 0.  0.
        1    1    3    3  502    0  0.67165218002E+03  0.98837842678E+03 -0.11561355280E+04  0.16627260522E+04  0.50400001928E-02 0.  1.
       -1    1    3    3    0  502 -0.67165218002E+03 -0.98837842678E+03 -0.30030961930E+03  0.12321503289E+04  0.50400001928E-02 0. -1.
</event>
<event>
 5   0  0.3713394E-06  0.2498723E+04  0.7818609E-02  0.8403441E-01
        2   -1    0    0  501    0  0.00000000000E+00  0.00000000000E+00  0.17908262337E+04  0.17908262337E+04  0.25500000920E-02 0.  1.
       -2   -1    0    0    0  501  0.00000000000E+00  0.00000000000E+00 -0.87161113493E+03  0.87161113493E+03  0.25500000920E-02 0. -1.
    10030    2    1    2    0    0  0.00000000000E+00  0.00000000000E+00  0.91921509873E+03  0.26624373686E+04  0.24987229426E+04 0.  0.
        3    1    3    3  502    0 -0.64586166345E+02 -0.93304035856E+03 -0.42301831571E+03  0.10264892543E+04  0.10100000352E+00 0. -1.
       -3    1    3    3    0  502  0.64586166345E+02  0.93304035856E+03  0.13422334144E+04  0.16359481143E+04  0.10100000352E+00 0.  1.
</event>
<event>
 5   0  0.3713394E-06  0.2501165E+04  0.7818609E-02  0.8402571E-01
       -2   -1    0    0    0  501  0.00000000000E+00  0.00000000000E+00  0.83243551348E+03  0.83243551348E+03  0.25500000920E-02 0. -1.
        2   -1    0    0  501    0  0.00000000000E+00  0.00000000000E+00 -0.18787713686E+04  0.18787713686E+04  0.25500000920E-02 0.  1.
    10030    2    1    2    0    0  0.00000000000E+00  0.00000000000E+00 -0.10463358551E+04  0.27112068821E+04  0.25011645359E+04 0.  0.
        3    1    3    3  502    0  0.39903239675E+02 -0.64605590562E+03 -0.16830624364E+04  0.18032414360E+04  0.10100000352E+00 0.  1.
       -3    1    3    3    0  502 -0.39903239675E+02  0.64605590562E+03  0.63672658125E+03  0.90796544604E+03  0.10100000352E+00 0. -1.
</event>
<event>
 5   0  0.3971759E-06  0.2502682E+04  0.7818609E-02  0.8402031E-01
        2   -1    0    0  501    0  0.00000000000E+00  0.00000000000E+00  0.14372678002E+04  0.14372678002E+04  0.25500000920E-02 0.  1.
       -2   -1    0    0    0  501  0.00000000000E+00  0.00000000000E+00 -0.10894663308E+04  0.10894663308E+04  0.25500000920E-02 0. -1.
    10030    2    1    2    0    0  0.00000000000E+00  0.00000000000E+00  0.34780146938E+03  0.25267341310E+04  0.25026824622E+04 0.  0.
        4    1    3    3  502    0 -0.91759792836E+03 -0.81484904077E+03 -0.73172076955E+02  0.12293578336E+04  0.12699999809E+01 0. -1.
       -4    1    3    3    0  502  0.91759792836E+03  0.81484904077E+03  0.42097354634E+03  0.12973762974E+04  0.12699999809E+01 0.  1.
</event>
<event>
 5   0  0.1574896E-06  0.2492452E+04  0.7818609E-02  0.8405680E-01
       -1   -1    0    0    0  501  0.00000000000E+00  0.00000000000E+00  0.13868854485E+04  0.13868854485E+04  0.50400001928E-02 0. -1.
        1   -1    0    0  501    0  0.00000000000E+00  0.00000000000E+00 -0.11198323219E+04  0.11198323219E+04  0.50400001928E-02 0.  1.
    10030    2    1    2    0    0  0.00000000000E+00  0.00000000000E+00  0.26705312661E+03  0.25067177704E+04  0.24924519270E+04 0.  0.
        3    1    3    3  502    0 -0.27056396563E+03  0.34036947829E+03 -0.10410720399E+04  0.11282230470E+04  0.10100000352E+00 0.  1.
       -3    1    3    3    0  502  0.27056396563E+03 -0.34036947829E+03  0.13081251665E+04  0.13784947235E+04  0.10100000352E+00 0. -1.
</event>
<event>
 5   0  0.3971759E-06  0.2495958E+04  0.7818609E-02  0.8404427E-01
       -2   -1    0    0    0  501  0.00000000000E+00  0.00000000000E+00  0.15102888908E+04  0.15102888908E+04  0.25500000920E-02 0.  1.
        2   -1    0    0  501    0  0.00000000000E+00  0.00000000000E+00 -0.10312272327E+04  0.10312272327E+04  0.25500000920E-02 0. -1.
    10030    2    1    2    0    0  0.00000000000E+00  0.00000000000E+00  0.47906165809E+03  0.25415161235E+04  0.24959575585E+04 0.  0.
        4    1    3    3  502    0 -0.40577596478E+03  0.22059268223E+03  0.14200607025E+04  0.14932813790E+04  0.12699999809E+01 0.  1.
       -4    1    3    3    0  502  0.40577596478E+03 -0.22059268223E+03 -0.94099904443E+03  0.10482347445E+04  0.12699999809E+01 0. -1.
</event>
<event>
 5   0  0.1541852E-06  0.2499396E+04  0.7818609E-02  0.8403201E-01
       -1   -1    0    0    0  501  0.00000000000E+00  0.00000000000E+00  0.90170738186E+03  0.90170738188E+03  0.50400001928E-02 0.  1.
        1   -1    0    0  501    0  0.00000000000E+00  0.00000000000E+00 -0.17319864115E+04  0.17319864115E+04  0.50400001928E-02 0. -1.
    10030    2    1    2    0    0  0.00000000000E+00  0.00000000000E+00 -0.83027902959E+03  0.26336937933E+04  0.24993958730E+04 0.  0.
        5    1    3    3  502    0  0.47154295468E+03  0.97464606790E+03 -0.10727182990E+04  0.15241503714E+04  0.46999998093E+01 0.  1.
       -5    1    3    3    0  502 -0.47154295468E+03 -0.97464606790E+03  0.24243926938E+03  0.11095434219E+04  0.46999998093E+01 0. -1.
</event>
<event>
 5   0  0.3808293E-06  0.2522297E+04  0.7818609E-02  0.8395085E-01
       -2   -1    0    0    0  501  0.00000000000E+00  0.00000000000E+00  0.16259684101E+04  0.16259684101E+04  0.25500000920E-02 0.  1.
        2   -1    0    0  501    0  0.00000000000E+00  0.00000000000E+00 -0.97818344975E+03  0.97818344975E+03  0.25500000920E-02 0. -1.
    10030    2    1    2    0    0  0.00000000000E+00  0.00000000000E+00  0.64778496033E+03  0.26041518598E+04  0.25222968807E+04 0.  0.
        1    1    3    3  502    0  0.36410110392E+03  0.23303741879E+03  0.15470848820E+04  0.16063460663E+04  0.50400001928E-02 0.  1.
       -1    1    3    3    0  502 -0.36410110392E+03 -0.23303741879E+03 -0.89929992170E+03  0.99780579355E+03  0.50400001928E-02 0. -1.
</event>
<event>
 5   0  0.1501747E-06  0.2493535E+04  0.7818609E-02  0.8405292E-01
        1   -1    0    0  501    0  0.00000000000E+00  0.00000000000E+00  0.11175797481E+04  0.11175797481E+04  0.50400001928E-02 0. -1.
       -1   -1    0    0    0  501  0.00000000000E+00  0.00000000000E+00 -0.13908886919E+04  0.13908886919E+04  0.50400001928E-02 0.  1.
    10030    2    1    2    0    0  0.00000000000E+00  0.00000000000E+00 -0.27330894384E+03  0.25084684400E+04  0.24935348676E+04 0.  0.
        2    1    3    3  502    0 -0.68330874406E+03  0.57349815591E+03  0.73954862639E+03  0.11587679428E+04  0.25500000920E-02 0. -1.
       -2    1    3    3    0  502  0.68330874406E+03 -0.57349815591E+03 -0.10128575702E+04  0.13497004972E+04  0.25500000920E-02 0.  1.
</event>
<event>
 5   0  0.3814260E-06  0.2499285E+04  0.7818609E-02  0.8403240E-01
       -2   -1    0    0    0  501  0.00000000000E+00  0.00000000000E+00  0.13058160583E+04  0.13058160583E+04  0.25500000920E-02 0.  1.
        2   -1    0    0  501    0  0.00000000000E+00  0.00000000000E+00 -0.11958858685E+04  0.11958858685E+04  0.25500000920E-02 0. -1.
    10030    2    1    2    0    0  0.00000000000E+00  0.00000000000E+00  0.10993018975E+03  0.25017019268E+04  0.24992854747E+04 0.  0.
        5    1    3    3  502    0  0.98350881168E+03  0.48103310869E+03 -0.54803120333E+03  0.12243540028E+04  0.46999998093E+01 0. -1.
       -5    1    3    3    0  502 -0.98350881168E+03 -0.48103310869E+03  0.65796139309E+03  0.12773479241E+04  0.46999998093E+01 0.  1.
</event>
<event>
 5   0  0.1574896E-06  0.2501194E+04  0.7818609E-02  0.8402560E-01
       -1   -1    0    0    0  501  0.00000000000E+00  0.00000000000E+00  0.14562049973E+04  0.14562049973E+04  0.50400001928E-02 0. -1.
        1   -1    0    0  501    0  0.00000000000E+00  0.00000000000E+00 -0.10740194729E+04  0.10740194729E+04  0.50400001928E-02 0.  1.
    10030    2    1    2    0    0  0.00000000000E+00  0.00000000000E+00  0.38218552441E+03  0.25302244703E+04  0.25011937340E+04 0.  0.
        3    1    3    3  502    0 -0.12174868660E+04 -0.26817696753E+03  0.29123344499E+03  0.12802382920E+04  0.10100000352E+00 0. -1.
       -3    1    3    3    0  502  0.12174868660E+04  0.26817696753E+03  0.90952079419E+02  0.12499861782E+04  0.10100000352E+00 0.  1.
</event>
<event>
 5   0  0.1574896E-06  0.2499183E+04  0.7818609E-02  0.8403277E-01
       -1   -1    0    0    0  501  0.00000000000E+00  0.00000000000E+00  0.15931375321E+04  0.15931375322E+04  0.50400001928E-02 0.  1.
        1   -1    0    0  501    0  0.00000000000E+00  0.00000000000E+00 -0.98012839357E+03  0.98012839358E+03  0.50400001928E-02 0. -1.
    10030    2    1    2    0    0  0.00000000000E+00  0.00000000000E+00  0.61300913858E+03  0.25732659257E+04  0.24991833307E+04 0.  0.
        3    1    3    3  502    0  0.61541753484E+03 -0.27744701428E+03  0.13892284717E+04  0.15445618617E+04  0.10100000352E+00 0.  1.
       -3    1    3    3    0  502 -0.61541753484E+03  0.27744701428E+03 -0.77621933314E+03  0.10287040640E+04  0.10100000352E+00 0. -1.
</event>
<event>
 5   0  0.1287375E-06  0.2515054E+04  0.7818609E-02  0.8397642E-01
        3   -1    0    0  501    0  0.00000000000E+00  0.00000000000E+00  0.87425169358E+03  0.87425169941E+03  0.10100000352E+00 0.  1.
       -3   -1    0    0    0  501  0.00000000000E+00  0.00000000000E+00 -0.18088315142E+04  0.18088315170E+04  0.10100000352E+00 0. -1.
    10030    2    1    2    0    0  0.00000000000E+00  0.00000000000E+00 -0.93457982063E+03  0.26830832164E+04  0.25150538971E+04 0.  0.
        5    1    3    3  502    0 -0.34558563458E+03  0.56120401947E+03 -0.16098087211E+04  0.17395072840E+04  0.46999998093E+01 0. -1.
       -5    1    3    3    0  502  0.34558563458E+03 -0.56120401947E+03  0.67522890050E+03  0.94357593249E+03  0.46999998093E+01 0.  1.
</event>
<event>
 5   0  0.1574896E-06  0.2515703E+04  0.7818609E-02  0.8397412E-01
       -1   -1    0    0    0  501  0.00000000000E+00  0.00000000000E+00  0.58589248612E+03  0.58589248614E+03  0.50400001928E-02 0. -1.
        1   -1    0    0  501    0  0.00000000000E+00  0.00000000000E+00 -0.27004800685E+04  0.27004800685E+04  0.50400001928E-02 0.  1.
    10030    2    1    2    0    0  0.00000000000E+00  0.00000000000E+00 -0.21145875824E+04  0.32863725547E+04  0.25157034651E+04 0.  0.
        3    1    3    3  502    0  0.99597528988E+03 -0.73464445821E+03 -0.13509210564E+04  0.18321181645E+04  0.10100000352E+00 0. -1.
       -3    1    3    3    0  502 -0.99597528988E+03  0.73464445821E+03 -0.76366652599E+03  0.14542543901E+04  0.10100000352E+00 0.  1.
</event>
<event>
 5   0  0.1501747E-06  0.2487147E+04  0.7818609E-02  0.8407579E-01
        1   -1    0    0  501    0  0.00000000000E+00  0.00000000000E+00  0.56160304975E+03  0.56160304977E+03  0.50400001928E-02 0. -1.
       -1   -1    0    0    0  501  0.00000000000E+00  0.00000000000E+00 -0.27536789954E+04  0.27536789954E+04  0.50400001928E-02 0.  1.
    10030    2    1    2    0    0  0.00000000000E+00  0.00000000000E+00 -0.21920759457E+04  0.33152820452E+04  0.24871465754E+04 0.  0.
        2    1    3    3  502    0  0.26670262502E+03  0.53795960896E+02 -0.27135198105E+04  0.27271256036E+04  0.25500000920E-02 0.  1.
       -2    1    3    3    0  502 -0.26670262502E+03 -0.53795960896E+02  0.52144386486E+03  0.58815644161E+03  0.25500000920E-02 0. -1.
</event>
<event>
 5   0  0.1541852E-06  0.2504848E+04  0.7818609E-02  0.8401260E-01
       -1   -1    0    0    0  501  0.00000000000E+00  0.00000000000E+00  0.97893082238E+03  0.97893082239E+03  0.50400001928E-02 0. -1.
        1   -1    0    0  501    0  0.00000000000E+00  0.00000000000E+00 -0.16023257393E+04  0.16023257393E+04  0.50400001928E-02 0.  1.
    10030    2    1    2    0    0  0.00000000000E+00  0.00000000000E+00 -0.62339491696E+03  0.25812565617E+04  0.25048481421E+04 0.  0.
        5    1    3    3  502    0  0.39327665883E+02 -0.11807900533E+04  0.11659098774E+03  0.11871930609E+04  0.46999998093E+01 0. -1.
       -5    1    3    3    0  502 -0.39327665883E+02  0.11807900533E+04 -0.73998590469E+03  0.13940635009E+04  0.46999998093E+01 0.  1.
</event>
<event>
 5   0  0.3814260E-06  0.2512617E+04  0.7818609E-02  0.8398505E-01
       -2   -1    0    0    0  501  0.00000000000E+00  0.00000000000E+00  0.78766939849E+03  0.78766939849E+03  0.25500000920E-02 0.  1.
        2   -1    0    0  501    0  0.00000000000E+00  0.00000000000E+00 -0.20037730339E+04  0.20037730339E+04  0.25500000920E-02 0. -1.
    10030    2    1    2    0    0  0.00000000000E+00  0.00000000000E+00 -0.12161036354E+04  0.27914424324E+04  0.25126167239E+04 0.  0.
        5    1    3    3  502    0  0.28597259455E+03  0.12148191088E+04 -0.76798067747E+03  0.14653948966E+04  0.46999998093E+01 0.  1.
       -5    1    3    3    0  502 -0.28597259455E+03 -0.12148191088E+04 -0.44812295798E+03  0.13260475359E+04  0.46999998093E+01 0. -1.
</event>
<event>
 5   0  0.1287375E-06  0.2504991E+04  0.7818609E-02  0.8401209E-01
        3   -1    0    0  501    0  0.00000000000E+00  0.00000000000E+00  0.12705355741E+04  0.12705355781E+04  0.10100000352E+00 0.  1.
       -3   -1    0    0    0  501  0.00000000000E+00  0.00000000000E+00 -0.12347120402E+04  0.12347120443E+04  0.10100000352E+00 0. -1.
    10030    2    1    2    0    0  0.00000000000E+00  0.00000000000E+00  0.35823533876E+02  0.25052476225E+04  0.25049914819E+04 0.  0.
        2    1    3    3  502    0 -0.96841234560E+03  0.79286472745E+03  0.65756327485E+02  0.12533079597E+04  0.25500000920E-02 0. -1.
       -2    1    3    3    0  502  0.96841234560E+03 -0.79286472745E+03 -0.29932793609E+02  0.12519396628E+04  0.25500000920E-02 0.  1.
</event>
<event>
 5   0  0.3808293E-06  0.2498733E+04  0.7818609E-02  0.8403437E-01
       -2   -1    0    0    0  501  0.00000000000E+00  0.00000000000E+00  0.85793807885E+03  0.85793807885E+03  0.25500000920E-02 0. -1.
        2   -1    0    0  501    0  0.00000000000E+00  0.00000000000E+00 -0.18193819430E+04  0.18193819430E+04  0.25500000920E-02 0.  1.
    10030    2    1    2    0    0  0.00000000000E+00  0.00000000000E+00 -0.96144386415E+03  0.26773200219E+04  0.24987333182E+04 0.  0.
        1    1    3    3  502    0 -0.93380039719E+03 -0.24498640311E+03 -0.13304432956E+04  0.16438007429E+04  0.50400001928E-02 0.  1.
       -1    1    3    3    0  502  0.93380039719E+03  0.24498640311E+03  0.36899943147E+03  0.10335192789E+04  0.50400001928E-02 0. -1.
</event>
<event>
 5   0  0.1553604E-06  0.2502840E+04  0.7818609E-02  0.8401974E-01
        1   -1    0    0  501    0  0.00000000000E+00  0.00000000000E+00  0.13020456665E+04  0.13020456665E+04  0.50400001928E-02 0.  1.
       -1   -1    0    0    0  501  0.00000000000E+00  0.00000000000E+00 -0.12027631299E+04  0.12027631299E+04  0.50400001928E-02 0. -1.
    10030    2    1    2    0    0  0.00000000000E+00  0.00000000000E+00  0.99282536651E+02  0.25048087964E+04  0.25028404033E+04 0.  0.
        1    1    3    3  502    0  0.36981188470E+03  0.10340922099E+04  0.65006726917E+03  0.12762033470E+04  0.50400001928E-02 0.  1.
       -1    1    3    3    0  502 -0.36981188470E+03 -0.10340922099E+04 -0.55078473252E+03  0.12286054493E+04  0.50400001928E-02 0. -1.
</event>
<event>
 5   0  0.3808293E-06  0.2497236E+04  0.7818609E-02  0.8403971E-01
       -2   -1    0    0    0  501  0.00000000000E+00  0.00000000000E+00  0.19577354201E+04  0.19577354201E+04  0.25500000920E-02 0. -1.
        2   -1    0    0  501    0  0.00000000000E+00  0.00000000000E+00 -0.79635247408E+03  0.79635247408E+03  0.25500000920E-02 0.  1.
    10030    2    1    2    0    0  0.00000000000E+00  0.00000000000E+00  0.11613829461E+04  0.27540878942E+04  0.24972364289E+04 0.  0.
        1    1    3    3  502    0 -0.24684316145E+03 -0.27310287467E+03  0.18965268434E+04  0.19319241171E+04  0.50400001928E-02 0. -1.
       -1    1    3    3    0  502  0.24684316145E+03  0.27310287467E+03 -0.73514389736E+03  0.82216377709E+03  0.50400001928E-02 0.  1.
</event>
<event>
 5   0  0.3713394E-06  0.2497481E+04  0.7818609E-02  0.8403883E-01
        2   -1    0    0  501    0  0.00000000000E+00  0.00000000000E+00  0.22507614597E+04  0.22507614597E+04  0.25500000920E-02 0.  1.
       -2   -1    0    0    0  501  0.00000000000E+00  0.00000000000E+00 -0.69281133576E+03  0.69281133577E+03  0.25500000920E-02 0. -1.
    10030    2    1    2    0    0  0.00000000000E+00  0.00000000000E+00  0.15579501239E+04  0.29435727954E+04  0.24974811738E+04 0.  0.
        3    1    3    3  502    0 -0.27974340995E+03 -0.16707823556E+03 -0.64182344532E+03  0.71979778922E+03  0.10100000352E+00 0. -1.
       -3    1    3    3    0  502  0.27974340995E+03  0.16707823556E+03  0.21997735692E+04  0.22237750062E+04  0.10100000352E+00 0.  1.
</event>
<event>
 5   0  0.1574896E-06  0.2500918E+04  0.7818609E-02  0.8402658E-01
       -1   -1    0    0    0  501  0.00000000000E+00  0.00000000000E+00  0.12531688623E+04  0.12531688623E+04  0.50400001928E-02 0. -1.
        1   -1    0    0  501    0  0.00000000000E+00  0.00000000000E+00 -0.12477554161E+04  0.12477554161E+04  0.50400001928E-02 0.  1.
    10030    2    1    2    0    0  0.00000000000E+00  0.00000000000E+00  0.54134461735E+01  0.25009242784E+04  0.25009184195E+04 0.  0.
        3    1    3    3  502    0  0.65088293590E+03 -0.10441352474E+04  0.22582428688E+03  0.12509450946E+04  0.10100000352E+00 0. -1.
       -3    1    3    3    0  502 -0.65088293590E+03  0.10441352474E+04 -0.22041084071E+03  0.12499791838E+04  0.10100000352E+00 0.  1.
</event>
<event>
 5   0  0.1541852E-06  0.2502444E+04  0.7818609E-02  0.8402115E-01
        1   -1    0    0  501    0  0.00000000000E+00  0.00000000000E+00  0.10355738634E+04  0.10355738634E+04  0.50400001928E-02 0. -1.
       -1   -1    0    0    0  501  0.00000000000E+00  0.00000000000E+00 -0.15117772970E+04  0.15117772970E+04  0.50400001928E-02 0.  1.
    10030    2    1    2    0    0  0.00000000000E+00  0.00000000000E+00 -0.47620343362E+03  0.25473511605E+04  0.25024444499E+04 0.  0.
        5    1    3    3  502    0  0.90579920573E+03 -0.78079249951E+03 -0.61270806929E+03  0.13437047282E+04  0.46999998093E+01 0.  1.
       -5    1    3    3    0  502 -0.90579920573E+03  0.78079249951E+03  0.13650463567E+03  0.12036464323E+04  0.46999998093E+01 0. -1.
</event>
<event>
 5   0  0.1519145E-06  0.2502556E+04  0.7818609E-02  0.8402075E-01
       -1   -1    0    0    0  501  0.00000000000E+00  0.00000000000E+00  0.13099879258E+04  0.13099879258E+04  0.50400001928E-02 0.  1.
        1   -1    0    0  501    0  0.00000000000E+00  0.00000000000E+00 -0.11951996702E+04  0.11951996702E+04  0.50400001928E-02 0. -1.
    10030    2    1    2    0    0  0.00000000000E+00  0.00000000000E+00  0.11478825559E+03  0.25051875961E+04  0.25025564025E+04 0.  0.
        4    1    3    3  502    0 -0.94089704730E+03  0.49414483238E+03  0.71856501491E+03  0.12828887959E+04  0.12699999809E+01 0.  1.
       -4    1    3    3    0  502  0.94089704730E+03 -0.49414483238E+03 -0.60377675932E+03  0.12222988002E+04  0.12699999809E+01 0. -1.
</event>
<event>
 5   0  0.3814260E-06  0.2499120E+04  0.7818609E-02  0.8403299E-01
        2   -1    0    0  501    0  0.00000000000E+00  0.00000000000E+00  0.25819896911E+04  0.25819896911E+04  0.25500000920E-02 0. -1.
       -2   -1    0    0    0  501  0.00000000000E+00  0.00000000000E+00 -0.60472735824E+03  0.60472735824E+03  0.25500000920E-02 0.  1.
    10030    2    1    2    0    0  0.00000000000E+00  0.00000000000E+00  0.19772623328E+04  0.31867170493E+04  0.24991196889E+04 0.  0.
        5    1    3    3  502    0  0.10884633658E+04 -0.47773230753E+02  0.17688047984E+04  0.20774328594E+04  0.46999998093E+01 0. -1.
       -5    1    3    3    0  502 -0.10884633658E+04  0.47773230753E+02  0.20845753442E+03  0.11092841899E+04  0.46999998093E+01 0.  1.
</event>
<event>
 5   0  0.3924441E-06  0.2496627E+04  0.7818609E-02  0.8404188E-01
       -2   -1    0    0    0  501  0.00000000000E+00  0.00000000000E+00  0.94497997886E+03  0.94497997887E+03  0.25500000920E-02 0. -1.
        2   -1    0    0  501    0  0.00000000000E+00  0.00000000000E+00 -0.16490158674E+04  0.16490158674E+04  0.25500000920E-02 0.  1.
    10030    2    1    2    0    0  0.00000000000E+00  0.00000000000E+00 -0.70403588855E+03  0.25939958463E+04  0.24966273086E+04 0.  0.
        2    1    3    3  502    0  0.10109258088E+04  0.69347142904E+03 -0.59659900527E+03  0.13633796195E+04  0.25500000920E-02 0.  1.
       -2    1    3    3    0  502 -0.10109258088E+04 -0.69347142904E+03 -0.10743688328E+03  0.12306162268E+04  0.25500000920E-02 0. -1.
</event>
<event>
 5   0  0.3713394E-06  0.2499992E+04  0.7818609E-02  0.8402988E-01
       -2   -1    0    0    0  501  0.00000000000E+00  0.00000000000E+00  0.11158380455E+04  0.11158380455E+04  0.25500000920E-02 0.  1.
        2   -1    0    0  501    0  0.00000000000E+00  0.00000000000E+00 -0.14002843359E+04  0.14002843359E+04  0.25500000920E-02 0. -1.
    10030    2    1    2    0    0  0.00000000000E+00  0.00000000000E+00 -0.28444629041E+03  0.25161223814E+04  0.24999924292E+04 0.  0.
        3    1    3    3  502    0 -0.72615520423E+03 -0.81033596510E+03 -0.76145272256E+03  0.13280647634E+04  0.10100000352E+00 0. -1.
       -3    1    3    3    0  502  0.72615520423E+03  0.81033596510E+03  0.47700643215E+03  0.11880576179E+04  0.10100000352E+00 0.  1.
</event>
<event>
 5   0  0.3924441E-06  0.2498691E+04  0.7818609E-02  0.8403452E-01
       -2   -1    0    0    0  501  0.00000000000E+00  0.00000000000E+00  0.74607459340E+03  0.74607459340E+03  0.25500000920E-02 0. -1.
        2   -1    0    0  501    0  0.00000000000E+00  0.00000000000E+00 -0.20921024153E+04  0.20921024153E+04  0.25500000920E-02 0.  1.
    10030    2    1    2    0    0  0.00000000000E+00  0.00000000000E+00 -0.13460278219E+04  0.28381770087E+04  0.24986912245E+04 0.  0.
        2    1    3    3  502    0  0.51782123089E+03 -0.11161454083E+04 -0.91911970113E+03  0.15358061156E+04  0.25500000920E-02 0.  1.
       -2    1    3    3    0  502 -0.51782123089E+03  0.11161454083E+04 -0.42690812079E+03  0.13023708931E+04  0.25500000920E-02 0. -1.
</event>
<event>
 5   0  0.3713394E-06  0.2498360E+04  0.7818609E-02  0.8403570E-01
       -2   -1    0    0    0  501  0.00000000000E+00  0.00000000000E+00  0.10356635541E+04  0.10356635541E+04  0.25500000920E-02 0. -1.
        2   -1    0    0  501    0  0.00000000000E+00  0.00000000000E+00 -0.15067164158E+04  0.15067164158E+04  0.25500000920E-02 0.  1.
    10030    2    1    2    0    0  0.00000000000E+00  0.00000000000E+00 -0.47105286172E+03  0.25423799699E+04  0.24983604850E+04 0.  0.
        3    1    3    3  502    0  0.85022587852E+02  0.22272818158E+03  0.10122983921E+04  0.10399926578E+04  0.10100000352E+00 0. -1.
       -3    1    3    3    0  502 -0.85022587852E+02 -0.22272818158E+03 -0.14833512538E+04  0.15023873122E+04  0.10100000352E+00 0.  1.
</event>
<event>
 5   0  0.3814260E-06  0.2497731E+04  0.7818609E-02  0.8403794E-01
        2   -1    0    0  501    0  0.00000000000E+00  0.00000000000E+00  0.14803443674E+04  0.14803443674E+04  0.25500000920E-02 0. -1.
       -2   -1    0    0    0  501  0.00000000000E+00  0.00000000000E+00 -0.10535828818E+04  0.10535828818E+04  0.25500000920E-02 0.  1.
    10030    2    1    2    0    0  0.00000000000E+00  0.00000000000E+00  0.42676148556E+03  0.25339272492E+04  0.24977313584E+04 0.  0.
        5    1    3    3  502    0  0.88410684444E+03  0.10165056809E+02  0.11081456619E+04  0.14176590347E+04  0.46999998093E+01 0. -1.
       -5    1    3    3    0  502 -0.88410684444E+03 -0.10165056809E+02 -0.68138417636E+03  0.11162682144E+04  0.46999998093E+01 0.  1.
</event>
<event>
 5   0  0.3971759E-06  0.2491040E+04  0.7818609E-02  0.8406185E-01
       -2   -1    0    0    0  501  0.00000000000E+00  0.00000000000E+00  0.14173928152E+04  0.14173928152E+04  0.25500000920E-02 0. -1.
        2   -1    0    0  501    0  0.00000000000E+00  0.00000000000E+00 -0.10944882075E+04  0.10944882075E+04  0.25500000920E-02 0.  1.
    10030    2    1    2    0    0  0.00000000000E+00  0.00000000000E+00  0.32290460764E+03  0.25118810227E+04  0.24910397200E+04 0.  0.
        4    1    3    3  502    0  0.33993177432E+03  0.65394786809E+02 -0.10450058729E+04  0.11008492070E+04  0.12699999809E+01 0.  1.
       -4    1    3    3    0  502 -0.33993177432E+03 -0.65394786809E+02  0.13679104805E+04  0.14110318157E+04  0.12699999809E+01 0. -1.
</event>
<event>
 5   0  0.3971759E-06  0.2498001E+04  0.7818609E-02  0.8403698E-01
        2   -1    0    0  501    0  0.00000000000E+00  0.00000000000E+00  0.28139084539E+04  0.28139084539E+04  0.25500000920E-02 0. -1.
       -2   -1    0    0    0  501  0.00000000000E+00  0.00000000000E+00 -0.55439005521E+03  0.55439005522E+03  0.25500000920E-02 0.  1.
    10030    2    1    2    0    0  0.00000000000E+00  0.00000000000E+00  0.22595183987E+04  0.33682985091E+04  0.24980014917E+04 0.  0.
        4    1    3    3  502    0 -0.19079632393E+03 -0.11967539320E+04  0.72215486178E+03  0.14107205493E+04  0.12699999809E+01 0.  1.
       -4    1    3    3    0  502  0.19079632393E+03  0.11967539320E+04  0.15373635369E+04  0.19575779598E+04  0.12699999809E+01 0. -1.
</event>
<event>
 5   0  0.1553604E-06  0.2497356E+04  0.7818609E-02  0.8403928E-01
        1   -1    0    0  501    0  0.00000000000E+00  0.00000000000E+00  0.13639122210E+04  0.13639122210E+04  0.50400001928E-02 0.  1.
       -1   -1    0    0    0  501  0.00000000000E+00  0.00000000000E+00 -0.11431799405E+04  0.11431799405E+04  0.50400001928E-02 0. -1.
    10030    2    1    2    0    0  0.00000000000E+00  0.00000000000E+00  0.22073228051E+03  0.25070921615E+04  0.24973562755E+04 0.  0.
        1    1    3    3  502    0  0.64725235630E+03 -0.90789263869E+03  0.67468964365E+03  0.13032308972E+04  0.50400001928E-02 0.  1.
       -1    1    3    3    0  502 -0.64725235630E+03  0.90789263869E+03 -0.45395736314E+03  0.12038612643E+04  0.50400001928E-02 0. -1.
</event>
<event>
 5   0  0.3924441E-06  0.2497582E+04  0.7818609E-02  0.8403847E-01
        2   -1    0    0  501    0  0.00000000000E+00  0.00000000000E+00  0.10616698004E+04  0.10616698004E+04  0.25500000920E-02 0.  1.
       -2   -1    0    0    0  501  0.00000000000E+00  0.00000000000E+00 -0.14688930105E+04  0.14688930105E+04  0.25500000920E-02 0. -1.
    10030    2    1    2    0    0  0.00000000000E+00  0.00000000000E+00 -0.40722321005E+03  0.25305628109E+04  0.24975823104E+04 0.  0.
        2    1    3    3  502    0  0.24601082140E+03  0.85002378640E+03 -0.10963927177E+04  0.14089495211E+04  0.25500000920E-02 0. -1.
       -2    1    3    3    0  502 -0.24601082140E+03 -0.85002378640E+03  0.68916950760E+03  0.11216132898E+04  0.25500000920E-02 0.  1.
</event>
<event>
 5   0  0.1541852E-06  0.2506698E+04  0.7818609E-02  0.8400603E-01
       -1   -1    0    0    0  501  0.00000000000E+00  0.00000000000E+00  0.15082880852E+04  0.15082880852E+04  0.50400001928E-02 0. -1.
        1   -1    0    0  501    0  0.00000000000E+00  0.00000000000E+00 -0.10415009996E+04  0.10415009997E+04  0.50400001928E-02 0.  1.
    10030    2    1    2    0    0  0.00000000000E+00  0.00000000000E+00  0.46678708557E+03  0.25497890849E+04  0.25066978665E+04 0.  0.
        5    1    3    3  502    0  0.10463693024E+04  0.68384536196E+03  0.32622164464E+03  0.12918884810E+04  0.46999998093E+01 0. -1.
       -5    1    3    3    0  502 -0.10463693024E+04 -0.68384536196E+03  0.14056544092E+03  0.12579006039E+04  0.46999998093E+01 0.  1.
</event>
<event>
 5   0  0.1553604E-06  0.2502130E+04  0.7818609E-02  0.8402227E-01
        1   -1    0    0  501    0  0.00000000000E+00  0.00000000000E+00  0.14758086563E+04  0.14758086563E+04  0.50400001928E-02 0.  1.
       -1   -1    0    0    0  501  0.00000000000E+00  0.00000000000E+00 -0.10605468575E+04  0.10605468575E+04  0.50400001928E-02 0. -1.
    10030    2    1    2    0    0  0.00000000000E+00  0.00000000000E+00  0.41526179885E+03  0.25363555138E+04  0.25021304784E+04 0.  0.
        1    1    3    3  502    0  0.10616887591E+04  0.18269100625E+03 -0.43715555963E+03  0.11626108585E+04  0.50400001928E-02 0. -1.
       -1    1    3    3    0  502 -0.10616887591E+04 -0.18269100625E+03  0.85241735849E+03  0.13737446553E+04  0.50400001928E-02 0.  1.
</event>
<event>
 5   0  0.1541852E-06  0.2497301E+04  0.7818609E-02  0.8403948E-01
       -1   -1    0    0    0  501  0.00000000000E+00  0.00000000000E+00  0.10935941080E+04  0.10935941080E+04  0.50400001928E-02 0. -1.
        1   -1    0    0  501    0  0.00000000000E+00  0.00000000000E+00 -0.14256912730E+04  0.14256912731E+04  0.50400001928E-02 0.  1.
    10030    2    1    2    0    0  0.00000000000E+00  0.00000000000E+00 -0.33209716502E+03  0.25192853811E+04  0.24973006035E+04 0.  0.
        5    1    3    3  502    0  0.99728128720E+03  0.74584073169E+03 -0.25771725209E+03  0.12717266353E+04  0.46999998093E+01 0.  1.
       -5    1    3    3    0  502 -0.99728128720E+03 -0.74584073169E+03 -0.74379912929E+02  0.12475587458E+04  0.46999998093E+01 0. -1.
</event>
<event>
 5   0  0.3808293E-06  0.2506256E+04  0.7818609E-02  0.8400760E-01
        2   -1    0    0  501    0  0.00000000000E+00  0.00000000000E+00  0.15332246909E+04  0.15332246909E+04  0.25500000920E-02 0.  1.
       -2   -1    0    0    0  501  0.00000000000E+00  0.00000000000E+00 -0.10242006976E+04  0.10242006976E+04  0.25500000920E-02 0. -1.
    10030    2    1    2    0    0  0.00000000000E+00  0.00000000000E+00  0.50902399328E+03  0.25574253885E+04  0.25062560108E+04 0.  0.
        1    1    3    3  502    0  0.37731205756E+02 -0.94229586327E+03  0.10965781382E+04  0.14463155779E+04  0.50400001928E-02 0.  1.
       -1    1    3    3    0  502 -0.37731205756E+02  0.94229586327E+03 -0.58755414490E+03  0.11111098105E+04  0.50400001928E-02 0. -1.
</event>
<event>
 5   0  0.3713394E-06  0.2496214E+04  0.7818609E-02  0.8404335E-01
       -2   -1    0    0    0  501  0.00000000000E+00  0.00000000000E+00  0.17953120791E+04  0.17953120791E+04  0.25500000920E-02 0.  1.
        2   -1    0    0  501    0  0.00000000000E+00  0.00000000000E+00 -0.86768846433E+03  0.86768846433E+03  0.25500000920E-02 0. -1.
    10030    2    1    2    0    0  0.00000000000E+00  0.00000000000E+00  0.92762361472E+03  0.26630005434E+04  0.24962143985E+04 0.  0.
        3    1    3    3  502    0 -0.84443264759E+03  0.86377048589E+03  0.79880826119E+03  0.14481921823E+04  0.10100000352E+00 0. -1.
       -3    1    3    3    0  502  0.84443264759E+03 -0.86377048589E+03  0.12881535354E+03  0.12148083611E+04  0.10100000352E+00 0.  1.
</event>
<event>
 5   0  0.3814260E-06  0.2497039E+04  0.7818609E-02  0.8404041E-01
        2   -1    0    0  501    0  0.00000000000E+00  0.00000000000E+00  0.17059098180E+04  0.17059098180E+04  0.25500000920E-02 0. -1.
       -2   -1    0    0    0  501  0.00000000000E+00  0.00000000000E+00 -0.91376545153E+03  0.91376545153E+03  0.25500000920E-02 0.  1.
    10030    2    1    2    0    0  0.00000000000E+00  0.00000000000E+00  0.79214436646E+03  0.26196752695E+04  0.24970394111E+04 0.  0.
        5    1    3    3  502    0 -0.44274220958E+03 -0.75081842032E+03 -0.54171375191E+03  0.10262674327E+04  0.46999998093E+01 0.  1.
       -5    1    3    3    0  502  0.44274220958E+03  0.75081842032E+03  0.13338581184E+04  0.15934078368E+04  0.46999998093E+01 0. -1.
</event>
<event>
 5   0  0.1541852E-06  0.2498038E+04  0.7818609E-02  0.8403685E-01
       -1   -1    0    0    0  501  0.00000000000E+00  0.00000000000E+00  0.78396775343E+03  0.78396775344E+03  0.50400001928E-02 0. -1.
        1   -1    0    0  501    0  0.00000000000E+00  0.00000000000E+00 -0.19899395185E+04  0.19899395185E+04  0.50400001928E-02 0.  1.
    10030    2    1    2    0    0  0.00000000000E+00  0.00000000000E+00 -0.12059717651E+04  0.27739072720E+04  0.24980379611E+04 0.  0.
        5    1    3    3  502    0  0.86917321137E+03  0.39809273995E+03  0.28957574634E+03  0.99890745509E+03  0.46999998093E+01 0. -1.
       -5    1    3    3    0  502 -0.86917321137E+03 -0.39809273995E+03 -0.14955475114E+04  0.17749998169E+04  0.46999998093E+01 0.  1.
</event>
<event>
 5   0  0.3713394E-06  0.2435917E+04  0.7818609E-02  0.8426178E-01
        2   -1    0    0  501    0  0.00000000000E+00  0.00000000000E+00  0.18726385885E+04  0.18726385885E+04  0.25500000920E-02 0.  1.
       -2   -1    0    0    0  501  0.00000000000E+00  0.00000000000E+00 -0.79215667907E+03  0.79215667907E+03  0.25500000920E-02 0. -1.
    10030    2    1    2    0    0  0.00000000000E+00  0.00000000000E+00  0.10804819094E+04  0.26647952676E+04  0.24359172115E+04 0.  0.
        3    1    3    3  502    0  0.51808534062E+03 -0.33127538818E+02 -0.66505905330E+03  0.84369035112E+03  0.10100000352E+00 0. -1.
       -3    1    3    3    0  502 -0.51808534062E+03  0.33127538818E+02  0.17455409627E+04  0.18211049165E+04  0.10100000352E+00 0.  1.
</event>
<event>
 5   0  0.3808293E-06  0.2501001E+04  0.7818609E-02  0.8402629E-01
        2   -1    0    0  501    0  0.00000000000E+00  0.00000000000E+00  0.13781725699E+04  0.13781725699E+04  0.25500000920E-02 0. -1.
       -2   -1    0    0    0  501  0.00000000000E+00  0.00000000000E+00 -0.11346557229E+04  0.11346557229E+04  0.25500000920E-02 0.  1.
    10030    2    1    2    0    0  0.00000000000E+00  0.00000000000E+00  0.24351684698E+03  0.25128282927E+04  0.25010009144E+04 0.  0.
        1    1    3    3  502    0 -0.64006687994E+03  0.95957862358E+03 -0.36351078372E+03  0.12093869668E+04  0.50400001928E-02 0.  1.
       -1    1    3    3    0  502  0.64006687994E+03 -0.95957862358E+03  0.60702763070E+03  0.13034413259E+04  0.50400001928E-02 0. -1.
</event>
<event>
 5   0  0.3814260E-06  0.2493983E+04  0.7818609E-02  0.8405132E-01
       -2   -1    0    0    0  501  0.00000000000E+00  0.00000000000E+00  0.56903339108E+03  0.56903339109E+03  0.25500000920E-02 0.  1.
        2   -1    0    0  501    0  0.00000000000E+00  0.00000000000E+00 -0.27326836670E+04  0.27326836670E+04  0.25500000920E-02 0. -1.
    10030    2    1    2    0    0  0.00000000000E+00  0.00000000000E+00 -0.21636502759E+04  0.33017170581E+04  0.24939833631E+04 0.  0.
        5    1    3    3  502    0 -0.33816310062E+03  0.96665483084E+03 -0.13992856012E+03  0.10336236919E+04  0.46999998093E+01 0.  1.
       -5    1    3    3    0  502  0.33816310062E+03 -0.96665483084E+03 -0.20237217158E+04  0.22680933662E+04  0.46999998093E+01 0. -1.
</event>
<event>
 5   0  0.1541852E-06  0.2503059E+04  0.7818609E-02  0.8401897E-01
        1   -1    0    0  501    0  0.00000000000E+00  0.00000000000E+00  0.93638371417E+03  0.93638371419E+03  0.50400001928E-02 0. -1.
       -1   -1    0    0    0  501  0.00000000000E+00  0.00000000000E+00 -0.16727390287E+04  0.16727390287E+04  0.50400001928E-02 0.  1.
    10030    2    1    2    0    0  0.00000000000E+00  0.00000000000E+00 -0.73635531456E+03  0.26091227429E+04  0.25030585967E+04 0.  0.
        5    1    3    3  502    0  0.69677418048E+03  0.37285110520E+03 -0.13797590414E+04  0.15900532404E+04  0.46999998093E+01 0.  1.
       -5    1    3    3    0  502 -0.69677418048E+03 -0.37285110520E+03  0.64340372680E+03  0.10190695025E+04  0.46999998093E+01 0. -1.
</event>
<event>
 5   0  0.3713394E-06  0.2503948E+04  0.7818609E-02  0.8401580E-01
        2   -1    0    0  501    0  0.00000000000E+00  0.00000000000E+00  0.24251441543E+04  0.24251441543E+04  0.25500000920E-02 0. -1.
       -2   -1    0    0    0  501  0.00000000000E+00  0.00000000000E+00 -0.64632802040E+03  0.64632802041E+03  0.25500000920E-02 0.  1.
    10030    2    1    2    0    0  0.00000000000E+00  0.00000000000E+00  0.17788161339E+04  0.30714721747E+04  0.25039477794E+04 0.  0.
        3    1    3    3  502    0 -0.10762303727E+04  0.21376311172E+03  0.14987623135E+03  0.11074427199E+04  0.10100000352E+00 0.  1.
       -3    1    3    3    0  502  0.10762303727E+04 -0.21376311172E+03  0.16289399025E+04  0.19640294548E+04  0.10100000352E+00 0. -1.
</event>
<event>
 5   0  0.3808293E-06  0.2499368E+04  0.7818609E-02  0.8403211E-01
        2   -1    0    0  501    0  0.00000000000E+00  0.00000000000E+00  0.13705031268E+04  0.13705031268E+04  0.25500000920E-02 0. -1.
       -2   -1    0    0    0  501  0.00000000000E+00  0.00000000000E+00 -0.11395159910E+04  0.11395159910E+04  0.25500000920E-02 0.  1.
    10030    2    1    2    0    0  0.00000000000E+00  0.00000000000E+00  0.23098713584E+03  0.25100191178E+04  0.24993681031E+04 0.  0.
        1    1    3    3  502    0  0.12131101489E+04  0.23922454968E+03  0.29749947086E+03  0.12717588426E+04  0.50400001928E-02 0.  1.
       -1    1    3    3    0  502 -0.12131101489E+04 -0.23922454968E+03 -0.66512335021E+02  0.12382602752E+04  0.50400001928E-02 0. -1.
</event>
<event>
 5   0  0.3971759E-06  0.2502447E+04  0.7818609E-02  0.8402114E-01
       -2   -1    0    0    0  501  0.00000000000E+00  0.00000000000E+00  0.77952456227E+03  0.77952456228E+03  0.25500000920E-02 0. -1.
        2   -1    0    0  501    0  0.00000000000E+00  0.00000000000E+00 -0.20083522775E+04  0.20083522775E+04  0.25500000920E-02 0.  1.
    10030    2    1    2    0    0  0.00000000000E+00  0.00000000000E+00 -0.12288277152E+04  0.27878768398E+04  0.25024467467E+04 0.  0.
        4    1    3    3  502    0  0.21995905091E+03 -0.83019605189E+03  0.39928980936E+03  0.94712271296E+03  0.12699999809E+01 0. -1.
       -4    1    3    3    0  502 -0.21995905091E+03  0.83019605189E+03 -0.16281175246E+04  0.18407541268E+04  0.12699999809E+01 0.  1.
</event>
<event>
 5   0  0.3808293E-06  0.2496683E+04  0.7818609E-02  0.8404168E-01
       -2   -1    0    0    0  501  0.00000000000E+00  0.00000000000E+00  0.73925377236E+03  0.73925377237E+03  0.25500000920E-02 0.  1.
        2   -1    0    0  501    0  0.00000000000E+00  0.00000000000E+00 -0.21080124644E+04  0.21080124644E+04  0.25500000920E-02 0. -1.
    10030    2    1    2    0    0  0.00000000000E+00  0.00000000000E+00 -0.13687586920E+04  0.28472662368E+04  0.24966827323E+04 0.  0.
        1    1    3    3  502    0  0.48083149376E+01  0.12481191814E+04 -0.71067228266E+03  0.14362728516E+04  0.50400001928E-02 0.  1.
       -1    1    3    3    0  502 -0.48083149376E+01 -0.12481191814E+04 -0.65808640936E+03  0.14109933852E+04  0.50400001928E-02 0. -1.
</event>
<event>
 5   0  0.3713394E-06  0.2500077E+04  0.7818609E-02  0.8402958E-01
       -2   -1    0    0    0  501  0.00000000000E+00  0.00000000000E+00  0.12045297209E+04  0.12045297209E+04  0.25500000920E-02 0. -1.
        2   -1    0    0  501    0  0.00000000000E+00  0.00000000000E+00 -0.12972666329E+04  0.12972666329E+04  0.25500000920E-02 0.  1.
    10030    2    1    2    0    0  0.00000000000E+00  0.00000000000E+00 -0.92736911999E+02  0.25017963537E+04  0.25000769709E+04 0.  0.
        3    1    3    3  502    0  0.65304668043E+03 -0.35518810344E+03  0.95929416189E+03  0.12136201444E+04  0.10100000352E+00 0. -1.
       -3    1    3    3    0  502 -0.65304668043E+03  0.35518810344E+03 -0.10520310739E+04  0.12881762093E+04  0.10100000352E+00 0.  1.
</event>
<event>
 5   0  0.3924441E-06  0.2502629E+04  0.7818609E-02  0.8402049E-01
        2   -1    0    0  501    0  0.00000000000E+00  0.00000000000E+00  0.13305103372E+04  0.13305103372E+04  0.25500000920E-02 0. -1.
       -2   -1    0    0    0  501  0.00000000000E+00  0.00000000000E+00 -0.11768328386E+04  0.11768328386E+04  0.25500000920E-02 0.  1.
    10030    2    1    2    0    0  0.00000000000E+00  0.00000000000E+00  0.15367749864E+03  0.25073431758E+04  0.25026292230E+04 0.  0.
        2    1    3    3  502    0  0.62850725692E+03  0.97130805928E+03  0.55452560683E+03  0.12829494794E+04  0.25500000920E-02 0. -1.
       -2    1    3    3    0  502 -0.62850725692E+03 -0.97130805928E+03 -0.40084810819E+03  0.12243936964E+04  0.25500000920E-02 0.  1.
</event>
<event>
 5   0  0.3808293E-06  0.2501992E+04  0.7818609E-02  0.8402276E-01
       -2   -1    0    0    0  501  0.00000000000E+00  0.00000000000E+00  0.14198264257E+04  0.14198264257E+04  0.25500000920E-02 0. -1.
        2   -1    0    0  501    0  0.00000000000E+00  0.00000000000E+00 -0.11022408223E+04  0.11022408223E+04  0.25500000920E-02 0.  1.
    10030    2    1    2    0    0  0.00000000000E+00  0.00000000000E+00  0.31758560345E+03  0.25220672480E+04  0.25019917242E+04 0.  0.
        1    1    3    3  502    0 -0.70673686063E+03 -0.34320746488E+03 -0.82252876092E+03  0.11374629298E+04  0.50400001928E-02 0.  1.
       -1    1    3    3    0  502  0.70673686063E+03  0.34320746488E+03  0.11401143644E+04  0.13846043182E+04  0.50400001928E-02 0. -1.
</event>
<event>
 5   0  0.3924441E-06  0.2509473E+04  0.7818609E-02  0.8399618E-01
        2   -1    0    0  501    0  0.00000000000E+00  0.00000000000E+00  0.18858019805E+04  0.18858019805E+04  0.25500000920E-02 0. -1.
       -2   -1    0    0    0  501  0.00000000000E+00  0.00000000000E+00 -0.83485132249E+03  0.83485132249E+03  0.25500000920E-02 0.  1.
    10030    2    1    2    0    0  0.00000000000E+00  0.00000000000E+00  0.10509506580E+04  0.27206533030E+04  0.25094734725E+04 0.  0.
        2    1    3    3  502    0  0.93522514091E+02  0.11566423156E+04  0.80305688638E+01  0.11604449133E+04  0.25500000920E-02 0.  1.
       -2    1    3    3    0  502 -0.93522514091E+02 -0.11566423156E+04  0.10429200891E+04  0.15602083896E+04  0.25500000920E-02 0. -1.
</event>
<event>
 5   0  0.1553604E-06  0.2499355E+04  0.7818609E-02  0.8403215E-01
       -1   -1    0    0    0  501  0.00000000000E+00  0.00000000000E+00  0.12931831232E+04  0.12931831232E+04  0.50400001928E-02 0.  1.
        1   -1    0    0  501    0  0.00000000000E+00  0.00000000000E+00 -0.12076355447E+04  0.12076355447E+04  0.50400001928E-02 0. -1.
    10030    2    1    2    0    0  0.00000000000E+00  0.00000000000E+00  0.85547578531E+02  0.25008186679E+04  0.24993550411E+04 0.  0.
        1    1    3    3  502    0 -0.50482432882E+03 -0.11047328931E+04 -0.25135674709E+03  0.12403477667E+04  0.50400001928E-02 0. -1.
       -1    1    3    3    0  502  0.50482432882E+03  0.11047328931E+04  0.33690432562E+03  0.12604709012E+04  0.50400001928E-02 0.  1.
</event>
<event>
 5   0  0.1501747E-06  0.2497022E+04  0.7818609E-02  0.8404047E-01
       -1   -1    0    0    0  501  0.00000000000E+00  0.00000000000E+00  0.11512505970E+04  0.11512505970E+04  0.50400001928E-02 0.  1.
        1   -1    0    0  501    0  0.00000000000E+00  0.00000000000E+00 -0.13539886287E+04  0.13539886287E+04  0.50400001928E-02 0. -1.
    10030    2    1    2    0    0  0.00000000000E+00  0.00000000000E+00 -0.20273803164E+03  0.25052392257E+04  0.24970224005E+04 0.  0.
        2    1    3    3  502    0  0.17883978141E+03  0.81772120231E+03 -0.10307696171E+04  0.13278319305E+04  0.25500000920E-02 0. -1.
       -2    1    3    3    0  502 -0.17883978141E+03 -0.81772120231E+03  0.82803158550E+03  0.11774072952E+04  0.25500000920E-02 0.  1.
</event>
<event>
 5   0  0.1519145E-06  0.2501149E+04  0.7818609E-02  0.8402576E-01
       -1   -1    0    0    0  501  0.00000000000E+00  0.00000000000E+00  0.10729112885E+04  0.10729112885E+04  0.50400001928E-02 0.  1.
        1   -1    0    0  501    0  0.00000000000E+00  0.00000000000E+00 -0.14576571634E+04  0.14576571634E+04  0.50400001928E-02 0. -1.
    10030    2    1    2    0    0  0.00000000000E+00  0.00000000000E+00 -0.38474587484E+03  0.25305684519E+04  0.25011491962E+04 0.  0.
        4    1    3    3  502    0 -0.19058707140E+03  0.10215806952E+04  0.51150003773E+03  0.11582678663E+04  0.12699999809E+01 0.  1.
       -4    1    3    3    0  502  0.19058707140E+03 -0.10215806952E+04 -0.89624591256E+03  0.13723005856E+04  0.12699999809E+01 0. -1.
</event>
<event>
 5   0  0.1541852E-06  0.2498641E+04  0.7818609E-02  0.8403470E-01
        1   -1    0    0  501    0  0.00000000000E+00  0.00000000000E+00  0.22387523413E+04  0.22387523413E+04  0.50400001928E-02 0. -1.
       -1   -1    0    0    0  501  0.00000000000E+00  0.00000000000E+00 -0.69717491935E+03  0.69717491937E+03  0.50400001928E-02 0.  1.
    10030    2    1    2    0    0  0.00000000000E+00  0.00000000000E+00  0.15415774219E+04  0.29359272606E+04  0.24986412171E+04 0.  0.
        5    1    3    3  502    0  0.73561572481E+03 -0.70496889654E+02 -0.41281373358E+03  0.84648542496E+03  0.46999998093E+01 0.  1.
       -5    1    3    3    0  502 -0.73561572481E+03  0.70496889654E+02  0.19543911555E+04  0.20894418357E+04  0.46999998093E+01 0. -1.
</event>
<event>
 5   0  0.3713394E-06  0.2502356E+04  0.7818609E-02  0.8402147E-01
       -2   -1    0    0    0  501  0.00000000000E+00  0.00000000000E+00  0.97565966679E+03  0.97565966680E+03  0.25500000920E-02 0.  1.
        2   -1    0    0  501    0  0.00000000000E+00  0.00000000000E+00 -0.16045004514E+04  0.16045004514E+04  0.25500000920E-02 0. -1.
    10030    2    1    2    0    0  0.00000000000E+00  0.00000000000E+00 -0.62884078458E+03  0.25801601182E+04  0.25023559905E+04 0.  0.
        3    1    3    3  502    0  0.77912764123E+01  0.12467711775E+04 -0.20653791130E+03  0.12637867669E+04  0.10100000352E+00 0. -1.
       -3    1    3    3    0  502 -0.77912764123E+01 -0.12467711775E+04 -0.42230287328E+03  0.13163733513E+04  0.10100000352E+00 0.  1.
</event>
<event>
 5   0  0.3713394E-06  0.2498840E+04  0.7818609E-02  0.8403399E-01
        2   -1    0    0  501    0  0.00000000000E+00  0.00000000000E+00  0.13786515434E+04  0.13786515434E+04  0.25500000920E-02 0. -1.
       -2   -1    0    0    0  501  0.00000000000E+00  0.00000000000E+00 -0.11323026635E+04  0.11323026635E+04  0.25500000920E-02 0.  1.
    10030    2    1    2    0    0  0.00000000000E+00  0.00000000000E+00  0.24634887994E+03  0.25109542070E+04  0.24988403828E+04 0.  0.
        3    1    3    3  502    0 -0.11362466794E+04  0.49044983823E+03  0.29562588825E+03  0.12723962576E+04  0.10100000352E+00 0. -1.
       -3    1    3    3    0  502  0.11362466794E+04 -0.49044983823E+03 -0.49277008317E+02  0.12385579494E+04  0.10100000352E+00 0.  1.
</event>
<event>
 5   0  0.1574896E-06  0.2497119E+04  0.7818609E-02  0.8404012E-01
       -1   -1    0    0    0  501  0.00000000000E+00  0.00000000000E+00  0.12564772069E+04  0.12564772069E+04  0.50400001928E-02 0. -1.
        1   -1    0    0  501    0  0.00000000000E+00  0.00000000000E+00 -0.12406920320E+04  0.12406920320E+04  0.50400001928E-02 0.  1.
    10030    2    1    2    0    0  0.00000000000E+00  0.00000000000E+00  0.15785174929E+02  0.24971692389E+04  0.24971193475E+04 0.  0.
        3    1    3    3  502    0  0.88563132340E+03  0.57620312983E+03  0.67314896283E+03  0.12527898564E+04  0.10100000352E+00 0. -1.
       -3    1    3    3    0  502 -0.88563132340E+03 -0.57620312983E+03 -0.65736378790E+03  0.12443793825E+04  0.10100000352E+00 0.  1.
</event>
<event>
 5   0  0.1519145E-06  0.2496396E+04  0.7818609E-02  0.8404271E-01
       -1   -1    0    0    0  501  0.00000000000E+00  0.00000000000E+00  0.11394656710E+04  0.11394656710E+04  0.50400001928E-02 0. -1.
        1   -1    0    0  501    0  0.00000000000E+00  0.00000000000E+00 -0.13673059416E+04  0.13673059416E+04  0.50400001928E-02 0.  1.
    10030    2    1    2    0    0  0.00000000000E+00  0.00000000000E+00 -0.22784027060E+03  0.25067716126E+04  0.24963959479E+04 0.  0.
        4    1    3    3  502    0  0.89571224138E+03  0.76942202649E+03  0.29234254354E+03  0.12164606240E+04  0.12699999809E+01 0. -1.
       -4    1    3    3    0  502 -0.89571224138E+03 -0.76942202649E+03 -0.52018281414E+03  0.12903109886E+04  0.12699999809E+01 0.  1.
</event>
<event>
 5   0  0.1541852E-06  0.2505283E+04  0.7818609E-02  0.8401106E-01
        1   -1    0    0  501    0  0.00000000000E+00  0.00000000000E+00  0.88696403085E+03  0.88696403086E+03  0.50400001928E-02 0. -1.
       -1   -1    0    0    0  501  0.00000000000E+00  0.00000000000E+00 -0.17690810424E+04  0.17690810425E+04  0.50400001928E-02 0.  1.
    10030    2    1    2    0    0  0.00000000000E+00  0.00000000000E+00 -0.88211701160E+03  0.26560450733E+04  0.25052834190E+04 0.  0.
        5    1    3    3  502    0  0.81112788652E+03 -0.92632825564E+03 -0.68530618091E+03  0.14091412765E+04  0.46999998093E+01 0. -1.
       -5    1    3    3    0  502 -0.81112788652E+03  0.92632825564E+03 -0.19681083068E+03  0.12469037968E+04  0.46999998093E+01 0.  1.
</event>
<event>
 5   0  0.3971759E-06  0.2499696E+04  0.7818609E-02  0.8403094E-01
       -2   -1    0    0    0  501  0.00000000000E+00  0.00000000000E+00  0.11875344547E+04  0.11875344547E+04  0.25500000920E-02 0.  1.
        2   -1    0    0  501    0  0.00000000000E+00  0.00000000000E+00 -0.13154308093E+04  0.13154308093E+04  0.25500000920E-02 0. -1.
    10030    2    1    2    0    0  0.00000000000E+00  0.00000000000E+00 -0.12789635455E+03  0.25029652640E+04  0.24996955085E+04 0.  0.
        4    1    3    3  502    0 -0.48720406527E+03 -0.75818613655E+03 -0.93105076677E+03  0.12957897831E+04  0.12699999809E+01 0. -1.
       -4    1    3    3    0  502  0.48720406527E+03  0.75818613655E+03  0.80315441223E+03  0.12071754809E+04  0.12699999809E+01 0.  1.
</event>
<event>
 5   0  0.3971759E-06  0.2500574E+04  0.7818609E-02  0.8402781E-01
       -2   -1    0    0    0  501  0.00000000000E+00  0.00000000000E+00  0.81250644225E+03  0.81250644225E+03  0.25500000920E-02 0. -1.
        2   -1    0    0  501    0  0.00000000000E+00  0.00000000000E+00 -0.19239442896E+04  0.19239442896E+04  0.25500000920E-02 0.  1.
    10030    2    1    2    0    0  0.00000000000E+00  0.00000000000E+00 -0.11114378474E+04  0.27364507319E+04  0.25005736381E+04 0.  0.
        4    1    3    3  502    0  0.95206897376E+03 -0.61797194512E+03 -0.11294761070E+04  0.16012627970E+04  0.12699999809E+01 0. -1.
       -4    1    3    3    0  502 -0.95206897376E+03  0.61797194512E+03  0.18038259683E+02  0.11351879349E+04  0.12699999809E+01 0.  1.
</event>
<event>
 5   0  0.3713394E-06  0.2500001E+04  0.7818609E-02  0.8402985E-01
       -2   -1    0    0    0  501  0.00000000000E+00  0.00000000000E+00  0.97290313517E+03  0.97290313517E+03  0.25500000920E-02 0. -1.
        2   -1    0    0  501    0  0.00000000000E+00  0.00000000000E+00 -0.16060197290E+04  0.16060197290E+04  0.25500000920E-02 0.  1.
    10030    2    1    2    0    0  0.00000000000E+00  0.00000000000E+00 -0.63311659383E+03  0.25789228642E+04  0.25000013036E+04 0.  0.
        3    1    3    3  502    0  0.18039205635E+03 -0.53922620622E+03  0.83177515903E+03  0.10075495625E+04  0.10100000352E+00 0. -1.
       -3    1    3    3    0  502 -0.18039205635E+03  0.53922620622E+03 -0.14648917529E+04  0.15713733017E+04  0.10100000352E+00 0.  1.
</event>
<event>
 5   0  0.1553604E-06  0.2499754E+04  0.7818609E-02  0.8403073E-01
       -1   -1    0    0    0  501  0.00000000000E+00  0.00000000000E+00  0.23858590537E+04  0.23858590537E+04  0.50400001928E-02 0.  1.
        1   -1    0    0  501    0  0.00000000000E+00  0.00000000000E+00 -0.65477131637E+03  0.65477131639E+03  0.50400001928E-02 0. -1.
    10030    2    1    2    0    0  0.00000000000E+00  0.00000000000E+00  0.17310877374E+04  0.30406303701E+04  0.24997536465E+04 0.  0.
        1    1    3    3  502    0 -0.23438305903E+03 -0.11034039311E+04  0.15203050926E+04  0.18930829956E+04  0.50400001928E-02 0.  1.
       -1    1    3    3    0  502  0.23438305903E+03  0.11034039311E+04  0.21078264478E+03  0.11475473746E+04  0.50400001928E-02 0. -1.
</event>
<event>
 5   0  0.3971759E-06  0.2499714E+04  0.7818609E-02  0.8403088E-01
        2   -1    0    0  501    0  0.00000000000E+00  0.00000000000E+00  0.12064370724E+04  0.12064370724E+04  0.25500000920E-02 0.  1.
       -2   -1    0    0    0  501  0.00000000000E+00  0.00000000000E+00 -0.12948392838E+04  0.12948392838E+04  0.25500000920E-02 0. -1.
    10030    2    1    2    0    0  0.00000000000E+00  0.00000000000E+00 -0.88402211459E+02  0.25012763562E+04  0.24997136754E+04 0.  0.
        4    1    3    3  502    0  0.10803261541E+04 -0.31081344308E+03 -0.59083091416E+03  0.12699576283E+04  0.12699999809E+01 0. -1.
       -4    1    3    3    0  502 -0.10803261541E+04  0.31081344308E+03  0.50242870270E+03  0.12313187279E+04  0.12699999809E+01 0.  1.
</event>
<event>
 5   0  0.1519145E-06  0.2499649E+04  0.7818609E-02  0.8403110E-01
       -1   -1    0    0    0  501  0.00000000000E+00  0.00000000000E+00  0.69001434583E+03  0.69001434585E+03  0.50400001928E-02 0.  1.
        1   -1    0    0  501    0  0.00000000000E+00  0.00000000000E+00 -0.22638106218E+04  0.22638106218E+04  0.50400001928E-02 0. -1.
    10030    2    1    2    0    0  0.00000000000E+00  0.00000000000E+00 -0.15737962759E+04  0.29538249676E+04  0.24996494197E+04 0.  0.
        4    1    3    3  502    0 -0.74035217353E+02  0.10805550666E+04 -0.15239009388E+04  0.18695871602E+04  0.12699999809E+01 0. -1.
       -4    1    3    3    0  502  0.74035217353E+02 -0.10805550666E+04 -0.49895337102E+02  0.10842378074E+04  0.12699999809E+01 0.  1.
</event>
<event>
 5   0  0.3808293E-06  0.2510959E+04  0.7818609E-02  0.8399092E-01
        2   -1    0    0  501    0  0.00000000000E+00  0.00000000000E+00  0.65798231032E+03  0.65798231032E+03  0.25500000920E-02 0. -1.
       -2   -1    0    0    0  501  0.00000000000E+00  0.00000000000E+00 -0.23955496603E+04  0.23955496603E+04  0.25500000920E-02 0.  1.
    10030    2    1    2    0    0  0.00000000000E+00  0.00000000000E+00 -0.17375673499E+04  0.30535319706E+04  0.25109594182E+04 0.  0.
        1    1    3    3  502    0 -0.27986014080E+03 -0.10463920635E+04 -0.16407525838E+04  0.19660435118E+04  0.50400001928E-02 0.  1.
       -1    1    3    3    0  502  0.27986014080E+03  0.10463920635E+04 -0.96814766115E+02  0.10874884588E+04  0.50400001928E-02 0. -1.
</event>
<event>
 5   0  0.3814260E-06  0.2496032E+04  0.7818609E-02  0.8404401E-01
        2   -1    0    0  501    0  0.00000000000E+00  0.00000000000E+00  0.11566978871E+04  0.11566978871E+04  0.25500000920E-02 0. -1.
       -2   -1    0    0    0  501  0.00000000000E+00  0.00000000000E+00 -0.13465434063E+04  0.13465434063E+04  0.25500000920E-02 0.  1.
    10030    2    1    2    0    0  0.00000000000E+00  0.00000000000E+00 -0.18984551922E+03  0.25032412934E+04  0.24960319813E+04 0.  0.
        5    1    3    3  502    0 -0.94586203676E+03 -0.39080143038E+03  0.62138179738E+03  0.11972961951E+04  0.46999998093E+01 0. -1.
       -5    1    3    3    0  502  0.94586203676E+03  0.39080143038E+03 -0.81122731660E+03  0.13059450983E+04  0.46999998093E+01 0.  1.
</event>
<event>
 5   0  0.1553604E-06  0.2500888E+04  0.7818609E-02  0.8402669E-01
        1   -1    0    0  501    0  0.00000000000E+00  0.00000000000E+00  0.17988794071E+04  0.17988794071E+04  0.50400001928E-02 0.  1.
       -1   -1    0    0    0  501  0.00000000000E+00  0.00000000000E+00 -0.86921362348E+03  0.86921362350E+03  0.50400001928E-02 0. -1.
    10030    2    1    2    0    0  0.00000000000E+00  0.00000000000E+00  0.92966578363E+03  0.26680930306E+04  0.25008882324E+04 0.  0.
        1    1    3    3  502    0  0.39673888004E+03  0.44855160049E+03  0.16359546474E+04  0.17421101818E+04  0.50400001928E-02 0.  1.
       -1    1    3    3    0  502 -0.39673888004E+03 -0.44855160049E+03 -0.70628886375E+03  0.92598284882E+03  0.50400001928E-02 0. -1.
</event>
<event>
 5   0  0.1553604E-06  0.2499341E+04  0.7818609E-02  0.8403220E-01
        1   -1    0    0  501    0  0.00000000000E+00  0.00000000000E+00  0.86246058237E+03  0.86246058238E+03  0.50400001928E-02 0.  1.
       -1   -1    0    0    0  501  0.00000000000E+00  0.00000000000E+00 -0.18107225991E+04  0.18107225991E+04  0.50400001928E-02 0. -1.
    10030    2    1    2    0    0  0.00000000000E+00  0.00000000000E+00 -0.94826201672E+03  0.26731831815E+04  0.24993414071E+04 0.  0.
        1    1    3    3  502    0  0.33138989072E+03 -0.10648314408E+03 -0.17578282952E+04  0.17919593285E+04  0.50400001928E-02 0. -1.
       -1    1    3    3    0  502 -0.33138989072E+03  0.10648314408E+03  0.80956627851E+03  0.88122385293E+03  0.50400001928E-02 0.  1.
</event>
<event>
 5   0  0.1519145E-06  0.2499747E+04  0.7818609E-02  0.8403076E-01
        1   -1    0    0  501    0  0.00000000000E+00  0.00000000000E+00  0.22805261330E+04  0.22805261330E+04  0.50400001928E-02 0. -1.
       -1   -1    0    0    0  501  0.00000000000E+00  0.00000000000E+00 -0.68501019933E+03  0.68501019935E+03  0.50400001928E-02 0.  1.
    10030    2    1    2    0    0  0.00000000000E+00  0.00000000000E+00  0.15955159337E+04  0.29655363324E+04  0.24997469160E+04 0.  0.
        4    1    3    3  502    0  0.11391776094E+04 -0.23893542899E+03  0.13379849590E+04  0.17734207420E+04  0.12699999809E+01 0. -1.
       -4    1    3    3    0  502 -0.11391776094E+04  0.23893542899E+03  0.25753097473E+03  0.11921155904E+04  0.12699999809E+01 0.  1.
</event>
<event>
 5   0  0.3971759E-06  0.2500336E+04  0.7818609E-02  0.8402866E-01
        2   -1    0    0  501    0  0.00000000000E+00  0.00000000000E+00  0.14218160638E+04  0.14218160638E+04  0.25500000920E-02 0.  1.
       -2   -1    0    0    0  501  0.00000000000E+00  0.00000000000E+00 -0.10992417659E+04  0.10992417659E+04  0.25500000920E-02 0. -1.
    10030    2    1    2    0    0  0.00000000000E+00  0.00000000000E+00  0.32257429789E+03  0.25210578296E+04  0.25003356580E+04 0.  0.
        4    1    3    3  502    0  0.10925903721E+04  0.60472945414E+03  0.22065255851E+03  0.12681248355E+04  0.12699999809E+01 0. -1.
       -4    1    3    3    0  502 -0.10925903721E+04 -0.60472945414E+03  0.10192173938E+03  0.12529329941E+04  0.12699999809E+01 0.  1.
</event>
<event>
 5   0  0.1553604E-06  0.2493268E+04  0.7818609E-02  0.8405388E-01
       -1   -1    0    0    0  501  0.00000000000E+00  0.00000000000E+00  0.11148925578E+04  0.11148925578E+04  0.50400001928E-02 0. -1.
        1   -1    0    0  501    0  0.00000000000E+00  0.00000000000E+00 -0.13939422839E+04  0.13939422839E+04  0.50400001928E-02 0.  1.
    10030    2    1    2    0    0  0.00000000000E+00  0.00000000000E+00 -0.27904972610E+03  0.25088348417E+04  0.24932676377E+04 0.  0.
        1    1    3    3  502    0 -0.31926543299E+03  0.10596915247E+04  0.43783400185E+03  0.11901996292E+04  0.50400001928E-02 0. -1.
       -1    1    3    3    0  502  0.31926543299E+03 -0.10596915247E+04 -0.71688372795E+03  0.13186352125E+04  0.50400001928E-02 0.  1.
</event>
<event>
 5   0  0.3808293E-06  0.2501248E+04  0.7818609E-02  0.8402541E-01
        2   -1    0    0  501    0  0.00000000000E+00  0.00000000000E+00  0.10860727112E+04  0.10860727112E+04  0.25500000920E-02 0. -1.
       -2   -1    0    0    0  501  0.00000000000E+00  0.00000000000E+00 -0.14401067426E+04  0.14401067426E+04  0.25500000920E-02 0.  1.
    10030    2    1    2    0    0  0.00000000000E+00  0.00000000000E+00 -0.35403403145E+03  0.25261794538E+04  0.25012481959E+04 0.  0.
        1    1    3    3  502    0  0.12316403204E+04 -0.47359653840E+02 -0.39097719697E+03  0.12930753977E+04  0.50400001928E-02 0.  1.
       -1    1    3    3    0  502 -0.12316403204E+04  0.47359653840E+02  0.36943165520E+02  0.12331040561E+04  0.50400001928E-02 0. -1.
</event>
<event>
 5   0  0.1541852E-06  0.2498727E+04  0.7818609E-02  0.8403439E-01
        1   -1    0    0  501    0  0.00000000000E+00  0.00000000000E+00  0.26690304752E+04  0.26690304752E+04  0.50400001928E-02 0.  1.
       -1   -1    0    0    0  501  0.00000000000E+00  0.00000000000E+00 -0.58482258081E+03  0.58482258083E+03  0.50400001928E-02 0. -1.
    10030    2    1    2    0    0  0.00000000000E+00  0.00000000000E+00  0.20842078944E+04  0.32538530560E+04  0.24987271086E+04 0.  0.
        5    1    3    3  502    0  0.12251730736E+04 -0.51002304656E+02  0.73056153356E+03  0.14273726002E+04  0.46999998093E+01 0. -1.
       -5    1    3    3    0  502 -0.12251730736E+04  0.51002304656E+02  0.13536463608E+04  0.18264804558E+04  0.46999998093E+01 0.  1.
</event>
<event>
 5   0  0.3713394E-06  0.2506088E+04  0.7818609E-02  0.8400820E-01
        2   -1    0    0  501    0  0.00000000000E+00  0.00000000000E+00  0.13246855221E+04  0.13246855221E+04  0.25500000920E-02 0.  1.
       -2   -1    0    0    0  501  0.00000000000E+00  0.00000000000E+00 -0.11852772619E+04  0.11852772619E+04  0.25500000920E-02 0. -1.
    10030    2    1    2    0    0  0.00000000000E+00  0.00000000000E+00  0.13940826023E+03  0.25099627840E+04  0.25060882894E+04 0.  0.
        3    1    3    3  502    0 -0.91838038016E+03 -0.48823489231E+03 -0.63017791849E+03  0.12161085691E+04  0.10100000352E+00 0. -1.
       -3    1    3    3    0  502  0.91838038016E+03  0.48823489231E+03  0.76958617872E+03  0.12938542149E+04  0.10100000352E+00 0.  1.
</event>
<event>
 5   0  0.1553604E-06  0.2499341E+04  0.7818609E-02  0.8403220E-01
       -1   -1    0    0    0  501  0.00000000000E+00  0.00000000000E+00  0.94286722454E+03  0.94286722455E+03  0.50400001928E-02 0.  1.
        1   -1    0    0  501    0  0.00000000000E+00  0.00000000000E+00 -0.16563059882E+04  0.16563059882E+04  0.50400001928E-02 0. -1.
    10030    2    1    2    0    0  0.00000000000E+00  0.00000000000E+00 -0.71343876364E+03  0.25991732127E+04  0.24993412173E+04 0.  0.
        1    1    3    3  502    0 -0.74258789218E+03  0.93413235226E+03  0.29093425746E+02  0.11936860796E+04  0.50400001928E-02 0.  1.
       -1    1    3    3    0  502  0.74258789218E+03 -0.93413235226E+03 -0.74253218939E+03  0.14054871332E+04  0.50400001928E-02 0. -1.
</event>
<event>
 5   0  0.1541852E-06  0.2500181E+04  0.7818609E-02  0.8402921E-01
        1   -1    0    0  501    0  0.00000000000E+00  0.00000000000E+00  0.11895011686E+04  0.11895011686E+04  0.50400001928E-02 0. -1.
       -1   -1    0    0    0  501  0.00000000000E+00  0.00000000000E+00 -0.13137660583E+04  0.13137660583E+04  0.50400001928E-02 0.  1.
    10030    2    1    2    0    0  0.00000000000E+00  0.00000000000E+00 -0.12426488972E+03  0.25032672269E+04  0.25001810028E+04 0.  0.
        5    1    3    3  502    0  0.40696265806E+03 -0.34193059058E+03 -0.11949746539E+04  0.13078691247E+04  0.46999998093E+01 0.  1.
       -5    1    3    3    0  502 -0.40696265806E+03  0.34193059058E+03  0.10707097642E+04  0.11953981023E+04  0.46999998093E+01 0. -1.
</event>
<event>
 5   0  0.3814260E-06  0.2495186E+04  0.7818609E-02  0.8404703E-01
        2   -1    0    0  501    0  0.00000000000E+00  0.00000000000E+00  0.16773612006E+04  0.16773612006E+04  0.25500000920E-02 0. -1.
       -2   -1    0    0    0  501  0.00000000000E+00  0.00000000000E+00 -0.92793856623E+03  0.92793856624E+03  0.25500000920E-02 0.  1.
    10030    2    1    2    0    0  0.00000000000E+00  0.00000000000E+00  0.74942263433E+03  0.26052997668E+04  0.24951858829E+04 0.  0.
        5    1    3    3  502    0  0.93925049451E+03  0.58944188614E+03 -0.22221074752E+03  0.11309433827E+04  0.46999998093E+01 0.  1.
       -5    1    3    3    0  502 -0.93925049451E+03 -0.58944188614E+03  0.97163338185E+03  0.14743563841E+04  0.46999998093E+01 0. -1.
</event>
<event>
 5   0  0.1553604E-06  0.2501047E+04  0.7818609E-02  0.8402613E-01
       -1   -1    0    0    0  501  0.00000000000E+00  0.00000000000E+00  0.13625321016E+04  0.13625321016E+04  0.50400001928E-02 0.  1.
        1   -1    0    0  501    0  0.00000000000E+00  0.00000000000E+00 -0.11477228121E+04  0.11477228121E+04  0.50400001928E-02 0. -1.
    10030    2    1    2    0    0  0.00000000000E+00  0.00000000000E+00  0.21480928950E+03  0.25102549137E+04  0.25010471209E+04 0.  0.
        1    1    3    3  502    0 -0.10196062269E+04  0.49288045563E+03  0.63971667900E+03  0.13006788346E+04  0.50400001928E-02 0.  1.
       -1    1    3    3    0  502  0.10196062269E+04 -0.49288045563E+03 -0.42490738950E+03  0.12095760791E+04  0.50400001928E-02 0. -1.
</event>
<event>
 5   0  0.1541852E-06  0.2486250E+04  0.7818609E-02  0.8407901E-01
       -1   -1    0    0    0  501  0.00000000000E+00  0.00000000000E+00  0.90961262807E+03  0.90961262808E+03  0.50400001928E-02 0. -1.
        1   -1    0    0  501    0  0.00000000000E+00  0.00000000000E+00 -0.16989202542E+04  0.16989202542E+04  0.50400001928E-02 0.  1.
    10030    2    1    2    0    0  0.00000000000E+00  0.00000000000E+00 -0.78930762608E+03  0.26085328822E+04  0.24862496393E+04 0.  0.
        5    1    3    3  502    0 -0.34762620335E+03 -0.97798713311E+03 -0.11124323664E+04  0.15214567591E+04  0.46999998093E+01 0.  1.
       -5    1    3    3    0  502  0.34762620335E+03  0.97798713311E+03  0.32312474035E+03  0.10870761232E+04  0.46999998093E+01 0. -1.
</event>
<event>
 5   0  0.1574896E-06  0.2503593E+04  0.7818609E-02  0.8401707E-01
       -1   -1    0    0    0  501  0.00000000000E+00  0.00000000000E+00  0.91469175043E+03  0.91469175045E+03  0.50400001928E-02 0. -1.
        1   -1    0    0  501    0  0.00000000000E+00  0.00000000000E+00 -0.17131396879E+04  0.17131396880E+04  0.50400001928E-02 0.  1.
    10030    2    1    2    0    0  0.00000000000E+00  0.00000000000E+00 -0.79844793751E+03  0.26278314384E+04  0.25035932097E+04 0.  0.
        3    1    3    3  502    0 -0.78933990756E+03 -0.30917883263E+03 -0.13659872963E+04  0.16076598969E+04  0.10100000352E+00 0.  1.
       -3    1    3    3    0  502  0.78933990756E+03  0.30917883263E+03  0.56753935876E+03  0.10201715415E+04  0.10100000352E+00 0. -1.
</event>
<event>
 5   0  0.3971759E-06  0.2490459E+04  0.7818609E-02  0.8406392E-01
        2   -1    0    0  501    0  0.00000000000E+00  0.00000000000E+00  0.14713861899E+04  0.14713861899E+04  0.25500000920E-02 0.  1.
       -2   -1    0    0    0  501  0.00000000000E+00  0.00000000000E+00 -0.10538338230E+04  0.10538338230E+04  0.25500000920E-02 0. -1.
    10030    2    1    2    0    0  0.00000000000E+00  0.00000000000E+00  0.41755236689E+03  0.25252200128E+04  0.24904590208E+04 0.  0.
        4    1    3    3  502    0 -0.79775957856E+03 -0.95167339699E+03  0.30221622460E+03  0.12780605850E+04  0.12699999809E+01 0. -1.
       -4    1    3    3    0  502  0.79775957856E+03  0.95167339699E+03  0.11533614229E+03  0.12471594278E+04  0.12699999809E+01 0.  1.
</event>
<event>
 5   0  0.1501747E-06  0.2499494E+04  0.7818609E-02  0.8403166E-01
       -1   -1    0    0    0  501  0.00000000000E+00  0.00000000000E+00  0.78233126182E+03  0.78233126184E+03  0.50400001928E-02 0.  1.
        1   -1    0    0  501    0  0.00000000000E+00  0.00000000000E+00 -0.19964279062E+04  0.19964279063E+04  0.50400001928E-02 0. -1.
    10030    2    1    2    0    0  0.00000000000E+00  0.00000000000E+00 -0.12140966444E+04  0.27787591681E+04  0.24994943193E+04 0.  0.
        2    1    3    3  502    0  0.81241794524E+03 -0.56683725636E+03 -0.14541100155E+04  0.17594781414E+04  0.25500000920E-02 0. -1.
       -2    1    3    3    0  502 -0.81241794524E+03  0.56683725636E+03  0.24001337112E+03  0.10192810266E+04  0.25500000920E-02 0.  1.
</event>
<event>
 5   0  0.1287375E-06  0.2498804E+04  0.7818609E-02  0.8403412E-01
        3   -1    0    0  501    0  0.00000000000E+00  0.00000000000E+00  0.12931595408E+04  0.12931595447E+04  0.10100000352E+00 0.  1.
       -3   -1    0    0    0  501  0.00000000000E+00  0.00000000000E+00 -0.12071253587E+04  0.12071253629E+04  0.10100000352E+00 0. -1.
    10030    2    1    2    0    0  0.00000000000E+00  0.00000000000E+00  0.86034182040E+02  0.25002849076E+04  0.24988042618E+04 0.  0.
        5    1    3    3  502    0 -0.20023571232E+03 -0.25323835139E+03  0.12506952289E+04  0.12916983583E+04  0.46999998093E+01 0.  1.
       -5    1    3    3    0  502  0.20023571232E+03  0.25323835139E+03 -0.11646610469E+04  0.12085865494E+04  0.46999998093E+01 0. -1.
</event>
<event>
 5   0  0.3808293E-06  0.2502558E+04  0.7818609E-02  0.8402075E-01
       -2   -1    0    0    0  501  0.00000000000E+00  0.00000000000E+00  0.12736654828E+04  0.12736654828E+04  0.25500000920E-02 0.  1.
        2   -1    0    0  501    0  0.00000000000E+00  0.00000000000E+00 -0.12292858159E+04  0.12292858159E+04  0.25500000920E-02 0. -1.
    10030    2    1    2    0    0  0.00000000000E+00  0.00000000000E+00  0.44379666852E+02  0.25029512987E+04  0.25025578213E+04 0.  0.
        1    1    3    3  502    0 -0.94316209984E+03  0.55200226738E+03  0.63174251692E+03  0.12622835884E+04  0.50400001928E-02 0.  1.
       -1    1    3    3    0  502  0.94316209984E+03 -0.55200226738E+03 -0.58736285006E+03  0.12406677103E+04  0.50400001928E-02 0. -1.
</event>
<event>
 5   0  0.3808293E-06  0.2496018E+04  0.7818609E-02  0.8404406E-01
       -2   -1    0    0    0  501  0.00000000000E+00  0.00000000000E+00  0.83343596812E+03  0.83343596813E+03  0.25500000920E-02 0. -1.
        2   -1    0    0  501    0  0.00000000000E+00  0.00000000000E+00 -0.18688015111E+04  0.18688015111E+04  0.25500000920E-02 0.  1.
    10030    2    1    2    0    0  0.00000000000E+00  0.00000000000E+00 -0.10353655430E+04  0.27022374792E+04  0.24960179459E+04 0.  0.
        1    1    3    3  502    0  0.62686431629E+03 -0.11775425764E+03 -0.16790167739E+04  0.17960852606E+04  0.50400001928E-02 0.  1.
       -1    1    3    3    0  502 -0.62686431629E+03  0.11775425764E+03  0.64365123093E+03  0.90615221863E+03  0.50400001928E-02 0. -1.
</event>
<event>
 5   0  0.3971759E-06  0.2503215E+04  0.7818609E-02  0.8401841E-01
        2   -1    0    0  501    0  0.00000000000E+00  0.00000000000E+00  0.14113038362E+04  0.14113038362E+04  0.25500000920E-02 0.  1.
       -2   -1    0    0    0  501  0.00000000000E+00  0.00000000000E+00 -0.11099820446E+04  0.11099820446E+04  0.25500000920E-02 0. -1.
    10030    2    1    2    0    0  0.00000000000E+00  0.00000000000E+00  0.30132179158E+03  0.25212858808E+04  0.25032154663E+04 0.  0.
        4    1    3    3  502    0 -0.78601885036E+03  0.35359664715E+03  0.10647718692E+04  0.13698894001E+04  0.12699999809E+01 0. -1.
       -4    1    3    3    0  502  0.78601885036E+03 -0.35359664715E+03 -0.76345007764E+03  0.11513964808E+04  0.12699999809E+01 0.  1.
</event>
<event>
 5   0  0.3971759E-06  0.2499156E+04  0.7818609E-02  0.8403286E-01
       -2   -1    0    0    0  501  0.00000000000E+00  0.00000000000E+00  0.59629896746E+03  0.59629896747E+03  0.25500000920E-02 0. -1.
        2   -1    0    0  501    0  0.00000000000E+00  0.00000000000E+00 -0.26185610623E+04  0.26185610623E+04  0.25500000920E-02 0.  1.
    10030    2    1    2    0    0  0.00000000000E+00  0.00000000000E+00 -0.20222620948E+04  0.32148600298E+04  0.24991560637E+04 0.  0.
        4    1    3    3  502    0  0.22944438298E+03 -0.21548379731E+03  0.54446446284E+03  0.62890472727E+03  0.12699999809E+01 0. -1.
       -4    1    3    3    0  502 -0.22944438298E+03  0.21548379731E+03 -0.25667265577E+04  0.25859553025E+04  0.12699999809E+01 0.  1.
</event>
<event>
 5   0  0.3713394E-06  0.2502482E+04  0.7818609E-02  0.8402102E-01
       -2   -1    0    0    0  501  0.00000000000E+00  0.00000000000E+00  0.81620717348E+03  0.81620717348E+03  0.25500000920E-02 0.  1.
        2   -1    0    0  501    0  0.00000000000E+00  0.00000000000E+00 -0.19181449410E+04  0.19181449410E+04  0.25500000920E-02 0. -1.
    10030    2    1    2    0    0  0.00000000000E+00  0.00000000000E+00 -0.11019377675E+04  0.27343521145E+04  0.25024816968E+04 0.  0.
        3    1    3    3  502    0  0.42522157897E+03 -0.50376260790E+02  0.73365863437E+03  0.84947404955E+03  0.10100000352E+00 0.  1.
       -3    1    3    3    0  502 -0.42522157897E+03  0.50376260790E+02 -0.18355964019E+04  0.18848780650E+04  0.10100000352E+00 0. -1.
</event>
<event>
 5   0  0.1574896E-06  0.2500013E+04  0.7818609E-02  0.8402981E-01
       -1   -1    0    0    0  501  0.00000000000E+00  0.00000000000E+00  0.11397227608E+04  0.11397227608E+04  0.50400001928E-02 0.  1.
        1   -1    0    0  501    0  0.00000000000E+00  0.00000000000E+00 -0.13709616466E+04  0.13709616466E+04  0.50400001928E-02 0. -1.
    10030    2    1    2    0    0  0.00000000000E+00  0.00000000000E+00 -0.23123888577E+03  0.25106844074E+04  0.25000129542E+04 0.  0.
        3    1    3    3  502    0 -0.27918065590E+03 -0.11808631845E+04  0.18588948164E+03  0.12275726491E+04  0.10100000352E+00 0.  1.
       -3    1    3    3    0  502  0.27918065590E+03  0.11808631845E+04 -0.41712836741E+03  0.12831117583E+04  0.10100000352E+00 0. -1.
</event>
<event>
 5   0  0.1519145E-06  0.2496196E+04  0.7818609E-02  0.8404342E-01
        1   -1    0    0  501    0  0.00000000000E+00  0.00000000000E+00  0.20389079381E+04  0.20389079381E+04  0.50400001928E-02 0. -1.
       -1   -1    0    0    0  501  0.00000000000E+00  0.00000000000E+00 -0.76401138076E+03  0.76401138077E+03  0.50400001928E-02 0.  1.
    10030    2    1    2    0    0  0.00000000000E+00  0.00000000000E+00  0.12748965573E+04  0.28029193189E+04  0.24961962015E+04 0.  0.
        4    1    3    3  502    0 -0.23596778689E+03 -0.10450102632E+04 -0.81560850522E+02  0.10744212544E+04  0.12699999809E+01 0.  1.
       -4    1    3    3    0  502  0.23596778689E+03  0.10450102632E+04  0.13564574078E+04  0.17284980645E+04  0.12699999809E+01 0. -1.
</event>
<event>
 5   0  0.3713394E-06  0.2500490E+04  0.7818609E-02  0.8402811E-01
        2   -1    0    0  501    0  0.00000000000E+00  0.00000000000E+00  0.89255056957E+03  0.89255056958E+03  0.25500000920E-02 0.  1.
       -2   -1    0    0    0  501  0.00000000000E+00  0.00000000000E+00 -0.17512879477E+04  0.17512879477E+04  0.25500000920E-02 0. -1.
    10030    2    1    2    0    0  0.00000000000E+00  0.00000000000E+00 -0.85873737810E+03  0.26438385172E+04  0.25004903961E+04 0.  0.
        3    1    3    3  502    0 -0.80169119274E+03 -0.95658043426E+03 -0.50676444353E+03  0.13470579450E+04  0.10100000352E+00 0. -1.
       -3    1    3    3    0  502  0.80169119274E+03  0.95658043426E+03 -0.35197293457E+03  0.12967805723E+04  0.10100000352E+00 0.  1.
</event>
<event>
 5   0  0.3924441E-06  0.2502242E+04  0.7818609E-02  0.8402187E-01
       -2   -1    0    0    0  501  0.00000000000E+00  0.00000000000E+00  0.92718791012E+03  0.92718791012E+03  0.25500000920E-02 0.  1.
        2   -1    0    0  501    0  0.00000000000E+00  0.00000000000E+00 -0.16882270542E+04  0.16882270542E+04  0.25500000920E-02 0. -1.
    10030    2    1    2    0    0  0.00000000000E+00  0.00000000000E+00 -0.76103914412E+03  0.26154149644E+04  0.25022419661E+04 0.  0.
        2    1    3    3  502    0  0.16427146687E+03 -0.11601051571E+04 -0.83908154835E+03  0.14411408450E+04  0.25500000920E-02 0. -1.
       -2    1    3    3    0  502 -0.16427146687E+03  0.11601051571E+04  0.78042404229E+02  0.11742741193E+04  0.25500000920E-02 0.  1.
</event>
<event>
 5   0  0.1553604E-06  0.2499644E+04  0.7818609E-02  0.8403112E-01
       -1   -1    0    0    0  501  0.00000000000E+00  0.00000000000E+00  0.74182960154E+03  0.74182960156E+03  0.50400001928E-02 0. -1.
        1   -1    0    0  501    0  0.00000000000E+00  0.00000000000E+00 -0.21056795360E+04  0.21056795360E+04  0.50400001928E-02 0.  1.
    10030    2    1    2    0    0  0.00000000000E+00  0.00000000000E+00 -0.13638499344E+04  0.28475091375E+04  0.24996443036E+04 0.  0.
        1    1    3    3  502    0  0.34170438713E+03 -0.71378993354E+03  0.42006551222E+03  0.89594251601E+03  0.50400001928E-02 0. -1.
       -1    1    3    3    0  502 -0.34170438713E+03  0.71378993354E+03 -0.17839154467E+04  0.19515666215E+04  0.50400001928E-02 0.  1.
</event>
<event>
 5   0  0.3808293E-06  0.2474373E+04  0.7818609E-02  0.8412172E-01
       -2   -1    0    0    0  501  0.00000000000E+00  0.00000000000E+00  0.81124678166E+03  0.81124678166E+03  0.25500000920E-02 0.  1.
        2   -1    0    0  501    0  0.00000000000E+00  0.00000000000E+00 -0.18867633189E+04  0.18867633189E+04  0.25500000920E-02 0. -1.
    10030    2    1    2    0    0  0.00000000000E+00  0.00000000000E+00 -0.10755165372E+04  0.26980101005E+04  0.24743731895E+04 0.  0.
        1    1    3    3  502    0  0.11595355048E+04  0.24474890157E+03 -0.15039496875E+03  0.11945891588E+04  0.50400001928E-02 0.  1.
       -1    1    3    3    0  502 -0.11595355048E+04 -0.24474890157E+03 -0.92512156847E+03  0.15034209418E+04  0.50400001928E-02 0. -1.
</event>
<event>
 5   0  0.1501747E-06  0.2496059E+04  0.7818609E-02  0.8404391E-01
        1   -1    0    0  501    0  0.00000000000E+00  0.00000000000E+00  0.12715790152E+04  0.12715790152E+04  0.50400001928E-02 0. -1.
       -1   -1    0    0    0  501  0.00000000000E+00  0.00000000000E+00 -0.12249160359E+04  0.12249160359E+04  0.50400001928E-02 0.  1.
    10030    2    1    2    0    0  0.00000000000E+00  0.00000000000E+00  0.46662979334E+02  0.24964950511E+04  0.24960589149E+04 0.  0.
        2    1    3    3  502    0  0.40495574028E+02  0.40953454416E+03  0.12017644583E+04  0.12702740837E+04  0.25500000920E-02 0. -1.
       -2    1    3    3    0  502 -0.40495574028E+02 -0.40953454416E+03 -0.11551014790E+04  0.12262209675E+04  0.25500000920E-02 0.  1.
</event>
<event>
 5   0  0.3814260E-06  0.2498587E+04  0.7818609E-02  0.8403489E-01
       -2   -1    0    0    0  501  0.00000000000E+00  0.00000000000E+00  0.97617895835E+03  0.97617895836E+03  0.25500000920E-02 0.  1.
        2   -1    0    0  501    0  0.00000000000E+00  0.00000000000E+00 -0.15988198893E+04  0.15988198893E+04  0.25500000920E-02 0. -1.
    10030    2    1    2    0    0  0.00000000000E+00  0.00000000000E+00 -0.62264093091E+03  0.25749988476E+04  0.24985870680E+04 0.  0.
        5    1    3    3  502    0  0.48906543972E+03 -0.10195563730E+04  0.23598751038E+03  0.11551590354E+04  0.46999998093E+01 0.  1.
       -5    1    3    3    0  502 -0.48906543972E+03  0.10195563730E+04 -0.85862844130E+03  0.14198398122E+04  0.46999998093E+01 0. -1.
</event>
<event>
 5   0  0.1501747E-06  0.2495161E+04  0.7818609E-02  0.8404712E-01
       -1   -1    0    0    0  501  0.00000000000E+00  0.00000000000E+00  0.67210171580E+03  0.67210171582E+03  0.50400001928E-02 0. -1.
        1   -1    0    0  501    0  0.00000000000E+00  0.00000000000E+00 -0.23158052705E+04  0.23158052705E+04  0.50400001928E-02 0.  1.
    10030    2    1    2    0    0  0.00000000000E+00  0.00000000000E+00 -0.16437035547E+04  0.29879069863E+04  0.24951606728E+04 0.  0.
        2    1    3    3  502    0  0.87686509215E+03  0.87661669531E+03 -0.65632425577E+03  0.14028937055E+04  0.25500000920E-02 0. -1.
       -2    1    3    3    0  502 -0.87686509215E+03 -0.87661669531E+03 -0.98737929895E+03  0.15850132808E+04  0.25500000920E-02 0.  1.
</event>
<event>
 5   0  0.1574896E-06  0.2483782E+04  0.7818609E-02  0.8408786E-01
        1   -1    0    0  501    0  0.00000000000E+00  0.00000000000E+00  0.21040754166E+04  0.21040754166E+04  0.50400001928E-02 0.  1.
       -1   -1    0    0    0  501  0.00000000000E+00  0.00000000000E+00 -0.73300265561E+03  0.73300265563E+03  0.50400001928E-02 0. -1.
    10030    2    1    2    0    0  0.00000000000E+00  0.00000000000E+00  0.13710727610E+04  0.28370780722E+04  0.24837816877E+04 0.  0.
        3    1    3    3  502    0  0.34957933679E+03  0.11751802585E+04  0.91122229585E+03  0.15276061126E+04  0.10100000352E+00 0.  1.
       -3    1    3    3    0  502 -0.34957933679E+03 -0.11751802585E+04  0.45985046514E+03  0.13094719596E+04  0.10100000352E+00 0. -1.
</event>
<event>
 5   0  0.1541852E-06  0.2463664E+04  0.7818609E-02  0.8416046E-01
       -1   -1    0    0    0  501  0.00000000000E+00  0.00000000000E+00  0.84057548725E+03  0.84057548727E+03  0.50400001928E-02 0.  1.
        1   -1    0    0  501    0  0.00000000000E+00  0.00000000000E+00 -0.18052041349E+04  0.18052041349E+04  0.50400001928E-02 0. -1.
    10030    2    1    2    0    0  0.00000000000E+00  0.00000000000E+00 -0.96462864760E+03  0.26457796221E+04  0.24636642184E+04 0.  0.
        5    1    3    3  502    0  0.47467588888E+02  0.26451792510E+03  0.80869958555E+03  0.85219716872E+03  0.46999998093E+01 0.  1.
       -5    1    3    3    0  502 -0.47467588888E+02 -0.26451792510E+03 -0.17733282332E+04  0.17935824534E+04  0.46999998093E+01 0. -1.
</event>
<event>
 5   0  0.3808293E-06  0.2491856E+04  0.7818609E-02  0.8405892E-01
        2   -1    0    0  501    0  0.00000000000E+00  0.00000000000E+00  0.15357933107E+04  0.15357933107E+04  0.25500000920E-02 0.  1.
       -2   -1    0    0    0  501  0.00000000000E+00  0.00000000000E+00 -0.10107721651E+04  0.10107721651E+04  0.25500000920E-02 0. -1.
    10030    2    1    2    0    0  0.00000000000E+00  0.00000000000E+00  0.52502114556E+03  0.25465654758E+04  0.24918564403E+04 0.  0.
        1    1    3    3  502    0  0.23788030935E+03  0.97438772281E+03 -0.49285092362E+03  0.11175511214E+04  0.50400001928E-02 0. -1.
       -1    1    3    3    0  502 -0.23788030935E+03 -0.97438772281E+03  0.10178720692E+04  0.14290143544E+04  0.50400001928E-02 0.  1.
</event>
<event>
 5   0  0.1574896E-06  0.2500408E+04  0.7818609E-02  0.8402840E-01
       -1   -1    0    0    0  501  0.00000000000E+00  0.00000000000E+00  0.92931461920E+03  0.92931461921E+03  0.50400001928E-02 0.  1.
        1   -1    0    0  501    0  0.00000000000E+00  0.00000000000E+00 -0.16818959081E+04  0.16818959082E+04  0.50400001928E-02 0. -1.
    10030    2    1    2    0    0  0.00000000000E+00  0.00000000000E+00 -0.75258128895E+03  0.26112105274E+04  0.25004083310E+04 0.  0.
        3    1    3    3  502    0  0.73506577935E+03 -0.45654541753E+03  0.56605705567E+03  0.10340096802E+04  0.10100000352E+00 0.  1.
       -3    1    3    3    0  502 -0.73506577935E+03  0.45654541753E+03 -0.13186383446E+04  0.15772008472E+04  0.10100000352E+00 0. -1.
</event>
<event>
 5   0  0.3924441E-06  0.2497289E+04  0.7818609E-02  0.8403952E-01
        2   -1    0    0  501    0  0.00000000000E+00  0.00000000000E+00  0.13709435558E+04  0.13709435558E+04  0.25500000920E-02 0.  1.
       -2   -1    0    0    0  501  0.00000000000E+00  0.00000000000E+00 -0.11372557783E+04  0.11372557783E+04  0.25500000920E-02 0. -1.
    10030    2    1    2    0    0  0.00000000000E+00  0.00000000000E+00  0.23368777758E+03  0.25081993341E+04  0.24972893149E+04 0.  0.
        2    1    3    3  502    0  0.19513623671E+03  0.58932247175E+03  0.12049671571E+04  0.13554796112E+04  0.25500000920E-02 0.  1.
       -2    1    3    3    0  502 -0.19513623671E+03 -0.58932247175E+03 -0.97127937953E+03  0.11527197230E+04  0.25500000920E-02 0. -1.
</event>
<event>
 5   0  0.1519145E-06  0.2493637E+04  0.7818609E-02  0.8405256E-01
       -1   -1    0    0    0  501  0.00000000000E+00  0.00000000000E+00  0.76594985309E+03  0.76594985311E+03  0.50400001928E-02 0. -1.
        1   -1    0    0  501    0  0.00000000000E+00  0.00000000000E+00 -0.20295803344E+04  0.20295803344E+04  0.50400001928E-02 0.  1.
    10030    2    1    2    0    0  0.00000000000E+00  0.00000000000E+00 -0.12636304813E+04  0.27955301875E+04  0.24936373105E+04 0.  0.
        4    1    3    3  502    0  0.25534093976E+02  0.46251579060E+03 -0.19295335433E+04  0.19843573655E+04  0.12699999809E+01 0.  1.
       -4    1    3    3    0  502 -0.25534093976E+02 -0.46251579060E+03  0.66590306191E+03  0.81117282207E+03  0.12699999809E+01 0. -1.
</event>
<event>
 5   0  0.1541852E-06  0.2499677E+04  0.7818609E-02  0.8403101E-01
        1   -1    0    0  501    0  0.00000000000E+00  0.00000000000E+00  0.21274689442E+04  0.21274689442E+04  0.50400001928E-02 0.  1.
       -1   -1    0    0    0  501  0.00000000000E+00  0.00000000000E+00 -0.73425097969E+03  0.73425097971E+03  0.50400001928E-02 0. -1.
    10030    2    1    2    0    0  0.00000000000E+00  0.00000000000E+00  0.13932179645E+04  0.28617199239E+04  0.24996769044E+04 0.  0.
        5    1    3    3  502    0  0.51333695448E+03  0.78790569052E+03  0.16391113578E+04  0.18897138247E+04  0.46999998093E+01 0.  1.
       -5    1    3    3    0  502 -0.51333695448E+03 -0.78790569052E+03 -0.24589339332E+03  0.97200609919E+03  0.46999998093E+01 0. -1.
</event>
<event>
 5   0  0.3814260E-06  0.2483810E+04  0.7818609E-02  0.8408776E-01
       -2   -1    0    0    0  501  0.00000000000E+00  0.00000000000E+00  0.17513154828E+04  0.17513154828E+04  0.25500000920E-02 0.  1.
        2   -1    0    0  501    0  0.00000000000E+00  0.00000000000E+00 -0.88066837906E+03  0.88066837906E+03  0.25500000920E-02 0. -1.
    10030    2    1    2    0    0  0.00000000000E+00  0.00000000000E+00  0.87064710379E+03  0.26319838619E+04  0.24838101115E+04 0.  0.
        5    1    3    3  502    0 -0.11485241539E+04  0.45827367669E+03  0.55699300474E+03  0.13562395777E+04  0.46999998093E+01 0. -1.
       -5    1    3    3    0  502  0.11485241539E+04 -0.45827367669E+03  0.31365409905E+03  0.12757442842E+04  0.46999998093E+01 0.  1.
</event>
<event>
 5   0  0.1541852E-06  0.2485303E+04  0.7818609E-02  0.8408240E-01
        1   -1    0    0  501    0  0.00000000000E+00  0.00000000000E+00  0.15809296195E+04  0.15809296195E+04  0.50400001928E-02 0. -1.
       -1   -1    0    0    0  501  0.00000000000E+00  0.00000000000E+00 -0.97675614909E+03  0.97675614910E+03  0.50400001928E-02 0.  1.
    10030    2    1    2    0    0  0.00000000000E+00  0.00000000000E+00  0.60417347039E+03  0.25576857686E+04  0.24853029812E+04 0.  0.
        5    1    3    3  502    0  0.62830540535E+03 -0.42587319780E+02 -0.80036400757E+03  0.10184232896E+04  0.46999998093E+01 0.  1.
       -5    1    3    3    0  502 -0.62830540535E+03  0.42587319780E+02  0.14045374780E+04  0.15392624790E+04  0.46999998093E+01 0. -1.
</event>
<event>
 5   0  0.1501747E-06  0.2501304E+04  0.7818609E-02  0.8402521E-01
        1   -1    0    0  501    0  0.00000000000E+00  0.00000000000E+00  0.10193141669E+04  0.10193141669E+04  0.50400001928E-02 0.  1.
       -1   -1    0    0    0  501  0.00000000000E+00  0.00000000000E+00 -0.15344923716E+04  0.15344923716E+04  0.50400001928E-02 0. -1.
    10030    2    1    2    0    0  0.00000000000E+00  0.00000000000E+00 -0.51517820465E+03  0.25538065385E+04  0.25013035109E+04 0.  0.
        2    1    3    3  502    0  0.28617669192E+03 -0.37303468617E+03  0.92564912792E+03  0.10382091717E+04  0.25500000920E-02 0.  1.
       -2    1    3    3    0  502 -0.28617669192E+03  0.37303468617E+03 -0.14408273326E+04  0.15155973668E+04  0.25500000920E-02 0. -1.
</event>
<event>
 5   0  0.3808293E-06  0.2496803E+04  0.7818609E-02  0.8404125E-01
        2   -1    0    0  501    0  0.00000000000E+00  0.00000000000E+00  0.10041747613E+04  0.10041747613E+04  0.25500000920E-02 0. -1.
       -2   -1    0    0    0  501  0.00000000000E+00  0.00000000000E+00 -0.15520269637E+04  0.15520269637E+04  0.25500000920E-02 0.  1.
    10030    2    1    2    0    0  0.00000000000E+00  0.00000000000E+00 -0.54785220238E+03  0.25562017251E+04  0.24968030006E+04 0.  0.
        1    1    3    3  502    0 -0.64548613104E+03  0.10660845174E+04 -0.19926828182E+03  0.12620999928E+04  0.50400001928E-02 0.  1.
       -1    1    3    3    0  502  0.64548613104E+03 -0.10660845174E+04 -0.34858392056E+03  0.12941017322E+04  0.50400001928E-02 0. -1.
</event>
<event>
 5   0  0.1519145E-06  0.2502545E+04  0.7818609E-02  0.8402079E-01
       -1   -1    0    0    0  501  0.00000000000E+00  0.00000000000E+00  0.71045840467E+03  0.71045840469E+03  0.50400001928E-02 0. -1.
        1   -1    0    0  501    0  0.00000000000E+00  0.00000000000E+00 -0.22037649141E+04  0.22037649141E+04  0.50400001928E-02 0.  1.
    10030    2    1    2    0    0  0.00000000000E+00  0.00000000000E+00 -0.14933065095E+04  0.29142233188E+04  0.25025453484E+04 0.  0.
        4    1    3    3  502    0 -0.52210596897E+03  0.11296693106E+04 -0.59511423459E+03  0.13794600245E+04  0.12699999809E+01 0.  1.
       -4    1    3    3    0  502  0.52210596897E+03 -0.11296693106E+04 -0.89819227487E+03  0.15347632943E+04  0.12699999809E+01 0. -1.
</event>
<event>
 5   0  0.3808293E-06  0.2475510E+04  0.7818609E-02  0.8411762E-01
       -2   -1    0    0    0  501  0.00000000000E+00  0.00000000000E+00  0.74200161503E+03  0.74200161503E+03  0.25500000920E-02 0. -1.
        2   -1    0    0  501    0  0.00000000000E+00  0.00000000000E+00 -0.20647364239E+04  0.20647364239E+04  0.25500000920E-02 0.  1.
    10030    2    1    2    0    0  0.00000000000E+00  0.00000000000E+00 -0.13227348089E+04  0.28067380390E+04  0.24755102595E+04 0.  0.
        1    1    3    3  502    0 -0.64346286757E+03  0.92074222219E+03 -0.12507557823E+04  0.16811307887E+04  0.50400001928E-02 0.  1.
       -1    1    3    3    0  502  0.64346286757E+03 -0.92074222219E+03 -0.71979026642E+02  0.11256072503E+04  0.50400001928E-02 0. -1.
</event>
<event>
 5   0  0.3808293E-06  0.2501311E+04  0.7818609E-02  0.8402519E-01
       -2   -1    0    0    0  501  0.00000000000E+00  0.00000000000E+00  0.13381325302E+04  0.13381325302E+04  0.25500000920E-02 0. -1.
        2   -1    0    0  501    0  0.00000000000E+00  0.00000000000E+00 -0.11688966299E+04  0.11688966299E+04  0.25500000920E-02 0.  1.
    10030    2    1    2    0    0  0.00000000000E+00  0.00000000000E+00  0.16923590036E+03  0.25070291601E+04  0.25013105404E+04 0.  0.
        1    1    3    3  502    0 -0.24844881149E+02  0.84578567082E+03  0.10076838286E+04  0.13158257360E+04  0.50400001928E-02 0. -1.
       -1    1    3    3    0  502  0.24844881149E+02 -0.84578567082E+03 -0.83844792829E+03  0.11912034241E+04  0.50400001928E-02 0.  1.
</event>
<event>
 5   0  0.1519145E-06  0.2455345E+04  0.7818609E-02  0.8419069E-01
       -1   -1    0    0    0  501  0.00000000000E+00  0.00000000000E+00  0.63900976998E+03  0.63900977000E+03  0.50400001928E-02 0.  1.
        1   -1    0    0  501    0  0.00000000000E+00  0.00000000000E+00 -0.23586186746E+04  0.23586186746E+04  0.50400001928E-02 0. -1.
    10030    2    1    2    0    0  0.00000000000E+00  0.00000000000E+00 -0.17196089046E+04  0.29976284446E+04  0.24553454965E+04 0.  0.
        4    1    3    3  502    0 -0.57446714793E+03 -0.11204236631E+03 -0.21773206509E+04  0.22546158932E+04  0.12699999809E+01 0. -1.
       -4    1    3    3    0  502  0.57446714793E+03  0.11204236631E+03  0.45771174633E+03  0.74301255140E+03  0.12699999809E+01 0.  1.
</event>
<event>
 5   0  0.1574896E-06  0.2503147E+04  0.7818609E-02  0.8401865E-01
        1   -1    0    0  501    0  0.00000000000E+00  0.00000000000E+00  0.93080475033E+03  0.93080475035E+03  0.50400001928E-02 0. -1.
       -1   -1    0    0    0  501  0.00000000000E+00  0.00000000000E+00 -0.16828833454E+04  0.16828833454E+04  0.50400001928E-02 0.  1.
    10030    2    1    2    0    0  0.00000000000E+00  0.00000000000E+00 -0.75207859506E+03  0.26136880957E+04  0.25031466694E+04 0.  0.
        3    1    3    3  502    0 -0.10046989703E+04  0.69525170810E+03 -0.92686933988E+02  0.12253105061E+04  0.10100000352E+00 0. -1.
       -3    1    3    3    0  502  0.10046989703E+04 -0.69525170810E+03 -0.65939166107E+03  0.13883775896E+04  0.10100000352E+00 0.  1.
</event>
<event>
 5   0  0.3808293E-06  0.2507829E+04  0.7818609E-02  0.8400202E-01
        2   -1    0    0  501    0  0.00000000000E+00  0.00000000000E+00  0.22162899880E+04  0.22162899880E+04  0.25500000920E-02 0.  1.
       -2   -1    0    0    0  501  0.00000000000E+00  0.00000000000E+00 -0.70942967941E+03  0.70942967942E+03  0.25500000920E-02 0. -1.
    10030    2    1    2    0    0  0.00000000000E+00  0.00000000000E+00  0.15068603086E+04  0.29257196674E+04  0.25078292571E+04 0.  0.
        1    1    3    3  502    0 -0.28850065552E+03  0.90255806401E+03 -0.20467299739E+03  0.96939915568E+03  0.50400001928E-02 0. -1.
       -1    1    3    3    0  502  0.28850065552E+03 -0.90255806401E+03  0.17115333060E+04  0.19563205117E+04  0.50400001928E-02 0.  1.
</event>
<event>
 5   0  0.1519145E-06  0.2504091E+04  0.7818609E-02  0.8401530E-01
       -1   -1    0    0    0  501  0.00000000000E+00  0.00000000000E+00  0.86724066590E+03  0.86724066591E+03  0.50400001928E-02 0.  1.
        1   -1    0    0  501    0  0.00000000000E+00  0.00000000000E+00 -0.18075927680E+04  0.18075927680E+04  0.50400001928E-02 0. -1.
    10030    2    1    2    0    0  0.00000000000E+00  0.00000000000E+00 -0.94035210213E+03  0.26748334339E+04  0.25040910174E+04 0.  0.
        4    1    3    3  502    0  0.93923690076E+02 -0.34215390163E+03  0.81241411640E+03  0.88651523472E+03  0.12699999809E+01 0.  1.
       -4    1    3    3    0  502 -0.93923690076E+02  0.34215390163E+03 -0.17527662185E+04  0.17883181992E+04  0.12699999809E+01 0. -1.
</event>
<event>
 5   0  0.1553604E-06  0.2501387E+04  0.7818609E-02  0.8402492E-01
       -1   -1    0    0    0  501  0.00000000000E+00  0.00000000000E+00  0.10310527689E+04  0.10310527689E+04  0.50400001928E-02 0. -1.
        1   -1    0    0  501    0  0.00000000000E+00  0.00000000000E+00 -0.15171229875E+04  0.15171229875E+04  0.50400001928E-02 0.  1.
    10030    2    1    2    0    0  0.00000000000E+00  0.00000000000E+00 -0.48607021864E+03  0.25481757564E+04  0.25013867010E+04 0.  0.
        1    1    3    3  502    0  0.85082982010E+03  0.21515385353E+03  0.66471717886E+03  0.11009321012E+04  0.50400001928E-02 0. -1.
       -1    1    3    3    0  502 -0.85082982010E+03 -0.21515385353E+03 -0.11507873975E+04  0.14472436553E+04  0.50400001928E-02 0.  1.
</event>
<event>
 5   0  0.1541852E-06  0.2497591E+04  0.7818609E-02  0.8403844E-01
        1   -1    0    0  501    0  0.00000000000E+00  0.00000000000E+00  0.12543747913E+04  0.12543747913E+04  0.50400001928E-02 0. -1.
       -1   -1    0    0    0  501  0.00000000000E+00  0.00000000000E+00 -0.12432409176E+04  0.12432409176E+04  0.50400001928E-02 0.  1.
    10030    2    1    2    0    0  0.00000000000E+00  0.00000000000E+00  0.11133873712E+02  0.24976157090E+04  0.24975908925E+04 0.  0.
        5    1    3    3  502    0 -0.42002714700E+03  0.84172768956E+02  0.11785918560E+04  0.12540369661E+04  0.46999998093E+01 0. -1.
       -5    1    3    3    0  502  0.42002714700E+03 -0.84172768956E+02 -0.11674579823E+04  0.12435787429E+04  0.46999998093E+01 0.  1.
</event>
<event>
 5   0  0.3808293E-06  0.2578386E+04  0.7818609E-02  0.8375580E-01
       -2   -1    0    0    0  501  0.00000000000E+00  0.00000000000E+00  0.11418106869E+04  0.11418106869E+04  0.25500000920E-02 0.  1.
        2   -1    0    0  501    0  0.00000000000E+00  0.00000000000E+00 -0.14555988445E+04  0.14555988445E+04  0.25500000920E-02 0. -1.
    10030    2    1    2    0    0  0.00000000000E+00  0.00000000000E+00 -0.31378815763E+03  0.25974095314E+04  0.25783857869E+04 0.  0.
        1    1    3    3  502    0  0.15198611040E+03 -0.10290659079E+04  0.61026384194E+03  0.12060258610E+04  0.50400001928E-02 0.  1.
       -1    1    3    3    0  502 -0.15198611040E+03  0.10290659079E+04 -0.92405199957E+03  0.13913836705E+04  0.50400001928E-02 0. -1.
</event>
<event>
 5   0  0.3924441E-06  0.2497360E+04  0.7818609E-02  0.8403927E-01
       -2   -1    0    0    0  501  0.00000000000E+00  0.00000000000E+00  0.17581260969E+04  0.17581260969E+04  0.25500000920E-02 0. -1.
        2   -1    0    0  501    0  0.00000000000E+00  0.00000000000E+00 -0.88685457228E+03  0.88685457229E+03  0.25500000920E-02 0.  1.
    10030    2    1    2    0    0  0.00000000000E+00  0.00000000000E+00  0.87127152459E+03  0.26449806692E+04  0.24973603406E+04 0.  0.
        2    1    3    3  502    0 -0.13679458695E+03  0.48739322120E+03 -0.77329949372E+03  0.92426025452E+03  0.25500000920E-02 0.  1.
       -2    1    3    3    0  502  0.13679458695E+03 -0.48739322120E+03  0.16445710183E+04  0.17207204146E+04  0.25500000920E-02 0. -1.
</event>
<event>
 5   0  0.1541852E-06  0.2501663E+04  0.7818609E-02  0.8402393E-01
       -1   -1    0    0    0  501  0.00000000000E+00  0.00000000000E+00  0.20231160110E+04  0.20231160110E+04  0.50400001928E-02 0. -1.
        1   -1    0    0  501    0  0.00000000000E+00  0.00000000000E+00 -0.77335125877E+03  0.77335125878E+03  0.50400001928E-02 0.  1.
    10030    2    1    2    0    0  0.00000000000E+00  0.00000000000E+00  0.12497647522E+04  0.27964672698E+04  0.25016628980E+04 0.  0.
        5    1    3    3  502    0  0.73467154344E+03  0.96476059624E+03  0.96770133346E+03  0.15514423114E+04  0.46999998093E+01 0. -1.
       -5    1    3    3    0  502 -0.73467154344E+03 -0.96476059624E+03  0.28206341875E+03  0.12450249584E+04  0.46999998093E+01 0.  1.
</event>
<event>
 5   0  0.1553604E-06  0.2497860E+04  0.7818609E-02  0.8403748E-01
       -1   -1    0    0    0  501  0.00000000000E+00  0.00000000000E+00  0.53089592584E+03  0.53089592587E+03  0.50400001928E-02 0.  1.
        1   -1    0    0  501    0  0.00000000000E+00  0.00000000000E+00 -0.29381013682E+04  0.29381013682E+04  0.50400001928E-02 0. -1.
    10030    2    1    2    0    0  0.00000000000E+00  0.00000000000E+00 -0.24072054424E+04  0.34689972941E+04  0.24978599209E+04 0.  0.
        1    1    3    3  502    0 -0.92258351199E+03 -0.51958060098E+03 -0.28374524096E+03  0.10961914519E+04  0.50400001928E-02 0.  1.
       -1    1    3    3    0  502  0.92258351199E+03  0.51958060098E+03 -0.21234602014E+04  0.23728058421E+04  0.50400001928E-02 0. -1.
</event>
<event>
 5   0  0.3713394E-06  0.2496818E+04  0.7818609E-02  0.8404120E-01
       -2   -1    0    0    0  501  0.00000000000E+00  0.00000000000E+00  0.16465307524E+04  0.16465307524E+04  0.25500000920E-02 0. -1.
        2   -1    0    0  501    0  0.00000000000E+00  0.00000000000E+00 -0.94655101146E+03  0.94655101147E+03  0.25500000920E-02 0.  1.
    10030    2    1    2    0    0  0.00000000000E+00  0.00000000000E+00  0.69997974090E+03  0.25930817638E+04  0.24968182545E+04 0.  0.
        3    1    3    3  502    0  0.58840303183E+03  0.89955957552E+03 -0.30938981231E+03  0.11185471040E+04  0.10100000352E+00 0.  1.
       -3    1    3    3    0  502 -0.58840303183E+03 -0.89955957552E+03  0.10093695532E+04  0.14745346598E+04  0.10100000352E+00 0. -1.
</event>
<event>
 5   0  0.3971759E-06  0.2488235E+04  0.7818609E-02  0.8407189E-01
       -2   -1    0    0    0  501  0.00000000000E+00  0.00000000000E+00  0.62950592994E+03  0.62950592995E+03  0.25500000920E-02 0.  1.
        2   -1    0    0  501    0  0.00000000000E+00  0.00000000000E+00 -0.24587995240E+04  0.24587995240E+04  0.25500000920E-02 0. -1.
    10030    2    1    2    0    0  0.00000000000E+00  0.00000000000E+00 -0.18292935940E+04  0.30883054539E+04  0.24882354237E+04 0.  0.
        4    1    3    3  502    0 -0.24069730176E+03  0.10467846423E+03  0.59474939246E+03  0.65009324306E+03  0.12699999809E+01 0.  1.
       -4    1    3    3    0  502  0.24069730176E+03 -0.10467846423E+03 -0.24240429865E+04  0.24382122108E+04  0.12699999809E+01 0. -1.
</event>
<event>
 5   0  0.3971759E-06  0.2496356E+04  0.7818609E-02  0.8404285E-01
       -2   -1    0    0    0  501  0.00000000000E+00  0.00000000000E+00  0.81799693238E+03  0.81799693238E+03  0.25500000920E-02 0. -1.
        2   -1    0    0  501    0  0.00000000000E+00  0.00000000000E+00 -0.19045890114E+04  0.19045890114E+04  0.25500000920E-02 0.  1.
    10030    2    1    2    0    0  0.00000000000E+00  0.00000000000E+00 -0.10865920790E+04  0.27225859438E+04  0.24963557189E+04 0.  0.
        4    1    3    3  502    0  0.85990068618E+03  0.71393741801E+03  0.62771713708E+02  0.11194095443E+04  0.12699999809E+01 0. -1.
       -4    1    3    3    0  502 -0.85990068618E+03 -0.71393741801E+03 -0.11493637927E+04  0.16031763995E+04  0.12699999809E+01 0.  1.
</event>
<event>
 5   0  0.1574896E-06  0.2498781E+04  0.7818609E-02  0.8403420E-01
        1   -1    0    0  501    0  0.00000000000E+00  0.00000000000E+00  0.21454030942E+04  0.21454030942E+04  0.50400001928E-02 0. -1.
       -1   -1    0    0    0  501  0.00000000000E+00  0.00000000000E+00 -0.72759101535E+03  0.72759101537E+03  0.50400001928E-02 0.  1.
    10030    2    1    2    0    0  0.00000000000E+00  0.00000000000E+00  0.14178120788E+04  0.28729941096E+04  0.24987805151E+04 0.  0.
        3    1    3    3  502    0  0.65141065867E+03 -0.58348038280E+03  0.17348300708E+04  0.19427868097E+04  0.10100000352E+00 0. -1.
       -3    1    3    3    0  502 -0.65141065867E+03  0.58348038280E+03 -0.31701799191E+03  0.93020729987E+03  0.10100000352E+00 0.  1.
</event>
<event>
 5   0  0.1574896E-06  0.2509651E+04  0.7818609E-02  0.8399555E-01
        1   -1    0    0  501    0  0.00000000000E+00  0.00000000000E+00  0.57767546973E+03  0.57767546975E+03  0.50400001928E-02 0.  1.
       -1   -1    0    0    0  501  0.00000000000E+00  0.00000000000E+00 -0.27257303513E+04  0.27257303513E+04  0.50400001928E-02 0. -1.
    10030    2    1    2    0    0  0.00000000000E+00  0.00000000000E+00 -0.21480548815E+04  0.33034058210E+04  0.25096514189E+04 0.  0.
        3    1    3    3  502    0 -0.85083469906E+03 -0.19643948744E+03 -0.22601997221E+04  0.24230169110E+04  0.10100000352E+00 0. -1.
       -3    1    3    3    0  502  0.85083469906E+03  0.19643948744E+03  0.11214484054E+03  0.88038890998E+03  0.10100000352E+00 0.  1.
</event>
<event>
 5   0  0.1574896E-06  0.2491392E+04  0.7818609E-02  0.8406058E-01
       -1   -1    0    0    0  501  0.00000000000E+00  0.00000000000E+00  0.13728152403E+04  0.13728152403E+04  0.50400001928E-02 0.  1.
        1   -1    0    0  501    0  0.00000000000E+00  0.00000000000E+00 -0.11303480588E+04  0.11303480588E+04  0.50400001928E-02 0. -1.
    10030    2    1    2    0    0  0.00000000000E+00  0.00000000000E+00  0.24246718145E+03  0.25031632991E+04  0.24913924155E+04 0.  0.
        3    1    3    3  502    0 -0.15544267936E+03 -0.38025988395E+03  0.13027995806E+04  0.13660332219E+04  0.10100000352E+00 0.  1.
       -3    1    3    3    0  502  0.15544267936E+03  0.38025988395E+03 -0.10603323991E+04  0.11371300773E+04  0.10100000352E+00 0. -1.
</event>
<event>
 5   0  0.1501747E-06  0.2501480E+04  0.7818609E-02  0.8402459E-01
        1   -1    0    0  501    0  0.00000000000E+00  0.00000000000E+00  0.12883317349E+04  0.12883317349E+04  0.50400001928E-02 0. -1.
       -1   -1    0    0    0  501  0.00000000000E+00  0.00000000000E+00 -0.12142447339E+04  0.12142447339E+04  0.50400001928E-02 0.  1.
    10030    2    1    2    0    0  0.00000000000E+00  0.00000000000E+00  0.74087001010E+02  0.25025764689E+04  0.25014795819E+04 0.  0.
        2    1    3    3  502    0 -0.15321555044E+03  0.99226365438E+03  0.78321762640E+03  0.12733781901E+04  0.25500000920E-02 0. -1.
       -2    1    3    3    0  502  0.15321555044E+03 -0.99226365438E+03 -0.70913062539E+03  0.12291982788E+04  0.25500000920E-02 0.  1.
</event>
<event>
 5   0  0.3713394E-06  0.2493936E+04  0.7818609E-02  0.8405149E-01
       -2   -1    0    0    0  501  0.00000000000E+00  0.00000000000E+00  0.79230166061E+03  0.79230166061E+03  0.25500000920E-02 0. -1.
        2   -1    0    0  501    0  0.00000000000E+00  0.00000000000E+00 -0.19625476488E+04  0.19625476488E+04  0.25500000920E-02 0.  1.
    10030    2    1    2    0    0  0.00000000000E+00  0.00000000000E+00 -0.11702459882E+04  0.27548493094E+04  0.24939364556E+04 0.  0.
        3    1    3    3  502    0 -0.73988295269E+03  0.44049346637E+03  0.41116025247E+03  0.95420859407E+03  0.10100000352E+00 0. -1.
       -3    1    3    3    0  502  0.73988295269E+03 -0.44049346637E+03 -0.15814062407E+04  0.18006407154E+04  0.10100000352E+00 0.  1.
</event>
<event>
 5   0  0.3713394E-06  0.2499089E+04  0.7818609E-02  0.8403310E-01
        2   -1    0    0  501    0  0.00000000000E+00  0.00000000000E+00  0.17666002874E+04  0.17666002874E+04  0.25500000920E-02 0. -1.
       -2   -1    0    0    0  501  0.00000000000E+00  0.00000000000E+00 -0.88382290478E+03  0.88382290478E+03  0.25500000920E-02 0.  1.
    10030    2    1    2    0    0  0.00000000000E+00  0.00000000000E+00  0.88277738263E+03  0.26504231922E+04  0.24990892722E+04 0.  0.
        3    1    3    3  502    0  0.26171882542E+03 -0.40409156273E+03  0.16642856974E+04  0.17325223310E+04  0.10100000352E+00 0. -1.
       -3    1    3    3    0  502 -0.26171882542E+03  0.40409156273E+03 -0.78150831479E+03  0.91790086117E+03  0.10100000352E+00 0.  1.
</event>
<event>
 5   0  0.1574896E-06  0.2494858E+04  0.7818609E-02  0.8404820E-01
        1   -1    0    0  501    0  0.00000000000E+00  0.00000000000E+00  0.87860458808E+03  0.87860458809E+03  0.50400001928E-02 0.  1.
       -1   -1    0    0    0  501  0.00000000000E+00  0.00000000000E+00 -0.17710801068E+04  0.17710801068E+04  0.50400001928E-02 0. -1.
    10030    2    1    2    0    0  0.00000000000E+00  0.00000000000E+00 -0.89247551872E+03  0.26496846949E+04  0.24948579981E+04 0.  0.
        3    1    3    3  502    0 -0.77855767965E+03  0.41701365493E+03 -0.13818301547E+04  0.16399716570E+04  0.10100000352E+00 0. -1.
       -3    1    3    3    0  502  0.77855767965E+03 -0.41701365493E+03  0.48935463602E+03  0.10097130379E+04  0.10100000352E+00 0.  1.
</event>
<event>
 5   0  0.3971759E-06  0.2526444E+04  0.7818609E-02  0.8393625E-01
        2   -1    0    0  501    0  0.00000000000E+00  0.00000000000E+00  0.10290843673E+04  0.10290843673E+04  0.25500000920E-02 0.  1.
       -2   -1    0    0    0  501  0.00000000000E+00  0.00000000000E+00 -0.15506312261E+04  0.15506312261E+04  0.25500000920E-02 0. -1.
    10030    2    1    2    0    0  0.00000000000E+00  0.00000000000E+00 -0.52154685875E+03  0.25797155934E+04  0.25264444219E+04 0.  0.
        4    1    3    3  502    0  0.78768350086E+03 -0.46015987839E+03 -0.11530036582E+04  0.14702419733E+04  0.12699999809E+01 0. -1.
       -4    1    3    3    0  502 -0.78768350086E+03  0.46015987839E+03  0.63145679949E+03  0.11094736201E+04  0.12699999809E+01 0.  1.
</event>
<event>
 5   0  0.3808293E-06  0.2498656E+04  0.7818609E-02  0.8403464E-01
        2   -1    0    0  501    0  0.00000000000E+00  0.00000000000E+00  0.93874401512E+03  0.93874401512E+03  0.25500000920E-02 0. -1.
       -2   -1    0    0    0  501  0.00000000000E+00  0.00000000000E+00 -0.16626688972E+04  0.16626688972E+04  0.25500000920E-02 0.  1.
    10030    2    1    2    0    0  0.00000000000E+00  0.00000000000E+00 -0.72392488207E+03  0.26014129123E+04  0.24986560198E+04 0.  0.
        1    1    3    3  502    0 -0.61995363444E+03 -0.97592656737E+03 -0.85476248776E+03  0.14378435535E+04  0.50400001928E-02 0.  1.
       -1    1    3    3    0  502  0.61995363444E+03  0.97592656737E+03  0.13083760568E+03  0.11635693588E+04  0.50400001928E-02 0. -1.
</event>
<event>
 5   0  0.3971759E-06  0.2499668E+04  0.7818609E-02  0.8403104E-01
       -2   -1    0    0    0  501  0.00000000000E+00  0.00000000000E+00  0.11491253676E+04  0.11491253676E+04  0.25500000920E-02 0.  1.
        2   -1    0    0  501    0  0.00000000000E+00  0.00000000000E+00 -0.13593683572E+04  0.13593683572E+04  0.25500000920E-02 0. -1.
    10030    2    1    2    0    0  0.00000000000E+00  0.00000000000E+00 -0.21024298958E+03  0.25084937248E+04  0.24996677084E+04 0.  0.
        4    1    3    3  502    0  0.10795245944E+04 -0.58563005391E+03 -0.33777436801E+03  0.12737460683E+04  0.12699999809E+01 0.  1.
       -4    1    3    3    0  502 -0.10795245944E+04  0.58563005391E+03  0.12753137844E+03  0.12347476565E+04  0.12699999809E+01 0. -1.
</event>
<event>
 5   0  0.1541852E-06  0.2499488E+04  0.7818609E-02  0.8403168E-01
       -1   -1    0    0    0  501  0.00000000000E+00  0.00000000000E+00  0.84298125518E+03  0.84298125519E+03  0.50400001928E-02 0. -1.
        1   -1    0    0  501    0  0.00000000000E+00  0.00000000000E+00 -0.18527820434E+04  0.18527820434E+04  0.50400001928E-02 0.  1.
    10030    2    1    2    0    0  0.00000000000E+00  0.00000000000E+00 -0.10098007882E+04  0.26957632986E+04  0.24994883737E+04 0.  0.
        5    1    3    3  502    0 -0.10165160411E+04 -0.90890033248E+02  0.27303961085E+03  0.10564745994E+04  0.46999998093E+01 0. -1.
       -5    1    3    3    0  502  0.10165160411E+04  0.90890033248E+02 -0.12828403991E+04  0.16392886993E+04  0.46999998093E+01 0.  1.
</event>
<event>
 5   0  0.3808293E-06  0.2498727E+04  0.7818609E-02  0.8403439E-01
        2   -1    0    0  501    0  0.00000000000E+00  0.00000000000E+00  0.61952604763E+03  0.61952604764E+03  0.25500000920E-02 0. -1.
       -2   -1    0    0    0  501  0.00000000000E+00  0.00000000000E+00 -0.25195211892E+04  0.25195211892E+04  0.25500000920E-02 0.  1.
    10030    2    1    2    0    0  0.00000000000E+00  0.00000000000E+00 -0.18999951416E+04  0.31390472369E+04  0.24987268793E+04 0.  0.
        1    1    3    3  502    0 -0.39623851506E+03  0.51847252167E+03  0.38842812643E+03  0.75940445480E+03  0.50400001928E-02 0. -1.
       -1    1    3    3    0  502  0.39623851506E+03 -0.51847252167E+03 -0.22884232680E+04  0.23796427821E+04  0.50400001928E-02 0.  1.
</event>
<event>
 5   0  0.3814260E-06  0.2506489E+04  0.7818609E-02  0.8400678E-01
        2   -1    0    0  501    0  0.00000000000E+00  0.00000000000E+00  0.10085715307E+04  0.10085715307E+04  0.25500000920E-02 0.  1.
       -2   -1    0    0    0  501  0.00000000000E+00  0.00000000000E+00 -0.15572732037E+04  0.15572732038E+04  0.25500000920E-02 0. -1.
    10030    2    1    2    0    0  0.00000000000E+00  0.00000000000E+00 -0.54870167306E+03  0.25658447344E+04  0.25064887144E+04 0.  0.
        5    1    3    3  502    0  0.81259286431E+03  0.53398092063E+03  0.53504135306E+03  0.11098351797E+04  0.46999998093E+01 0.  1.
       -5    1    3    3    0  502 -0.81259286431E+03 -0.53398092063E+03 -0.10837430261E+04  0.14560095547E+04  0.46999998093E+01 0. -1.
</event>
<event>
 5   0  0.1519145E-06  0.2501327E+04  0.7818609E-02  0.8402513E-01
        1   -1    0    0  501    0  0.00000000000E+00  0.00000000000E+00  0.13018843165E+04  0.13018843165E+04  0.50400001928E-02 0. -1.
       -1   -1    0    0    0  501  0.00000000000E+00  0.00000000000E+00 -0.12014580107E+04  0.12014580107E+04  0.50400001928E-02 0.  1.
    10030    2    1    2    0    0  0.00000000000E+00  0.00000000000E+00  0.10042630586E+03  0.25033423272E+04  0.25013271206E+04 0.  0.
        4    1    3    3  502    0  0.32491660000E+03  0.83072192056E+03  0.92755390376E+03  0.12868673450E+04  0.12699999809E+01 0. -1.
       -4    1    3    3    0  502 -0.32491660000E+03 -0.83072192056E+03 -0.82712759790E+03  0.12164749822E+04  0.12699999809E+01 0.  1.
</event>
<event>
 5   0  0.3814260E-06  0.2503871E+04  0.7818609E-02  0.8401608E-01
        2   -1    0    0  501    0  0.00000000000E+00  0.00000000000E+00  0.21043901464E+04  0.21043901464E+04  0.25500000920E-02 0. -1.
       -2   -1    0    0    0  501  0.00000000000E+00  0.00000000000E+00 -0.74479666127E+03  0.74479666127E+03  0.25500000920E-02 0.  1.
    10030    2    1    2    0    0  0.00000000000E+00  0.00000000000E+00  0.13595934851E+04  0.28491868076E+04  0.25038712068E+04 0.  0.
        5    1    3    3  502    0  0.84211760856E+03 -0.89210960637E+03  0.39577626983E+03  0.12890626681E+04  0.46999998093E+01 0. -1.
       -5    1    3    3    0  502 -0.84211760856E+03  0.89210960637E+03  0.96381721525E+03  0.15601241396E+04  0.46999998093E+01 0.  1.
</event>
<event>
 5   0  0.3924441E-06  0.2501586E+04  0.7818609E-02  0.8402421E-01
        2   -1    0    0  501    0  0.00000000000E+00  0.00000000000E+00  0.17084667752E+04  0.17084667752E+04  0.25500000920E-02 0.  1.
       -2   -1    0    0    0  501  0.00000000000E+00  0.00000000000E+00 -0.91572360753E+03  0.91572360753E+03  0.25500000920E-02 0. -1.
    10030    2    1    2    0    0  0.00000000000E+00  0.00000000000E+00  0.79274316768E+03  0.26241903827E+04  0.25015861838E+04 0.  0.
        2    1    3    3  502    0  0.33684181771E+03  0.59011990366E+03  0.14979722801E+04  0.16448783733E+04  0.25500000920E-02 0.  1.
       -2    1    3    3    0  502 -0.33684181771E+03 -0.59011990366E+03 -0.70522911244E+03  0.97931200947E+03  0.25500000920E-02 0. -1.
</event>
<event>
 5   0  0.3924441E-06  0.2499632E+04  0.7818609E-02  0.8403117E-01
       -2   -1    0    0    0  501  0.00000000000E+00  0.00000000000E+00  0.10867343995E+04  0.10867343995E+04  0.25500000920E-02 0.  1.
        2   -1    0    0  501    0  0.00000000000E+00  0.00000000000E+00 -0.14373705347E+04  0.14373705347E+04  0.25500000920E-02 0. -1.
    10030    2    1    2    0    0  0.00000000000E+00  0.00000000000E+00 -0.35063613523E+03  0.25241049343E+04  0.24996319769E+04 0.  0.
        2    1    3    3  502    0 -0.59112693944E+03  0.76480183108E+03 -0.97534192384E+03  0.13731878123E+04  0.25500000920E-02 0. -1.
       -2    1    3    3    0  502  0.59112693944E+03 -0.76480183108E+03  0.62470578860E+03  0.11509171220E+04  0.25500000920E-02 0.  1.
</event>
<event>
 5   0  0.1574896E-06  0.2500228E+04  0.7818609E-02  0.8402904E-01
       -1   -1    0    0    0  501  0.00000000000E+00  0.00000000000E+00  0.80474329757E+03  0.80474329759E+03  0.50400001928E-02 0.  1.
        1   -1    0    0  501    0  0.00000000000E+00  0.00000000000E+00 -0.19419678535E+04  0.19419678535E+04  0.50400001928E-02 0. -1.
    10030    2    1    2    0    0  0.00000000000E+00  0.00000000000E+00 -0.11372245560E+04  0.27467111511E+04  0.25002284810E+04 0.  0.
        3    1    3    3  502    0  0.82566427474E+03 -0.30817842284E+03  0.40541131174E+03  0.97007926314E+03  0.10100000352E+00 0. -1.
       -3    1    3    3    0  502 -0.82566427474E+03  0.30817842284E+03 -0.15426358677E+04  0.17766318880E+04  0.10100000352E+00 0.  1.
</event>
<event>
 5   0  0.1501747E-06  0.2495052E+04  0.7818609E-02  0.8404751E-01
       -1   -1    0    0    0  501  0.00000000000E+00  0.00000000000E+00  0.13353615143E+04  0.13353615143E+04  0.50400001928E-02 0. -1.
        1   -1    0    0  501    0  0.00000000000E+00  0.00000000000E+00 -0.11654676817E+04  0.11654676817E+04  0.50400001928E-02 0.  1.
    10030    2    1    2    0    0  0.00000000000E+00  0.00000000000E+00  0.16989383261E+03  0.25008291960E+04  0.24950516534E+04 0.  0.
        2    1    3    3  502    0  0.46379651923E+03 -0.67807830056E+03 -0.85606852980E+03  0.11864867132E+04  0.25500000920E-02 0.  1.
       -2    1    3    3    0  502 -0.46379651923E+03  0.67807830056E+03  0.10259623624E+04  0.13143424828E+04  0.25500000920E-02 0. -1.
</event>
<event>
 5   0  0.3808293E-06  0.2491570E+04  0.7818609E-02  0.8405995E-01
        2   -1    0    0  501    0  0.00000000000E+00  0.00000000000E+00  0.23863287290E+04  0.23863287290E+04  0.25500000920E-02 0. -1.
       -2   -1    0    0    0  501  0.00000000000E+00  0.00000000000E+00 -0.65036306445E+03  0.65036306445E+03  0.25500000920E-02 0.  1.
    10030    2    1    2    0    0  0.00000000000E+00  0.00000000000E+00  0.17359656646E+04  0.30366917935E+04  0.24915698385E+04 0.  0.
        1    1    3    3  502    0 -0.12258136668E+04  0.10216837996E+03  0.11084347503E+04  0.16558034664E+04  0.50400001928E-02 0. -1.
       -1    1    3    3    0  502  0.12258136668E+04 -0.10216837996E+03  0.62753091425E+03  0.13808883271E+04  0.50400001928E-02 0.  1.
</event>
<event>
 5   0  0.1501747E-06  0.2499546E+04  0.7818609E-02  0.8403147E-01
        1   -1    0    0  501    0  0.00000000000E+00  0.00000000000E+00  0.99210603030E+03  0.99210603031E+03  0.50400001928E-02 0.  1.
       -1   -1    0    0    0  501  0.00000000000E+00  0.00000000000E+00 -0.15743604574E+04  0.15743604574E+04  0.50400001928E-02 0. -1.
    10030    2    1    2    0    0  0.00000000000E+00  0.00000000000E+00 -0.58225442706E+03  0.25664664877E+04  0.24995459617E+04 0.  0.
        2    1    3    3  502    0 -0.16840296773E+02 -0.10772430984E+04  0.35923138161E+03  0.11356863450E+04  0.25500000920E-02 0.  1.
       -2    1    3    3    0  502  0.16840296773E+02  0.10772430984E+04 -0.94148580868E+03  0.14307801427E+04  0.25500000920E-02 0. -1.
</event>
<event>
 5   0  0.1541852E-06  0.2495048E+04  0.7818609E-02  0.8404752E-01
        1   -1    0    0  501    0  0.00000000000E+00  0.00000000000E+00  0.14662464056E+04  0.14662464056E+04  0.50400001928E-02 0.  1.
       -1   -1    0    0    0  501  0.00000000000E+00  0.00000000000E+00 -0.10614285860E+04  0.10614285860E+04  0.50400001928E-02 0. -1.
    10030    2    1    2    0    0  0.00000000000E+00  0.00000000000E+00  0.40481781964E+03  0.25276749916E+04  0.24950477743E+04 0.  0.
        5    1    3    3  502    0 -0.20324011551E+03  0.43160295732E+03 -0.96535979014E+03  0.10768144091E+04  0.46999998093E+01 0. -1.
       -5    1    3    3    0  502  0.20324011551E+03 -0.43160295732E+03  0.13701776098E+04  0.14508605824E+04  0.46999998093E+01 0.  1.
</event>
<event>
 5   0  0.3814260E-06  0.2501351E+04  0.7818609E-02  0.8402504E-01
        2   -1    0    0  501    0  0.00000000000E+00  0.00000000000E+00  0.89609830266E+03  0.89609830266E+03  0.25500000920E-02 0.  1.
       -2   -1    0    0    0  501  0.00000000000E+00  0.00000000000E+00 -0.17455554810E+04  0.17455554810E+04  0.25500000920E-02 0. -1.
    10030    2    1    2    0    0  0.00000000000E+00  0.00000000000E+00 -0.84945717831E+03  0.26416537836E+04  0.25013510779E+04 0.  0.
        5    1    3    3  502    0  0.50539603645E+03  0.52682574829E+02  0.78216028219E+03  0.93273651391E+03  0.46999998093E+01 0.  1.
       -5    1    3    3    0  502 -0.50539603645E+03 -0.52682574829E+02 -0.16316174605E+04  0.17089172697E+04  0.46999998093E+01 0. -1.
</event>
<event>
 5   0  0.1501747E-06  0.2510157E+04  0.7818609E-02  0.8399376E-01
       -1   -1    0    0    0  501  0.00000000000E+00  0.00000000000E+00  0.10208304560E+04  0.10208304560E+04  0.50400001928E-02 0.  1.
        1   -1    0    0  501    0  0.00000000000E+00  0.00000000000E+00 -0.15430794496E+04  0.15430794496E+04  0.50400001928E-02 0. -1.
    10030    2    1    2    0    0  0.00000000000E+00  0.00000000000E+00 -0.52224899365E+03  0.25639099056E+04  0.25101573641E+04 0.  0.
        2    1    3    3  502    0  0.85798940351E+03  0.37493680268E+03 -0.11147840984E+04  0.14558389363E+04  0.25500000920E-02 0. -1.
       -2    1    3    3    0  502 -0.85798940351E+03 -0.37493680268E+03  0.59253510474E+03  0.11080709693E+04  0.25500000920E-02 0.  1.
</event>
<event>
 5   0  0.1574896E-06  0.2497998E+04  0.7818609E-02  0.8403699E-01
       -1   -1    0    0    0  501  0.00000000000E+00  0.00000000000E+00  0.99728923059E+03  0.99728923060E+03  0.50400001928E-02 0. -1.
        1   -1    0    0  501    0  0.00000000000E+00  0.00000000000E+00 -0.15642390378E+04  0.15642390378E+04  0.50400001928E-02 0.  1.
    10030    2    1    2    0    0  0.00000000000E+00  0.00000000000E+00 -0.56694980716E+03  0.25615282684E+04  0.24979981957E+04 0.  0.
        3    1    3    3  502    0 -0.17382599916E+03  0.11561707833E+04  0.16707677333E+03  0.11810423433E+04  0.10100000352E+00 0. -1.
       -3    1    3    3    0  502  0.17382599916E+03 -0.11561707833E+04 -0.73402658050E+03  0.13804859251E+04  0.10100000352E+00 0.  1.
</event>
<event>
 5   0  0.1541852E-06  0.2499579E+04  0.7818609E-02  0.8403136E-01
       -1   -1    0    0    0  501  0.00000000000E+00  0.00000000000E+00  0.22852323094E+04  0.22852323094E+04  0.50400001928E-02 0. -1.
        1   -1    0    0  501    0  0.00000000000E+00  0.00000000000E+00 -0.68350769628E+03  0.68350769630E+03  0.50400001928E-02 0.  1.
    10030    2    1    2    0    0  0.00000000000E+00  0.00000000000E+00  0.16017246131E+04  0.29687400057E+04  0.24995790616E+04 0.  0.
        5    1    3    3  502    0  0.34272385162E+03  0.62349721651E+03  0.20212124794E+04  0.21427856623E+04  0.46999998093E+01 0. -1.
       -5    1    3    3    0  502 -0.34272385162E+03 -0.62349721651E+03 -0.41948786631E+03  0.82595434344E+03  0.46999998093E+01 0.  1.
</event>
<event>
 5   0  0.3924441E-06  0.2499365E+04  0.7818609E-02  0.8403212E-01
        2   -1    0    0  501    0  0.00000000000E+00  0.00000000000E+00  0.21638129023E+04  0.21638129023E+04  0.25500000920E-02 0. -1.
       -2   -1    0    0    0  501  0.00000000000E+00  0.00000000000E+00 -0.72173798080E+03  0.72173798080E+03  0.25500000920E-02 0.  1.
    10030    2    1    2    0    0  0.00000000000E+00  0.00000000000E+00  0.14420749215E+04  0.28855508831E+04  0.24993646833E+04 0.  0.
        2    1    3    3  502    0  0.43426781528E+02  0.11709377949E+04  0.21948826579E+03  0.11921226043E+04  0.25500000920E-02 0.  1.
       -2    1    3    3    0  502 -0.43426781528E+02 -0.11709377949E+04  0.12225866557E+04  0.16934282789E+04  0.25500000920E-02 0. -1.
</event>
<event>
 5   0  0.3713394E-06  0.2500545E+04  0.7818609E-02  0.8402791E-01
       -2   -1    0    0    0  501  0.00000000000E+00  0.00000000000E+00  0.69390538268E+03  0.69390538268E+03  0.25500000920E-02 0. -1.
        2   -1    0    0  501    0  0.00000000000E+00  0.00000000000E+00 -0.22527294007E+04  0.22527294007E+04  0.25500000920E-02 0.  1.
    10030    2    1    2    0    0  0.00000000000E+00  0.00000000000E+00 -0.15588240181E+04  0.29466347834E+04  0.25005447862E+04 0.  0.
        3    1    3    3  502    0  0.10875781579E+04  0.17000705341E+03 -0.14780061353E+04  0.18428865385E+04  0.10100000352E+00 0.  1.
       -3    1    3    3    0  502 -0.10875781579E+04 -0.17000705341E+03 -0.80817882763E+02  0.11037482449E+04  0.10100000352E+00 0. -1.
</event>
<event>
 5   0  0.1574896E-06  0.2501890E+04  0.7818609E-02  0.8402313E-01
       -1   -1    0    0    0  501  0.00000000000E+00  0.00000000000E+00  0.23248816071E+04  0.23248816071E+04  0.50400001928E-02 0.  1.
        1   -1    0    0  501    0  0.00000000000E+00  0.00000000000E+00 -0.67309380831E+03  0.67309380833E+03  0.50400001928E-02 0. -1.
    10030    2    1    2    0    0  0.00000000000E+00  0.00000000000E+00  0.16517877988E+04  0.29979754154E+04  0.25018900174E+04 0.  0.
        3    1    3    3  502    0 -0.23255056957E+03 -0.94637597083E+03 -0.11394310624E+03  0.98116781808E+03  0.10100000352E+00 0. -1.
       -3    1    3    3    0  502  0.23255056957E+03  0.94637597083E+03  0.17657309050E+04  0.20168075973E+04  0.10100000352E+00 0.  1.
</event>
<event>
 5   0  0.3808293E-06  0.2498992E+04  0.7818609E-02  0.8403345E-01
        2   -1    0    0  501    0  0.00000000000E+00  0.00000000000E+00  0.11924479379E+04  0.11924479379E+04  0.25500000920E-02 0.  1.
       -2   -1    0    0    0  501  0.00000000000E+00  0.00000000000E+00 -0.13092729631E+04  0.13092729631E+04  0.25500000920E-02 0. -1.
    10030    2    1    2    0    0  0.00000000000E+00  0.00000000000E+00 -0.11682502522E+03  0.25017209010E+04  0.24989916727E+04 0.  0.
        1    1    3    3  502    0 -0.10861030986E+04  0.61751196474E+03 -0.75719472631E+02  0.12516686486E+04  0.50400001928E-02 0. -1.
       -1    1    3    3    0  502  0.10861030986E+04 -0.61751196474E+03 -0.41105552585E+02  0.12500522524E+04  0.50400001928E-02 0.  1.
</event>
<event>
 5   0  0.3808293E-06  0.2496527E+04  0.7818609E-02  0.8404224E-01
       -2   -1    0    0    0  501  0.00000000000E+00  0.00000000000E+00  0.98866632357E+03  0.98866632357E+03  0.25500000920E-02 0. -1.
        2   -1    0    0  501    0  0.00000000000E+00  0.00000000000E+00 -0.15760239568E+04  0.15760239568E+04  0.25500000920E-02 0.  1.
    10030    2    1    2    0    0  0.00000000000E+00  0.00000000000E+00 -0.58735763322E+03  0.25646902804E+04  0.24965270367E+04 0.  0.
        1    1    3    3  502    0  0.74060350557E+03  0.34130417580E+03 -0.12645644588E+04  0.15046944419E+04  0.50400001928E-02 0.  1.
       -1    1    3    3    0  502 -0.74060350557E+03 -0.34130417580E+03  0.67720682562E+03  0.10599958385E+04  0.50400001928E-02 0. -1.
</event>
<event>
 5   0  0.3814260E-06  0.2474472E+04  0.7818609E-02  0.8412137E-01
        2   -1    0    0  501    0  0.00000000000E+00  0.00000000000E+00  0.14214626567E+04  0.14214626567E+04  0.25500000920E-02 0.  1.
       -2   -1    0    0    0  501  0.00000000000E+00  0.00000000000E+00 -0.10768861378E+04  0.10768861378E+04  0.25500000920E-02 0. -1.
    10030    2    1    2    0    0  0.00000000000E+00  0.00000000000E+00  0.34457651885E+03  0.24983487945E+04  0.24744724128E+04 0.  0.
        5    1    3    3  502    0 -0.77431275954E+03  0.32165627221E+03  0.10908516184E+04  0.13758642195E+04  0.46999998093E+01 0.  1.
       -5    1    3    3    0  502  0.77431275954E+03 -0.32165627221E+03 -0.74627509957E+03  0.11224845751E+04  0.46999998093E+01 0. -1.
</event>
<event>
 5   0  0.3713394E-06  0.2522147E+04  0.7818609E-02  0.8395138E-01
        2   -1    0    0  501    0  0.00000000000E+00  0.00000000000E+00  0.18259363920E+04  0.18259363920E+04  0.25500000920E-02 0.  1.
       -2   -1    0    0    0  501  0.00000000000E+00  0.00000000000E+00 -0.87095407508E+03  0.87095407509E+03  0.25500000920E-02 0. -1.
    10030    2    1    2    0    0  0.00000000000E+00  0.00000000000E+00  0.95498231693E+03  0.26968904671E+04  0.25221472927E+04 0.  0.
        3    1    3    3  502    0  0.11901140164E+04  0.35413896706E+03  0.24195503902E+03  0.12650407231E+04  0.10100000352E+00 0.  1.
       -3    1    3    3    0  502 -0.11901140164E+04 -0.35413896706E+03  0.71302727791E+03  0.14318497440E+04  0.10100000352E+00 0. -1.
</event>
<event>
 5   0  0.1553604E-06  0.2518097E+04  0.7818609E-02  0.8396566E-01
       -1   -1    0    0    0  501  0.00000000000E+00  0.00000000000E+00  0.11821295490E+04  0.11821295490E+04  0.50400001928E-02 0. -1.
        1   -1    0    0  501    0  0.00000000000E+00  0.00000000000E+00 -0.13409727991E+04  0.13409727991E+04  0.50400001928E-02 0.  1.
    10030    2    1    2    0    0  0.00000000000E+00  0.00000000000E+00 -0.15884325010E+03  0.25231023482E+04  0.25180973534E+04 0.  0.
        1    1    3    3  502    0 -0.92131862979E+02 -0.10935690108E+03  0.11739668981E+04  0.11826434331E+04  0.50400001928E-02 0. -1.
       -1    1    3    3    0  502  0.92131862979E+02  0.10935690108E+03 -0.13328101482E+04  0.13404589151E+04  0.50400001928E-02 0.  1.
</event>
<event>
 5   0  0.1553604E-06  0.2499014E+04  0.7818609E-02  0.8403337E-01
        1   -1    0    0  501    0  0.00000000000E+00  0.00000000000E+00  0.10892001983E+04  0.10892001983E+04  0.50400001928E-02 0.  1.
       -1   -1    0    0    0  501  0.00000000000E+00  0.00000000000E+00 -0.14334075177E+04  0.14334075178E+04  0.50400001928E-02 0. -1.
    10030    2    1    2    0    0  0.00000000000E+00  0.00000000000E+00 -0.34420731943E+03  0.25226077161E+04  0.24990140077E+04 0.  0.
        1    1    3    3  502    0  0.86242812445E+03  0.81838305905E+03  0.21588784379E+03  0.12083628024E+04  0.50400001928E-02 0.  1.
       -1    1    3    3    0  502 -0.86242812445E+03 -0.81838305905E+03 -0.56009516322E+03  0.13142449137E+04  0.50400001928E-02 0. -1.
</event>
<event>
 5   0  0.1553604E-06  0.2507264E+04  0.7818609E-02  0.8400402E-01
       -1   -1    0    0    0  501  0.00000000000E+00  0.00000000000E+00  0.10393964292E+04  0.10393964292E+04  0.50400001928E-02 0. -1.
        1   -1    0    0  501    0  0.00000000000E+00  0.00000000000E+00 -0.15120247311E+04  0.15120247311E+04  0.50400001928E-02 0.  1.
    10030    2    1    2    0    0  0.00000000000E+00  0.00000000000E+00 -0.47262830190E+03  0.25514211604E+04  0.25072639322E+04 0.  0.
        1    1    3    3  502    0 -0.23915462166E+03 -0.18613109316E+03  0.10015607905E+04  0.10464051481E+04  0.50400001928E-02 0. -1.
       -1    1    3    3    0  502  0.23915462166E+03  0.18613109316E+03 -0.14741890924E+04  0.15050160122E+04  0.50400001928E-02 0.  1.
</event>
<event>
 5   0  0.3814260E-06  0.2483051E+04  0.7818609E-02  0.8409049E-01
        2   -1    0    0  501    0  0.00000000000E+00  0.00000000000E+00  0.15904445891E+04  0.15904445891E+04  0.25500000920E-02 0. -1.
       -2   -1    0    0    0  501  0.00000000000E+00  0.00000000000E+00 -0.96915365369E+03  0.96915365369E+03  0.25500000920E-02 0.  1.
    10030    2    1    2    0    0  0.00000000000E+00  0.00000000000E+00  0.62129093537E+03  0.25595982428E+04  0.24830506918E+04 0.  0.
        5    1    3    3  502    0  0.82788028824E+03 -0.92518697327E+03  0.30804024173E+03  0.12791667552E+04  0.46999998093E+01 0.  1.
       -5    1    3    3    0  502 -0.82788028824E+03  0.92518697327E+03  0.31325069363E+03  0.12804314875E+04  0.46999998093E+01 0. -1.
</event>
<event>
 5   0  0.3808293E-06  0.2498392E+04  0.7818609E-02  0.8403559E-01
       -2   -1    0    0    0  501  0.00000000000E+00  0.00000000000E+00  0.15524108122E+04  0.15524108122E+04  0.25500000920E-02 0.  1.
        2   -1    0    0  501    0  0.00000000000E+00  0.00000000000E+00 -0.10052046336E+04  0.10052046336E+04  0.25500000920E-02 0. -1.
    10030    2    1    2    0    0  0.00000000000E+00  0.00000000000E+00  0.54720617857E+03  0.25576154458E+04  0.24983919162E+04 0.  0.
        1    1    3    3  502    0  0.28420249804E+03  0.10395684770E+03  0.15143198147E+04  0.15442611784E+04  0.50400001928E-02 0.  1.
       -1    1    3    3    0  502 -0.28420249804E+03 -0.10395684770E+03 -0.96711363610E+03  0.10133542674E+04  0.50400001928E-02 0. -1.
</event>
<event>
 5   0  0.1541852E-06  0.2490100E+04  0.7818609E-02  0.8406521E-01
       -1   -1    0    0    0  501  0.00000000000E+00  0.00000000000E+00  0.13124178516E+04  0.13124178516E+04  0.50400001928E-02 0. -1.
        1   -1    0    0  501    0  0.00000000000E+00  0.00000000000E+00 -0.11811397873E+04  0.11811397873E+04  0.50400001928E-02 0.  1.
    10030    2    1    2    0    0  0.00000000000E+00  0.00000000000E+00  0.13127806433E+03  0.24935576390E+04  0.24900995499E+04 0.  0.
        5    1    3    3  502    0 -0.43457788864E+03 -0.11661894777E+04  0.29938252620E+02  0.12448992843E+04  0.46999998093E+01 0.  1.
       -5    1    3    3    0  502  0.43457788864E+03  0.11661894777E+04  0.10133981171E+03  0.12486583546E+04  0.46999998093E+01 0. -1.
</event>
<event>
 5   0  0.1541852E-06  0.2511966E+04  0.7818609E-02  0.8398735E-01
        1   -1    0    0  501    0  0.00000000000E+00  0.00000000000E+00  0.11324210439E+04  0.11324210439E+04  0.50400001928E-02 0. -1.
       -1   -1    0    0    0  501  0.00000000000E+00  0.00000000000E+00 -0.13930267114E+04  0.13930267114E+04  0.50400001928E-02 0.  1.
    10030    2    1    2    0    0  0.00000000000E+00  0.00000000000E+00 -0.26060566749E+03  0.25254477553E+04  0.25119655751E+04 0.  0.
        5    1    3    3  502    0  0.40377378524E+03  0.94858471304E+03  0.59092073593E+03  0.11882994714E+04  0.46999998093E+01 0. -1.
       -5    1    3    3    0  502 -0.40377378524E+03 -0.94858471304E+03 -0.85152640342E+03  0.13371482839E+04  0.46999998093E+01 0.  1.
</event>
<event>
 5   0  0.3808293E-06  0.2499790E+04  0.7818609E-02  0.8403060E-01
        2   -1    0    0  501    0  0.00000000000E+00  0.00000000000E+00  0.16942869941E+04  0.16942869941E+04  0.25500000920E-02 0. -1.
       -2   -1    0    0    0  501  0.00000000000E+00  0.00000000000E+00 -0.92206188744E+03  0.92206188744E+03  0.25500000920E-02 0.  1.
    10030    2    1    2    0    0  0.00000000000E+00  0.00000000000E+00  0.77222510668E+03  0.26163488816E+04  0.24997899621E+04 0.  0.
        1    1    3    3  502    0  0.83945304972E+03  0.15165665154E+02 -0.58297974882E+03  0.10221432422E+04  0.50400001928E-02 0.  1.
       -1    1    3    3    0  502 -0.83945304972E+03 -0.15165665154E+02  0.13552048555E+04  0.15942056393E+04  0.50400001928E-02 0. -1.
</event>
<event>
 5   0  0.1574896E-06  0.2492973E+04  0.7818609E-02  0.8405493E-01
        1   -1    0    0  501    0  0.00000000000E+00  0.00000000000E+00  0.21933391479E+04  0.21933391479E+04  0.50400001928E-02 0.  1.
       -1   -1    0    0    0  501  0.00000000000E+00  0.00000000000E+00 -0.70838520689E+03  0.70838520691E+03  0.50400001928E-02 0. -1.
    10030    2    1    2    0    0  0.00000000000E+00  0.00000000000E+00  0.14849539410E+04  0.29017243548E+04  0.24929733300E+04 0.  0.
        3    1    3    3  502    0  0.87725582239E+03  0.76536869236E+03  0.12608802529E+04  0.17161544323E+04  0.10100000352E+00 0.  1.
       -3    1    3    3    0  502 -0.87725582239E+03 -0.76536869236E+03  0.22407368807E+03  0.11855699225E+04  0.10100000352E+00 0. -1.
</event>
<event>
 5   0  0.1501747E-06  0.2499267E+04  0.7818609E-02  0.8403247E-01
       -1   -1    0    0    0  501  0.00000000000E+00  0.00000000000E+00  0.87621256162E+03  0.87621256163E+03  0.50400001928E-02 0.  1.
        1   -1    0    0  501    0  0.00000000000E+00  0.00000000000E+00 -0.17821973266E+04  0.17821973266E+04  0.50400001928E-02 0. -1.
    10030    2    1    2    0    0  0.00000000000E+00  0.00000000000E+00 -0.90598476499E+03  0.26584098882E+04  0.24992668404E+04 0.  0.
        2    1    3    3  502    0  0.25714812579E+03  0.74561709330E+03  0.57801285096E+03  0.97783887440E+03  0.25500000920E-02 0.  1.
       -2    1    3    3    0  502 -0.25714812579E+03 -0.74561709330E+03 -0.14839976159E+04  0.16805710138E+04  0.25500000920E-02 0. -1.
</event>
<event>
 5   0  0.1519145E-06  0.2499198E+04  0.7818609E-02  0.8403271E-01
        1   -1    0    0  501    0  0.00000000000E+00  0.00000000000E+00  0.12127455799E+04  0.12127455800E+04  0.50400001928E-02 0.  1.
       -1   -1    0    0    0  501  0.00000000000E+00  0.00000000000E+00 -0.12875725908E+04  0.12875725908E+04  0.50400001928E-02 0. -1.
    10030    2    1    2    0    0  0.00000000000E+00  0.00000000000E+00 -0.74827010839E+02  0.25003181708E+04  0.24991982461E+04 0.  0.
        4    1    3    3  502    0 -0.10105856327E+04 -0.70626809177E+03 -0.24097069066E+03  0.12562509404E+04  0.12699999809E+01 0. -1.
       -4    1    3    3    0  502  0.10105856327E+04  0.70626809177E+03  0.16614367982E+03  0.12440672304E+04  0.12699999809E+01 0.  1.
</event>
<event>
 5   0  0.1519145E-06  0.2517006E+04  0.7818609E-02  0.8396952E-01
       -1   -1    0    0    0  501  0.00000000000E+00  0.00000000000E+00  0.73200240162E+03  0.73200240164E+03  0.50400001928E-02 0. -1.
        1   -1    0    0  501    0  0.00000000000E+00  0.00000000000E+00 -0.21636948281E+04  0.21636948281E+04  0.50400001928E-02 0.  1.
    10030    2    1    2    0    0  0.00000000000E+00  0.00000000000E+00 -0.14316924265E+04  0.28956972298E+04  0.25170060076E+04 0.  0.
        4    1    3    3  502    0  0.18269074007E+03 -0.77717264508E+03  0.40338258649E+03  0.89447881515E+03  0.12699999809E+01 0. -1.
       -4    1    3    3    0  502 -0.18269074007E+03  0.77717264508E+03 -0.18350750130E+04  0.20012184146E+04  0.12699999809E+01 0.  1.
</event>
<event>
 5   0  0.1553604E-06  0.2503441E+04  0.7818609E-02  0.8401761E-01
       -1   -1    0    0    0  501  0.00000000000E+00  0.00000000000E+00  0.77808885064E+03  0.77808885066E+03  0.50400001928E-02 0.  1.
        1   -1    0    0  501    0  0.00000000000E+00  0.00000000000E+00 -0.20136577874E+04  0.20136577874E+04  0.50400001928E-02 0. -1.
    10030    2    1    2    0    0  0.00000000000E+00  0.00000000000E+00 -0.12355689367E+04  0.27917466380E+04  0.25034413701E+04 0.  0.
        1    1    3    3  502    0 -0.62047409362E+03  0.80314563332E+03  0.19923833298E+03  0.10342760379E+04  0.50400001928E-02 0.  1.
       -1    1    3    3    0  502  0.62047409362E+03 -0.80314563332E+03 -0.14348072697E+04  0.17574706002E+04  0.50400001928E-02 0. -1.
</event>
<event>
 5   0  0.1574896E-06  0.2509570E+04  0.7818609E-02  0.8399584E-01
       -1   -1    0    0    0  501  0.00000000000E+00  0.00000000000E+00  0.17953368750E+04  0.17953368750E+04  0.50400001928E-02 0. -1.
        1   -1    0    0  501    0  0.00000000000E+00  0.00000000000E+00 -0.87698597199E+03  0.87698597201E+03  0.50400001928E-02 0.  1.
    10030    2    1    2    0    0  0.00000000000E+00  0.00000000000E+00  0.91835090302E+03  0.26723228470E+04  0.25095698870E+04 0.  0.
        3    1    3    3  502    0 -0.26588944819E+03 -0.11960504643E+04  0.17097318341E+03  0.12371199423E+04  0.10100000352E+00 0. -1.
       -3    1    3    3    0  502  0.26588944819E+03  0.11960504643E+04  0.74737771961E+03  0.14352029048E+04  0.10100000352E+00 0.  1.
</event>
<event>
 5   0  0.1519145E-06  0.2502849E+04  0.7818609E-02  0.8401971E-01
       -1   -1    0    0    0  501  0.00000000000E+00  0.00000000000E+00  0.13435091805E+04  0.13435091805E+04  0.50400001928E-02 0. -1.
        1   -1    0    0  501    0  0.00000000000E+00  0.00000000000E+00 -0.11656513040E+04  0.11656513040E+04  0.50400001928E-02 0.  1.
    10030    2    1    2    0    0  0.00000000000E+00  0.00000000000E+00  0.17785787645E+03  0.25091604845E+04  0.25028489593E+04 0.  0.
        4    1    3    3  502    0 -0.40317040048E+03 -0.90383441599E+03  0.85675757553E+03  0.13090065620E+04  0.12699999809E+01 0. -1.
       -4    1    3    3    0  502  0.40317040048E+03  0.90383441599E+03 -0.67889969908E+03  0.12001539225E+04  0.12699999809E+01 0.  1.
</event>
<event>
 5   0  0.3814260E-06  0.2500386E+04  0.7818609E-02  0.8402848E-01
        2   -1    0    0  501    0  0.00000000000E+00  0.00000000000E+00  0.24957899744E+04  0.24957899744E+04  0.25500000920E-02 0.  1.
       -2   -1    0    0    0  501  0.00000000000E+00  0.00000000000E+00 -0.62624766354E+03  0.62624766355E+03  0.25500000920E-02 0. -1.
    10030    2    1    2    0    0  0.00000000000E+00  0.00000000000E+00  0.18695423109E+04  0.31220376380E+04  0.25003860823E+04 0.  0.
        5    1    3    3  502    0  0.12294025787E+04 -0.15946164317E+03  0.73304297402E+03  0.14402197082E+04  0.46999998093E+01 0. -1.
       -5    1    3    3    0  502 -0.12294025787E+04  0.15946164317E+03  0.11364993368E+04  0.16818179297E+04  0.46999998093E+01 0.  1.
</event>
<event>
 5   0  0.1501747E-06  0.2505919E+04  0.7818609E-02  0.8400880E-01
        1   -1    0    0  501    0  0.00000000000E+00  0.00000000000E+00  0.19129557282E+04  0.19129557282E+04  0.50400001928E-02 0.  1.
       -1   -1    0    0    0  501  0.00000000000E+00  0.00000000000E+00 -0.82067135835E+03  0.82067135837E+03  0.50400001928E-02 0. -1.
    10030    2    1    2    0    0  0.00000000000E+00  0.00000000000E+00  0.10922843699E+04  0.27336270866E+04  0.25059193730E+04 0.  0.
        2    1    3    3  502    0  0.41715333670E+03 -0.68733464398E+03 -0.50214850055E+03  0.94794458474E+03  0.25500000920E-02 0. -1.
       -2    1    3    3    0  502 -0.41715333670E+03  0.68733464398E+03  0.15944328704E+04  0.17856825018E+04  0.25500000920E-02 0.  1.
</event>
<event>
 5   0  0.1574896E-06  0.2499825E+04  0.7818609E-02  0.8403048E-01
        1   -1    0    0  501    0  0.00000000000E+00  0.00000000000E+00  0.11685099295E+04  0.11685099295E+04  0.50400001928E-02 0. -1.
       -1   -1    0    0    0  501  0.00000000000E+00  0.00000000000E+00 -0.13369856971E+04  0.13369856971E+04  0.50400001928E-02 0.  1.
    10030    2    1    2    0    0  0.00000000000E+00  0.00000000000E+00 -0.16847576760E+03  0.25054956266E+04  0.24998248440E+04 0.  0.
        3    1    3    3  502    0  0.11701662649E+04  0.36141209135E+03 -0.33455082838E+03  0.12695794793E+04  0.10100000352E+00 0. -1.
       -3    1    3    3    0  502 -0.11701662649E+04 -0.36141209135E+03  0.16607506078E+03  0.12359161473E+04  0.10100000352E+00 0.  1.
</event>
<event>
 5   0  0.1501747E-06  0.2499386E+04  0.7818609E-02  0.8403204E-01
        1   -1    0    0  501    0  0.00000000000E+00  0.00000000000E+00  0.16318039836E+04  0.16318039836E+04  0.50400001928E-02 0.  1.
       -1   -1    0    0    0  501  0.00000000000E+00  0.00000000000E+00 -0.95705860229E+03  0.95705860231E+03  0.50400001928E-02 0. -1.
    10030    2    1    2    0    0  0.00000000000E+00  0.00000000000E+00  0.67474538127E+03  0.25888625859E+04  0.24993855563E+04 0.  0.
        2    1    3    3  502    0  0.35850379019E+03  0.83078346456E+03  0.12302090680E+04  0.15271347300E+04  0.25500000920E-02 0.  1.
       -2    1    3    3    0  502 -0.35850379019E+03 -0.83078346456E+03 -0.55546368677E+03  0.10617278558E+04  0.25500000920E-02 0. -1.
</event>
<event>
 5   0  0.3808293E-06  0.2495632E+04  0.7818609E-02  0.8404543E-01
       -2   -1    0    0    0  501  0.00000000000E+00  0.00000000000E+00  0.13949815351E+04  0.13949815351E+04  0.25500000920E-02 0. -1.
        2   -1    0    0  501    0  0.00000000000E+00  0.00000000000E+00 -0.11161761598E+04  0.11161761598E+04  0.25500000920E-02 0.  1.
    10030    2    1    2    0    0  0.00000000000E+00  0.00000000000E+00  0.27880537532E+03  0.25111576949E+04  0.24956322909E+04 0.  0.
        1    1    3    3  502    0 -0.66960308082E+02  0.12241249273E+04  0.37339962594E+03  0.12815587388E+04  0.50400001928E-02 0.  1.
       -1    1    3    3    0  502  0.66960308082E+02 -0.12241249273E+04 -0.94594250622E+02  0.12295989560E+04  0.50400001928E-02 0. -1.
</event>
<event>
 5   0  0.1553604E-06  0.2497771E+04  0.7818609E-02  0.8403780E-01
        1   -1    0    0  501    0  0.00000000000E+00  0.00000000000E+00  0.17277950431E+04  0.17277950431E+04  0.50400001928E-02 0.  1.
       -1   -1    0    0    0  501  0.00000000000E+00  0.00000000000E+00 -0.90271971055E+03  0.90271971056E+03  0.50400001928E-02 0. -1.
    10030    2    1    2    0    0  0.00000000000E+00  0.00000000000E+00  0.82507533255E+03  0.26305147537E+04  0.24977707190E+04 0.  0.
        1    1    3    3  502    0  0.95709471199E+02 -0.10850388425E+04  0.10559438039E+04  0.15170652292E+04  0.50400001928E-02 0.  1.
       -1    1    3    3    0  502 -0.95709471199E+02  0.10850388425E+04 -0.23086847137E+03  0.11134495245E+04  0.50400001928E-02 0. -1.
</event>
<event>
 5   0  0.3924441E-06  0.2484043E+04  0.7818609E-02  0.8408693E-01
        2   -1    0    0  501    0  0.00000000000E+00  0.00000000000E+00  0.15934948436E+04  0.15934948436E+04  0.25500000920E-02 0. -1.
       -2   -1    0    0    0  501  0.00000000000E+00  0.00000000000E+00 -0.96807152796E+03  0.96807152796E+03  0.25500000920E-02 0.  1.
    10030    2    1    2    0    0  0.00000000000E+00  0.00000000000E+00  0.62542331565E+03  0.25615663716E+04  0.24840426631E+04 0.  0.
        2    1    3    3  502    0  0.11695069873E+04 -0.20400737195E+03 -0.63716785351E+02  0.11888756999E+04  0.25500000920E-02 0.  1.
       -2    1    3    3    0  502 -0.11695069873E+04  0.20400737195E+03  0.68914010100E+03  0.13726906716E+04  0.25500000920E-02 0. -1.
</event>
<event>
 5   0  0.1287375E-06  0.2508765E+04  0.7818609E-02  0.8399869E-01
       -3   -1    0    0    0  501  0.00000000000E+00  0.00000000000E+00  0.12345360688E+04  0.12345360730E+04  0.10100000352E+00 0.  1.
        3   -1    0    0  501    0  0.00000000000E+00  0.00000000000E+00 -0.12745483182E+04  0.12745483223E+04  0.10100000352E+00 0. -1.
    10030    2    1    2    0    0  0.00000000000E+00  0.00000000000E+00 -0.40012249412E+02  0.25090843952E+04  0.25087653382E+04 0.  0.
        4    1    3    3  502    0  0.26689589256E+03  0.42920929568E+03 -0.11682027522E+04  0.12728524346E+04  0.12699999809E+01 0. -1.
       -4    1    3    3    0  502 -0.26689589256E+03 -0.42920929568E+03  0.11281905028E+04  0.12362319606E+04  0.12699999809E+01 0.  1.
</event>
<event>
 5   0  0.1553604E-06  0.2500369E+04  0.7818609E-02  0.8402854E-01
       -1   -1    0    0    0  501  0.00000000000E+00  0.00000000000E+00  0.11993587848E+04  0.11993587848E+04  0.50400001928E-02 0.  1.
        1   -1    0    0  501    0  0.00000000000E+00  0.00000000000E+00 -0.13031643026E+04  0.13031643026E+04  0.50400001928E-02 0. -1.
    10030    2    1    2    0    0  0.00000000000E+00  0.00000000000E+00 -0.10380551776E+03  0.25025230874E+04  0.25003692163E+04 0.  0.
        1    1    3    3  502    0  0.45046470132E+03  0.11661377973E+04 -0.39017470360E+02  0.12507270575E+04  0.50400001928E-02 0. -1.
       -1    1    3    3    0  502 -0.45046470132E+03 -0.11661377973E+04 -0.64788047396E+02  0.12517960299E+04  0.50400001928E-02 0.  1.
</event>
<event>
 5   0  0.1574896E-06  0.2500023E+04  0.7818609E-02  0.8402977E-01
        1   -1    0    0  501    0  0.00000000000E+00  0.00000000000E+00  0.17347585174E+04  0.17347585174E+04  0.50400001928E-02 0. -1.
       -1   -1    0    0    0  501  0.00000000000E+00  0.00000000000E+00 -0.90071857677E+03  0.90071857679E+03  0.50400001928E-02 0.  1.
    10030    2    1    2    0    0  0.00000000000E+00  0.00000000000E+00  0.83403994059E+03  0.26354770942E+04  0.25000233782E+04 0.  0.
        3    1    3    3  502    0 -0.48171948054E+03 -0.16418831234E+03  0.16205963366E+04  0.16986300233E+04  0.10100000352E+00 0. -1.
       -3    1    3    3    0  502  0.48171948054E+03  0.16418831234E+03 -0.78655639599E+03  0.93684707082E+03  0.10100000352E+00 0.  1.
</event>
<event>
 5   0  0.3713394E-06  0.2497191E+04  0.7818609E-02  0.8403987E-01
        2   -1    0    0  501    0  0.00000000000E+00  0.00000000000E+00  0.18264040314E+04  0.18264040314E+04  0.25500000920E-02 0.  1.
       -2   -1    0    0    0  501  0.00000000000E+00  0.00000000000E+00 -0.85358454094E+03  0.85358454094E+03  0.25500000920E-02 0. -1.
    10030    2    1    2    0    0  0.00000000000E+00  0.00000000000E+00  0.97281949044E+03  0.26799885723E+04  0.24971906188E+04 0.  0.
        3    1    3    3  502    0 -0.35732623302E+03  0.93410043529E+03 -0.31581430969E+03  0.10487918518E+04  0.10100000352E+00 0. -1.
       -3    1    3    3    0  502  0.35732623302E+03 -0.93410043529E+03  0.12886338001E+04  0.16311967205E+04  0.10100000352E+00 0.  1.
</event>
<event>
 5   0  0.3971759E-06  0.2499441E+04  0.7818609E-02  0.8403185E-01
       -2   -1    0    0    0  501  0.00000000000E+00  0.00000000000E+00  0.10444481319E+04  0.10444481320E+04  0.25500000920E-02 0. -1.
        2   -1    0    0  501    0  0.00000000000E+00  0.00000000000E+00 -0.14953368899E+04  0.14953368899E+04  0.25500000920E-02 0.  1.
    10030    2    1    2    0    0  0.00000000000E+00  0.00000000000E+00 -0.45088875793E+03  0.25397850218E+04  0.24994413946E+04 0.  0.
        4    1    3    3  502    0 -0.43050480482E+03 -0.31320966785E+01  0.96671732810E+03  0.10582477037E+04  0.12699999809E+01 0. -1.
       -4    1    3    3    0  502  0.43050480482E+03  0.31320966785E+01 -0.14176060860E+04  0.14815373181E+04  0.12699999809E+01 0.  1.
</event>
<event>
 5   0  0.1553604E-06  0.2501167E+04  0.7818609E-02  0.8402570E-01
        1   -1    0    0  501    0  0.00000000000E+00  0.00000000000E+00  0.97167831702E+03  0.97167831703E+03  0.50400001928E-02 0.  1.
       -1   -1    0    0    0  501  0.00000000000E+00  0.00000000000E+00 -0.16095434876E+04  0.16095434876E+04  0.50400001928E-02 0. -1.
    10030    2    1    2    0    0  0.00000000000E+00  0.00000000000E+00 -0.63786517057E+03  0.25812218046E+04  0.25011665336E+04 0.  0.
        1    1    3    3  502    0  0.35029085836E+03 -0.78311528201E+03  0.62012888801E+03  0.10585523455E+04  0.50400001928E-02 0.  1.
       -1    1    3    3    0  502 -0.35029085836E+03  0.78311528201E+03 -0.12579940586E+04  0.15226694591E+04  0.50400001928E-02 0. -1.
</event>
<event>
 5   0  0.1541852E-06  0.2502068E+04  0.7818609E-02  0.8402249E-01
       -1   -1    0    0    0  501  0.00000000000E+00  0.00000000000E+00  0.10222664747E+04  0.10222664747E+04  0.50400001928E-02 0.  1.
        1   -1    0    0  501    0  0.00000000000E+00  0.00000000000E+00 -0.15309958647E+04  0.15309958647E+04  0.50400001928E-02 0. -1.
    10030    2    1    2    0    0  0.00000000000E+00  0.00000000000E+00 -0.50872939008E+03  0.25532623394E+04  0.25020677412E+04 0.  0.
        5    1    3    3  502    0 -0.64108571594E+03  0.10705681415E+04 -0.16333972647E+03  0.12584947346E+04  0.46999998093E+01 0.  1.
       -5    1    3    3    0  502  0.64108571594E+03 -0.10705681415E+04 -0.34538966360E+03  0.12947676048E+04  0.46999998093E+01 0. -1.
</event>
<event>
 5   0  0.3713394E-06  0.2495380E+04  0.7818609E-02  0.8404633E-01
       -2   -1    0    0    0  501  0.00000000000E+00  0.00000000000E+00  0.95925684261E+03  0.95925684262E+03  0.25500000920E-02 0. -1.
        2   -1    0    0  501    0  0.00000000000E+00  0.00000000000E+00 -0.16228499378E+04  0.16228499378E+04  0.25500000920E-02 0.  1.
    10030    2    1    2    0    0  0.00000000000E+00  0.00000000000E+00 -0.66359309518E+03  0.25821067804E+04  0.24953796564E+04 0.  0.
        3    1    3    3  502    0 -0.11782830488E+04  0.22747034228E+03 -0.68518653791E+03  0.13818734753E+04  0.10100000352E+00 0.  1.
       -3    1    3    3    0  502  0.11782830488E+04 -0.22747034228E+03  0.21593442734E+02  0.12002333051E+04  0.10100000352E+00 0. -1.
</event>
<event>
 5   0  0.1519145E-06  0.2490296E+04  0.7818609E-02  0.8406451E-01
        1   -1    0    0  501    0  0.00000000000E+00  0.00000000000E+00  0.11001869062E+04  0.11001869062E+04  0.50400001928E-02 0.  1.
       -1   -1    0    0    0  501  0.00000000000E+00  0.00000000000E+00 -0.14092094579E+04  0.14092094579E+04  0.50400001928E-02 0. -1.
    10030    2    1    2    0    0  0.00000000000E+00  0.00000000000E+00 -0.30902255170E+03  0.25093963642E+04  0.24902962023E+04 0.  0.
        4    1    3    3  502    0  0.11487333873E+04  0.21452539335E+03 -0.58767177297E+03  0.13080402384E+04  0.12699999809E+01 0. -1.
       -4    1    3    3    0  502 -0.11487333873E+04 -0.21452539335E+03  0.27864922128E+03  0.12013561258E+04  0.12699999809E+01 0.  1.
</event>
<event>
 5   0  0.3713394E-06  0.2501257E+04  0.7818609E-02  0.8402538E-01
       -2   -1    0    0    0  501  0.00000000000E+00  0.00000000000E+00  0.10909735247E+04  0.10909735247E+04  0.25500000920E-02 0. -1.
        2   -1    0    0  501    0  0.00000000000E+00  0.00000000000E+00 -0.14336473301E+04  0.14336473301E+04  0.25500000920E-02 0.  1.
    10030    2    1    2    0    0  0.00000000000E+00  0.00000000000E+00 -0.34267380536E+03  0.25246208548E+04  0.25012567089E+04 0.  0.
        3    1    3    3  502    0  0.38688529973E+03 -0.10685632163E+03  0.10241987134E+04  0.11000370555E+04  0.10100000352E+00 0. -1.
       -3    1    3    3    0  502 -0.38688529973E+03  0.10685632163E+03 -0.13668725188E+04  0.14245837994E+04  0.10100000352E+00 0.  1.
</event>
<event>
 5   0  0.1287375E-06  0.2500625E+04  0.7818609E-02  0.8402763E-01
       -3   -1    0    0    0  501  0.00000000000E+00  0.00000000000E+00  0.21052331192E+04  0.21052331216E+04  0.10100000352E+00 0. -1.
        3   -1    0    0  501    0  0.00000000000E+00  0.00000000000E+00 -0.74256941072E+03  0.74256941759E+03  0.10100000352E+00 0.  1.
    10030    2    1    2    0    0  0.00000000000E+00  0.00000000000E+00  0.13626637085E+04  0.28478025392E+04  0.25006253058E+04 0.  0.
        2    1    3    3  502    0  0.51860914793E+03  0.14786334608E+03  0.19659787847E+04  0.20386004021E+04  0.25500000920E-02 0. -1.
       -2    1    3    3    0  502 -0.51860914793E+03 -0.14786334608E+03 -0.60331507627E+03  0.80920213710E+03  0.25500000920E-02 0.  1.
</event>
<event>
 5   0  0.1501747E-06  0.2502095E+04  0.7818609E-02  0.8402240E-01
        1   -1    0    0  501    0  0.00000000000E+00  0.00000000000E+00  0.15835333690E+04  0.15835333690E+04  0.50400001928E-02 0. -1.
       -1   -1    0    0    0  501  0.00000000000E+00  0.00000000000E+00 -0.98837155138E+03  0.98837155139E+03  0.50400001928E-02 0.  1.
    10030    2    1    2    0    0  0.00000000000E+00  0.00000000000E+00  0.59516181762E+03  0.25719049204E+04  0.25020945886E+04 0.  0.
        2    1    3    3  502    0 -0.68949717324E+03  0.16568149456E+03 -0.76183657512E+03  0.10407937724E+04  0.25500000920E-02 0.  1.
       -2    1    3    3    0  502  0.68949717324E+03 -0.16568149456E+03  0.13569983927E+04  0.15311111480E+04  0.25500000920E-02 0. -1.
</event>
<event>
 5   0  0.3814260E-06  0.2500204E+04  0.7818609E-02  0.8402913E-01
       -2   -1    0    0    0  501  0.00000000000E+00  0.00000000000E+00  0.13043367896E+04  0.13043367896E+04  0.25500000920E-02 0. -1.
        2   -1    0    0  501    0  0.00000000000E+00  0.00000000000E+00 -0.11981219533E+04  0.11981219533E+04  0.25500000920E-02 0.  1.
    10030    2    1    2    0    0  0.00000000000E+00  0.00000000000E+00  0.10621483638E+03  0.25024587429E+04  0.25002036254E+04 0.  0.
        5    1    3    3  502    0 -0.36307697332E+03 -0.34779347823E+03 -0.10924541914E+04  0.12026069359E+04  0.46999998093E+01 0.  1.
       -5    1    3    3    0  502  0.36307697332E+03  0.34779347823E+03  0.11986690278E+04  0.12998518070E+04  0.46999998093E+01 0. -1.
</event>
<event>
 5   0  0.1553604E-06  0.2498674E+04  0.7818609E-02  0.8403458E-01
       -1   -1    0    0    0  501  0.00000000000E+00  0.00000000000E+00  0.15465022462E+04  0.15465022462E+04  0.50400001928E-02 0. -1.
        1   -1    0    0  501    0  0.00000000000E+00  0.00000000000E+00 -0.10092733265E+04  0.10092733266E+04  0.50400001928E-02 0.  1.
    10030    2    1    2    0    0  0.00000000000E+00  0.00000000000E+00  0.53722891962E+03  0.25557755727E+04  0.24986744218E+04 0.  0.
        1    1    3    3  502    0 -0.63678167968E+03  0.26238027821E+03 -0.79756359121E+03  0.10537751183E+04  0.50400001928E-02 0.  1.
       -1    1    3    3    0  502  0.63678167968E+03 -0.26238027821E+03  0.13347925108E+04  0.15020004544E+04  0.50400001928E-02 0. -1.
</event>
<event>
 5   0  0.1553604E-06  0.2497054E+04  0.7818609E-02  0.8404036E-01
       -1   -1    0    0    0  501  0.00000000000E+00  0.00000000000E+00  0.10487223021E+04  0.10487223021E+04  0.50400001928E-02 0. -1.
        1   -1    0    0  501    0  0.00000000000E+00  0.00000000000E+00 -0.14863994344E+04  0.14863994344E+04  0.50400001928E-02 0.  1.
    10030    2    1    2    0    0  0.00000000000E+00  0.00000000000E+00 -0.43767713227E+03  0.25351217365E+04  0.24970544541E+04 0.  0.
        1    1    3    3  502    0  0.61761573466E+03  0.10324442047E+04  0.12006167752E+03  0.12090512967E+04  0.50400001928E-02 0. -1.
       -1    1    3    3    0  502 -0.61761573466E+03 -0.10324442047E+04 -0.55773880979E+03  0.13260704399E+04  0.50400001928E-02 0.  1.
</event>
<event>
 5   0  0.3814260E-06  0.2499486E+04  0.7818609E-02  0.8403169E-01
        2   -1    0    0  501    0  0.00000000000E+00  0.00000000000E+00  0.75064293249E+03  0.75064293249E+03  0.25500000920E-02 0. -1.
       -2   -1    0    0    0  501  0.00000000000E+00  0.00000000000E+00 -0.20806934917E+04  0.20806934917E+04  0.25500000920E-02 0.  1.
    10030    2    1    2    0    0  0.00000000000E+00  0.00000000000E+00 -0.13300505592E+04  0.28313364242E+04  0.24994862386E+04 0.  0.
        5    1    3    3  502    0 -0.77427478567E+03 -0.75294618084E+03 -0.13773246523E+04  0.17502784587E+04  0.46999998093E+01 0.  1.
       -5    1    3    3    0  502  0.77427478567E+03  0.75294618084E+03  0.47274093116E+02  0.10810579655E+04  0.46999998093E+01 0. -1.
</event>
<event>
 5   0  0.1519145E-06  0.2497992E+04  0.7818609E-02  0.8403701E-01
       -1   -1    0    0    0  501  0.00000000000E+00  0.00000000000E+00  0.12334907941E+04  0.12334907941E+04  0.50400001928E-02 0.  1.
        1   -1    0    0  501    0  0.00000000000E+00  0.00000000000E+00 -0.12646964953E+04  0.12646964953E+04  0.50400001928E-02 0. -1.
    10030    2    1    2    0    0  0.00000000000E+00  0.00000000000E+00 -0.31205701225E+02  0.24981872894E+04  0.24979923814E+04 0.  0.
        4    1    3    3  502    0 -0.41351149342E+03  0.35497093316E+03  0.11083147856E+04  0.12350544099E+04  0.12699999809E+01 0.  1.
       -4    1    3    3    0  502  0.41351149342E+03 -0.35497093316E+03 -0.11395204868E+04  0.12631328795E+04  0.12699999809E+01 0. -1.
</event>
<event>
 5   0  0.1553604E-06  0.2502406E+04  0.7818609E-02  0.8402129E-01
       -1   -1    0    0    0  501  0.00000000000E+00  0.00000000000E+00  0.87672774849E+03  0.87672774850E+03  0.50400001928E-02 0. -1.
        1   -1    0    0  501    0  0.00000000000E+00  0.00000000000E+00 -0.17856270884E+04  0.17856270884E+04  0.50400001928E-02 0.  1.
    10030    2    1    2    0    0  0.00000000000E+00  0.00000000000E+00 -0.90889933991E+03  0.26623548369E+04  0.25024058958E+04 0.  0.
        1    1    3    3  502    0 -0.56779008211E+02  0.85821326222E+03 -0.14212432944E+04  0.16612303757E+04  0.50400001928E-02 0.  1.
       -1    1    3    3    0  502  0.56779008211E+02 -0.85821326222E+03  0.51234395445E+03  0.10011244612E+04  0.50400001928E-02 0. -1.
</event>
<event>
 5   0  0.3814260E-06  0.2493035E+04  0.7818609E-02  0.8405471E-01
        2   -1    0    0  501    0  0.00000000000E+00  0.00000000000E+00  0.14321807630E+04  0.14321807630E+04  0.25500000920E-02 0.  1.
       -2   -1    0    0    0  501  0.00000000000E+00  0.00000000000E+00 -0.10849227230E+04  0.10849227230E+04  0.25500000920E-02 0. -1.
    10030    2    1    2    0    0  0.00000000000E+00  0.00000000000E+00  0.34725804002E+03  0.25171034860E+04  0.24930346593E+04 0.  0.
        5    1    3    3  502    0 -0.74688453203E+03  0.88318705622E+03 -0.29553717876E+03  0.11938258644E+04  0.46999998093E+01 0. -1.
       -5    1    3    3    0  502  0.74688453203E+03 -0.88318705622E+03  0.64279521878E+03  0.13232776216E+04  0.46999998093E+01 0.  1.
</event>
<event>
 5   0  0.1541852E-06  0.2516163E+04  0.7818609E-02  0.8397250E-01
       -1   -1    0    0    0  501  0.00000000000E+00  0.00000000000E+00  0.16009703255E+04  0.16009703255E+04  0.50400001928E-02 0. -1.
        1   -1    0    0  501    0  0.00000000000E+00  0.00000000000E+00 -0.98863131745E+03  0.98863131746E+03  0.50400001928E-02 0.  1.
    10030    2    1    2    0    0  0.00000000000E+00  0.00000000000E+00  0.61233900802E+03  0.25896016429E+04  0.25161632714E+04 0.  0.
        5    1    3    3  502    0 -0.83698551126E+03 -0.29738717436E+03 -0.61076789735E+03  0.10779811649E+04  0.46999998093E+01 0.  1.
       -5    1    3    3    0  502  0.83698551126E+03  0.29738717436E+03  0.12231069054E+04  0.15116204780E+04  0.46999998093E+01 0. -1.
</event>
<event>
 5   0  0.3713394E-06  0.2498305E+04  0.7818609E-02  0.8403590E-01
       -2   -1    0    0    0  501  0.00000000000E+00  0.00000000000E+00  0.81428252570E+03  0.81428252570E+03  0.25500000920E-02 0.  1.
        2   -1    0    0  501    0  0.00000000000E+00  0.00000000000E+00 -0.19162666041E+04  0.19162666041E+04  0.25500000920E-02 0. -1.
    10030    2    1    2    0    0  0.00000000000E+00  0.00000000000E+00 -0.11019840784E+04  0.27305491298E+04  0.24983053539E+04 0.  0.
        3    1    3    3  502    0 -0.11176262597E+04  0.35372990722E+03 -0.79408897023E+02  0.11749549297E+04  0.10100000352E+00 0.  1.
       -3    1    3    3    0  502  0.11176262597E+04 -0.35372990722E+03 -0.10225751814E+04  0.15555942001E+04  0.10100000352E+00 0. -1.
</event>
<event>
 5   0  0.1501747E-06  0.2497912E+04  0.7818609E-02  0.8403730E-01
       -1   -1    0    0    0  501  0.00000000000E+00  0.00000000000E+00  0.18052173257E+04  0.18052173257E+04  0.50400001928E-02 0.  1.
        1   -1    0    0  501    0  0.00000000000E+00  0.00000000000E+00 -0.86410121906E+03  0.86410121907E+03  0.50400001928E-02 0. -1.
    10030    2    1    2    0    0  0.00000000000E+00  0.00000000000E+00  0.94111610663E+03  0.26693185448E+04  0.24979115211E+04 0.  0.
        2    1    3    3  502    0 -0.79910286021E+03 -0.72431153177E+03 -0.20250121930E+03  0.10973601597E+04  0.25500000920E-02 0. -1.
       -2    1    3    3    0  502  0.79910286021E+03  0.72431153177E+03  0.11436173259E+04  0.15719583851E+04  0.25500000920E-02 0.  1.
</event>
<event>
 5   0  0.1519145E-06  0.2489905E+04  0.7818609E-02  0.8406591E-01
        1   -1    0    0  501    0  0.00000000000E+00  0.00000000000E+00  0.25825725017E+04  0.25825725017E+04  0.50400001928E-02 0.  1.
       -1   -1    0    0    0  501  0.00000000000E+00  0.00000000000E+00 -0.60014053722E+03  0.60014053724E+03  0.50400001928E-02 0. -1.
    10030    2    1    2    0    0  0.00000000000E+00  0.00000000000E+00  0.19824319645E+04  0.31827130390E+04  0.24899047762E+04 0.  0.
        4    1    3    3  502    0 -0.90892807901E+03  0.63728213980E+03  0.27081747061E+03  0.11426383915E+04  0.12699999809E+01 0. -1.
       -4    1    3    3    0  502  0.90892807901E+03 -0.63728213980E+03  0.17116144939E+04  0.20400746474E+04  0.12699999809E+01 0.  1.
</event>
<event>
 5   0  0.1553604E-06  0.2499660E+04  0.7818609E-02  0.8403107E-01
        1   -1    0    0  501    0  0.00000000000E+00  0.00000000000E+00  0.16370444254E+04  0.16370444254E+04  0.50400001928E-02 0.  1.
       -1   -1    0    0    0  501  0.00000000000E+00  0.00000000000E+00 -0.95420439302E+03  0.95420439303E+03  0.50400001928E-02 0. -1.
    10030    2    1    2    0    0  0.00000000000E+00  0.00000000000E+00  0.68284003241E+03  0.25912488185E+04  0.24996599627E+04 0.  0.
        1    1    3    3  502    0 -0.46197749706E+03  0.11263652610E+04  0.63454022690E+03  0.13728667847E+04  0.50400001928E-02 0.  1.
       -1    1    3    3    0  502  0.46197749706E+03 -0.11263652610E+04  0.48299805514E+02  0.12183820338E+04  0.50400001928E-02 0. -1.
</event>
<event>
 5   0  0.1519145E-06  0.2502517E+04  0.7818609E-02  0.8402089E-01
        1   -1    0    0  501    0  0.00000000000E+00  0.00000000000E+00  0.13667211774E+04  0.13667211774E+04  0.50400001928E-02 0. -1.
       -1   -1    0    0    0  501  0.00000000000E+00  0.00000000000E+00 -0.11455505829E+04  0.11455505829E+04  0.50400001928E-02 0.  1.
    10030    2    1    2    0    0  0.00000000000E+00  0.00000000000E+00  0.22117059454E+03  0.25122717603E+04  0.25025173258E+04 0.  0.
        4    1    3    3  502    0  0.53215827360E+03  0.59275807102E+03 -0.85810698020E+03  0.11708559951E+04  0.12699999809E+01 0. -1.
       -4    1    3    3    0  502 -0.53215827360E+03 -0.59275807102E+03  0.10792775747E+04  0.13414157652E+04  0.12699999809E+01 0.  1.
</event>
<event>
 5   0  0.3924441E-06  0.2496631E+04  0.7818609E-02  0.8404187E-01
        2   -1    0    0  501    0  0.00000000000E+00  0.00000000000E+00  0.94628015600E+03  0.94628015601E+03  0.25500000920E-02 0. -1.
       -2   -1    0    0    0  501  0.00000000000E+00  0.00000000000E+00 -0.16467554990E+04  0.16467554990E+04  0.25500000920E-02 0.  1.
    10030    2    1    2    0    0  0.00000000000E+00  0.00000000000E+00 -0.70047534299E+03  0.25930356550E+04  0.24966313709E+04 0.  0.
        2    1    3    3  502    0 -0.92218689809E+03 -0.67029562341E+03 -0.87836755458E+03  0.14391853455E+04  0.25500000920E-02 0.  1.
       -2    1    3    3    0  502  0.92218689809E+03  0.67029562341E+03  0.17789221159E+03  0.11538503095E+04  0.25500000920E-02 0. -1.
</event>
<event>
 5   0  0.3808293E-06  0.2492990E+04  0.7818609E-02  0.8405487E-01
       -2   -1    0    0    0  501  0.00000000000E+00  0.00000000000E+00  0.81561185675E+03  0.81561185676E+03  0.25500000920E-02 0.  1.
        2   -1    0    0  501    0  0.00000000000E+00  0.00000000000E+00 -0.19050119491E+04  0.19050119491E+04  0.25500000920E-02 0. -1.
    10030    2    1    2    0    0  0.00000000000E+00  0.00000000000E+00 -0.10894000924E+04  0.27206238059E+04  0.24929904396E+04 0.  0.
        1    1    3    3  502    0 -0.42056547153E+03  0.18184736487E+03 -0.18097750017E+04  0.18668768938E+04  0.50400001928E-02 0. -1.
       -1    1    3    3    0  502  0.42056547153E+03 -0.18184736487E+03  0.72037490928E+03  0.85374691209E+03  0.50400001928E-02 0.  1.
</event>
<event>
 5   0  0.3713394E-06  0.2500588E+04  0.7818609E-02  0.8402776E-01
        2   -1    0    0  501    0  0.00000000000E+00  0.00000000000E+00  0.90019408630E+03  0.90019408630E+03  0.25500000920E-02 0. -1.
       -2   -1    0    0    0  501  0.00000000000E+00  0.00000000000E+00 -0.17365531956E+04  0.17365531956E+04  0.25500000920E-02 0.  1.
    10030    2    1    2    0    0  0.00000000000E+00  0.00000000000E+00 -0.83635910932E+03  0.26367472819E+04  0.25005878647E+04 0.  0.
        3    1    3    3  502    0  0.12925912686E+03  0.22100723601E+03 -0.17086150693E+04  0.17276914034E+04  0.10100000352E+00 0.  1.
       -3    1    3    3    0  502 -0.12925912686E+03 -0.22100723601E+03  0.87225595999E+03  0.90905587848E+03  0.10100000352E+00 0. -1.
</event>
<event>
 5   0  0.3808293E-06  0.2494356E+04  0.7818609E-02  0.8404999E-01
       -2   -1    0    0    0  501  0.00000000000E+00  0.00000000000E+00  0.15519777639E+04  0.15519777639E+04  0.25500000920E-02 0.  1.
        2   -1    0    0  501    0  0.00000000000E+00  0.00000000000E+00 -0.10022391497E+04  0.10022391497E+04  0.25500000920E-02 0. -1.
    10030    2    1    2    0    0  0.00000000000E+00  0.00000000000E+00  0.54973861420E+03  0.25542169136E+04  0.24943559285E+04 0.  0.
        1    1    3    3  502    0 -0.82391401062E+03  0.72076792386E+03  0.88679921785E+03  0.14088128157E+04  0.50400001928E-02 0.  1.
       -1    1    3    3    0  502  0.82391401062E+03 -0.72076792386E+03 -0.33706060366E+03  0.11454040979E+04  0.50400001928E-02 0. -1.
</event>
<event>
 5   0  0.3971759E-06  0.2499874E+04  0.7818609E-02  0.8403030E-01
       -2   -1    0    0    0  501  0.00000000000E+00  0.00000000000E+00  0.97091974589E+03  0.97091974589E+03  0.25500000920E-02 0. -1.
        2   -1    0    0  501    0  0.00000000000E+00  0.00000000000E+00 -0.16091372159E+04  0.16091372159E+04  0.25500000920E-02 0.  1.
    10030    2    1    2    0    0  0.00000000000E+00  0.00000000000E+00 -0.63821747004E+03  0.25800569618E+04  0.24998744743E+04 0.  0.
        4    1    3    3  502    0 -0.63125854510E+03  0.33328995325E+03  0.73984806323E+03  0.10280789431E+04  0.12699999809E+01 0. -1.
       -4    1    3    3    0  502  0.63125854510E+03 -0.33328995325E+03 -0.13780655333E+04  0.15519780187E+04  0.12699999809E+01 0.  1.
</event>
<event>
 5   0  0.1574896E-06  0.2499532E+04  0.7818609E-02  0.8403152E-01
       -1   -1    0    0    0  501  0.00000000000E+00  0.00000000000E+00  0.86243511015E+03  0.86243511016E+03  0.50400001928E-02 0.  1.
        1   -1    0    0  501    0  0.00000000000E+00  0.00000000000E+00 -0.18110521994E+04  0.18110521994E+04  0.50400001928E-02 0. -1.
    10030    2    1    2    0    0  0.00000000000E+00  0.00000000000E+00 -0.94861708929E+03  0.26734873096E+04  0.24995319587E+04 0.  0.
        3    1    3    3  502    0 -0.22174827601E+03 -0.89919930120E+03 -0.13718660799E+04  0.16552184849E+04  0.10100000352E+00 0. -1.
       -3    1    3    3    0  502  0.22174827601E+03  0.89919930120E+03  0.42324899062E+03  0.10182688248E+04  0.10100000352E+00 0.  1.
</event>
<event>
 5   0  0.1553604E-06  0.2489062E+04  0.7818609E-02  0.8406893E-01
        1   -1    0    0  501    0  0.00000000000E+00  0.00000000000E+00  0.95760839320E+03  0.95760839321E+03  0.50400001928E-02 0.  1.
       -1   -1    0    0    0  501  0.00000000000E+00  0.00000000000E+00 -0.16174228158E+04  0.16174228158E+04  0.50400001928E-02 0. -1.
    10030    2    1    2    0    0  0.00000000000E+00  0.00000000000E+00 -0.65981442263E+03  0.25750312090E+04  0.24890622040E+04 0.  0.
        1    1    3    3  502    0  0.18223352080E+02  0.74036419916E+03  0.70483136861E+03  0.10223788418E+04  0.50400001928E-02 0.  1.
       -1    1    3    3    0  502 -0.18223352080E+02 -0.74036419916E+03 -0.13646457912E+04  0.15526523672E+04  0.50400001928E-02 0. -1.
</event>
<event>
 5   0  0.1287375E-06  0.2479362E+04  0.7818609E-02  0.8410375E-01
        3   -1    0    0  501    0  0.00000000000E+00  0.00000000000E+00  0.21301213983E+04  0.21301214007E+04  0.10100000352E+00 0.  1.
       -3   -1    0    0    0  501  0.00000000000E+00  0.00000000000E+00 -0.72146572512E+03  0.72146573219E+03  0.10100000352E+00 0. -1.
    10030    2    1    2    0    0  0.00000000000E+00  0.00000000000E+00  0.14086556732E+04  0.28515871329E+04  0.24793624928E+04 0.  0.
        4    1    3    3  502    0 -0.11363401619E+02 -0.73170476448E+03  0.18551968741E+04  0.19943114210E+04  0.12699999809E+01 0.  1.
       -4    1    3    3    0  502  0.11363401619E+02  0.73170476448E+03 -0.44654120091E+03  0.85727571193E+03  0.12699999809E+01 0. -1.
</event>
<event>
 5   0  0.1553604E-06  0.2496492E+04  0.7818609E-02  0.8404236E-01
        1   -1    0    0  501    0  0.00000000000E+00  0.00000000000E+00  0.17168258035E+04  0.17168258035E+04  0.50400001928E-02 0. -1.
       -1   -1    0    0    0  501  0.00000000000E+00  0.00000000000E+00 -0.90755724444E+03  0.90755724446E+03  0.50400001928E-02 0.  1.
    10030    2    1    2    0    0  0.00000000000E+00  0.00000000000E+00  0.80926855902E+03  0.26243830479E+04  0.24964916947E+04 0.  0.
        1    1    3    3  502    0 -0.51979878283E+03 -0.32775923090E+03  0.15468029475E+04  0.16643966614E+04  0.50400001928E-02 0. -1.
       -1    1    3    3    0  502  0.51979878283E+03  0.32775923090E+03 -0.73753438848E+03  0.95998638652E+03  0.50400001928E-02 0.  1.
</event>
<event>
 5   0  0.1519145E-06  0.2503110E+04  0.7818609E-02  0.8401878E-01
       -1   -1    0    0    0  501  0.00000000000E+00  0.00000000000E+00  0.16925840874E+04  0.16925840874E+04  0.50400001928E-02 0.  1.
        1   -1    0    0  501    0  0.00000000000E+00  0.00000000000E+00 -0.92544307234E+03  0.92544307235E+03  0.50400001928E-02 0. -1.
    10030    2    1    2    0    0  0.00000000000E+00  0.00000000000E+00  0.76714101509E+03  0.26180271598E+04  0.25031102397E+04 0.  0.
        4    1    3    3  502    0  0.68797573367E+02 -0.12306047544E+04  0.61096251764E+03  0.13756445683E+04  0.12699999809E+01 0.  1.
       -4    1    3    3    0  502 -0.68797573367E+02  0.12306047544E+04  0.15617849745E+03  0.12423825914E+04  0.12699999809E+01 0. -1.
</event>
<event>
 5   0  0.1574896E-06  0.2490081E+04  0.7818609E-02  0.8406528E-01
       -1   -1    0    0    0  501  0.00000000000E+00  0.00000000000E+00  0.72700829802E+03  0.72700829803E+03  0.50400001928E-02 0.  1.
        1   -1    0    0  501    0  0.00000000000E+00  0.00000000000E+00 -0.21321982269E+04  0.21321982269E+04  0.50400001928E-02 0. -1.
    10030    2    1    2    0    0  0.00000000000E+00  0.00000000000E+00 -0.14051899289E+04  0.28592065249E+04  0.24900809657E+04 0.  0.
        3    1    3    3  502    0  0.34664554438E+03  0.11807007978E+04 -0.48500974100E+03  0.13226685021E+04  0.10100000352E+00 0. -1.
       -3    1    3    3    0  502 -0.34664554438E+03 -0.11807007978E+04 -0.92018018786E+03  0.15365380228E+04  0.10100000352E+00 0.  1.
</event>
<event>
 5   0  0.3971759E-06  0.2512266E+04  0.7818609E-02  0.8398629E-01
        2   -1    0    0  501    0  0.00000000000E+00  0.00000000000E+00  0.21380104361E+04  0.21380104361E+04  0.25500000920E-02 0. -1.
       -2   -1    0    0    0  501  0.00000000000E+00  0.00000000000E+00 -0.73800888487E+03  0.73800888487E+03  0.25500000920E-02 0.  1.
    10030    2    1    2    0    0  0.00000000000E+00  0.00000000000E+00  0.14000015512E+04  0.28760193210E+04  0.25122664650E+04 0.  0.
        4    1    3    3  502    0  0.91903862178E+03 -0.59763390829E+03 -0.20376923714E+01  0.10962682344E+04  0.12699999809E+01 0.  1.
       -4    1    3    3    0  502 -0.91903862178E+03  0.59763390829E+03  0.14020392436E+04  0.17797510866E+04  0.12699999809E+01 0. -1.
</event>
<event>
 5   0  0.1501747E-06  0.2503730E+04  0.7818609E-02  0.8401658E-01
       -1   -1    0    0    0  501  0.00000000000E+00  0.00000000000E+00  0.80576381780E+03  0.80576381781E+03  0.50400001928E-02 0. -1.
        1   -1    0    0  501    0  0.00000000000E+00  0.00000000000E+00 -0.19449450915E+04  0.19449450915E+04  0.50400001928E-02 0.  1.
    10030    2    1    2    0    0  0.00000000000E+00  0.00000000000E+00 -0.11391812737E+04  0.27507089094E+04  0.25037303229E+04 0.  0.
        2    1    3    3  502    0  0.10165830688E+04  0.65749402650E+03 -0.21969900366E+03  0.12304499920E+04  0.25500000920E-02 0. -1.
       -2    1    3    3    0  502 -0.10165830688E+04 -0.65749402650E+03 -0.91948227008E+03  0.15202589173E+04  0.25500000920E-02 0.  1.
</event>
<event>
 5   0  0.1574896E-06  0.2559431E+04  0.7818609E-02  0.8382114E-01
        1   -1    0    0  501    0  0.00000000000E+00  0.00000000000E+00  0.24710682402E+04  0.24710682402E+04  0.50400001928E-02 0. -1.
       -1   -1    0    0    0  501  0.00000000000E+00  0.00000000000E+00 -0.66273847786E+03  0.66273847788E+03  0.50400001928E-02 0.  1.
    10030    2    1    2    0    0  0.00000000000E+00  0.00000000000E+00  0.18083297623E+04  0.31338067181E+04  0.25594311901E+04 0.  0.
        3    1    3    3  502    0 -0.11817641186E+04  0.37270559829E+03  0.51274227148E+03  0.13410371144E+04  0.10100000352E+00 0.  1.
       -3    1    3    3    0  502  0.11817641186E+04 -0.37270559829E+03  0.12955874908E+04  0.17927696036E+04  0.10100000352E+00 0. -1.
</event>
<event>
 5   0  0.3814260E-06  0.2501634E+04  0.7818609E-02  0.8402404E-01
        2   -1    0    0  501    0  0.00000000000E+00  0.00000000000E+00  0.10826302462E+04  0.10826302462E+04  0.25500000920E-02 0.  1.
       -2   -1    0    0    0  501  0.00000000000E+00  0.00000000000E+00 -0.14451318203E+04  0.14451318203E+04  0.25500000920E-02 0. -1.
    10030    2    1    2    0    0  0.00000000000E+00  0.00000000000E+00 -0.36250157402E+03  0.25277620665E+04  0.25016342006E+04 0.  0.
        5    1    3    3  502    0 -0.43966669729E+03  0.13464110781E+03 -0.13566222286E+04  0.14324388272E+04  0.46999998093E+01 0. -1.
       -5    1    3    3    0  502  0.43966669729E+03 -0.13464110781E+03  0.99412065458E+03  0.10953232393E+04  0.46999998093E+01 0.  1.
</event>
<event>
 5   0  0.1501747E-06  0.2501652E+04  0.7818609E-02  0.8402397E-01
       -1   -1    0    0    0  501  0.00000000000E+00  0.00000000000E+00  0.95958560892E+03  0.95958560893E+03  0.50400001928E-02 0. -1.
        1   -1    0    0  501    0  0.00000000000E+00  0.00000000000E+00 -0.16304591151E+04  0.16304591151E+04  0.50400001928E-02 0.  1.
    10030    2    1    2    0    0  0.00000000000E+00  0.00000000000E+00 -0.67087350616E+03  0.25900447240E+04  0.25016515367E+04 0.  0.
        2    1    3    3  502    0 -0.10838333156E+04 -0.44249005096E+03 -0.79153983794E+03  0.14131622045E+04  0.25500000920E-02 0.  1.
       -2    1    3    3    0  502  0.10838333156E+04  0.44249005096E+03  0.12066633179E+03  0.11768825195E+04  0.25500000920E-02 0. -1.
</event>
<event>
 5   0  0.1541852E-06  0.2491872E+04  0.7818609E-02  0.8405887E-01
       -1   -1    0    0    0  501  0.00000000000E+00  0.00000000000E+00  0.14035305254E+04  0.14035305254E+04  0.50400001928E-02 0.  1.
        1   -1    0    0  501    0  0.00000000000E+00  0.00000000000E+00 -0.11060365922E+04  0.11060365923E+04  0.50400001928E-02 0. -1.
    10030    2    1    2    0    0  0.00000000000E+00  0.00000000000E+00  0.29749393317E+03  0.25095671177E+04  0.24918716817E+04 0.  0.
        5    1    3    3  502    0 -0.78848112226E+02  0.12346954730E+04  0.29691101758E+03  0.12723475068E+04  0.46999998093E+01 0. -1.
       -5    1    3    3    0  502  0.78848112226E+02 -0.12346954730E+04  0.58291559027E+00  0.12372196109E+04  0.46999998093E+01 0.  1.
</event>
<event>
 5   0  0.1541852E-06  0.2485616E+04  0.7818609E-02  0.8408128E-01
       -1   -1    0    0    0  501  0.00000000000E+00  0.00000000000E+00  0.28401805617E+04  0.28401805617E+04  0.50400001928E-02 0.  1.
        1   -1    0    0  501    0  0.00000000000E+00  0.00000000000E+00 -0.54382850699E+03  0.54382850702E+03  0.50400001928E-02 0. -1.
    10030    2    1    2    0    0  0.00000000000E+00  0.00000000000E+00  0.22963520547E+04  0.33840090688E+04  0.24856155411E+04 0.  0.
        5    1    3    3  502    0 -0.28261253752E+02  0.67338948407E+03  0.25697516415E+04  0.26566704133E+04  0.46999998093E+01 0.  1.
       -5    1    3    3    0  502  0.28261253752E+02 -0.67338948407E+03 -0.27339958677E+03  0.72733865549E+03  0.46999998093E+01 0. -1.
</event>
<event>
 5   0  0.3924441E-06  0.2504726E+04  0.7818609E-02  0.8401304E-01
        2   -1    0    0  501    0  0.00000000000E+00  0.00000000000E+00  0.16537019646E+04  0.16537019646E+04  0.25500000920E-02 0.  1.
       -2   -1    0    0    0  501  0.00000000000E+00  0.00000000000E+00 -0.94842583041E+03  0.94842583041E+03  0.25500000920E-02 0. -1.
    10030    2    1    2    0    0  0.00000000000E+00  0.00000000000E+00  0.70527613422E+03  0.26021277951E+04  0.25047264594E+04 0.  0.
        2    1    3    3  502    0 -0.10263278381E+04  0.57504770993E+03  0.79873687603E+03  0.14219737329E+04  0.25500000920E-02 0.  1.
       -2    1    3    3    0  502  0.10263278381E+04 -0.57504770993E+03 -0.93460741805E+02  0.11801540621E+04  0.25500000920E-02 0. -1.
</event>
<event>
 5   0  0.3924441E-06  0.2481089E+04  0.7818609E-02  0.8409754E-01
       -2   -1    0    0    0  501  0.00000000000E+00  0.00000000000E+00  0.12155949915E+04  0.12155949915E+04  0.25500000920E-02 0. -1.
        2   -1    0    0  501    0  0.00000000000E+00  0.00000000000E+00 -0.12660064222E+04  0.12660064222E+04  0.25500000920E-02 0.  1.
    10030    2    1    2    0    0  0.00000000000E+00  0.00000000000E+00 -0.50411430731E+02  0.24816014137E+04  0.24810893302E+04 0.  0.
        2    1    3    3  502    0  0.11359935589E+04 -0.27786471855E+03 -0.43912793071E+03  0.12492091527E+04  0.25500000920E-02 0. -1.
       -2    1    3    3    0  502 -0.11359935589E+04  0.27786471855E+03  0.38871649997E+03  0.12323922610E+04  0.25500000920E-02 0.  1.
</event>
<event>
 5   0  0.3814260E-06  0.2498363E+04  0.7818609E-02  0.8403569E-01
        2   -1    0    0  501    0  0.00000000000E+00  0.00000000000E+00  0.19151190958E+04  0.19151190958E+04  0.25500000920E-02 0.  1.
       -2   -1    0    0    0  501  0.00000000000E+00  0.00000000000E+00 -0.81480778982E+03  0.81480778982E+03  0.25500000920E-02 0. -1.
    10030    2    1    2    0    0  0.00000000000E+00  0.00000000000E+00  0.11003113060E+04  0.27299268856E+04  0.24983626300E+04 0.  0.
        5    1    3    3  502    0 -0.23977144441E+03 -0.22348381049E+03 -0.76697187278E+03  0.83408830632E+03  0.46999998093E+01 0. -1.
       -5    1    3    3    0  502  0.23977144441E+03  0.22348381049E+03  0.18672831788E+04  0.18958385793E+04  0.46999998093E+01 0.  1.
</event>
<event>
 5   0  0.3971759E-06  0.2498914E+04  0.7818609E-02  0.8403372E-01
        2   -1    0    0  501    0  0.00000000000E+00  0.00000000000E+00  0.54556836870E+03  0.54556836871E+03  0.25500000920E-02 0.  1.
       -2   -1    0    0    0  501  0.00000000000E+00  0.00000000000E+00 -0.28614991368E+04  0.28614991368E+04  0.25500000920E-02 0. -1.
    10030    2    1    2    0    0  0.00000000000E+00  0.00000000000E+00 -0.23159307681E+04  0.34070675055E+04  0.24989144972E+04 0.  0.
        4    1    3    3  502    0 -0.74434957685E+03  0.82943093148E+03 -0.38774847355E+03  0.11799840907E+04  0.12699999809E+01 0.  1.
       -4    1    3    3    0  502  0.74434957685E+03 -0.82943093148E+03 -0.19281822946E+04  0.22270834148E+04  0.12699999809E+01 0. -1.
</event>
<event>
 5   0  0.1553604E-06  0.2499595E+04  0.7818609E-02  0.8403130E-01
       -1   -1    0    0    0  501  0.00000000000E+00  0.00000000000E+00  0.12073278116E+04  0.12073278116E+04  0.50400001928E-02 0. -1.
        1   -1    0    0  501    0  0.00000000000E+00  0.00000000000E+00 -0.12937606628E+04  0.12937606628E+04  0.50400001928E-02 0.  1.
    10030    2    1    2    0    0  0.00000000000E+00  0.00000000000E+00 -0.86432851229E+02  0.25010884744E+04  0.24995945509E+04 0.  0.
        1    1    3    3  502    0  0.47568812825E+03 -0.11290823737E+04 -0.29011687092E+03  0.12590766461E+04  0.50400001928E-02 0. -1.
       -1    1    3    3    0  502 -0.47568812825E+03  0.11290823737E+04  0.20368401969E+03  0.12420118283E+04  0.50400001928E-02 0.  1.
</event>
<event>
 5   0  0.3971759E-06  0.2503218E+04  0.7818609E-02  0.8401840E-01
       -2   -1    0    0    0  501  0.00000000000E+00  0.00000000000E+00  0.16316372155E+04  0.16316372155E+04  0.25500000920E-02 0.  1.
        2   -1    0    0  501    0  0.00000000000E+00  0.00000000000E+00 -0.96009367844E+03  0.96009367844E+03  0.25500000920E-02 0. -1.
    10030    2    1    2    0    0  0.00000000000E+00  0.00000000000E+00  0.67154353710E+03  0.25917308940E+04  0.25032175903E+04 0.  0.
        4    1    3    3  502    0 -0.28904762793E+03 -0.77040981286E+03 -0.64067911247E+03  0.10428572045E+04  0.12699999809E+01 0. -1.
       -4    1    3    3    0  502  0.28904762793E+03  0.77040981286E+03  0.13122226496E+04  0.15488736895E+04  0.12699999809E+01 0.  1.
</event>
<event>
 5   0  0.1519145E-06  0.2491115E+04  0.7818609E-02  0.8406158E-01
        1   -1    0    0  501    0  0.00000000000E+00  0.00000000000E+00  0.18798220743E+04  0.18798220743E+04  0.50400001928E-02 0. -1.
       -1   -1    0    0    0  501  0.00000000000E+00  0.00000000000E+00 -0.82529772660E+03  0.82529772662E+03  0.50400001928E-02 0.  1.
    10030    2    1    2    0    0  0.00000000000E+00  0.00000000000E+00  0.10545243477E+04  0.27051198009E+04  0.24911145171E+04 0.  0.
        4    1    3    3  502    0 -0.84895379339E+03 -0.30718403028E+03 -0.40454936693E+03  0.98931611478E+03  0.12699999809E+01 0.  1.
       -4    1    3    3    0  502  0.84895379339E+03  0.30718403028E+03  0.14590737146E+04  0.17158036861E+04  0.12699999809E+01 0. -1.
</event>
<event>
 5   0  0.3808293E-06  0.2495707E+04  0.7818609E-02  0.8404517E-01
        2   -1    0    0  501    0  0.00000000000E+00  0.00000000000E+00  0.11385277486E+04  0.11385277486E+04  0.25500000920E-02 0. -1.
       -2   -1    0    0    0  501  0.00000000000E+00  0.00000000000E+00 -0.13676767075E+04  0.13676767075E+04  0.25500000920E-02 0.  1.
    10030    2    1    2    0    0  0.00000000000E+00  0.00000000000E+00 -0.22914895888E+03  0.25062044560E+04  0.24957066194E+04 0.  0.
        1    1    3    3  502    0  0.21479396976E+03 -0.10516178158E+04  0.52457853322E+03  0.11946627631E+04  0.50400001928E-02 0. -1.
       -1    1    3    3    0  502 -0.21479396976E+03  0.10516178158E+04 -0.75372749211E+03  0.13115416930E+04  0.50400001928E-02 0.  1.
</event>
<event>
 5   0  0.1574896E-06  0.2502679E+04  0.7818609E-02  0.8402032E-01
       -1   -1    0    0    0  501  0.00000000000E+00  0.00000000000E+00  0.26393762732E+04  0.26393762732E+04  0.50400001928E-02 0. -1.
        1   -1    0    0  501    0  0.00000000000E+00  0.00000000000E+00 -0.59326536321E+03  0.59326536323E+03  0.50400001928E-02 0.  1.
    10030    2    1    2    0    0  0.00000000000E+00  0.00000000000E+00  0.20461109100E+04  0.32326416364E+04  0.25026789833E+04 0.  0.
        3    1    3    3  502    0  0.91209220136E+03 -0.52208554295E+03  0.14570168721E+03  0.10609969320E+04  0.10100000352E+00 0.  1.
       -3    1    3    3    0  502 -0.91209220136E+03  0.52208554295E+03  0.19004092228E+04  0.21716447044E+04  0.10100000352E+00 0. -1.
</event>
<event>
 5   0  0.3713394E-06  0.2499469E+04  0.7818609E-02  0.8403175E-01
       -2   -1    0    0    0  501  0.00000000000E+00  0.00000000000E+00  0.95310212379E+03  0.95310212379E+03  0.25500000920E-02 0. -1.
        2   -1    0    0  501    0  0.00000000000E+00  0.00000000000E+00 -0.16386878645E+04  0.16386878645E+04  0.25500000920E-02 0.  1.
    10030    2    1    2    0    0  0.00000000000E+00  0.00000000000E+00 -0.68558574067E+03  0.25917899883E+04  0.24994694508E+04 0.  0.
        3    1    3    3  502    0 -0.67723749660E+03  0.10475712484E+04 -0.42163224712E+03  0.13167497519E+04  0.10100000352E+00 0.  1.
       -3    1    3    3    0  502  0.67723749660E+03 -0.10475712484E+04 -0.26395349356E+03  0.12750402363E+04  0.10100000352E+00 0. -1.
</event>
<event>
 5   0  0.1541852E-06  0.2498582E+04  0.7818609E-02  0.8403491E-01
       -1   -1    0    0    0  501  0.00000000000E+00  0.00000000000E+00  0.12981081899E+04  0.12981081899E+04  0.50400001928E-02 0.  1.
        1   -1    0    0  501    0  0.00000000000E+00  0.00000000000E+00 -0.12023101296E+04  0.12023101296E+04  0.50400001928E-02 0. -1.
    10030    2    1    2    0    0  0.00000000000E+00  0.00000000000E+00  0.95798060326E+02  0.25004183195E+04  0.24985824989E+04 0.  0.
        5    1    3    3  502    0 -0.55509457363E+03 -0.56435625489E+03 -0.91928848575E+03  0.12131534850E+04  0.46999998093E+01 0. -1.
       -5    1    3    3    0  502  0.55509457363E+03  0.56435625489E+03  0.10150865461E+04  0.12872648345E+04  0.46999998093E+01 0.  1.
</event>
<event>
 5   0  0.3808293E-06  0.2499736E+04  0.7818609E-02  0.8403080E-01
        2   -1    0    0  501    0  0.00000000000E+00  0.00000000000E+00  0.24415109792E+04  0.24415109792E+04  0.25500000920E-02 0. -1.
       -2   -1    0    0    0  501  0.00000000000E+00  0.00000000000E+00 -0.63983746281E+03  0.63983746282E+03  0.25500000920E-02 0.  1.
    10030    2    1    2    0    0  0.00000000000E+00  0.00000000000E+00  0.18016735164E+04  0.30813484420E+04  0.24997361384E+04 0.  0.
        1    1    3    3  502    0 -0.75273587054E+03 -0.96684009018E+03  0.12047320115E+04  0.17183626713E+04  0.50400001928E-02 0.  1.
       -1    1    3    3    0  502  0.75273587054E+03  0.96684009018E+03  0.59694150495E+03  0.13629857707E+04  0.50400001928E-02 0. -1.
</event>
<event>
 5   0  0.3713394E-06  0.2502658E+04  0.7818609E-02  0.8402039E-01
       -2   -1    0    0    0  501  0.00000000000E+00  0.00000000000E+00  0.98497364377E+03  0.98497364377E+03  0.25500000920E-02 0. -1.
        2   -1    0    0  501    0  0.00000000000E+00  0.00000000000E+00 -0.15897112271E+04  0.15897112271E+04  0.25500000920E-02 0.  1.
    10030    2    1    2    0    0  0.00000000000E+00  0.00000000000E+00 -0.60473758332E+03  0.25746848709E+04  0.25026575154E+04 0.  0.
        3    1    3    3  502    0 -0.35964192518E+03 -0.52979668927E+03  0.80365228825E+03  0.10275620939E+04  0.10100000352E+00 0. -1.
       -3    1    3    3    0  502  0.35964192518E+03  0.52979668927E+03 -0.14083898716E+04  0.15471227769E+04  0.10100000352E+00 0.  1.
</event>
<event>
 5   0  0.1287375E-06  0.2506125E+04  0.7818609E-02  0.8400807E-01
        3   -1    0    0  501    0  0.00000000000E+00  0.00000000000E+00  0.59765368219E+03  0.59765369072E+03  0.10100000352E+00 0. -1.
       -3   -1    0    0    0  501  0.00000000000E+00  0.00000000000E+00 -0.26272161636E+04  0.26272161655E+04  0.10100000352E+00 0.  1.
    10030    2    1    2    0    0  0.00000000000E+00  0.00000000000E+00 -0.20295624814E+04  0.32248698563E+04  0.25061248420E+04 0.  0.
        4    1    3    3  502    0 -0.46435465526E+03 -0.66802632126E+03  0.21158228421E+03  0.84062660418E+03  0.12699999809E+01 0. -1.
       -4    1    3    3    0  502  0.46435465526E+03  0.66802632126E+03 -0.22411447656E+04  0.23842432521E+04  0.12699999809E+01 0.  1.
</event>
<event>
 5   0  0.1519145E-06  0.2498184E+04  0.7818609E-02  0.8403633E-01
        1   -1    0    0  501    0  0.00000000000E+00  0.00000000000E+00  0.13760704755E+04  0.13760704755E+04  0.50400001928E-02 0. -1.
       -1   -1    0    0    0  501  0.00000000000E+00  0.00000000000E+00 -0.11338309426E+04  0.11338309427E+04  0.50400001928E-02 0.  1.
    10030    2    1    2    0    0  0.00000000000E+00  0.00000000000E+00  0.24223953282E+03  0.25099014181E+04  0.24981843682E+04 0.  0.
        4    1    3    3  502    0 -0.21583381315E+03  0.11721057357E+04  0.49679006228E+03  0.12912079885E+04  0.12699999809E+01 0. -1.
       -4    1    3    3    0  502  0.21583381315E+03 -0.11721057357E+04 -0.25455052946E+03  0.12186934297E+04  0.12699999809E+01 0.  1.
</event>
<event>
 5   0  0.1501747E-06  0.2521756E+04  0.7818609E-02  0.8395276E-01
       -1   -1    0    0    0  501  0.00000000000E+00  0.00000000000E+00  0.83422697855E+03  0.83422697857E+03  0.50400001928E-02 0. -1.
        1   -1    0    0  501    0  0.00000000000E+00  0.00000000000E+00 -0.19057320179E+04  0.19057320180E+04  0.50400001928E-02 0.  1.
    10030    2    1    2    0    0  0.00000000000E+00  0.00000000000E+00 -0.10715050394E+04  0.27399589965E+04  0.25217557878E+04 0.  0.
        2    1    3    3  502    0  0.56659429311E+03  0.43102663075E+03  0.59496798673E+03  0.92779305593E+03  0.25500000920E-02 0. -1.
       -2    1    3    3    0  502 -0.56659429311E+03 -0.43102663075E+03 -0.16664730261E+04  0.18121659406E+04  0.25500000920E-02 0.  1.
</event>
<event>
 5   0  0.3971759E-06  0.2500514E+04  0.7818609E-02  0.8402802E-01
       -2   -1    0    0    0  501  0.00000000000E+00  0.00000000000E+00  0.96950906418E+03  0.96950906419E+03  0.25500000920E-02 0. -1.
        2   -1    0    0  501    0  0.00000000000E+00  0.00000000000E+00 -0.16123031635E+04  0.16123031635E+04  0.25500000920E-02 0.  1.
    10030    2    1    2    0    0  0.00000000000E+00  0.00000000000E+00 -0.64279409935E+03  0.25818122277E+04  0.25005139722E+04 0.  0.
        4    1    3    3  502    0 -0.11618269831E+04 -0.39118785603E+03 -0.67913538767E+02  0.12277962938E+04  0.12699999809E+01 0. -1.
       -4    1    3    3    0  502  0.11618269831E+04  0.39118785603E+03 -0.57488056059E+03  0.13540159339E+04  0.12699999809E+01 0.  1.
</event>
<event>
 5   0  0.3808293E-06  0.2496508E+04  0.7818609E-02  0.8404230E-01
        2   -1    0    0  501    0  0.00000000000E+00  0.00000000000E+00  0.11787471239E+04  0.11787471239E+04  0.25500000920E-02 0.  1.
       -2   -1    0    0    0  501  0.00000000000E+00  0.00000000000E+00 -0.13218599002E+04  0.13218599002E+04  0.25500000920E-02 0. -1.
    10030    2    1    2    0    0  0.00000000000E+00  0.00000000000E+00 -0.14311277632E+03  0.25006070242E+04  0.24965084063E+04 0.  0.
        1    1    3    3  502    0 -0.17887297879E+03  0.18679823924E+02 -0.13088146895E+04  0.13211133070E+04  0.50400001928E-02 0. -1.
       -1    1    3    3    0  502  0.17887297879E+03 -0.18679823924E+02  0.11657019132E+04  0.11794937172E+04  0.50400001928E-02 0.  1.
</event>
<event>
 5   0  0.1553604E-06  0.2496416E+04  0.7818609E-02  0.8404264E-01
        1   -1    0    0  501    0  0.00000000000E+00  0.00000000000E+00  0.23230100468E+04  0.23230100468E+04  0.50400001928E-02 0. -1.
       -1   -1    0    0    0  501  0.00000000000E+00  0.00000000000E+00 -0.67069128352E+03  0.67069128354E+03  0.50400001928E-02 0.  1.
    10030    2    1    2    0    0  0.00000000000E+00  0.00000000000E+00  0.16523187632E+04  0.29937013303E+04  0.24964155022E+04 0.  0.
        1    1    3    3  502    0  0.10451679441E+04 -0.37938971584E+03  0.15063394184E+04  0.18722636116E+04  0.50400001928E-02 0. -1.
       -1    1    3    3    0  502 -0.10451679441E+04  0.37938971584E+03  0.14597934482E+03  0.11214377187E+04  0.50400001928E-02 0.  1.
</event>
<event>
 5   0  0.3814260E-06  0.2500849E+04  0.7818609E-02  0.8402683E-01
       -2   -1    0    0    0  501  0.00000000000E+00  0.00000000000E+00  0.11231651394E+04  0.11231651394E+04  0.25500000920E-02 0. -1.
        2   -1    0    0  501    0  0.00000000000E+00  0.00000000000E+00 -0.13921025367E+04  0.13921025367E+04  0.25500000920E-02 0.  1.
    10030    2    1    2    0    0  0.00000000000E+00  0.00000000000E+00 -0.26893739730E+03  0.25152676760E+04  0.25008486876E+04 0.  0.
        5    1    3    3  502    0  0.88036214182E+03 -0.81574486014E+03 -0.48729290723E+03  0.12953585006E+04  0.46999998093E+01 0.  1.
       -5    1    3    3    0  502 -0.88036214182E+03  0.81574486014E+03  0.21835550993E+03  0.12199091754E+04  0.46999998093E+01 0. -1.
</event>
<event>
 5   0  0.1519145E-06  0.2500490E+04  0.7818609E-02  0.8402811E-01
       -1   -1    0    0    0  501  0.00000000000E+00  0.00000000000E+00  0.12279590921E+04  0.12279590921E+04  0.50400001928E-02 0. -1.
        1   -1    0    0  501    0  0.00000000000E+00  0.00000000000E+00 -0.12729349256E+04  0.12729349256E+04  0.50400001928E-02 0.  1.
    10030    2    1    2    0    0  0.00000000000E+00  0.00000000000E+00 -0.44975833466E+02  0.25008940177E+04  0.25004895645E+04 0.  0.
        4    1    3    3  502    0 -0.72134432034E+03 -0.47543547476E+03  0.88139156509E+03  0.12341917286E+04  0.12699999809E+01 0. -1.
       -4    1    3    3    0  502  0.72134432034E+03  0.47543547476E+03 -0.92636739855E+03  0.12667022891E+04  0.12699999809E+01 0.  1.
</event>
<event>
 5   0  0.1574896E-06  0.2499607E+04  0.7818609E-02  0.8403125E-01
       -1   -1    0    0    0  501  0.00000000000E+00  0.00000000000E+00  0.12152909111E+04  0.12152909111E+04  0.50400001928E-02 0.  1.
        1   -1    0    0  501    0  0.00000000000E+00  0.00000000000E+00 -0.12852966177E+04  0.12852966177E+04  0.50400001928E-02 0. -1.
    10030    2    1    2    0    0  0.00000000000E+00  0.00000000000E+00 -0.70005706610E+02  0.25005875288E+04  0.24996074072E+04 0.  0.
        3    1    3    3  502    0 -0.97332874465E+03  0.13987168194E+02  0.74916980364E+03  0.12283402993E+04  0.10100000352E+00 0.  1.
       -3    1    3    3    0  502  0.97332874465E+03 -0.13987168194E+02 -0.81917551025E+03  0.12722472294E+04  0.10100000352E+00 0. -1.
</event>
<event>
 5   0  0.1501747E-06  0.2502057E+04  0.7818609E-02  0.8402253E-01
       -1   -1    0    0    0  501  0.00000000000E+00  0.00000000000E+00  0.87061084902E+03  0.87061084903E+03  0.50400001928E-02 0. -1.
        1   -1    0    0  501    0  0.00000000000E+00  0.00000000000E+00 -0.17976712502E+04  0.17976712502E+04  0.50400001928E-02 0.  1.
    10030    2    1    2    0    0  0.00000000000E+00  0.00000000000E+00 -0.92706040122E+03  0.26682820993E+04  0.25020568287E+04 0.  0.
        2    1    3    3  502    0  0.81093612162E+03  0.61645615720E+03 -0.12380270692E+04  0.16032300556E+04  0.25500000920E-02 0.  1.
       -2    1    3    3    0  502 -0.81093612162E+03 -0.61645615720E+03  0.31096666800E+03  0.10650520437E+04  0.25500000920E-02 0. -1.
</event>
<event>
 5   0  0.3971759E-06  0.2502548E+04  0.7818609E-02  0.8402078E-01
        2   -1    0    0  501    0  0.00000000000E+00  0.00000000000E+00  0.10657473061E+04  0.10657473061E+04  0.25500000920E-02 0. -1.
       -2   -1    0    0    0  501  0.00000000000E+00  0.00000000000E+00 -0.14690971219E+04  0.14690971219E+04  0.25500000920E-02 0.  1.
    10030    2    1    2    0    0  0.00000000000E+00  0.00000000000E+00 -0.40334981584E+03  0.25348444279E+04  0.25025477418E+04 0.  0.
        4    1    3    3  502    0 -0.99388037002E+02  0.22866300643E+03 -0.14436804515E+04  0.14650527675E+04  0.12699999809E+01 0.  1.
       -4    1    3    3    0  502  0.99388037002E+02 -0.22866300643E+03  0.10403306357E+04  0.10697916605E+04  0.12699999809E+01 0. -1.
</event>
<event>
 5   0  0.1553604E-06  0.2500377E+04  0.7818609E-02  0.8402851E-01
       -1   -1    0    0    0  501  0.00000000000E+00  0.00000000000E+00  0.12131006858E+04  0.12131006858E+04  0.50400001928E-02 0.  1.
        1   -1    0    0  501    0  0.00000000000E+00  0.00000000000E+00 -0.12884105392E+04  0.12884105393E+04  0.50400001928E-02 0. -1.
    10030    2    1    2    0    0  0.00000000000E+00  0.00000000000E+00 -0.75309853404E+02  0.25015112251E+04  0.25003773386E+04 0.  0.
        1    1    3    3  502    0 -0.99271820140E+01 -0.75540195681E+03 -0.10342196174E+04  0.12807579328E+04  0.50400001928E-02 0. -1.
       -1    1    3    3    0  502  0.99271820140E+01  0.75540195681E+03  0.95890976398E+03  0.12207532923E+04  0.50400001928E-02 0.  1.
</event>
<event>
 5   0  0.1574896E-06  0.2515688E+04  0.7818609E-02  0.8397418E-01
       -1   -1    0    0    0  501  0.00000000000E+00  0.00000000000E+00  0.95462690822E+03  0.95462690823E+03  0.50400001928E-02 0.  1.
        1   -1    0    0  501    0  0.00000000000E+00  0.00000000000E+00 -0.16573715619E+04  0.16573715619E+04  0.50400001928E-02 0. -1.
    10030    2    1    2    0    0  0.00000000000E+00  0.00000000000E+00 -0.70274465368E+03  0.26119984701E+04  0.25156879695E+04 0.  0.
        3    1    3    3  502    0  0.86045567971E+03  0.17325254213E+03 -0.12868489246E+04  0.15576843663E+04  0.10100000352E+00 0. -1.
       -3    1    3    3    0  502 -0.86045567971E+03 -0.17325254213E+03  0.58410427089E+03  0.10543141038E+04  0.10100000352E+00 0.  1.
</event>
<event>
 5   0  0.3924441E-06  0.2503880E+04  0.7818609E-02  0.8401604E-01
        2   -1    0    0  501    0  0.00000000000E+00  0.00000000000E+00  0.26723034431E+04  0.26723034431E+04  0.25500000920E-02 0.  1.
       -2   -1    0    0    0  501  0.00000000000E+00  0.00000000000E+00 -0.58651804081E+03  0.58651804081E+03  0.25500000920E-02 0. -1.
    10030    2    1    2    0    0  0.00000000000E+00  0.00000000000E+00  0.20857854023E+04  0.32588214839E+04  0.25038803325E+04 0.  0.
        2    1    3    3  502    0  0.11726923631E+04  0.43251131482E+03  0.95012185586E+03  0.15700334254E+04  0.25500000920E-02 0.  1.
       -2    1    3    3    0  502 -0.11726923631E+04 -0.43251131482E+03  0.11356635464E+04  0.16887880585E+04  0.25500000920E-02 0. -1.
</event>
<event>
 5   0  0.3971759E-06  0.2499239E+04  0.7818609E-02  0.8403257E-01
        2   -1    0    0  501    0  0.00000000000E+00  0.00000000000E+00  0.12496564569E+04  0.12496564569E+04  0.25500000920E-02 0. -1.
       -2   -1    0    0    0  501  0.00000000000E+00  0.00000000000E+00 -0.12495825961E+04  0.12495825961E+04  0.25500000920E-02 0.  1.
    10030    2    1    2    0    0  0.00000000000E+00  0.00000000000E+00  0.73860800160E-01  0.24992390531E+04  0.24992390520E+04 0.  0.
        4    1    3    3  502    0  0.78081504956E+03  0.39043640361E+03 -0.89407414808E+03  0.12495931026E+04  0.12699999809E+01 0.  1.
       -4    1    3    3    0  502 -0.78081504956E+03 -0.39043640361E+03  0.89414800888E+03  0.12496459505E+04  0.12699999809E+01 0. -1.
</event>
<event>
 5   0  0.1541852E-06  0.2497642E+04  0.7818609E-02  0.8403826E-01
       -1   -1    0    0    0  501  0.00000000000E+00  0.00000000000E+00  0.87603534918E+03  0.87603534920E+03  0.50400001928E-02 0.  1.
        1   -1    0    0  501    0  0.00000000000E+00  0.00000000000E+00 -0.17802412609E+04  0.17802412609E+04  0.50400001928E-02 0. -1.
    10030    2    1    2    0    0  0.00000000000E+00  0.00000000000E+00 -0.90420591173E+03  0.26562766101E+04  0.24976423080E+04 0.  0.
        5    1    3    3  502    0 -0.44167320717E+03  0.11667445148E+00 -0.16943929134E+04  0.17510181811E+04  0.46999998093E+01 0. -1.
       -5    1    3    3    0  502  0.44167320717E+03 -0.11667445148E+00  0.79018700172E+03  0.90525842898E+03  0.46999998093E+01 0.  1.
</event>
<event>
 5   0  0.3971759E-06  0.2494841E+04  0.7818609E-02  0.8404826E-01
        2   -1    0    0  501    0  0.00000000000E+00  0.00000000000E+00  0.25546066232E+04  0.25546066232E+04  0.25500000920E-02 0. -1.
       -2   -1    0    0    0  501  0.00000000000E+00  0.00000000000E+00 -0.60911836323E+03  0.60911836323E+03  0.25500000920E-02 0.  1.
    10030    2    1    2    0    0  0.00000000000E+00  0.00000000000E+00  0.19454882600E+04  0.31637249864E+04  0.24948409208E+04 0.  0.
        4    1    3    3  502    0 -0.59171811242E+03  0.10013696422E+04  0.15443561787E+04  0.19333672968E+04  0.12699999809E+01 0. -1.
       -4    1    3    3    0  502  0.59171811242E+03 -0.10013696422E+04  0.40113208132E+03  0.12303576896E+04  0.12699999809E+01 0.  1.
</event>
<event>
 5   0  0.1501747E-06  0.2495876E+04  0.7818609E-02  0.8404456E-01
        1   -1    0    0  501    0  0.00000000000E+00  0.00000000000E+00  0.19494479489E+04  0.19494479489E+04  0.50400001928E-02 0. -1.
       -1   -1    0    0    0  501  0.00000000000E+00  0.00000000000E+00 -0.79886671149E+03  0.79886671151E+03  0.50400001928E-02 0.  1.
    10030    2    1    2    0    0  0.00000000000E+00  0.00000000000E+00  0.11505812374E+04  0.27483146604E+04  0.24958758560E+04 0.  0.
        2    1    3    3  502    0  0.38184449809E+03  0.10597819860E+02 -0.73290708743E+03  0.82648069144E+03  0.25500000920E-02 0.  1.
       -2    1    3    3    0  502 -0.38184449809E+03 -0.10597819860E+02  0.18834883248E+04  0.19218339690E+04  0.25500000920E-02 0. -1.
</event>
<event>
 5   0  0.3814260E-06  0.2499500E+04  0.7818609E-02  0.8403164E-01
        2   -1    0    0  501    0  0.00000000000E+00  0.00000000000E+00  0.13363295310E+04  0.13363295310E+04  0.25500000920E-02 0. -1.
       -2   -1    0    0    0  501  0.00000000000E+00  0.00000000000E+00 -0.11687796137E+04  0.11687796137E+04  0.25500000920E-02 0.  1.
    10030    2    1    2    0    0  0.00000000000E+00  0.00000000000E+00  0.16754991734E+03  0.25051091447E+04  0.24994997203E+04 0.  0.
        5    1    3    3  502    0 -0.94152485750E+03  0.49988826455E+03 -0.56998894425E+03  0.12088286979E+04  0.46999998093E+01 0.  1.
       -5    1    3    3    0  502  0.94152485750E+03 -0.49988826455E+03  0.73753886159E+03  0.12962804468E+04  0.46999998093E+01 0. -1.
</event>
<event>
 5   0  0.1519145E-06  0.2507850E+04  0.7818609E-02  0.8400194E-01
        1   -1    0    0  501    0  0.00000000000E+00  0.00000000000E+00  0.91027599392E+03  0.91027599393E+03  0.50400001928E-02 0. -1.
       -1   -1    0    0    0  501  0.00000000000E+00  0.00000000000E+00 -0.17273091949E+04  0.17273091949E+04  0.50400001928E-02 0.  1.
    10030    2    1    2    0    0  0.00000000000E+00  0.00000000000E+00 -0.81703320096E+03  0.26375851888E+04  0.25078501504E+04 0.  0.
        4    1    3    3  502    0  0.10894571091E+04 -0.55780915206E+03 -0.69511806400E+03  0.14075718733E+04  0.12699999809E+01 0. -1.
       -4    1    3    3    0  502 -0.10894571091E+04  0.55780915206E+03 -0.12191513696E+03  0.12300133155E+04  0.12699999809E+01 0.  1.
</event>
<event>
 5   0  0.3713394E-06  0.2497888E+04  0.7818609E-02  0.8403738E-01
        2   -1    0    0  501    0  0.00000000000E+00  0.00000000000E+00  0.27377043633E+04  0.27377043633E+04  0.25500000920E-02 0.  1.
       -2   -1    0    0    0  501  0.00000000000E+00  0.00000000000E+00 -0.56976980050E+03  0.56976980051E+03  0.25500000920E-02 0. -1.
    10030    2    1    2    0    0  0.00000000000E+00  0.00000000000E+00  0.21679345628E+04  0.33074741638E+04  0.24978881231E+04 0.  0.
        3    1    3    3  502    0  0.10159006144E+04 -0.11588172288E+03  0.13431430294E+03  0.10312725024E+04  0.10100000352E+00 0. -1.
       -3    1    3    3    0  502 -0.10159006144E+04  0.11588172288E+03  0.20336202599E+04  0.22762016615E+04  0.10100000352E+00 0.  1.
</event>
<event>
 5   0  0.1501747E-06  0.2501795E+04  0.7818609E-02  0.8402346E-01
        1   -1    0    0  501    0  0.00000000000E+00  0.00000000000E+00  0.16351318017E+04  0.16351318017E+04  0.50400001928E-02 0. -1.
       -1   -1    0    0    0  501  0.00000000000E+00  0.00000000000E+00 -0.95695304273E+03  0.95695304274E+03  0.50400001928E-02 0.  1.
    10030    2    1    2    0    0  0.00000000000E+00  0.00000000000E+00  0.67817875899E+03  0.25920848445E+04  0.25017948381E+04 0.  0.
        2    1    3    3  502    0 -0.26498497800E+03 -0.42218524725E+01 -0.92753213135E+03  0.96465056746E+03  0.25500000920E-02 0.  1.
       -2    1    3    3    0  502  0.26498497800E+03  0.42218524725E+01  0.16057108903E+04  0.16274342770E+04  0.25500000920E-02 0. -1.
</event>
<event>
 5   0  0.3924441E-06  0.2506029E+04  0.7818609E-02  0.8400841E-01
       -2   -1    0    0    0  501  0.00000000000E+00  0.00000000000E+00  0.15567654362E+04  0.15567654362E+04  0.25500000920E-02 0. -1.
        2   -1    0    0  501    0  0.00000000000E+00  0.00000000000E+00 -0.10085303377E+04  0.10085303377E+04  0.25500000920E-02 0.  1.
    10030    2    1    2    0    0  0.00000000000E+00  0.00000000000E+00  0.54823509854E+03  0.25652957739E+04  0.25060288674E+04 0.  0.
        2    1    3    3  502    0  0.92637392864E+02  0.24992232976E+03  0.15274103006E+04  0.15504918845E+04  0.25500000920E-02 0. -1.
       -2    1    3    3    0  502 -0.92637392864E+02 -0.24992232976E+03 -0.97917520211E+03  0.10148038894E+04  0.25500000920E-02 0.  1.
</event>
<event>
 5   0  0.1287375E-06  0.2495944E+04  0.7818609E-02  0.8404432E-01
       -3   -1    0    0    0  501  0.00000000000E+00  0.00000000000E+00  0.11528640487E+04  0.11528640532E+04  0.10100000352E+00 0.  1.
        3   -1    0    0  501    0  0.00000000000E+00  0.00000000000E+00 -0.13509258765E+04  0.13509258803E+04  0.10100000352E+00 0. -1.
    10030    2    1    2    0    0  0.00000000000E+00  0.00000000000E+00 -0.19806182777E+03  0.25037899334E+04  0.24959438181E+04 0.  0.
        3    1    3    3  502    0  0.87688269733E+03 -0.28685758102E+02 -0.98933860666E+03  0.13223225879E+04  0.10100000352E+00 0. -1.
       -3    1    3    3    0  502 -0.87688269733E+03  0.28685758102E+02  0.79127677889E+03  0.11814673456E+04  0.10100000352E+00 0.  1.
</event>
<event>
 5   0  0.3971759E-06  0.2501508E+04  0.7818609E-02  0.8402448E-01
        2   -1    0    0  501    0  0.00000000000E+00  0.00000000000E+00  0.21465525428E+04  0.21465525428E+04  0.25500000920E-02 0. -1.
       -2   -1    0    0    0  501  0.00000000000E+00  0.00000000000E+00 -0.72878997799E+03  0.72878997800E+03  0.25500000920E-02 0.  1.
    10030    2    1    2    0    0  0.00000000000E+00  0.00000000000E+00  0.14177625648E+04  0.28753425208E+04  0.25015083293E+04 0.  0.
        4    1    3    3  502    0 -0.66791974859E+03 -0.35592019076E+03 -0.43571768854E+03  0.87329690814E+03  0.12699999809E+01 0.  1.
       -4    1    3    3    0  502  0.66791974859E+03  0.35592019076E+03  0.18534802533E+04  0.20020456127E+04  0.12699999809E+01 0. -1.
</event>
<event>
 5   0  0.3814260E-06  0.2503089E+04  0.7818609E-02  0.8401886E-01
       -2   -1    0    0    0  501  0.00000000000E+00  0.00000000000E+00  0.87920936788E+03  0.87920936788E+03  0.25500000920E-02 0.  1.
        2   -1    0    0  501    0  0.00000000000E+00  0.00000000000E+00 -0.17815592517E+04  0.17815592518E+04  0.25500000920E-02 0. -1.
    10030    2    1    2    0    0  0.00000000000E+00  0.00000000000E+00 -0.90234988387E+03  0.26607686196E+04  0.25030889585E+04 0.  0.
        5    1    3    3  502    0 -0.11843606710E+04  0.52711521456E+02 -0.24845697434E+02  0.11858027248E+04  0.46999998093E+01 0. -1.
       -5    1    3    3    0  502  0.11843606710E+04 -0.52711521456E+02 -0.87750418643E+03  0.14749658948E+04  0.46999998093E+01 0.  1.
</event>
<event>
 5   0  0.1553604E-06  0.2500181E+04  0.7818609E-02  0.8402921E-01
        1   -1    0    0  501    0  0.00000000000E+00  0.00000000000E+00  0.24917274665E+04  0.24917274665E+04  0.50400001928E-02 0. -1.
       -1   -1    0    0    0  501  0.00000000000E+00  0.00000000000E+00 -0.62716572918E+03  0.62716572920E+03  0.50400001928E-02 0.  1.
    10030    2    1    2    0    0  0.00000000000E+00  0.00000000000E+00  0.18645617374E+04  0.31188931957E+04  0.25001808523E+04 0.  0.
        1    1    3    3  502    0  0.84948990278E+03  0.90311769672E+03  0.11313736546E+04  0.16784698435E+04  0.50400001928E-02 0. -1.
       -1    1    3    3    0  502 -0.84948990278E+03 -0.90311769672E+03  0.73318808272E+03  0.14404233523E+04  0.50400001928E-02 0.  1.
</event>
<event>
 5   0  0.1501747E-06  0.2498455E+04  0.7818609E-02  0.8403536E-01
        1   -1    0    0  501    0  0.00000000000E+00  0.00000000000E+00  0.20863690868E+04  0.20863690868E+04  0.50400001928E-02 0.  1.
       -1   -1    0    0    0  501  0.00000000000E+00  0.00000000000E+00 -0.74798332016E+03  0.74798332018E+03  0.50400001928E-02 0. -1.
    10030    2    1    2    0    0  0.00000000000E+00  0.00000000000E+00  0.13383857667E+04  0.28343524070E+04  0.24984549439E+04 0.  0.
        2    1    3    3  502    0 -0.38588075257E+03  0.68395333336E+03 -0.43295315300E+03  0.89674107195E+03  0.25500000920E-02 0. -1.
       -2    1    3    3    0  502  0.38588075257E+03 -0.68395333336E+03  0.17713389197E+04  0.19376113351E+04  0.25500000920E-02 0.  1.
</event>
<event>
 5   0  0.3814260E-06  0.2454317E+04  0.7818609E-02  0.8419443E-01
        2   -1    0    0  501    0  0.00000000000E+00  0.00000000000E+00  0.92645549305E+03  0.92645549305E+03  0.25500000920E-02 0.  1.
       -2   -1    0    0    0  501  0.00000000000E+00  0.00000000000E+00 -0.16254619594E+04  0.16254619594E+04  0.25500000920E-02 0. -1.
    10030    2    1    2    0    0  0.00000000000E+00  0.00000000000E+00 -0.69900646638E+03  0.25519174525E+04  0.24543171442E+04 0.  0.
        5    1    3    3  502    0  0.85095494394E+03  0.80630349386E+03 -0.72676299354E+03  0.13792955374E+04  0.46999998093E+01 0. -1.
       -5    1    3    3    0  502 -0.85095494394E+03 -0.80630349386E+03  0.27756527158E+02  0.11726219150E+04  0.46999998093E+01 0.  1.
</event>
<event>
 5   0  0.1574896E-06  0.2502616E+04  0.7818609E-02  0.8402054E-01
       -1   -1    0    0    0  501  0.00000000000E+00  0.00000000000E+00  0.56789449293E+03  0.56789449295E+03  0.50400001928E-02 0.  1.
        1   -1    0    0  501    0  0.00000000000E+00  0.00000000000E+00 -0.27571524515E+04  0.27571524515E+04  0.50400001928E-02 0. -1.
    10030    2    1    2    0    0  0.00000000000E+00  0.00000000000E+00 -0.21892579586E+04  0.33250469445E+04  0.25026159861E+04 0.  0.
        3    1    3    3  502    0 -0.34976346506E+03  0.94434855073E+03 -0.20814369054E+04  0.23122517744E+04  0.10100000352E+00 0. -1.
       -3    1    3    3    0  502  0.34976346506E+03 -0.94434855073E+03 -0.10782105314E+03  0.10127951700E+04  0.10100000352E+00 0.  1.
</event>
<event>
 5   0  0.3808293E-06  0.2497536E+04  0.7818609E-02  0.8403864E-01
        2   -1    0    0  501    0  0.00000000000E+00  0.00000000000E+00  0.10753717212E+04  0.10753717212E+04  0.25500000920E-02 0. -1.
       -2   -1    0    0    0  501  0.00000000000E+00  0.00000000000E+00 -0.14501235922E+04  0.14501235922E+04  0.25500000920E-02 0.  1.
    10030    2    1    2    0    0  0.00000000000E+00  0.00000000000E+00 -0.37475187104E+03  0.25254953134E+04  0.24975363087E+04 0.  0.
        1    1    3    3  502    0  0.76146667205E+03  0.85666415865E+03 -0.68862352432E+03  0.13371265204E+04  0.50400001928E-02 0.  1.
       -1    1    3    3    0  502 -0.76146667205E+03 -0.85666415865E+03  0.31387165328E+03  0.11883687930E+04  0.50400001928E-02 0. -1.
</event>
<event>
 5   0  0.1553604E-06  0.2499225E+04  0.7818609E-02  0.8403262E-01
       -1   -1    0    0    0  501  0.00000000000E+00  0.00000000000E+00  0.14090372803E+04  0.14090372803E+04  0.50400001928E-02 0. -1.
        1   -1    0    0  501    0  0.00000000000E+00  0.00000000000E+00 -0.11082258646E+04  0.11082258646E+04  0.50400001928E-02 0.  1.
    10030    2    1    2    0    0  0.00000000000E+00  0.00000000000E+00  0.30081141572E+03  0.25172631450E+04  0.24992251266E+04 0.  0.
        1    1    3    3  502    0 -0.53215372446E+03  0.72661916026E+03 -0.72208448833E+03  0.11543695244E+04  0.50400001928E-02 0.  1.
       -1    1    3    3    0  502  0.53215372446E+03 -0.72661916026E+03  0.10228959040E+04  0.13628936206E+04  0.50400001928E-02 0. -1.
</event>
<event>
 5   0  0.3808293E-06  0.2499293E+04  0.7818609E-02  0.8403237E-01
       -2   -1    0    0    0  501  0.00000000000E+00  0.00000000000E+00  0.77837095260E+03  0.77837095261E+03  0.25500000920E-02 0. -1.
        2   -1    0    0  501    0  0.00000000000E+00  0.00000000000E+00 -0.20062625329E+04  0.20062625330E+04  0.25500000920E-02 0.  1.
    10030    2    1    2    0    0  0.00000000000E+00  0.00000000000E+00 -0.12278915803E+04  0.27846334856E+04  0.24992930832E+04 0.  0.
        1    1    3    3  502    0  0.46621368051E+03  0.50653520143E+03 -0.17759350095E+04  0.19046989957E+04  0.50400001928E-02 0.  1.
       -1    1    3    3    0  502 -0.46621368051E+03 -0.50653520143E+03  0.54804342916E+03  0.87993448986E+03  0.50400001928E-02 0. -1.
</event>
<event>
 5   0  0.3713394E-06  0.2495751E+04  0.7818609E-02  0.8404501E-01
        2   -1    0    0  501    0  0.00000000000E+00  0.00000000000E+00  0.14190522599E+04  0.14190522599E+04  0.25500000920E-02 0.  1.
       -2   -1    0    0    0  501  0.00000000000E+00  0.00000000000E+00 -0.10973474311E+04  0.10973474311E+04  0.25500000920E-02 0. -1.
    10030    2    1    2    0    0  0.00000000000E+00  0.00000000000E+00  0.32170482877E+03  0.25163996910E+04  0.24957510709E+04 0.  0.
        3    1    3    3  502    0 -0.25781863580E+03 -0.79045708684E+03  0.10990889678E+04  0.13781470982E+04  0.10100000352E+00 0.  1.
       -3    1    3    3    0  502  0.25781863580E+03  0.79045708684E+03 -0.77738413900E+03  0.11382525927E+04  0.10100000352E+00 0. -1.
</event>
<event>
 5   0  0.3814260E-06  0.2501704E+04  0.7818609E-02  0.8402379E-01
       -2   -1    0    0    0  501  0.00000000000E+00  0.00000000000E+00  0.22095133483E+04  0.22095133483E+04  0.25500000920E-02 0. -1.
        2   -1    0    0  501    0  0.00000000000E+00  0.00000000000E+00 -0.70813376149E+03  0.70813376150E+03  0.25500000920E-02 0.  1.
    10030    2    1    2    0    0  0.00000000000E+00  0.00000000000E+00  0.15013795868E+04  0.29176471098E+04  0.25017042179E+04 0.  0.
        5    1    3    3  502    0 -0.73209954497E+03 -0.49476383981E+03 -0.28186404050E+03  0.92748607982E+03  0.46999998093E+01 0.  1.
       -5    1    3    3    0  502  0.73209954497E+03  0.49476383981E+03  0.17832436274E+04  0.19901610300E+04  0.46999998093E+01 0. -1.
</event>
<event>
 5   0  0.3713394E-06  0.2499664E+04  0.7818609E-02  0.8403105E-01
       -2   -1    0    0    0  501  0.00000000000E+00  0.00000000000E+00  0.10599841643E+04  0.10599841643E+04  0.25500000920E-02 0.  1.
        2   -1    0    0  501    0  0.00000000000E+00  0.00000000000E+00 -0.14736827475E+04  0.14736827475E+04  0.25500000920E-02 0. -1.
    10030    2    1    2    0    0  0.00000000000E+00  0.00000000000E+00 -0.41369858319E+03  0.25336669119E+04  0.24996642780E+04 0.  0.
        3    1    3    3  502    0 -0.36619190308E+03 -0.25429113683E+03 -0.13903450853E+04  0.14600753264E+04  0.10100000352E+00 0. -1.
       -3    1    3    3    0  502  0.36619190308E+03  0.25429113683E+03  0.97664650213E+03  0.10735915855E+04  0.10100000352E+00 0.  1.
</event>
<event>
 5   0  0.1519145E-06  0.2495421E+04  0.7818609E-02  0.8404619E-01
        1   -1    0    0  501    0  0.00000000000E+00  0.00000000000E+00  0.12909061976E+04  0.12909061976E+04  0.50400001928E-02 0. -1.
       -1   -1    0    0    0  501  0.00000000000E+00  0.00000000000E+00 -0.12059601695E+04  0.12059601695E+04  0.50400001928E-02 0.  1.
    10030    2    1    2    0    0  0.00000000000E+00  0.00000000000E+00  0.84946028145E+02  0.24968663671E+04  0.24954209720E+04 0.  0.
        4    1    3    3  502    0 -0.65911628058E+03 -0.10334467196E+04 -0.19075736697E+03  0.12404984399E+04  0.12699999809E+01 0. -1.
       -4    1    3    3    0  502  0.65911628058E+03  0.10334467196E+04  0.27570339512E+03  0.12563679272E+04  0.12699999809E+01 0.  1.
</event>
<event>
 5   0  0.1574896E-06  0.2496437E+04  0.7818609E-02  0.8404256E-01
        1   -1    0    0  501    0  0.00000000000E+00  0.00000000000E+00  0.14949753368E+04  0.14949753368E+04  0.50400001928E-02 0. -1.
       -1   -1    0    0    0  501  0.00000000000E+00  0.00000000000E+00 -0.10421910465E+04  0.10421910465E+04  0.50400001928E-02 0.  1.
    10030    2    1    2    0    0  0.00000000000E+00  0.00000000000E+00  0.45278429026E+03  0.25371663833E+04  0.24964373902E+04 0.  0.
        3    1    3    3  502    0 -0.51744616385E+03 -0.12128702837E+03 -0.92145384880E+03  0.10637378819E+04  0.10100000352E+00 0.  1.
       -3    1    3    3    0  502  0.51744616385E+03  0.12128702837E+03  0.13742381391E+04  0.14734285014E+04  0.10100000352E+00 0. -1.
</event>
<event>
 5   0  0.1501747E-06  0.2492126E+04  0.7818609E-02  0.8405796E-01
       -1   -1    0    0    0  501  0.00000000000E+00  0.00000000000E+00  0.18198991644E+04  0.18198991644E+04  0.50400001928E-02 0.  1.
        1   -1    0    0  501    0  0.00000000000E+00  0.00000000000E+00 -0.85316443781E+03  0.85316443782E+03  0.50400001928E-02 0. -1.
    10030    2    1    2    0    0  0.00000000000E+00  0.00000000000E+00  0.96673472662E+03  0.26730636023E+04  0.24921261987E+04 0.  0.
        2    1    3    3  502    0  0.68680854343E+03  0.92677157446E+03  0.98881493245E+03  0.15193309374E+04  0.25500000920E-02 0.  1.
       -2    1    3    3    0  502 -0.68680854343E+03 -0.92677157446E+03 -0.22080205829E+02  0.11537326649E+04  0.25500000920E-02 0. -1.
</event>
<event>
 5   0  0.1553604E-06  0.2500168E+04  0.7818609E-02  0.8402926E-01
        1   -1    0    0  501    0  0.00000000000E+00  0.00000000000E+00  0.19187322840E+04  0.19187322840E+04  0.50400001928E-02 0. -1.
       -1   -1    0    0    0  501  0.00000000000E+00  0.00000000000E+00 -0.81444931324E+03  0.81444931326E+03  0.50400001928E-02 0.  1.
    10030    2    1    2    0    0  0.00000000000E+00  0.00000000000E+00  0.11042829707E+04  0.27331815973E+04  0.25001681472E+04 0.  0.
        1    1    3    3  502    0 -0.22460253042E+03 -0.11649919174E+04  0.98261454440E+03  0.15405141372E+04  0.50400001928E-02 0.  1.
       -1    1    3    3    0  502  0.22460253042E+03  0.11649919174E+04  0.12166842635E+03  0.11926674600E+04  0.50400001928E-02 0. -1.
</event>
<event>
 5   0  0.3808293E-06  0.2502069E+04  0.7818609E-02  0.8402249E-01
       -2   -1    0    0    0  501  0.00000000000E+00  0.00000000000E+00  0.10046342439E+04  0.10046342439E+04  0.25500000920E-02 0.  1.
        2   -1    0    0  501    0  0.00000000000E+00  0.00000000000E+00 -0.15578672397E+04  0.15578672397E+04  0.25500000920E-02 0. -1.
    10030    2    1    2    0    0  0.00000000000E+00  0.00000000000E+00 -0.55323299579E+03  0.25625014836E+04  0.25020685653E+04 0.  0.
        1    1    3    3  502    0 -0.53758399690E+03  0.32991344001E+03  0.82987063035E+03  0.10423649528E+04  0.50400001928E-02 0.  1.
       -1    1    3    3    0  502  0.53758399690E+03 -0.32991344001E+03 -0.13831036261E+04  0.15201365308E+04  0.50400001928E-02 0. -1.
</event>
<event>
 5   0  0.1574896E-06  0.2502952E+04  0.7818609E-02  0.8401935E-01
       -1   -1    0    0    0  501  0.00000000000E+00  0.00000000000E+00  0.58120803494E+03  0.58120803496E+03  0.50400001928E-02 0.  1.
        1   -1    0    0  501    0  0.00000000000E+00  0.00000000000E+00 -0.26947190759E+04  0.26947190759E+04  0.50400001928E-02 0. -1.
    10030    2    1    2    0    0  0.00000000000E+00  0.00000000000E+00 -0.21135110410E+04  0.32759271109E+04  0.25029521600E+04 0.  0.
        3    1    3    3  502    0  0.43255542365E+02  0.10644982140E+02 -0.26936810961E+04  0.26940494084E+04  0.10100000352E+00 0. -1.
       -3    1    3    3    0  502 -0.43255542365E+02 -0.10644982140E+02  0.58017005508E+03  0.58187770245E+03  0.10100000352E+00 0.  1.
</event>
<event>
 5   0  0.3924441E-06  0.2500278E+04  0.7818609E-02  0.8402887E-01
        2   -1    0    0  501    0  0.00000000000E+00  0.00000000000E+00  0.14832128969E+04  0.14832128969E+04  0.25500000920E-02 0. -1.
       -2   -1    0    0    0  501  0.00000000000E+00  0.00000000000E+00 -0.10536905986E+04  0.10536905986E+04  0.25500000920E-02 0.  1.
    10030    2    1    2    0    0  0.00000000000E+00  0.00000000000E+00  0.42952229833E+03  0.25369034956E+04  0.25002779727E+04 0.  0.
        2    1    3    3  502    0 -0.16523539824E+03  0.82184129313E+03  0.11557740741E+04  0.14277743373E+04  0.25500000920E-02 0.  1.
       -2    1    3    3    0  502  0.16523539824E+03 -0.82184129313E+03 -0.72625177574E+03  0.11091291583E+04  0.25500000920E-02 0. -1.
</event>
<event>
 5   0  0.1541852E-06  0.2501588E+04  0.7818609E-02  0.8402420E-01
        1   -1    0    0  501    0  0.00000000000E+00  0.00000000000E+00  0.10597692602E+04  0.10597692602E+04  0.50400001928E-02 0. -1.
       -1   -1    0    0    0  501  0.00000000000E+00  0.00000000000E+00 -0.14762507889E+04  0.14762507889E+04  0.50400001928E-02 0.  1.
    10030    2    1    2    0    0  0.00000000000E+00  0.00000000000E+00 -0.41648152871E+03  0.25360200491E+04  0.25015876610E+04 0.  0.
        5    1    3    3  502    0  0.85197191425E+03  0.85737541381E+03  0.11792418271E+03  0.12144451185E+04  0.46999998093E+01 0.  1.
       -5    1    3    3    0  502 -0.85197191425E+03 -0.85737541381E+03 -0.53440571142E+03  0.13215749306E+04  0.46999998093E+01 0. -1.
</event>
<event>
 5   0  0.3971759E-06  0.2516076E+04  0.7818609E-02  0.8397281E-01
        2   -1    0    0  501    0  0.00000000000E+00  0.00000000000E+00  0.14338865615E+04  0.14338865615E+04  0.25500000920E-02 0. -1.
       -2   -1    0    0    0  501  0.00000000000E+00  0.00000000000E+00 -0.11037548592E+04  0.11037548592E+04  0.25500000920E-02 0.  1.
    10030    2    1    2    0    0  0.00000000000E+00  0.00000000000E+00  0.33013170223E+03  0.25376414207E+04  0.25160757221E+04 0.  0.
        4    1    3    3  502    0  0.10859948850E+03  0.53437201310E+03  0.13084983972E+04  0.14175743245E+04  0.12699999809E+01 0. -1.
       -4    1    3    3    0  502 -0.10859948850E+03 -0.53437201310E+03 -0.97836669492E+03  0.11200670962E+04  0.12699999809E+01 0.  1.
</event>
<event>
 5   0  0.3808293E-06  0.2499967E+04  0.7818609E-02  0.8402997E-01
       -2   -1    0    0    0  501  0.00000000000E+00  0.00000000000E+00  0.13763227469E+04  0.13763227469E+04  0.25500000920E-02 0. -1.
        2   -1    0    0  501    0  0.00000000000E+00  0.00000000000E+00 -0.11352414003E+04  0.11352414003E+04  0.25500000920E-02 0.  1.
    10030    2    1    2    0    0  0.00000000000E+00  0.00000000000E+00  0.24108134668E+03  0.25115641472E+04  0.24999668497E+04 0.  0.
        1    1    3    3  502    0  0.97719574941E+03  0.48527458787E+03  0.73333389148E+03  0.13146031929E+04  0.50400001928E-02 0. -1.
       -1    1    3    3    0  502 -0.97719574941E+03 -0.48527458787E+03 -0.49225254480E+03  0.11969609543E+04  0.50400001928E-02 0.  1.
</event>
<event>
 5   0  0.3713394E-06  0.2501466E+04  0.7818609E-02  0.8402463E-01
        2   -1    0    0  501    0  0.00000000000E+00  0.00000000000E+00  0.11408036650E+04  0.11408036650E+04  0.25500000920E-02 0. -1.
       -2   -1    0    0    0  501  0.00000000000E+00  0.00000000000E+00 -0.13712553105E+04  0.13712553105E+04  0.25500000920E-02 0.  1.
    10030    2    1    2    0    0  0.00000000000E+00  0.00000000000E+00 -0.23045164546E+03  0.25120589755E+04  0.25014660372E+04 0.  0.
        3    1    3    3  502    0  0.23854621953E+03 -0.12204447919E+04  0.19293971293E+02  0.12436888906E+04  0.10100000352E+00 0.  1.
       -3    1    3    3    0  502 -0.23854621953E+03  0.12204447919E+04 -0.24974561675E+03  0.12683700849E+04  0.10100000352E+00 0. -1.
</event>
<event>
 5   0  0.1519145E-06  0.2504514E+04  0.7818609E-02  0.8401379E-01
       -1   -1    0    0    0  501  0.00000000000E+00  0.00000000000E+00  0.12039585162E+04  0.12039585162E+04  0.50400001928E-02 0.  1.
        1   -1    0    0  501    0  0.00000000000E+00  0.00000000000E+00 -0.13024929191E+04  0.13024929192E+04  0.50400001928E-02 0. -1.
    10030    2    1    2    0    0  0.00000000000E+00  0.00000000000E+00 -0.98534402914E+02  0.25064514354E+04  0.25045138789E+04 0.  0.
        4    1    3    3  502    0  0.92617191719E+02  0.25164828957E+03  0.11748884179E+04  0.12051013290E+04  0.12699999809E+01 0.  1.
       -4    1    3    3    0  502 -0.92617191719E+02 -0.25164828957E+03 -0.12734228208E+04  0.13013501064E+04  0.12699999809E+01 0. -1.
</event>
<event>
 5   0  0.3971759E-06  0.2480824E+04  0.7818609E-02  0.8409849E-01
       -2   -1    0    0    0  501  0.00000000000E+00  0.00000000000E+00  0.89135689909E+03  0.89135689909E+03  0.25500000920E-02 0. -1.
        2   -1    0    0  501    0  0.00000000000E+00  0.00000000000E+00 -0.17261562959E+04  0.17261562959E+04  0.25500000920E-02 0.  1.
    10030    2    1    2    0    0  0.00000000000E+00  0.00000000000E+00 -0.83479939681E+03  0.26175131950E+04  0.24808235111E+04 0.  0.
        4    1    3    3  502    0 -0.25904147729E+03 -0.10037785857E+04  0.30126551288E+03  0.10795538236E+04  0.12699999809E+01 0. -1.
       -4    1    3    3    0  502  0.25904147729E+03  0.10037785857E+04 -0.11360649097E+04  0.15379593714E+04  0.12699999809E+01 0.  1.
</event>
<event>
 5   0  0.3971759E-06  0.2501988E+04  0.7818609E-02  0.8402278E-01
       -2   -1    0    0    0  501  0.00000000000E+00  0.00000000000E+00  0.73983162682E+03  0.73983162682E+03  0.25500000920E-02 0. -1.
        2   -1    0    0  501    0  0.00000000000E+00  0.00000000000E+00 -0.21153273455E+04  0.21153273455E+04  0.25500000920E-02 0.  1.
    10030    2    1    2    0    0  0.00000000000E+00  0.00000000000E+00 -0.13754957187E+04  0.28551589723E+04  0.25019880666E+04 0.  0.
        4    1    3    3  502    0 -0.20781314224E+03 -0.56118650142E+03  0.56589814990E+03  0.82362547339E+03  0.12699999809E+01 0. -1.
       -4    1    3    3    0  502  0.20781314224E+03  0.56118650142E+03 -0.19413938686E+04  0.20315334990E+04  0.12699999809E+01 0.  1.
</event>
<event>
 5   0  0.1501747E-06  0.2493835E+04  0.7818609E-02  0.8405185E-01
       -1   -1    0    0    0  501  0.00000000000E+00  0.00000000000E+00  0.10206739336E+04  0.10206739337E+04  0.50400001928E-02 0.  1.
        1   -1    0    0  501    0  0.00000000000E+00  0.00000000000E+00 -0.15233105683E+04  0.15233105683E+04  0.50400001928E-02 0. -1.
    10030    2    1    2    0    0  0.00000000000E+00  0.00000000000E+00 -0.50263663467E+03  0.25439845020E+04  0.24938351108E+04 0.  0.
        2    1    3    3  502    0 -0.41879998319E+03 -0.97336434651E+03  0.41914408792E+03  0.11395232966E+04  0.25500000920E-02 0. -1.
       -2    1    3    3    0  502  0.41879998319E+03  0.97336434651E+03 -0.92178072259E+03  0.14044612054E+04  0.25500000920E-02 0.  1.
</event>
<event>
 5   0  0.3808293E-06  0.2499845E+04  0.7818609E-02  0.8403041E-01
        2   -1    0    0  501    0  0.00000000000E+00  0.00000000000E+00  0.12791183700E+04  0.12791183700E+04  0.25500000920E-02 0.  1.
       -2   -1    0    0    0  501  0.00000000000E+00  0.00000000000E+00 -0.12213927542E+04  0.12213927542E+04  0.25500000920E-02 0. -1.
    10030    2    1    2    0    0  0.00000000000E+00  0.00000000000E+00  0.57725615767E+02  0.25005111241E+04  0.24998447222E+04 0.  0.
        1    1    3    3  502    0  0.80895252805E+03  0.12105658831E+03 -0.91650660185E+03  0.12284312115E+04  0.50400001928E-02 0. -1.
       -1    1    3    3    0  502 -0.80895252805E+03 -0.12105658831E+03  0.97423221761E+03  0.12720799126E+04  0.50400001928E-02 0.  1.
</event>
<event>
 5   0  0.1541852E-06  0.2480165E+04  0.7818609E-02  0.8410086E-01
       -1   -1    0    0    0  501  0.00000000000E+00  0.00000000000E+00  0.48644228442E+03  0.48644228445E+03  0.50400001928E-02 0.  1.
        1   -1    0    0  501    0  0.00000000000E+00  0.00000000000E+00 -0.31613301698E+04  0.31613301698E+04  0.50400001928E-02 0. -1.
    10030    2    1    2    0    0  0.00000000000E+00  0.00000000000E+00 -0.26748878854E+04  0.36477724542E+04  0.24801650507E+04 0.  0.
        5    1    3    3  502    0  0.10538163434E+04 -0.62397950180E+03 -0.16237862544E+04  0.20338591874E+04  0.46999998093E+01 0. -1.
       -5    1    3    3    0  502 -0.10538163434E+04  0.62397950180E+03 -0.10511016310E+04  0.16139132668E+04  0.46999998093E+01 0.  1.
</event>
<event>
 5   0  0.1541852E-06  0.2503304E+04  0.7818609E-02  0.8401809E-01
       -1   -1    0    0    0  501  0.00000000000E+00  0.00000000000E+00  0.93460069323E+03  0.93460069324E+03  0.50400001928E-02 0.  1.
        1   -1    0    0  501    0  0.00000000000E+00  0.00000000000E+00 -0.16762594226E+04  0.16762594226E+04  0.50400001928E-02 0. -1.
    10030    2    1    2    0    0  0.00000000000E+00  0.00000000000E+00 -0.74165872933E+03  0.26108601158E+04  0.25033043909E+04 0.  0.
        5    1    3    3  502    0 -0.38239984974E+03 -0.10214277945E+04 -0.10112702632E+04  0.14873580670E+04  0.46999998093E+01 0. -1.
       -5    1    3    3    0  502  0.38239984974E+03  0.10214277945E+04  0.26961153384E+03  0.11235020488E+04  0.46999998093E+01 0.  1.
</event>
<event>
 5   0  0.1541852E-06  0.2495969E+04  0.7818609E-02  0.8404423E-01
       -1   -1    0    0    0  501  0.00000000000E+00  0.00000000000E+00  0.14578025974E+04  0.14578025975E+04  0.50400001928E-02 0. -1.
        1   -1    0    0  501    0  0.00000000000E+00  0.00000000000E+00 -0.10683651012E+04  0.10683651012E+04  0.50400001928E-02 0.  1.
    10030    2    1    2    0    0  0.00000000000E+00  0.00000000000E+00  0.38943749625E+03  0.25261676987E+04  0.24959690860E+04 0.  0.
        5    1    3    3  502    0  0.55426649321E+03 -0.16543108679E+02 -0.93682341107E+03  0.10886437496E+04  0.46999998093E+01 0.  1.
       -5    1    3    3    0  502 -0.55426649321E+03  0.16543108679E+02  0.13262609073E+04  0.14375239491E+04  0.46999998093E+01 0. -1.
</event>
<event>
 5   0  0.1501747E-06  0.2514295E+04  0.7818609E-02  0.8397911E-01
        1   -1    0    0  501    0  0.00000000000E+00  0.00000000000E+00  0.14368944337E+04  0.14368944337E+04  0.50400001928E-02 0.  1.
       -1   -1    0    0    0  501  0.00000000000E+00  0.00000000000E+00 -0.10998857277E+04  0.10998857277E+04  0.50400001928E-02 0. -1.
    10030    2    1    2    0    0  0.00000000000E+00  0.00000000000E+00  0.33700870596E+03  0.25367801614E+04  0.25142948752E+04 0.  0.
        2    1    3    3  502    0  0.10695272465E+04  0.29378275224E+03  0.76559306010E+03  0.13477127180E+04  0.25500000920E-02 0.  1.
       -2    1    3    3    0  502 -0.10695272465E+04 -0.29378275224E+03 -0.42858435414E+03  0.11890674435E+04  0.25500000920E-02 0. -1.
</event>
<event>
 5   0  0.3713394E-06  0.2494272E+04  0.7818609E-02  0.8405029E-01
       -2   -1    0    0    0  501  0.00000000000E+00  0.00000000000E+00  0.28252306012E+04  0.28252306012E+04  0.25500000920E-02 0. -1.
        2   -1    0    0  501    0  0.00000000000E+00  0.00000000000E+00 -0.55052092824E+03  0.55052092825E+03  0.25500000920E-02 0.  1.
    10030    2    1    2    0    0  0.00000000000E+00  0.00000000000E+00  0.22747096730E+04  0.33757515294E+04  0.24942722971E+04 0.  0.
        3    1    3    3  502    0  0.97470109755E+03  0.22420840312E+03  0.12905998826E+03  0.10084483767E+04  0.10100000352E+00 0.  1.
       -3    1    3    3    0  502 -0.97470109755E+03 -0.22420840312E+03  0.21456496847E+04  0.23673031528E+04  0.10100000352E+00 0. -1.
</event>
<event>
 5   0  0.3814260E-06  0.2501260E+04  0.7818609E-02  0.8402537E-01
       -2   -1    0    0    0  501  0.00000000000E+00  0.00000000000E+00  0.11501255463E+04  0.11501255463E+04  0.25500000920E-02 0.  1.
        2   -1    0    0  501    0  0.00000000000E+00  0.00000000000E+00 -0.13599173961E+04  0.13599173961E+04  0.25500000920E-02 0. -1.
    10030    2    1    2    0    0  0.00000000000E+00  0.00000000000E+00 -0.20979184979E+03  0.25100429425E+04  0.25012602729E+04 0.  0.
        5    1    3    3  502    0 -0.67374153616E+02 -0.79468480057E+03 -0.10716010414E+04  0.13358196326E+04  0.46999998093E+01 0. -1.
       -5    1    3    3    0  502  0.67374153616E+02  0.79468480057E+03  0.86180919159E+03  0.11742233099E+04  0.46999998093E+01 0.  1.
</event>
<event>
 5   0  0.3924441E-06  0.2476226E+04  0.7818609E-02  0.8411504E-01
        2   -1    0    0  501    0  0.00000000000E+00  0.00000000000E+00  0.14009050169E+04  0.14009050169E+04  0.25500000920E-02 0.  1.
       -2   -1    0    0    0  501  0.00000000000E+00  0.00000000000E+00 -0.10942383107E+04  0.10942383107E+04  0.25500000920E-02 0. -1.
    10030    2    1    2    0    0  0.00000000000E+00  0.00000000000E+00  0.30666670619E+03  0.24951433277E+04  0.24762261118E+04 0.  0.
        2    1    3    3  502    0 -0.48068165346E+03 -0.67795258586E+03  0.10780859262E+04  0.13612287922E+04  0.25500000920E-02 0.  1.
       -2    1    3    3    0  502  0.48068165346E+03  0.67795258586E+03 -0.77141921997E+03  0.11339145354E+04  0.25500000920E-02 0. -1.
</event>
<event>
 5   0  0.1519145E-06  0.2495666E+04  0.7818609E-02  0.8404531E-01
        1   -1    0    0  501    0  0.00000000000E+00  0.00000000000E+00  0.22477829589E+04  0.22477829589E+04  0.50400001928E-02 0.  1.
       -1   -1    0    0    0  501  0.00000000000E+00  0.00000000000E+00 -0.69272127009E+03  0.69272127011E+03  0.50400001928E-02 0. -1.
    10030    2    1    2    0    0  0.00000000000E+00  0.00000000000E+00  0.15550616888E+04  0.29405042290E+04  0.24956658961E+04 0.  0.
        4    1    3    3  502    0 -0.81356394279E+03  0.90915533046E+03  0.46884937853E+03  0.13070084378E+04  0.12699999809E+01 0.  1.
       -4    1    3    3    0  502  0.81356394279E+03 -0.90915533046E+03  0.10862123103E+04  0.16334957912E+04  0.12699999809E+01 0. -1.
</event>
<event>
 5   0  0.3808293E-06  0.2498091E+04  0.7818609E-02  0.8403666E-01
        2   -1    0    0  501    0  0.00000000000E+00  0.00000000000E+00  0.20324387089E+04  0.20324387089E+04  0.25500000920E-02 0.  1.
       -2   -1    0    0    0  501  0.00000000000E+00  0.00000000000E+00 -0.76760745827E+03  0.76760745828E+03  0.25500000920E-02 0. -1.
    10030    2    1    2    0    0  0.00000000000E+00  0.00000000000E+00  0.12648312507E+04  0.28000461672E+04  0.24980913606E+04 0.  0.
        1    1    3    3  502    0  0.16845445420E+03 -0.83914451991E+03 -0.38725632535E+03  0.93941891081E+03  0.50400001928E-02 0. -1.
       -1    1    3    3    0  502 -0.16845445420E+03  0.83914451991E+03  0.16520875760E+04  0.18606272564E+04  0.50400001928E-02 0.  1.
</event>
<event>
 5   0  0.1501747E-06  0.2499386E+04  0.7818609E-02  0.8403204E-01
        1   -1    0    0  501    0  0.00000000000E+00  0.00000000000E+00  0.10904121796E+04  0.10904121796E+04  0.50400001928E-02 0.  1.
       -1   -1    0    0    0  501  0.00000000000E+00  0.00000000000E+00 -0.14322401058E+04  0.14322401058E+04  0.50400001928E-02 0. -1.
    10030    2    1    2    0    0  0.00000000000E+00  0.00000000000E+00 -0.34182792617E+03  0.25226522854E+04  0.24993855689E+04 0.  0.
        2    1    3    3  502    0 -0.70084701123E+03  0.89444508900E+03  0.35403684757E+03  0.11901935304E+04  0.25500000920E-02 0. -1.
       -2    1    3    3    0  502  0.70084701123E+03 -0.89444508900E+03 -0.69586477374E+03  0.13324587550E+04  0.25500000920E-02 0.  1.
</event>
<event>
 5   0  0.1553604E-06  0.2501186E+04  0.7818609E-02  0.8402563E-01
        1   -1    0    0  501    0  0.00000000000E+00  0.00000000000E+00  0.26584062821E+04  0.26584062821E+04  0.50400001928E-02 0. -1.
       -1   -1    0    0    0  501  0.00000000000E+00  0.00000000000E+00 -0.58831585598E+03  0.58831585600E+03  0.50400001928E-02 0.  1.
    10030    2    1    2    0    0  0.00000000000E+00  0.00000000000E+00  0.20700904262E+04  0.32467221382E+04  0.25011857728E+04 0.  0.
        1    1    3    3  502    0 -0.47544206753E+03  0.35585240118E+03 -0.39360592757E+03  0.71246173037E+03  0.50400001928E-02 0.  1.
       -1    1    3    3    0  502  0.47544206753E+03 -0.35585240118E+03  0.24636963537E+04  0.25342604078E+04  0.50400001928E-02 0. -1.
</event>
<event>
 5   0  0.1574896E-06  0.2501982E+04  0.7818609E-02  0.8402280E-01
       -1   -1    0    0    0  501  0.00000000000E+00  0.00000000000E+00  0.10922618847E+04  0.10922618847E+04  0.50400001928E-02 0.  1.
        1   -1    0    0  501    0  0.00000000000E+00  0.00000000000E+00 -0.14327870698E+04  0.14327870698E+04  0.50400001928E-02 0. -1.
    10030    2    1    2    0    0  0.00000000000E+00  0.00000000000E+00 -0.34052518505E+03  0.25250489545E+04  0.25019821784E+04 0.  0.
        3    1    3    3  502    0 -0.84517886089E+03  0.40195381384E+03 -0.10080268688E+04  0.13755043998E+04  0.10100000352E+00 0. -1.
       -3    1    3    3    0  502  0.84517886089E+03 -0.40195381384E+03  0.66750168373E+03  0.11495445547E+04  0.10100000352E+00 0.  1.
</event>
<event>
 5   0  0.1501747E-06  0.2496286E+04  0.7818609E-02  0.8404310E-01
       -1   -1    0    0    0  501  0.00000000000E+00  0.00000000000E+00  0.13308867309E+04  0.13308867309E+04  0.50400001928E-02 0.  1.
        1   -1    0    0  501    0  0.00000000000E+00  0.00000000000E+00 -0.11705432508E+04  0.11705432508E+04  0.50400001928E-02 0. -1.
    10030    2    1    2    0    0  0.00000000000E+00  0.00000000000E+00  0.16034348008E+03  0.25014299817E+04  0.24962856251E+04 0.  0.
        2    1    3    3  502    0  0.10741003351E+04 -0.59490996481E+03  0.30480124174E+03  0.12651139052E+04  0.25500000920E-02 0. -1.
       -2    1    3    3    0  502 -0.10741003351E+04  0.59490996481E+03 -0.14445776165E+03  0.12363160765E+04  0.25500000920E-02 0.  1.
</event>
<event>
 5   0  0.1574896E-06  0.2501037E+04  0.7818609E-02  0.8402616E-01
        1   -1    0    0  501    0  0.00000000000E+00  0.00000000000E+00  0.95718109832E+03  0.95718109833E+03  0.50400001928E-02 0. -1.
       -1   -1    0    0    0  501  0.00000000000E+00  0.00000000000E+00 -0.16337520661E+04  0.16337520661E+04  0.50400001928E-02 0.  1.
    10030    2    1    2    0    0  0.00000000000E+00  0.00000000000E+00 -0.67657096782E+03  0.25909331645E+04  0.25010370626E+04 0.  0.
        3    1    3    3  502    0  0.42300013784E+02 -0.13175098891E+03  0.94922561790E+03  0.95925851475E+03  0.10100000352E+00 0. -1.
       -3    1    3    3    0  502 -0.42300013784E+02  0.13175098891E+03 -0.16257965857E+04  0.16316746497E+04  0.10100000352E+00 0.  1.
</event>
<event>
 5   0  0.1553604E-06  0.2498495E+04  0.7818609E-02  0.8403522E-01
       -1   -1    0    0    0  501  0.00000000000E+00  0.00000000000E+00  0.11675472045E+04  0.11675472046E+04  0.50400001928E-02 0. -1.
        1   -1    0    0  501    0  0.00000000000E+00  0.00000000000E+00 -0.13366646647E+04  0.13366646647E+04  0.50400001928E-02 0.  1.
    10030    2    1    2    0    0  0.00000000000E+00  0.00000000000E+00 -0.16911746019E+03  0.25042118693E+04  0.24984948211E+04 0.  0.
        1    1    3    3  502    0 -0.25551529652E+03 -0.14619528942E+03  0.11322859983E+04  0.11699285069E+04  0.50400001928E-02 0. -1.
       -1    1    3    3    0  502  0.25551529652E+03  0.14619528942E+03 -0.13014034585E+04  0.13342833624E+04  0.50400001928E-02 0.  1.
</event>
<event>
 5   0  0.1501747E-06  0.2500671E+04  0.7818609E-02  0.8402746E-01
       -1   -1    0    0    0  501  0.00000000000E+00  0.00000000000E+00  0.12576489182E+04  0.12576489182E+04  0.50400001928E-02 0.  1.
        1   -1    0    0  501    0  0.00000000000E+00  0.00000000000E+00 -0.12430649018E+04  0.12430649018E+04  0.50400001928E-02 0. -1.
    10030    2    1    2    0    0  0.00000000000E+00  0.00000000000E+00  0.14584016380E+02  0.25007138200E+04  0.25006712931E+04 0.  0.
        2    1    3    3  502    0  0.64081686974E+03 -0.70045487149E+03  0.82097404669E+03  0.12551022559E+04  0.25500000920E-02 0.  1.
       -2    1    3    3    0  502 -0.64081686974E+03  0.70045487149E+03 -0.80639003031E+03  0.12456115641E+04  0.25500000920E-02 0. -1.
</event>
<event>
 5   0  0.3924441E-06  0.2503058E+04  0.7818609E-02  0.8401897E-01
       -2   -1    0    0    0  501  0.00000000000E+00  0.00000000000E+00  0.12422628117E+04  0.12422628117E+04  0.25500000920E-02 0.  1.
        2   -1    0    0  501    0  0.00000000000E+00  0.00000000000E+00 -0.12608640402E+04  0.12608640402E+04  0.25500000920E-02 0. -1.
    10030    2    1    2    0    0  0.00000000000E+00  0.00000000000E+00 -0.18601228481E+02  0.25031268518E+04  0.25030577362E+04 0.  0.
        2    1    3    3  502    0 -0.95938978876E+03  0.32266062790E+03 -0.74538198244E+03  0.12570333915E+04  0.25500000920E-02 0. -1.
       -2    1    3    3    0  502  0.95938978876E+03 -0.32266062790E+03  0.72678075396E+03  0.12460934603E+04  0.25500000920E-02 0.  1.
</event>
<event>
 5   0  0.1501747E-06  0.2498743E+04  0.7818609E-02  0.8403434E-01
        1   -1    0    0  501    0  0.00000000000E+00  0.00000000000E+00  0.23394812064E+04  0.23394812064E+04  0.50400001928E-02 0.  1.
       -1   -1    0    0    0  501  0.00000000000E+00  0.00000000000E+00 -0.66721156581E+03  0.66721156583E+03  0.50400001928E-02 0. -1.
    10030    2    1    2    0    0  0.00000000000E+00  0.00000000000E+00  0.16722696406E+04  0.30066927722E+04  0.24987428190E+04 0.  0.
        2    1    3    3  502    0  0.10263847151E+04 -0.56995193020E+03  0.13503435477E+04  0.17893402368E+04  0.25500000920E-02 0.  1.
       -2    1    3    3    0  502 -0.10263847151E+04  0.56995193020E+03  0.32192609288E+03  0.12173525354E+04  0.25500000920E-02 0. -1.
</event>
<event>
 5   0  0.1541852E-06  0.2568574E+04  0.7818609E-02  0.8378955E-01
        1   -1    0    0  501    0  0.00000000000E+00  0.00000000000E+00  0.10810810541E+04  0.10810810541E+04  0.50400001928E-02 0. -1.
       -1   -1    0    0    0  501  0.00000000000E+00  0.00000000000E+00 -0.15256883522E+04  0.15256883522E+04  0.50400001928E-02 0.  1.
    10030    2    1    2    0    0  0.00000000000E+00  0.00000000000E+00 -0.44460729812E+03  0.26067694064E+04  0.25685737460E+04 0.  0.
        5    1    3    3  502    0  0.92822640343E+03 -0.63446616916E+03  0.40758602052E+03  0.11959515166E+04  0.46999998093E+01 0. -1.
       -5    1    3    3    0  502 -0.92822640343E+03  0.63446616916E+03 -0.85219331864E+03  0.14108178898E+04  0.46999998093E+01 0.  1.
</event>
<event>
 5   0  0.1287375E-06  0.2495872E+04  0.7818609E-02  0.8404458E-01
        3   -1    0    0  501    0  0.00000000000E+00  0.00000000000E+00  0.11696132028E+04  0.11696132071E+04  0.10100000352E+00 0. -1.
       -3   -1    0    0    0  501  0.00000000000E+00  0.00000000000E+00 -0.13315031424E+04  0.13315031462E+04  0.10100000352E+00 0.  1.
    10030    2    1    2    0    0  0.00000000000E+00  0.00000000000E+00 -0.16188993959E+03  0.25011163533E+04  0.24958715232E+04 0.  0.
        5    1    3    3  502    0 -0.59110033559E+02  0.80495834011E+03 -0.10347168728E+04  0.13122930398E+04  0.46999998093E+01 0.  1.
       -5    1    3    3    0  502  0.59110033559E+02 -0.80495834011E+03  0.87282693323E+03  0.11888233135E+04  0.46999998093E+01 0. -1.
</event>
<event>
 5   0  0.3713394E-06  0.2498177E+04  0.7818609E-02  0.8403635E-01
        2   -1    0    0  501    0  0.00000000000E+00  0.00000000000E+00  0.20900048614E+04  0.20900048614E+04  0.25500000920E-02 0. -1.
       -2   -1    0    0    0  501  0.00000000000E+00  0.00000000000E+00 -0.74651594415E+03  0.74651594415E+03  0.25500000920E-02 0.  1.
    10030    2    1    2    0    0  0.00000000000E+00  0.00000000000E+00  0.13434889172E+04  0.28365208055E+04  0.24981768971E+04 0.  0.
        3    1    3    3  502    0  0.63660869551E+03 -0.65044846812E+03 -0.29961325889E+03  0.95818680641E+03  0.10100000352E+00 0.  1.
       -3    1    3    3    0  502 -0.63660869551E+03  0.65044846812E+03  0.16431021761E+04  0.18783339991E+04  0.10100000352E+00 0. -1.
</event>
<event>
 5   0  0.3713394E-06  0.2499164E+04  0.7818609E-02  0.8403283E-01
        2   -1    0    0  501    0  0.00000000000E+00  0.00000000000E+00  0.15422226081E+04  0.15422226081E+04  0.25500000920E-02 0.  1.
       -2   -1    0    0    0  501  0.00000000000E+00  0.00000000000E+00 -0.10124709781E+04  0.10124709781E+04  0.25500000920E-02 0. -1.
    10030    2    1    2    0    0  0.00000000000E+00  0.00000000000E+00  0.52975162997E+03  0.25546935861E+04  0.24991643663E+04 0.  0.
        3    1    3    3  502    0  0.10136472755E+04 -0.48542795639E+03  0.82321197241E+03  0.13931256446E+04  0.10100000352E+00 0.  1.
       -3    1    3    3    0  502 -0.10136472755E+04  0.48542795639E+03 -0.29346034245E+03  0.11615679415E+04  0.10100000352E+00 0. -1.
</event>
<event>
 5   0  0.3971759E-06  0.2533295E+04  0.7818609E-02  0.8391219E-01
        2   -1    0    0  501    0  0.00000000000E+00  0.00000000000E+00  0.99271251822E+03  0.99271251823E+03  0.25500000920E-02 0.  1.
       -2   -1    0    0    0  501  0.00000000000E+00  0.00000000000E+00 -0.16161740099E+04  0.16161740099E+04  0.25500000920E-02 0. -1.
    10030    2    1    2    0    0  0.00000000000E+00  0.00000000000E+00 -0.62346149171E+03  0.26088865282E+04  0.25332952227E+04 0.  0.
        4    1    3    3  502    0  0.19125073576E+03 -0.67186110382E+03  0.77640546346E+03  0.10444047316E+04  0.12699999809E+01 0.  1.
       -4    1    3    3    0  502 -0.19125073576E+03  0.67186110382E+03 -0.13998669552E+04  0.15644817966E+04  0.12699999809E+01 0. -1.
</event>
<event>
 5   0  0.3713394E-06  0.2487511E+04  0.7818609E-02  0.8407448E-01
       -2   -1    0    0    0  501  0.00000000000E+00  0.00000000000E+00  0.86011402887E+03  0.86011402888E+03  0.25500000920E-02 0.  1.
        2   -1    0    0  501    0  0.00000000000E+00  0.00000000000E+00 -0.17985149532E+04  0.17985149532E+04  0.25500000920E-02 0. -1.
    10030    2    1    2    0    0  0.00000000000E+00  0.00000000000E+00 -0.93840092436E+03  0.26586289821E+04  0.24875111597E+04 0.  0.
        3    1    3    3  502    0 -0.98535822880E+03 -0.59674981891E+01  0.34192758232E+03  0.10430153076E+04  0.10100000352E+00 0.  1.
       -3    1    3    3    0  502  0.98535822880E+03  0.59674981891E+01 -0.12803285067E+04  0.16156136745E+04  0.10100000352E+00 0. -1.
</event>
<event>
 5   0  0.3808293E-06  0.2499452E+04  0.7818609E-02  0.8403181E-01
       -2   -1    0    0    0  501  0.00000000000E+00  0.00000000000E+00  0.10043292637E+04  0.10043292637E+04  0.25500000920E-02 0.  1.
        2   -1    0    0  501    0  0.00000000000E+00  0.00000000000E+00 -0.15550826686E+04  0.15550826686E+04  0.25500000920E-02 0. -1.
    10030    2    1    2    0    0  0.00000000000E+00  0.00000000000E+00 -0.55075340490E+03  0.25594119324E+04  0.24994519652E+04 0.  0.
        1    1    3    3  502    0 -0.10858016466E+04 -0.61587445570E+03 -0.33637476055E+03  0.12928319846E+04  0.50400001928E-02 0. -1.
       -1    1    3    3    0  502  0.10858016466E+04  0.61587445570E+03 -0.21437864436E+03  0.12665799478E+04  0.50400001928E-02 0.  1.
</event>
<event>
 5   0  0.3814260E-06  0.2483260E+04  0.7818609E-02  0.8408973E-01
       -2   -1    0    0    0  501  0.00000000000E+00  0.00000000000E+00  0.10179449462E+04  0.10179449462E+04  0.25500000920E-02 0. -1.
        2   -1    0    0  501    0  0.00000000000E+00  0.00000000000E+00 -0.15144684339E+04  0.15144684339E+04  0.25500000920E-02 0.  1.
    10030    2    1    2    0    0  0.00000000000E+00  0.00000000000E+00 -0.49652348766E+03  0.25324133801E+04  0.24832603476E+04 0.  0.
        5    1    3    3  502    0 -0.65780804003E+03  0.10530479896E+04 -0.24685138479E+03  0.12659301647E+04  0.46999998093E+01 0.  1.
       -5    1    3    3    0  502  0.65780804003E+03 -0.10530479896E+04 -0.24967210288E+03  0.12664832154E+04  0.46999998093E+01 0. -1.
</event>
<event>
 5   0  0.3814260E-06  0.2498376E+04  0.7818609E-02  0.8403564E-01
       -2   -1    0    0    0  501  0.00000000000E+00  0.00000000000E+00  0.12055945468E+04  0.12055945468E+04  0.25500000920E-02 0. -1.
        2   -1    0    0  501    0  0.00000000000E+00  0.00000000000E+00 -0.12943580684E+04  0.12943580684E+04  0.25500000920E-02 0.  1.
    10030    2    1    2    0    0  0.00000000000E+00  0.00000000000E+00 -0.88763521659E+02  0.24999526152E+04  0.24983762958E+04 0.  0.
        5    1    3    3  502    0  0.47647762008E+03 -0.54152488524E+02 -0.11985762681E+04  0.12909572320E+04  0.46999998093E+01 0.  1.
       -5    1    3    3    0  502 -0.47647762008E+03  0.54152488524E+02  0.11098127464E+04  0.12089953832E+04  0.46999998093E+01 0. -1.
</event>
<event>
 5   0  0.1574896E-06  0.2508553E+04  0.7818609E-02  0.8399945E-01
       -1   -1    0    0    0  501  0.00000000000E+00  0.00000000000E+00  0.10443654591E+04  0.10443654591E+04  0.50400001928E-02 0.  1.
        1   -1    0    0  501    0  0.00000000000E+00  0.00000000000E+00 -0.15063786007E+04  0.15063786007E+04  0.50400001928E-02 0. -1.
    10030    2    1    2    0    0  0.00000000000E+00  0.00000000000E+00 -0.46201314158E+03  0.25507440598E+04  0.25085531917E+04 0.  0.
        3    1    3    3  502    0 -0.86729646384E+03  0.50980313755E+03 -0.99267605731E+03  0.14133322894E+04  0.10100000352E+00 0. -1.
       -3    1    3    3    0  502  0.86729646384E+03 -0.50980313755E+03  0.53066291573E+03  0.11374117705E+04  0.10100000352E+00 0.  1.
</event>
<event>
 5   0  0.1553604E-06  0.2508210E+04  0.7818609E-02  0.8400067E-01
        1   -1    0    0  501    0  0.00000000000E+00  0.00000000000E+00  0.17867070045E+04  0.17867070045E+04  0.50400001928E-02 0.  1.
       -1   -1    0    0    0  501  0.00000000000E+00  0.00000000000E+00 -0.88026687478E+03  0.88026687479E+03  0.50400001928E-02 0. -1.
    10030    2    1    2    0    0  0.00000000000E+00  0.00000000000E+00  0.90644012976E+03  0.26669738793E+04  0.25082097130E+04 0.  0.
        1    1    3    3  502    0  0.58826288075E+03 -0.22284118949E+02 -0.72422524021E+03  0.93330166474E+03  0.50400001928E-02 0. -1.
       -1    1    3    3    0  502 -0.58826288075E+03  0.22284118949E+02  0.16306653700E+04  0.17336722146E+04  0.50400001928E-02 0.  1.
</event>
<event>
 5   0  0.1574896E-06  0.2498496E+04  0.7818609E-02  0.8403522E-01
        1   -1    0    0  501    0  0.00000000000E+00  0.00000000000E+00  0.17951691492E+04  0.17951691492E+04  0.50400001928E-02 0. -1.
       -1   -1    0    0    0  501  0.00000000000E+00  0.00000000000E+00 -0.86934462079E+03  0.86934462080E+03  0.50400001928E-02 0.  1.
    10030    2    1    2    0    0  0.00000000000E+00  0.00000000000E+00  0.92582452843E+03  0.26645137700E+04  0.24984960623E+04 0.  0.
        3    1    3    3  502    0  0.57060777216E+03  0.72281415482E+03 -0.43731504455E+03  0.10194596561E+04  0.10100000352E+00 0.  1.
       -3    1    3    3    0  502 -0.57060777216E+03 -0.72281415482E+03  0.13631395730E+04  0.16450541139E+04  0.10100000352E+00 0. -1.
</event>
<event>
 5   0  0.1553604E-06  0.2501322E+04  0.7818609E-02  0.8402515E-01
       -1   -1    0    0    0  501  0.00000000000E+00  0.00000000000E+00  0.62921888606E+03  0.62921888608E+03  0.50400001928E-02 0.  1.
        1   -1    0    0  501    0  0.00000000000E+00  0.00000000000E+00 -0.24858636178E+04  0.24858636178E+04  0.50400001928E-02 0. -1.
    10030    2    1    2    0    0  0.00000000000E+00  0.00000000000E+00 -0.18566447317E+04  0.31150825039E+04  0.25013215199E+04 0.  0.
        1    1    3    3  502    0 -0.49526625250E+03  0.12760244896E+03  0.49303227551E+03  0.71038853494E+03  0.50400001928E-02 0.  1.
       -1    1    3    3    0  502  0.49526625250E+03 -0.12760244896E+03 -0.23496770072E+04  0.24046939689E+04  0.50400001928E-02 0. -1.
</event>
<event>
 5   0  0.1519145E-06  0.2499870E+04  0.7818609E-02  0.8403032E-01
        1   -1    0    0  501    0  0.00000000000E+00  0.00000000000E+00  0.11517629598E+04  0.11517629598E+04  0.50400001928E-02 0. -1.
       -1   -1    0    0    0  501  0.00000000000E+00  0.00000000000E+00 -0.13564752997E+04  0.13564752998E+04  0.50400001928E-02 0.  1.
    10030    2    1    2    0    0  0.00000000000E+00  0.00000000000E+00 -0.20471233993E+03  0.25082382596E+04  0.24998704016E+04 0.  0.
        4    1    3    3  502    0 -0.10843573932E+04 -0.21560069519E+03  0.48270955994E+03  0.12063684131E+04  0.12699999809E+01 0. -1.
       -4    1    3    3    0  502  0.10843573932E+04  0.21560069519E+03 -0.68742189987E+03  0.13018698465E+04  0.12699999809E+01 0.  1.
</event>
<event>
 5   0  0.3971759E-06  0.2494316E+04  0.7818609E-02  0.8405013E-01
        2   -1    0    0  501    0  0.00000000000E+00  0.00000000000E+00  0.19321654071E+04  0.19321654071E+04  0.25500000920E-02 0. -1.
       -2   -1    0    0    0  501  0.00000000000E+00  0.00000000000E+00 -0.80500487528E+03  0.80500487528E+03  0.25500000920E-02 0.  1.
    10030    2    1    2    0    0  0.00000000000E+00  0.00000000000E+00  0.11271605318E+04  0.27371702824E+04  0.24943155956E+04 0.  0.
        4    1    3    3  502    0  0.45271042476E+03  0.34343145611E+03  0.17818556673E+04  0.18702681962E+04  0.12699999809E+01 0. -1.
       -4    1    3    3    0  502 -0.45271042476E+03 -0.34343145611E+03 -0.65469513548E+03  0.86690208619E+03  0.12699999809E+01 0.  1.
</event>
<event>
 5   0  0.3814260E-06  0.2500941E+04  0.7818609E-02  0.8402650E-01
       -2   -1    0    0    0  501  0.00000000000E+00  0.00000000000E+00  0.11364849834E+04  0.11364849834E+04  0.25500000920E-02 0. -1.
        2   -1    0    0  501    0  0.00000000000E+00  0.00000000000E+00 -0.13758881054E+04  0.13758881054E+04  0.25500000920E-02 0.  1.
    10030    2    1    2    0    0  0.00000000000E+00  0.00000000000E+00 -0.23940312198E+03  0.25123730889E+04  0.25009407596E+04 0.  0.
        5    1    3    3  502    0  0.15707285751E+02  0.82787861773E+03  0.82161133786E+03  0.11664891791E+04  0.46999998093E+01 0. -1.
       -5    1    3    3    0  502 -0.15707285751E+02 -0.82787861773E+03 -0.10610144598E+04  0.13458839097E+04  0.46999998093E+01 0.  1.
</event>
<event>
 5   0  0.1553604E-06  0.2501305E+04  0.7818609E-02  0.8402521E-01
       -1   -1    0    0    0  501  0.00000000000E+00  0.00000000000E+00  0.12799343557E+04  0.12799343557E+04  0.50400001928E-02 0.  1.
        1   -1    0    0  501    0  0.00000000000E+00  0.00000000000E+00 -0.12220402459E+04  0.12220402459E+04  0.50400001928E-02 0. -1.
    10030    2    1    2    0    0  0.00000000000E+00  0.00000000000E+00  0.57894109795E+02  0.25019746017E+04  0.25013046955E+04 0.  0.
        1    1    3    3  502    0 -0.83754725526E+03 -0.92778670435E+03  0.72059889511E+02  0.12519849046E+04  0.50400001928E-02 0. -1.
       -1    1    3    3    0  502  0.83754725526E+03  0.92778670435E+03 -0.14165779716E+02  0.12499896971E+04  0.50400001928E-02 0.  1.
</event>
<event>
 5   0  0.3713394E-06  0.2479240E+04  0.7818609E-02  0.8410419E-01
        2   -1    0    0  501    0  0.00000000000E+00  0.00000000000E+00  0.23479115410E+04  0.23479115410E+04  0.25500000920E-02 0. -1.
       -2   -1    0    0    0  501  0.00000000000E+00  0.00000000000E+00 -0.65447852953E+03  0.65447852953E+03  0.25500000920E-02 0.  1.
    10030    2    1    2    0    0  0.00000000000E+00  0.00000000000E+00  0.16934330115E+04  0.30023900705E+04  0.24792399584E+04 0.  0.
        3    1    3    3  502    0  0.10233497213E+04  0.34168570386E+03  0.15859935495E+04  0.19181682203E+04  0.10100000352E+00 0.  1.
       -3    1    3    3    0  502 -0.10233497213E+04 -0.34168570386E+03  0.10743946200E+03  0.10842218502E+04  0.10100000352E+00 0. -1.
</event>
<event>
 5   0  0.3808293E-06  0.2494339E+04  0.7818609E-02  0.8405005E-01
        2   -1    0    0  501    0  0.00000000000E+00  0.00000000000E+00  0.12421804398E+04  0.12421804398E+04  0.25500000920E-02 0.  1.
       -2   -1    0    0    0  501  0.00000000000E+00  0.00000000000E+00 -0.12521785170E+04  0.12521785170E+04  0.25500000920E-02 0. -1.
    10030    2    1    2    0    0  0.00000000000E+00  0.00000000000E+00 -0.99980771763E+01  0.24943589568E+04  0.24943389192E+04 0.  0.
        1    1    3    3  502    0  0.30396180681E+03 -0.82056150018E+03  0.88366872461E+03  0.12436174534E+04  0.50400001928E-02 0.  1.
       -1    1    3    3    0  502 -0.30396180681E+03  0.82056150018E+03 -0.89366680179E+03  0.12507415034E+04  0.50400001928E-02 0. -1.
</event>
<event>
 5   0  0.3924441E-06  0.2499803E+04  0.7818609E-02  0.8403056E-01
        2   -1    0    0  501    0  0.00000000000E+00  0.00000000000E+00  0.65314773683E+03  0.65314773683E+03  0.25500000920E-02 0.  1.
       -2   -1    0    0    0  501  0.00000000000E+00  0.00000000000E+00 -0.23918846329E+04  0.23918846329E+04  0.25500000920E-02 0. -1.
    10030    2    1    2    0    0  0.00000000000E+00  0.00000000000E+00 -0.17387368961E+04  0.30450323697E+04  0.24998032200E+04 0.  0.
        2    1    3    3  502    0  0.10767633507E+04 -0.28732141814E+01 -0.96251687160E+02  0.10810605700E+04  0.25500000920E-02 0.  1.
       -2    1    3    3    0  502 -0.10767633507E+04  0.28732141814E+01 -0.16424852089E+04  0.19639717997E+04  0.25500000920E-02 0. -1.
</event>
<event>
 5   0  0.1501747E-06  0.2528564E+04  0.7818609E-02  0.8392880E-01
        1   -1    0    0  501    0  0.00000000000E+00  0.00000000000E+00  0.17537522645E+04  0.17537522645E+04  0.50400001928E-02 0.  1.
       -1   -1    0    0    0  501  0.00000000000E+00  0.00000000000E+00 -0.91142235311E+03  0.91142235312E+03  0.50400001928E-02 0. -1.
    10030    2    1    2    0    0  0.00000000000E+00  0.00000000000E+00  0.84232991140E+03  0.26651746176E+04  0.25285640318E+04 0.  0.
        2    1    3    3  502    0  0.35108994330E+02 -0.11557754506E+04 -0.11768871181E+03  0.11622823093E+04  0.25500000920E-02 0. -1.
       -2    1    3    3    0  502 -0.35108994330E+02  0.11557754506E+04  0.96001862321E+03  0.15028923084E+04  0.25500000920E-02 0.  1.
</event>
<event>
 5   0  0.1519145E-06  0.2502230E+04  0.7818609E-02  0.8402192E-01
       -1   -1    0    0    0  501  0.00000000000E+00  0.00000000000E+00  0.76934393851E+03  0.76934393853E+03  0.50400001928E-02 0. -1.
        1   -1    0    0  501    0  0.00000000000E+00  0.00000000000E+00 -0.20345756021E+04  0.20345756021E+04  0.50400001928E-02 0.  1.
    10030    2    1    2    0    0  0.00000000000E+00  0.00000000000E+00 -0.12652316636E+04  0.28039195407E+04  0.25022297312E+04 0.  0.
        4    1    3    3  502    0 -0.99543315937E+03 -0.49901793722E+03  0.65804993584E+01  0.11135308672E+04  0.12699999809E+01 0. -1.
       -4    1    3    3    0  502  0.99543315937E+03  0.49901793722E+03 -0.12718121630E+04  0.16903886734E+04  0.12699999809E+01 0.  1.
</event>
<event>
 5   0  0.3814260E-06  0.2503838E+04  0.7818609E-02  0.8401619E-01
       -2   -1    0    0    0  501  0.00000000000E+00  0.00000000000E+00  0.12659861122E+04  0.12659861122E+04  0.25500000920E-02 0.  1.
        2   -1    0    0  501    0  0.00000000000E+00  0.00000000000E+00 -0.12380083032E+04  0.12380083032E+04  0.25500000920E-02 0. -1.
    10030    2    1    2    0    0  0.00000000000E+00  0.00000000000E+00  0.27977809027E+02  0.25039944155E+04  0.25038381088E+04 0.  0.
        5    1    3    3  502    0 -0.52224829932E+03  0.11338746693E+04 -0.80166730750E+02  0.12509451813E+04  0.46999998093E+01 0. -1.
       -5    1    3    3    0  502  0.52224829932E+03 -0.11338746693E+04  0.10814453978E+03  0.12530492342E+04  0.46999998093E+01 0.  1.
</event>
<event>
 5   0  0.1501747E-06  0.2501432E+04  0.7818609E-02  0.8402476E-01
        1   -1    0    0  501    0  0.00000000000E+00  0.00000000000E+00  0.15214482525E+04  0.15214482525E+04  0.50400001928E-02 0.  1.
       -1   -1    0    0    0  501  0.00000000000E+00  0.00000000000E+00 -0.10281589827E+04  0.10281589827E+04  0.50400001928E-02 0. -1.
    10030    2    1    2    0    0  0.00000000000E+00  0.00000000000E+00  0.49328926976E+03  0.25496072352E+04  0.25014321398E+04 0.  0.
        2    1    3    3  502    0  0.15997100441E+03  0.11938763177E+04  0.58981765868E+03  0.13411995581E+04  0.25500000920E-02 0. -1.
       -2    1    3    3    0  502 -0.15997100441E+03 -0.11938763177E+04 -0.96528388922E+02  0.12084076771E+04  0.25500000920E-02 0.  1.
</event>
<event>
 5   0  0.1541852E-06  0.2497596E+04  0.7818609E-02  0.8403842E-01
       -1   -1    0    0    0  501  0.00000000000E+00  0.00000000000E+00  0.90285685911E+03  0.90285685912E+03  0.50400001928E-02 0. -1.
        1   -1    0    0  501    0  0.00000000000E+00  0.00000000000E+00 -0.17272909561E+04  0.17272909561E+04  0.50400001928E-02 0.  1.
    10030    2    1    2    0    0  0.00000000000E+00  0.00000000000E+00 -0.82443409700E+03  0.26301478152E+04  0.24975960341E+04 0.  0.
        5    1    3    3  502    0  0.53067416618E+03  0.38733824231E+03  0.70613741713E+03  0.96451963510E+03  0.46999998093E+01 0. -1.
       -5    1    3    3    0  502 -0.53067416618E+03 -0.38733824231E+03 -0.15305715141E+04  0.16656281801E+04  0.46999998093E+01 0.  1.
</event>
<event>
 5   0  0.1519145E-06  0.2501222E+04  0.7818609E-02  0.8402550E-01
       -1   -1    0    0    0  501  0.00000000000E+00  0.00000000000E+00  0.88875457504E+03  0.88875457506E+03  0.50400001928E-02 0. -1.
        1   -1    0    0  501    0  0.00000000000E+00  0.00000000000E+00 -0.17597965691E+04  0.17597965691E+04  0.50400001928E-02 0.  1.
    10030    2    1    2    0    0  0.00000000000E+00  0.00000000000E+00 -0.87104199407E+03  0.26485511442E+04  0.25012215032E+04 0.  0.
        4    1    3    3  502    0 -0.32389601014E+03 -0.94681327040E+03  0.35877041269E+03  0.10630530637E+04  0.12699999809E+01 0. -1.
       -4    1    3    3    0  502  0.32389601014E+03  0.94681327040E+03 -0.12298124068E+04  0.15854980804E+04  0.12699999809E+01 0.  1.
</event>
<event>
 5   0  0.1574896E-06  0.2498157E+04  0.7818609E-02  0.8403642E-01
        1   -1    0    0  501    0  0.00000000000E+00  0.00000000000E+00  0.14154012589E+04  0.14154012589E+04  0.50400001928E-02 0. -1.
       -1   -1    0    0    0  501  0.00000000000E+00  0.00000000000E+00 -0.11023006349E+04  0.11023006349E+04  0.50400001928E-02 0.  1.
    10030    2    1    2    0    0  0.00000000000E+00  0.00000000000E+00  0.31310062405E+03  0.25177018938E+04  0.24981574861E+04 0.  0.
        3    1    3    3  502    0  0.83192748282E+02  0.10185069057E+04  0.88044571853E+03  0.13488743544E+04  0.10100000352E+00 0.  1.
       -3    1    3    3    0  502 -0.83192748282E+02 -0.10185069057E+04 -0.56734509448E+03  0.11688275394E+04  0.10100000352E+00 0. -1.
</event>
<event>
 5   0  0.1541852E-06  0.2495262E+04  0.7818609E-02  0.8404675E-01
       -1   -1    0    0    0  501  0.00000000000E+00  0.00000000000E+00  0.10594894852E+04  0.10594894852E+04  0.50400001928E-02 0.  1.
        1   -1    0    0  501    0  0.00000000000E+00  0.00000000000E+00 -0.14691821736E+04  0.14691821736E+04  0.50400001928E-02 0. -1.
    10030    2    1    2    0    0  0.00000000000E+00  0.00000000000E+00 -0.40969268843E+03  0.25286716588E+04  0.24952619620E+04 0.  0.
        5    1    3    3  502    0 -0.64469082476E+03  0.10178142498E+04  0.12351189758E+03  0.12111355769E+04  0.46999998093E+01 0.  1.
       -5    1    3    3    0  502  0.64469082476E+03 -0.10178142498E+04 -0.53320458601E+03  0.13175360820E+04  0.46999998093E+01 0. -1.
</event>
<event>
 5   0  0.1553604E-06  0.2518048E+04  0.7818609E-02  0.8396584E-01
       -1   -1    0    0    0  501  0.00000000000E+00  0.00000000000E+00  0.12259552650E+04  0.12259552650E+04  0.50400001928E-02 0.  1.
        1   -1    0    0  501    0  0.00000000000E+00  0.00000000000E+00 -0.12929842184E+04  0.12929842184E+04  0.50400001928E-02 0. -1.
    10030    2    1    2    0    0  0.00000000000E+00  0.00000000000E+00 -0.67028953378E+02  0.25189394834E+04  0.25180475056E+04 0.  0.
        1    1    3    3  502    0 -0.50162018898E+03  0.11491599901E+04  0.80320883286E+02  0.12564405840E+04  0.50400001928E-02 0.  1.
       -1    1    3    3    0  502  0.50162018898E+03 -0.11491599901E+04 -0.14734983666E+03  0.12624988995E+04  0.50400001928E-02 0. -1.
</event>
<event>
 5   0  0.3808293E-06  0.2515750E+04  0.7818609E-02  0.8397396E-01
       -2   -1    0    0    0  501  0.00000000000E+00  0.00000000000E+00  0.73631761659E+03  0.73631761660E+03  0.25500000920E-02 0.  1.
        2   -1    0    0  501    0  0.00000000000E+00  0.00000000000E+00 -0.21488675659E+04  0.21488675659E+04  0.25500000920E-02 0. -1.
    10030    2    1    2    0    0  0.00000000000E+00  0.00000000000E+00 -0.14125499493E+04  0.28851851825E+04  0.25157496255E+04 0.  0.
        1    1    3    3  502    0 -0.10711241872E+03 -0.12532979575E+04 -0.70112003597E+03  0.14400687989E+04  0.50400001928E-02 0.  1.
       -1    1    3    3    0  502  0.10711241872E+03  0.12532979575E+04 -0.71142991333E+03  0.14451163836E+04  0.50400001928E-02 0. -1.
</event>
<event>
 5   0  0.1553604E-06  0.2472965E+04  0.7818609E-02  0.8412681E-01
       -1   -1    0    0    0  501  0.00000000000E+00  0.00000000000E+00  0.11230970223E+04  0.11230970223E+04  0.50400001928E-02 0.  1.
        1   -1    0    0  501    0  0.00000000000E+00  0.00000000000E+00 -0.13613155823E+04  0.13613155823E+04  0.50400001928E-02 0. -1.
    10030    2    1    2    0    0  0.00000000000E+00  0.00000000000E+00 -0.23821856002E+03  0.24844126047E+04  0.24729654078E+04 0.  0.
        1    1    3    3  502    0 -0.75741598112E+03 -0.30666544728E+02 -0.11004986154E+04  0.13363070785E+04  0.50400001928E-02 0. -1.
       -1    1    3    3    0  502  0.75741598112E+03  0.30666544728E+02  0.86228005538E+03  0.11481055262E+04  0.50400001928E-02 0.  1.
</event>
<event>
 5   0  0.3808293E-06  0.2505166E+04  0.7818609E-02  0.8401147E-01
        2   -1    0    0  501    0  0.00000000000E+00  0.00000000000E+00  0.12039819043E+04  0.12039819043E+04  0.25500000920E-02 0. -1.
       -2   -1    0    0    0  501  0.00000000000E+00  0.00000000000E+00 -0.13031462366E+04  0.13031462366E+04  0.25500000920E-02 0.  1.
    10030    2    1    2    0    0  0.00000000000E+00  0.00000000000E+00 -0.99164332293E+02  0.25071281408E+04  0.25051662519E+04 0.  0.
        1    1    3    3  502    0 -0.11427522835E+04 -0.43301320911E+03 -0.32471794002E+03  0.12644465039E+04  0.50400001928E-02 0.  1.
       -1    1    3    3    0  502  0.11427522835E+04  0.43301320911E+03  0.22555360773E+03  0.12426816369E+04  0.50400001928E-02 0. -1.
</event>
<event>
 5   0  0.3814260E-06  0.2499353E+04  0.7818609E-02  0.8403216E-01
       -2   -1    0    0    0  501  0.00000000000E+00  0.00000000000E+00  0.14734157713E+04  0.14734157713E+04  0.25500000920E-02 0.  1.
        2   -1    0    0  501    0  0.00000000000E+00  0.00000000000E+00 -0.10599125911E+04  0.10599125911E+04  0.25500000920E-02 0. -1.
    10030    2    1    2    0    0  0.00000000000E+00  0.00000000000E+00  0.41350318013E+03  0.25333283624E+04  0.24993534587E+04 0.  0.
        5    1    3    3  502    0  0.38307573636E+03 -0.47665041609E+03 -0.89789195196E+03  0.10863584520E+04  0.46999998093E+01 0. -1.
       -5    1    3    3    0  502 -0.38307573636E+03  0.47665041609E+03  0.13113951321E+04  0.14469699103E+04  0.46999998093E+01 0.  1.
</event>
<event>
 5   0  0.1501747E-06  0.2513319E+04  0.7818609E-02  0.8398256E-01
        1   -1    0    0  501    0  0.00000000000E+00  0.00000000000E+00  0.12297678592E+04  0.12297678592E+04  0.50400001928E-02 0. -1.
       -1   -1    0    0    0  501  0.00000000000E+00  0.00000000000E+00 -0.12841392981E+04  0.12841392981E+04  0.50400001928E-02 0.  1.
    10030    2    1    2    0    0  0.00000000000E+00  0.00000000000E+00 -0.54371438880E+02  0.25139071573E+04  0.25133191087E+04 0.  0.
        2    1    3    3  502    0  0.43116601336E+03 -0.47852125872E+03  0.10520971005E+04  0.12336105686E+04  0.25500000920E-02 0. -1.
       -2    1    3    3    0  502 -0.43116601336E+03  0.47852125872E+03 -0.11064685394E+04  0.12802965886E+04  0.25500000920E-02 0.  1.
</event>
<event>
 5   0  0.1553604E-06  0.2500990E+04  0.7818609E-02  0.8402633E-01
       -1   -1    0    0    0  501  0.00000000000E+00  0.00000000000E+00  0.16168965904E+04  0.16168965904E+04  0.50400001928E-02 0. -1.
        1   -1    0    0  501    0  0.00000000000E+00  0.00000000000E+00 -0.96712312951E+03  0.96712312952E+03  0.50400001928E-02 0.  1.
    10030    2    1    2    0    0  0.00000000000E+00  0.00000000000E+00  0.64977346085E+03  0.25840197199E+04  0.25009902763E+04 0.  0.
        1    1    3    3  502    0 -0.69987922581E+02 -0.12096715712E+04  0.55389719071E+01  0.12117071840E+04  0.50400001928E-02 0.  1.
       -1    1    3    3    0  502  0.69987922581E+02  0.12096715712E+04  0.64423448894E+03  0.13723125359E+04  0.50400001928E-02 0. -1.
</event>
<event>
 5   0  0.3924441E-06  0.2506558E+04  0.7818609E-02  0.8400653E-01
       -2   -1    0    0    0  501  0.00000000000E+00  0.00000000000E+00  0.17441024520E+04  0.17441024520E+04  0.25500000920E-02 0. -1.
        2   -1    0    0  501    0  0.00000000000E+00  0.00000000000E+00 -0.90058253221E+03  0.90058253222E+03  0.25500000920E-02 0.  1.
    10030    2    1    2    0    0  0.00000000000E+00  0.00000000000E+00  0.84351991976E+03  0.26446849842E+04  0.25065579607E+04 0.  0.
        2    1    3    3  502    0 -0.45084522939E+03 -0.66961819987E+03 -0.58974430067E+03  0.99972410927E+03  0.25500000920E-02 0.  1.
       -2    1    3    3    0  502  0.45084522939E+03  0.66961819987E+03  0.14332642204E+04  0.16449608749E+04  0.25500000920E-02 0. -1.
</event>
<event>
 5   0  0.1574896E-06  0.2500230E+04  0.7818609E-02  0.8402904E-01
        1   -1    0    0  501    0  0.00000000000E+00  0.00000000000E+00  0.15040165069E+04  0.15040165069E+04  0.50400001928E-02 0. -1.
       -1   -1    0    0    0  501  0.00000000000E+00  0.00000000000E+00 -0.10390761069E+04  0.10390761070E+04  0.50400001928E-02 0.  1.
    10030    2    1    2    0    0  0.00000000000E+00  0.00000000000E+00  0.46494039992E+03  0.25430926138E+04  0.25002300828E+04 0.  0.
        3    1    3    3  502    0 -0.72873333275E+03  0.90918040178E+03 -0.22820295876E+03  0.11873238285E+04  0.10100000352E+00 0. -1.
       -3    1    3    3    0  502  0.72873333275E+03 -0.90918040178E+03  0.69314335868E+03  0.13557687853E+04  0.10100000352E+00 0.  1.
</event>
<event>
 5   0  0.1574896E-06  0.2500466E+04  0.7818609E-02  0.8402819E-01
        1   -1    0    0  501    0  0.00000000000E+00  0.00000000000E+00  0.48538888058E+03  0.48538888060E+03  0.50400001928E-02 0.  1.
       -1   -1    0    0    0  501  0.00000000000E+00  0.00000000000E+00 -0.32202692283E+04  0.32202692283E+04  0.50400001928E-02 0. -1.
    10030    2    1    2    0    0  0.00000000000E+00  0.00000000000E+00 -0.27348803477E+04  0.37056581089E+04  0.25004662573E+04 0.  0.
        3    1    3    3  502    0 -0.79374878921E+03 -0.12485669714E+03  0.52065385933E+02  0.80519385852E+03  0.10100000352E+00 0.  1.
       -3    1    3    3    0  502  0.79374878921E+03  0.12485669714E+03 -0.27869457336E+04  0.29004642504E+04  0.10100000352E+00 0. -1.
</event>
<event>
 5   0  0.3924441E-06  0.2500618E+04  0.7818609E-02  0.8402765E-01
        2   -1    0    0  501    0  0.00000000000E+00  0.00000000000E+00  0.13012009445E+04  0.13012009445E+04  0.25500000920E-02 0.  1.
       -2   -1    0    0    0  501  0.00000000000E+00  0.00000000000E+00 -0.12014078509E+04  0.12014078509E+04  0.25500000920E-02 0. -1.
    10030    2    1    2    0    0  0.00000000000E+00  0.00000000000E+00  0.99793093598E+02  0.25026087955E+04  0.25006183478E+04 0.  0.
        2    1    3    3  502    0 -0.67563830761E+02  0.12024359177E+04  0.38610445472E+03  0.12647108987E+04  0.25500000920E-02 0.  1.
       -2    1    3    3    0  502  0.67563830761E+02 -0.12024359177E+04 -0.28631136112E+03  0.12378978968E+04  0.25500000920E-02 0. -1.
</event>
<event>
 5   0  0.1541852E-06  0.2499335E+04  0.7818609E-02  0.8403223E-01
        1   -1    0    0  501    0  0.00000000000E+00  0.00000000000E+00  0.24457679345E+04  0.24457679345E+04  0.50400001928E-02 0.  1.
       -1   -1    0    0    0  501  0.00000000000E+00  0.00000000000E+00 -0.63851873842E+03  0.63851873844E+03  0.50400001928E-02 0. -1.
    10030    2    1    2    0    0  0.00000000000E+00  0.00000000000E+00  0.18072491960E+04  0.30842866729E+04  0.24993348363E+04 0.  0.
        5    1    3    3  502    0 -0.37937242013E+02  0.12388504157E+04  0.70673003326E+03  0.14267722372E+04  0.46999998093E+01 0. -1.
       -5    1    3    3    0  502  0.37937242013E+02 -0.12388504157E+04  0.11005191628E+04  0.16575144357E+04  0.46999998093E+01 0.  1.
</event>
<event>
 5   0  0.3713394E-06  0.2500259E+04  0.7818609E-02  0.8402893E-01
        2   -1    0    0  501    0  0.00000000000E+00  0.00000000000E+00  0.13634983598E+04  0.13634983598E+04  0.25500000920E-02 0.  1.
       -2   -1    0    0    0  501  0.00000000000E+00  0.00000000000E+00 -0.11461871468E+04  0.11461871468E+04  0.25500000920E-02 0. -1.
    10030    2    1    2    0    0  0.00000000000E+00  0.00000000000E+00  0.21731121305E+03  0.25096855066E+04  0.25002594223E+04 0.  0.
        3    1    3    3  502    0  0.10950719501E+04 -0.38638413367E+03  0.57337946666E+03  0.12950827378E+04  0.10100000352E+00 0.  1.
       -3    1    3    3    0  502 -0.10950719501E+04  0.38638413367E+03 -0.35606825361E+03  0.12146027689E+04  0.10100000352E+00 0. -1.
</event>
<event>
 5   0  0.3713394E-06  0.2510221E+04  0.7818609E-02  0.8399353E-01
       -2   -1    0    0    0  501  0.00000000000E+00  0.00000000000E+00  0.71651028644E+03  0.71651028645E+03  0.25500000920E-02 0. -1.
        2   -1    0    0  501    0  0.00000000000E+00  0.00000000000E+00 -0.21985764548E+04  0.21985764548E+04  0.25500000920E-02 0.  1.
    10030    2    1    2    0    0  0.00000000000E+00  0.00000000000E+00 -0.14820661684E+04  0.29150867413E+04  0.25102212217E+04 0.  0.
        3    1    3    3  502    0  0.89872510402E+03  0.86394018616E+03 -0.91013166326E+03  0.15435151805E+04  0.10100000352E+00 0.  1.
       -3    1    3    3    0  502 -0.89872510402E+03 -0.86394018616E+03 -0.57193450510E+03  0.13715715607E+04  0.10100000352E+00 0. -1.
</event>
<event>
 5   0  0.3924441E-06  0.2500983E+04  0.7818609E-02  0.8402635E-01
        2   -1    0    0  501    0  0.00000000000E+00  0.00000000000E+00  0.19589146754E+04  0.19589146754E+04  0.25500000920E-02 0.  1.
       -2   -1    0    0    0  501  0.00000000000E+00  0.00000000000E+00 -0.79826294138E+03  0.79826294138E+03  0.25500000920E-02 0. -1.
    10030    2    1    2    0    0  0.00000000000E+00  0.00000000000E+00  0.11606517340E+04  0.27571776168E+04  0.25009829993E+04 0.  0.
        2    1    3    3  502    0 -0.11448889091E+04  0.46494616625E+03  0.36888926568E+03  0.12895832048E+04  0.25500000920E-02 0. -1.
       -2    1    3    3    0  502  0.11448889091E+04 -0.46494616625E+03  0.79176246831E+03  0.14675944120E+04  0.25500000920E-02 0.  1.
</event>
<event>
 5   0  0.1519145E-06  0.2502147E+04  0.7818609E-02  0.8402221E-01
       -1   -1    0    0    0  501  0.00000000000E+00  0.00000000000E+00  0.14657485597E+04  0.14657485597E+04  0.50400001928E-02 0.  1.
        1   -1    0    0  501    0  0.00000000000E+00  0.00000000000E+00 -0.10678400653E+04  0.10678400653E+04  0.50400001928E-02 0. -1.
    10030    2    1    2    0    0  0.00000000000E+00  0.00000000000E+00  0.39790849434E+03  0.25335886250E+04  0.25021471082E+04 0.  0.
        4    1    3    3  502    0 -0.61604972772E+03 -0.90523087980E+03 -0.41381391830E+03  0.11705570403E+04  0.12699999809E+01 0.  1.
       -4    1    3    3    0  502  0.61604972772E+03  0.90523087980E+03  0.81172241264E+03  0.13630315847E+04  0.12699999809E+01 0. -1.
</event>
<event>
 5   0  0.3808293E-06  0.2493668E+04  0.7818609E-02  0.8405245E-01
        2   -1    0    0  501    0  0.00000000000E+00  0.00000000000E+00  0.17534207956E+04  0.17534207956E+04  0.25500000920E-02 0. -1.
       -2   -1    0    0    0  501  0.00000000000E+00  0.00000000000E+00 -0.88660681664E+03  0.88660681665E+03  0.25500000920E-02 0.  1.
    10030    2    1    2    0    0  0.00000000000E+00  0.00000000000E+00  0.86681397897E+03  0.26400276123E+04  0.24936678446E+04 0.  0.
        1    1    3    3  502    0  0.38784336894E+03  0.40384410107E+02  0.16872054049E+04  0.17316799524E+04  0.50400001928E-02 0. -1.
       -1    1    3    3    0  502 -0.38784336894E+03 -0.40384410107E+02 -0.82039142590E+03  0.90834765983E+03  0.50400001928E-02 0.  1.
</event>
<event>
 5   0  0.3924441E-06  0.2498621E+04  0.7818609E-02  0.8403477E-01
        2   -1    0    0  501    0  0.00000000000E+00  0.00000000000E+00  0.94357748156E+03  0.94357748157E+03  0.25500000920E-02 0. -1.
       -2   -1    0    0    0  501  0.00000000000E+00  0.00000000000E+00 -0.16541054421E+04  0.16541054421E+04  0.25500000920E-02 0.  1.
    10030    2    1    2    0    0  0.00000000000E+00  0.00000000000E+00 -0.71052796050E+03  0.25976829236E+04  0.24986209375E+04 0.  0.
        2    1    3    3  502    0  0.68933883844E+02 -0.11036661943E+04  0.24911482523E+03  0.11335295078E+04  0.25500000920E-02 0. -1.
       -2    1    3    3    0  502 -0.68933883844E+02  0.11036661943E+04 -0.95964278573E+03  0.14641534158E+04  0.25500000920E-02 0.  1.
</event>
<event>
 5   0  0.3808293E-06  0.2498360E+04  0.7818609E-02  0.8403570E-01
        2   -1    0    0  501    0  0.00000000000E+00  0.00000000000E+00  0.99740456755E+03  0.99740456755E+03  0.25500000920E-02 0. -1.
       -2   -1    0    0    0  501  0.00000000000E+00  0.00000000000E+00 -0.15645112320E+04  0.15645112320E+04  0.25500000920E-02 0.  1.
    10030    2    1    2    0    0  0.00000000000E+00  0.00000000000E+00 -0.56710666445E+03  0.25619157996E+04  0.24983599811E+04 0.  0.
        1    1    3    3  502    0  0.99091714626E+03  0.73832822694E+03 -0.96132680844E+02  0.12394703925E+04  0.50400001928E-02 0. -1.
       -1    1    3    3    0  502 -0.99091714626E+03 -0.73832822694E+03 -0.47097398361E+03  0.13224454071E+04  0.50400001928E-02 0.  1.
</event>
<event>
 5   0  0.3713394E-06  0.2498825E+04  0.7818609E-02  0.8403404E-01
        2   -1    0    0  501    0  0.00000000000E+00  0.00000000000E+00  0.14821314870E+04  0.14821314870E+04  0.25500000920E-02 0. -1.
       -2   -1    0    0    0  501  0.00000000000E+00  0.00000000000E+00 -0.10532341134E+04  0.10532341134E+04  0.25500000920E-02 0.  1.
    10030    2    1    2    0    0  0.00000000000E+00  0.00000000000E+00  0.42889737361E+03  0.25353656003E+04  0.24988248779E+04 0.  0.
        3    1    3    3  502    0 -0.32087449070E+03 -0.55360324313E+03  0.13032648337E+04  0.14518733507E+04  0.10100000352E+00 0. -1.
       -3    1    3    3    0  502  0.32087449070E+03  0.55360324313E+03 -0.87436746007E+03  0.10834922496E+04  0.10100000352E+00 0.  1.
</event>
<event>
 5   0  0.1501747E-06  0.2497991E+04  0.7818609E-02  0.8403702E-01
        1   -1    0    0  501    0  0.00000000000E+00  0.00000000000E+00  0.16589615128E+04  0.16589615128E+04  0.50400001928E-02 0.  1.
       -1   -1    0    0    0  501  0.00000000000E+00  0.00000000000E+00 -0.94034119603E+03  0.94034119605E+03  0.50400001928E-02 0. -1.
    10030    2    1    2    0    0  0.00000000000E+00  0.00000000000E+00  0.71862031673E+03  0.25993027088E+04  0.24979910753E+04 0.  0.
        2    1    3    3  502    0  0.70479479410E+03  0.42710613345E+03 -0.61728178180E+03  0.10296563258E+04  0.25500000920E-02 0. -1.
       -2    1    3    3    0  502 -0.70479479410E+03 -0.42710613345E+03  0.13359020985E+04  0.15696463831E+04  0.25500000920E-02 0.  1.
</event>
<event>
 5   0  0.3713394E-06  0.2500257E+04  0.7818609E-02  0.8402894E-01
        2   -1    0    0  501    0  0.00000000000E+00  0.00000000000E+00  0.23485319957E+04  0.23485319957E+04  0.25500000920E-02 0. -1.
       -2   -1    0    0    0  501  0.00000000000E+00  0.00000000000E+00 -0.66544624081E+03  0.66544624082E+03  0.25500000920E-02 0.  1.
    10030    2    1    2    0    0  0.00000000000E+00  0.00000000000E+00  0.16830857549E+04  0.30139782365E+04  0.25002574171E+04 0.  0.
        3    1    3    3  502    0 -0.36096730111E+03 -0.11435139428E+04  0.41551596172E+03  0.12690843370E+04  0.10100000352E+00 0.  1.
       -3    1    3    3    0  502  0.36096730111E+03  0.11435139428E+04  0.12675697932E+04  0.17448938995E+04  0.10100000352E+00 0. -1.
</event>
<event>
 5   0  0.3971759E-06  0.2498598E+04  0.7818609E-02  0.8403485E-01
       -2   -1    0    0    0  501  0.00000000000E+00  0.00000000000E+00  0.76559390805E+03  0.76559390805E+03  0.25500000920E-02 0. -1.
        2   -1    0    0  501    0  0.00000000000E+00  0.00000000000E+00 -0.20386105005E+04  0.20386105005E+04  0.25500000920E-02 0.  1.
    10030    2    1    2    0    0  0.00000000000E+00  0.00000000000E+00 -0.12730165924E+04  0.28042044085E+04  0.24985978308E+04 0.  0.
        4    1    3    3  502    0  0.67035693282E+03  0.94188616860E+03 -0.11679415610E+04  0.16433554317E+04  0.12699999809E+01 0.  1.
       -4    1    3    3    0  502 -0.67035693282E+03 -0.94188616860E+03 -0.10507503145E+03  0.11608489769E+04  0.12699999809E+01 0. -1.
</event>
<event>
 5   0  0.1553604E-06  0.2502162E+04  0.7818609E-02  0.8402216E-01
        1   -1    0    0  501    0  0.00000000000E+00  0.00000000000E+00  0.13770872369E+04  0.13770872369E+04  0.50400001928E-02 0. -1.
       -1   -1    0    0    0  501  0.00000000000E+00  0.00000000000E+00 -0.11366044473E+04  0.11366044473E+04  0.50400001928E-02 0.  1.
    10030    2    1    2    0    0  0.00000000000E+00  0.00000000000E+00  0.24048278958E+03  0.25136916842E+04  0.25021618475E+04 0.  0.
        1    1    3    3  502    0 -0.72668476488E+03 -0.21828709687E+02  0.11430962082E+04  0.13547015101E+04  0.50400001928E-02 0. -1.
       -1    1    3    3    0  502  0.72668476488E+03  0.21828709687E+02 -0.90261341866E+03  0.11589901741E+04  0.50400001928E-02 0.  1.
</event>
<event>
 5   0  0.1501747E-06  0.2501570E+04  0.7818609E-02  0.8402427E-01
        1   -1    0    0  501    0  0.00000000000E+00  0.00000000000E+00  0.66362930523E+03  0.66362930525E+03  0.50400001928E-02 0. -1.
       -1   -1    0    0    0  501  0.00000000000E+00  0.00000000000E+00 -0.23574346883E+04  0.23574346883E+04  0.50400001928E-02 0.  1.
    10030    2    1    2    0    0  0.00000000000E+00  0.00000000000E+00 -0.16938053831E+04  0.30210639936E+04  0.25015697027E+04 0.  0.
        2    1    3    3  502    0 -0.68169754679E+03 -0.97958106882E+03 -0.39475725620E+03  0.12570297956E+04  0.25500000920E-02 0.  1.
       -2    1    3    3    0  502  0.68169754679E+03  0.97958106882E+03 -0.12990481269E+04  0.17640341980E+04  0.25500000920E-02 0. -1.
</event>
<event>
 5   0  0.1541852E-06  0.2497322E+04  0.7818609E-02  0.8403940E-01
        1   -1    0    0  501    0  0.00000000000E+00  0.00000000000E+00  0.14043129460E+04  0.14043129461E+04  0.50400001928E-02 0.  1.
       -1   -1    0    0    0  501  0.00000000000E+00  0.00000000000E+00 -0.11102615407E+04  0.11102615407E+04  0.50400001928E-02 0. -1.
    10030    2    1    2    0    0  0.00000000000E+00  0.00000000000E+00  0.29405140536E+03  0.25145744867E+04  0.24973222900E+04 0.  0.
        5    1    3    3  502    0  0.38180184309E+03 -0.11878919641E+04  0.19502682006E+03  0.12629004380E+04  0.46999998093E+01 0.  1.
       -5    1    3    3    0  502 -0.38180184309E+03  0.11878919641E+04  0.99024585310E+02  0.12516740487E+04  0.46999998093E+01 0. -1.
</event>
<event>
 5   0  0.1287375E-06  0.2509214E+04  0.7818609E-02  0.8399710E-01
        3   -1    0    0  501    0  0.00000000000E+00  0.00000000000E+00  0.75526446930E+03  0.75526447605E+03  0.10100000352E+00 0. -1.
       -3   -1    0    0    0  501  0.00000000000E+00  0.00000000000E+00 -0.20840887803E+04  0.20840887827E+04  0.10100000352E+00 0.  1.
    10030    2    1    2    0    0  0.00000000000E+00  0.00000000000E+00 -0.13288243110E+04  0.28393532588E+04  0.25092135977E+04 0.  0.
        5    1    3    3  502    0  0.43853820274E+03  0.61671327887E+02 -0.19926938181E+04  0.20413157155E+04  0.46999998093E+01 0.  1.
       -5    1    3    3    0  502 -0.43853820274E+03 -0.61671327887E+02  0.66386950710E+03  0.79803754323E+03  0.46999998093E+01 0. -1.
</event>
<event>
 5   0  0.1574896E-06  0.2509242E+04  0.7818609E-02  0.8399700E-01
       -1   -1    0    0    0  501  0.00000000000E+00  0.00000000000E+00  0.60557778948E+03  0.60557778950E+03  0.50400001928E-02 0.  1.
        1   -1    0    0  501    0  0.00000000000E+00  0.00000000000E+00 -0.25992932633E+04  0.25992932633E+04  0.50400001928E-02 0. -1.
    10030    2    1    2    0    0  0.00000000000E+00  0.00000000000E+00 -0.19937154738E+04  0.32048710528E+04  0.25092423308E+04 0.  0.
        3    1    3    3  502    0  0.43954989336E+03 -0.11619611163E+04 -0.77300937651E+03  0.14631818926E+04  0.10100000352E+00 0. -1.
       -3    1    3    3    0  502 -0.43954989336E+03  0.11619611163E+04 -0.12207060973E+04  0.17416891602E+04  0.10100000352E+00 0.  1.
</event>
<event>
 5   0  0.3971759E-06  0.2503093E+04  0.7818609E-02  0.8401885E-01
       -2   -1    0    0    0  501  0.00000000000E+00  0.00000000000E+00  0.14873933326E+04  0.14873933326E+04  0.25500000920E-02 0. -1.
        2   -1    0    0  501    0  0.00000000000E+00  0.00000000000E+00 -0.10530961703E+04  0.10530961703E+04  0.25500000920E-02 0.  1.
    10030    2    1    2    0    0  0.00000000000E+00  0.00000000000E+00  0.43429716229E+03  0.25404895028E+04  0.25030926648E+04 0.  0.
        4    1    3    3  502    0  0.47668183806E+03  0.11804556024E+03 -0.95122632256E+03  0.10705108400E+04  0.12699999809E+01 0.  1.
       -4    1    3    3    0  502 -0.47668183806E+03 -0.11804556024E+03  0.13855234849E+04  0.14699786628E+04  0.12699999809E+01 0. -1.
</event>
<event>
 5   0  0.1553604E-06  0.2493464E+04  0.7818609E-02  0.8405318E-01
        1   -1    0    0  501    0  0.00000000000E+00  0.00000000000E+00  0.10478689216E+04  0.10478689216E+04  0.50400001928E-02 0.  1.
       -1   -1    0    0    0  501  0.00000000000E+00  0.00000000000E+00 -0.14833345437E+04  0.14833345437E+04  0.50400001928E-02 0. -1.
    10030    2    1    2    0    0  0.00000000000E+00  0.00000000000E+00 -0.43546562205E+03  0.25312034653E+04  0.24934635900E+04 0.  0.
        1    1    3    3  502    0 -0.32405274233E+03  0.11211676524E+04 -0.66290542719E+03  0.13421887684E+04  0.50400001928E-02 0. -1.
       -1    1    3    3    0  502  0.32405274233E+03 -0.11211676524E+04  0.22743980514E+03  0.11890146969E+04  0.50400001928E-02 0.  1.
</event>
<event>
 5   0  0.3814260E-06  0.2502030E+04  0.7818609E-02  0.8402263E-01
       -2   -1    0    0    0  501  0.00000000000E+00  0.00000000000E+00  0.11844274133E+04  0.11844274133E+04  0.25500000920E-02 0.  1.
        2   -1    0    0  501    0  0.00000000000E+00  0.00000000000E+00 -0.13213466157E+04  0.13213466157E+04  0.25500000920E-02 0. -1.
    10030    2    1    2    0    0  0.00000000000E+00  0.00000000000E+00 -0.13691920239E+03  0.25057740289E+04  0.25020304986E+04 0.  0.
        5    1    3    3  502    0 -0.11436660163E+04 -0.22314301873E+03 -0.52439045663E+03  0.12777997514E+04  0.46999998093E+01 0. -1.
       -5    1    3    3    0  502  0.11436660163E+04  0.22314301873E+03  0.38747125424E+03  0.12279742776E+04  0.46999998093E+01 0.  1.
</event>
<event>
 5   0  0.3814260E-06  0.2486589E+04  0.7818609E-02  0.8407779E-01
        2   -1    0    0  501    0  0.00000000000E+00  0.00000000000E+00  0.11303058469E+04  0.11303058469E+04  0.25500000920E-02 0.  1.
       -2   -1    0    0    0  501  0.00000000000E+00  0.00000000000E+00 -0.13675776602E+04  0.13675776602E+04  0.25500000920E-02 0. -1.
    10030    2    1    2    0    0  0.00000000000E+00  0.00000000000E+00 -0.23727181334E+03  0.24978835071E+04  0.24865888485E+04 0.  0.
        5    1    3    3  502    0 -0.43562272322E+02 -0.84570173997E+03  0.79580094937E+03  0.11620801804E+04  0.46999998093E+01 0.  1.
       -5    1    3    3    0  502  0.43562272322E+02  0.84570173997E+03 -0.10330727627E+04  0.13358033267E+04  0.46999998093E+01 0. -1.
</event>
<event>
 5   0  0.3814260E-06  0.2498992E+04  0.7818609E-02  0.8403345E-01
       -2   -1    0    0    0  501  0.00000000000E+00  0.00000000000E+00  0.14080855394E+04  0.14080855394E+04  0.25500000920E-02 0. -1.
        2   -1    0    0  501    0  0.00000000000E+00  0.00000000000E+00 -0.11087680439E+04  0.11087680439E+04  0.25500000920E-02 0.  1.
    10030    2    1    2    0    0  0.00000000000E+00  0.00000000000E+00  0.29931749549E+03  0.25168535834E+04  0.24989919962E+04 0.  0.
        5    1    3    3  502    0 -0.11667741281E+04 -0.34643839335E+03  0.43423225346E+03  0.12922697731E+04  0.46999998093E+01 0. -1.
       -5    1    3    3    0  502  0.11667741281E+04  0.34643839335E+03 -0.13491475797E+03  0.12245838103E+04  0.46999998093E+01 0.  1.
</event>
<event>
 5   0  0.3924441E-06  0.2528506E+04  0.7818609E-02  0.8392900E-01
       -2   -1    0    0    0  501  0.00000000000E+00  0.00000000000E+00  0.97420082244E+03  0.97420082244E+03  0.25500000920E-02 0.  1.
        2   -1    0    0  501    0  0.00000000000E+00  0.00000000000E+00 -0.16406639025E+04  0.16406639025E+04  0.25500000920E-02 0. -1.
    10030    2    1    2    0    0  0.00000000000E+00  0.00000000000E+00 -0.66646308008E+03  0.26148647250E+04  0.25285063759E+04 0.  0.
        2    1    3    3  502    0  0.29411188168E+02  0.11439644437E+04 -0.88900287207E+03  0.14490844603E+04  0.25500000920E-02 0.  1.
       -2    1    3    3    0  502 -0.29411188168E+02 -0.11439644437E+04  0.22253979199E+03  0.11657802647E+04  0.25500000920E-02 0. -1.
</event>
<event>
 5   0  0.1519145E-06  0.2452245E+04  0.7818609E-02  0.8420199E-01
        1   -1    0    0  501    0  0.00000000000E+00  0.00000000000E+00  0.10195050458E+04  0.10195050458E+04  0.50400001928E-02 0. -1.
       -1   -1    0    0    0  501  0.00000000000E+00  0.00000000000E+00 -0.14746134873E+04  0.14746134873E+04  0.50400001928E-02 0.  1.
    10030    2    1    2    0    0  0.00000000000E+00  0.00000000000E+00 -0.45510844149E+03  0.24941185331E+04  0.24522445970E+04 0.  0.
        4    1    3    3  502    0  0.40524021696E+03  0.10629127575E+04 -0.69293847520E+03  0.13319791691E+04  0.12699999809E+01 0.  1.
       -4    1    3    3    0  502 -0.40524021696E+03 -0.10629127575E+04  0.23783003372E+03  0.11621393640E+04  0.12699999809E+01 0. -1.
</event>
<event>
 5   0  0.3808293E-06  0.2501382E+04  0.7818609E-02  0.8402493E-01
        2   -1    0    0  501    0  0.00000000000E+00  0.00000000000E+00  0.85828699454E+03  0.85828699454E+03  0.25500000920E-02 0. -1.
       -2   -1    0    0    0  501  0.00000000000E+00  0.00000000000E+00 -0.18225001151E+04  0.18225001151E+04  0.25500000920E-02 0.  1.
    10030    2    1    2    0    0  0.00000000000E+00  0.00000000000E+00 -0.96421312058E+03  0.26807871097E+04  0.25013821350E+04 0.  0.
        1    1    3    3  502    0 -0.86033052349E+02 -0.90521816155E+03  0.43820690297E+03  0.10093794608E+04  0.50400001928E-02 0. -1.
       -1    1    3    3    0  502  0.86033052349E+02  0.90521816155E+03 -0.14024200235E+04  0.16714076488E+04  0.50400001928E-02 0.  1.
</event>
<event>
 5   0  0.3814260E-06  0.2501159E+04  0.7818609E-02  0.8402573E-01
       -2   -1    0    0    0  501  0.00000000000E+00  0.00000000000E+00  0.78753398984E+03  0.78753398984E+03  0.25500000920E-02 0. -1.
        2   -1    0    0  501    0  0.00000000000E+00  0.00000000000E+00 -0.19858808506E+04  0.19858808506E+04  0.25500000920E-02 0.  1.
    10030    2    1    2    0    0  0.00000000000E+00  0.00000000000E+00 -0.11983468608E+04  0.27734148405E+04  0.25011586672E+04 0.  0.
        5    1    3    3  502    0  0.31915529204E+02  0.12449733102E+04 -0.72535589688E+03  0.14412287852E+04  0.46999998093E+01 0.  1.
       -5    1    3    3    0  502 -0.31915529204E+02 -0.12449733102E+04 -0.47299096390E+03  0.13321860553E+04  0.46999998093E+01 0. -1.
</event>
<event>
 5   0  0.3971759E-06  0.2501201E+04  0.7818609E-02  0.8402558E-01
        2   -1    0    0  501    0  0.00000000000E+00  0.00000000000E+00  0.20714319980E+04  0.20714319980E+04  0.25500000920E-02 0.  1.
       -2   -1    0    0    0  501  0.00000000000E+00  0.00000000000E+00 -0.75503388956E+03  0.75503388957E+03  0.25500000920E-02 0. -1.
    10030    2    1    2    0    0  0.00000000000E+00  0.00000000000E+00  0.13163981085E+04  0.28264658876E+04  0.25012007984E+04 0.  0.
        4    1    3    3  502    0  0.90621582900E+03  0.47395168061E+03  0.14716282663E+04  0.17920794322E+04  0.12699999809E+01 0.  1.
       -4    1    3    3    0  502 -0.90621582900E+03 -0.47395168061E+03 -0.15523015784E+03  0.10343864554E+04  0.12699999809E+01 0. -1.
</event>
<event>
 5   0  0.3814260E-06  0.2480762E+04  0.7818609E-02  0.8409871E-01
        2   -1    0    0  501    0  0.00000000000E+00  0.00000000000E+00  0.14574983364E+04  0.14574983364E+04  0.25500000920E-02 0. -1.
       -2   -1    0    0    0  501  0.00000000000E+00  0.00000000000E+00 -0.10556068879E+04  0.10556068879E+04  0.25500000920E-02 0.  1.
    10030    2    1    2    0    0  0.00000000000E+00  0.00000000000E+00  0.40189144847E+03  0.25131052243E+04  0.24807622079E+04 0.  0.
        5    1    3    3  502    0  0.11077089782E+04  0.11247473686E+03 -0.35285646720E+03  0.11679895219E+04  0.46999998093E+01 0.  1.
       -5    1    3    3    0  502 -0.11077089782E+04 -0.11247473686E+03  0.75474791567E+03  0.13451157024E+04  0.46999998093E+01 0. -1.
</event>
<event>
 5   0  0.3814260E-06  0.2498337E+04  0.7818609E-02  0.8403578E-01
       -2   -1    0    0    0  501  0.00000000000E+00  0.00000000000E+00  0.12414435040E+04  0.12414435040E+04  0.25500000920E-02 0. -1.
        2   -1    0    0  501    0  0.00000000000E+00  0.00000000000E+00 -0.12569415757E+04  0.12569415757E+04  0.25500000920E-02 0.  1.
    10030    2    1    2    0    0  0.00000000000E+00  0.00000000000E+00 -0.15498071654E+02  0.24983850797E+04  0.24983370101E+04 0.  0.
        5    1    3    3  502    0  0.16598960474E+03 -0.12077339577E+04  0.26470070067E+03  0.12475024699E+04  0.46999998093E+01 0.  1.
       -5    1    3    3    0  502 -0.16598960474E+03  0.12077339577E+04 -0.28019877232E+03  0.12508826098E+04  0.46999998093E+01 0. -1.
</event>
<event>
 5   0  0.1519145E-06  0.2477426E+04  0.7818609E-02  0.8411072E-01
        1   -1    0    0  501    0  0.00000000000E+00  0.00000000000E+00  0.17539475986E+04  0.17539475986E+04  0.50400001928E-02 0.  1.
       -1   -1    0    0    0  501  0.00000000000E+00  0.00000000000E+00 -0.87483236031E+03  0.87483236032E+03  0.50400001928E-02 0. -1.
    10030    2    1    2    0    0  0.00000000000E+00  0.00000000000E+00  0.87911523829E+03  0.26287799589E+04  0.24774261786E+04 0.  0.
        4    1    3    3  502    0 -0.24605073859E+03 -0.61914435514E+03 -0.66852434122E+03  0.94382578168E+03  0.12699999809E+01 0. -1.
       -4    1    3    3    0  502  0.24605073859E+03  0.61914435514E+03  0.15476395795E+04  0.16849541773E+04  0.12699999809E+01 0.  1.
</event>
<event>
 5   0  0.1574896E-06  0.2499053E+04  0.7818609E-02  0.8403323E-01
       -1   -1    0    0    0  501  0.00000000000E+00  0.00000000000E+00  0.92627534751E+03  0.92627534753E+03  0.50400001928E-02 0. -1.
        1   -1    0    0  501    0  0.00000000000E+00  0.00000000000E+00 -0.16855857571E+04  0.16855857571E+04  0.50400001928E-02 0.  1.
    10030    2    1    2    0    0  0.00000000000E+00  0.00000000000E+00 -0.75931040957E+03  0.26118611046E+04  0.24990530470E+04 0.  0.
        3    1    3    3  502    0 -0.78536054452E+03 -0.96473860161E+03 -0.50245260310E+03  0.13416297488E+04  0.10100000352E+00 0.  1.
       -3    1    3    3    0  502  0.78536054452E+03  0.96473860161E+03 -0.25685780647E+03  0.12702313558E+04  0.10100000352E+00 0. -1.
</event>
<event>
 5   0  0.1541852E-06  0.2515535E+04  0.7818609E-02  0.8397472E-01
       -1   -1    0    0    0  501  0.00000000000E+00  0.00000000000E+00  0.51004492758E+03  0.51004492760E+03  0.50400001928E-02 0.  1.
        1   -1    0    0  501    0  0.00000000000E+00  0.00000000000E+00 -0.31016457956E+04  0.31016457956E+04  0.50400001928E-02 0. -1.
    10030    2    1    2    0    0  0.00000000000E+00  0.00000000000E+00 -0.25916008680E+04  0.36116907232E+04  0.25155346988E+04 0.  0.
        5    1    3    3  502    0 -0.11197379899E+04  0.56564316337E+03 -0.11658566164E+04  0.17126030171E+04  0.46999998093E+01 0. -1.
       -5    1    3    3    0  502  0.11197379899E+04 -0.56564316337E+03 -0.14257442517E+04  0.18990877061E+04  0.46999998093E+01 0.  1.
</event>
<event>
 5   0  0.3808293E-06  0.2516860E+04  0.7818609E-02  0.8397004E-01
       -2   -1    0    0    0  501  0.00000000000E+00  0.00000000000E+00  0.14473348677E+04  0.14473348677E+04  0.25500000920E-02 0. -1.
        2   -1    0    0  501    0  0.00000000000E+00  0.00000000000E+00 -0.10941808267E+04  0.10941808267E+04  0.25500000920E-02 0.  1.
    10030    2    1    2    0    0  0.00000000000E+00  0.00000000000E+00  0.35315404108E+03  0.25415156944E+04  0.25168599977E+04 0.  0.
        1    1    3    3  502    0 -0.69377792846E+03  0.76991097065E+03  0.89740131990E+03  0.13709193433E+04  0.50400001928E-02 0. -1.
       -1    1    3    3    0  502  0.69377792846E+03 -0.76991097065E+03 -0.54424727881E+03  0.11705963511E+04  0.50400001928E-02 0.  1.
</event>
<event>
 5   0  0.3814260E-06  0.2501071E+04  0.7818609E-02  0.8402604E-01
       -2   -1    0    0    0  501  0.00000000000E+00  0.00000000000E+00  0.12481217444E+04  0.12481217445E+04  0.25500000920E-02 0.  1.
        2   -1    0    0  501    0  0.00000000000E+00  0.00000000000E+00 -0.12529541136E+04  0.12529541136E+04  0.25500000920E-02 0. -1.
    10030    2    1    2    0    0  0.00000000000E+00  0.00000000000E+00 -0.48323691107E+01  0.25010758580E+04  0.25010711897E+04 0.  0.
        5    1    3    3  502    0 -0.75100340586E+03  0.99787388940E+03  0.61292404696E+02  0.12504148366E+04  0.46999998093E+01 0. -1.
       -5    1    3    3    0  502  0.75100340586E+03 -0.99787388940E+03 -0.66124773807E+02  0.12506610214E+04  0.46999998093E+01 0.  1.
</event>
<event>
 5   0  0.1541852E-06  0.2496434E+04  0.7818609E-02  0.8404257E-01
       -1   -1    0    0    0  501  0.00000000000E+00  0.00000000000E+00  0.86233504352E+03  0.86233504353E+03  0.50400001928E-02 0. -1.
        1   -1    0    0  501    0  0.00000000000E+00  0.00000000000E+00 -0.18067748918E+04  0.18067748918E+04  0.50400001928E-02 0.  1.
    10030    2    1    2    0    0  0.00000000000E+00  0.00000000000E+00 -0.94443984825E+03  0.26691099353E+04  0.24964337003E+04 0.  0.
        5    1    3    3  502    0 -0.64618023652E+03  0.43392999908E+03 -0.15155115977E+04  0.17037140708E+04  0.46999998093E+01 0.  1.
       -5    1    3    3    0  502  0.64618023652E+03 -0.43392999908E+03  0.57107174948E+03  0.96539586452E+03  0.46999998093E+01 0. -1.
</event>
<event>
 5   0  0.1553604E-06  0.2500195E+04  0.7818609E-02  0.8402916E-01
       -1   -1    0    0    0  501  0.00000000000E+00  0.00000000000E+00  0.11292567453E+04  0.11292567453E+04  0.50400001928E-02 0.  1.
        1   -1    0    0  501    0  0.00000000000E+00  0.00000000000E+00 -0.13838698668E+04  0.13838698668E+04  0.50400001928E-02 0. -1.
    10030    2    1    2    0    0  0.00000000000E+00  0.00000000000E+00 -0.25461312157E+03  0.25131266121E+04  0.25001954977E+04 0.  0.
        1    1    3    3  502    0 -0.81400884494E+03 -0.56151035921E+02 -0.10792957852E+04  0.13530124650E+04  0.50400001928E-02 0. -1.
       -1    1    3    3    0  502  0.81400884494E+03  0.56151035921E+02  0.82468266367E+03  0.11601141471E+04  0.50400001928E-02 0.  1.
</event>
<event>
 5   0  0.3971759E-06  0.2503265E+04  0.7818609E-02  0.8401823E-01
       -2   -1    0    0    0  501  0.00000000000E+00  0.00000000000E+00  0.79086667159E+03  0.79086667160E+03  0.25500000920E-02 0.  1.
        2   -1    0    0  501    0  0.00000000000E+00  0.00000000000E+00 -0.19808443989E+04  0.19808443989E+04  0.25500000920E-02 0. -1.
    10030    2    1    2    0    0  0.00000000000E+00  0.00000000000E+00 -0.11899777273E+04  0.27717110705E+04  0.25032649214E+04 0.  0.
        4    1    3    3  502    0  0.56133982297E+03  0.54241226406E+03  0.48833443143E+03  0.92075273058E+03  0.12699999809E+01 0.  1.
       -4    1    3    3    0  502 -0.56133982297E+03 -0.54241226406E+03 -0.16783121587E+04  0.18509583399E+04  0.12699999809E+01 0. -1.
</event>
<event>
 5   0  0.1553604E-06  0.2501241E+04  0.7818609E-02  0.8402544E-01
       -1   -1    0    0    0  501  0.00000000000E+00  0.00000000000E+00  0.21001183407E+04  0.21001183407E+04  0.50400001928E-02 0.  1.
        1   -1    0    0  501    0  0.00000000000E+00  0.00000000000E+00 -0.74474431124E+03  0.74474431126E+03  0.50400001928E-02 0. -1.
    10030    2    1    2    0    0  0.00000000000E+00  0.00000000000E+00  0.13553740294E+04  0.28448626519E+04  0.25012406419E+04 0.  0.
        1    1    3    3  502    0  0.10205541801E+04  0.63169193939E+03  0.10773685331E+04  0.16128510461E+04  0.50400001928E-02 0.  1.
       -1    1    3    3    0  502 -0.10205541801E+04 -0.63169193939E+03  0.27800549635E+03  0.12320116058E+04  0.50400001928E-02 0. -1.
</event>
<event>
 5   0  0.3971759E-06  0.2495176E+04  0.7818609E-02  0.8404706E-01
        2   -1    0    0  501    0  0.00000000000E+00  0.00000000000E+00  0.15511809007E+04  0.15511809007E+04  0.25500000920E-02 0.  1.
       -2   -1    0    0    0  501  0.00000000000E+00  0.00000000000E+00 -0.10034133763E+04  0.10034133763E+04  0.25500000920E-02 0. -1.
    10030    2    1    2    0    0  0.00000000000E+00  0.00000000000E+00  0.54776752446E+03  0.25545942770E+04  0.24951758774E+04 0.  0.
        4    1    3    3  502    0  0.10870666307E+04  0.39301921124E+03  0.75441781387E+03  0.13803353979E+04  0.12699999809E+01 0.  1.
       -4    1    3    3    0  502 -0.10870666307E+04 -0.39301921124E+03 -0.20665028941E+03  0.11742588791E+04  0.12699999809E+01 0. -1.
</event>
<event>
 5   0  0.3808293E-06  0.2503100E+04  0.7818609E-02  0.8401882E-01
        2   -1    0    0  501    0  0.00000000000E+00  0.00000000000E+00  0.91179498188E+03  0.91179498188E+03  0.25500000920E-02 0.  1.
       -2   -1    0    0    0  501  0.00000000000E+00  0.00000000000E+00 -0.17179051844E+04  0.17179051844E+04  0.25500000920E-02 0. -1.
    10030    2    1    2    0    0  0.00000000000E+00  0.00000000000E+00 -0.80611020250E+03  0.26297001663E+04  0.25030999393E+04 0.  0.
        1    1    3    3  502    0 -0.18202915864E+03  0.94979720413E+02  0.89398109182E+03  0.91725566471E+03  0.50400001928E-02 0.  1.
       -1    1    3    3    0  502  0.18202915864E+03 -0.94979720413E+02 -0.17000912943E+04  0.17124445016E+04  0.50400001928E-02 0. -1.
</event>
<event>
 5   0  0.1501747E-06  0.2502082E+04  0.7818609E-02  0.8402244E-01
       -1   -1    0    0    0  501  0.00000000000E+00  0.00000000000E+00  0.92337973314E+03  0.92337973316E+03  0.50400001928E-02 0. -1.
        1   -1    0    0  501    0  0.00000000000E+00  0.00000000000E+00 -0.16949724574E+04  0.16949724574E+04  0.50400001928E-02 0.  1.
    10030    2    1    2    0    0  0.00000000000E+00  0.00000000000E+00 -0.77159272428E+03  0.26183521906E+04  0.25020817057E+04 0.  0.
        2    1    3    3  502    0 -0.95606120266E+03 -0.37679062026E+03  0.36085725770E+03  0.10891474442E+04  0.25500000920E-02 0. -1.
       -2    1    3    3    0  502  0.95606120266E+03  0.37679062026E+03 -0.11324499820E+04  0.15292047464E+04  0.25500000920E-02 0.  1.
</event>
<event>
 5   0  0.1553604E-06  0.2497995E+04  0.7818609E-02  0.8403700E-01
        1   -1    0    0  501    0  0.00000000000E+00  0.00000000000E+00  0.20735313470E+04  0.20735313470E+04  0.50400001928E-02 0. -1.
       -1   -1    0    0    0  501  0.00000000000E+00  0.00000000000E+00 -0.75233712311E+03  0.75233712313E+03  0.50400001928E-02 0.  1.
    10030    2    1    2    0    0  0.00000000000E+00  0.00000000000E+00  0.13211942239E+04  0.28258684702E+04  0.24979948826E+04 0.  0.
        1    1    3    3  502    0 -0.20400020462E+03 -0.36822062731E+02 -0.73274073362E+03  0.76149913363E+03  0.50400001928E-02 0.  1.
       -1    1    3    3    0  502  0.20400020462E+03  0.36822062731E+02  0.20539349575E+04  0.20643693365E+04  0.50400001928E-02 0. -1.
</event>
<event>
 5   0  0.1287375E-06  0.2496923E+04  0.7818609E-02  0.8404082E-01
       -3   -1    0    0    0  501  0.00000000000E+00  0.00000000000E+00  0.15294614408E+04  0.15294614441E+04  0.10100000352E+00 0.  1.
        3   -1    0    0  501    0  0.00000000000E+00  0.00000000000E+00 -0.10190884280E+04  0.10190884330E+04  0.10100000352E+00 0. -1.
    10030    2    1    2    0    0  0.00000000000E+00  0.00000000000E+00  0.51037301281E+03  0.25485498771E+04  0.24969232796E+04 0.  0.
        1    1    3    3  502    0 -0.83644316536E+03 -0.21621065428E+03  0.11750825423E+04  0.14584934683E+04  0.50400001928E-02 0.  1.
       -1    1    3    3    0  502  0.83644316536E+03  0.21621065428E+03 -0.66470952944E+03  0.10900564088E+04  0.50400001928E-02 0. -1.
</event>
<event>
 5   0  0.3971759E-06  0.2502487E+04  0.7818609E-02  0.8402100E-01
        2   -1    0    0  501    0  0.00000000000E+00  0.00000000000E+00  0.17257289036E+04  0.17257289036E+04  0.25500000920E-02 0.  1.
       -2   -1    0    0    0  501  0.00000000000E+00  0.00000000000E+00 -0.90721659791E+03  0.90721659791E+03  0.25500000920E-02 0. -1.
    10030    2    1    2    0    0  0.00000000000E+00  0.00000000000E+00  0.81851230565E+03  0.26329455015E+04  0.25024866871E+04 0.  0.
        4    1    3    3  502    0 -0.32943095628E+03  0.65347496100E+03  0.14770811744E+04  0.16484309777E+04  0.12699999809E+01 0.  1.
       -4    1    3    3    0  502  0.32943095628E+03 -0.65347496100E+03 -0.65856886878E+03  0.98451452373E+03  0.12699999809E+01 0. -1.
</event>
<event>
 5   0  0.1519145E-06  0.2501033E+04  0.7818609E-02  0.8402618E-01
        1   -1    0    0  501    0  0.00000000000E+00  0.00000000000E+00  0.12216676240E+04  0.12216676240E+04  0.50400001928E-02 0. -1.
       -1   -1    0    0    0  501  0.00000000000E+00  0.00000000000E+00 -0.12800466278E+04  0.12800466279E+04  0.50400001928E-02 0.  1.
    10030    2    1    2    0    0  0.00000000000E+00  0.00000000000E+00 -0.58379003833E+02  0.25017142519E+04  0.25010330046E+04 0.  0.
        4    1    3    3  502    0  0.49870679633E+02 -0.31376787316E+03 -0.12390033626E+04  0.12790888586E+04  0.12699999809E+01 0.  1.
       -4    1    3    3    0  502 -0.49870679633E+02  0.31376787316E+03  0.11806243587E+04  0.12226253933E+04  0.12699999809E+01 0. -1.
</event>
<event>
 5   0  0.3971759E-06  0.2500518E+04  0.7818609E-02  0.8402801E-01
        2   -1    0    0  501    0  0.00000000000E+00  0.00000000000E+00  0.11633883631E+04  0.11633883631E+04  0.25500000920E-02 0. -1.
       -2   -1    0    0    0  501  0.00000000000E+00  0.00000000000E+00 -0.13436159846E+04  0.13436159846E+04  0.25500000920E-02 0.  1.
    10030    2    1    2    0    0  0.00000000000E+00  0.00000000000E+00 -0.18022762148E+03  0.25070043477E+04  0.25005177072E+04 0.  0.
        4    1    3    3  502    0  0.63517351791E+03  0.87534320646E+03  0.53878884322E+03  0.12082905931E+04  0.12699999809E+01 0. -1.
       -4    1    3    3    0  502 -0.63517351791E+03 -0.87534320646E+03 -0.71901646470E+03  0.12987137546E+04  0.12699999809E+01 0.  1.
</event>
<event>
 5   0  0.1501747E-06  0.2502161E+04  0.7818609E-02  0.8402216E-01
       -1   -1    0    0    0  501  0.00000000000E+00  0.00000000000E+00  0.13223612288E+04  0.13223612288E+04  0.50400001928E-02 0.  1.
        1   -1    0    0  501    0  0.00000000000E+00  0.00000000000E+00 -0.11836422845E+04  0.11836422845E+04  0.50400001928E-02 0. -1.
    10030    2    1    2    0    0  0.00000000000E+00  0.00000000000E+00  0.13871894434E+03  0.25060035133E+04  0.25021611985E+04 0.  0.
        2    1    3    3  502    0 -0.31340347891E+03  0.11932170805E+04 -0.13883933782E+03  0.12414769847E+04  0.25500000920E-02 0. -1.
       -2    1    3    3    0  502  0.31340347891E+03 -0.11932170805E+04  0.27755828216E+03  0.12645265287E+04  0.25500000920E-02 0.  1.
</event>
<event>
 5   0  0.3808293E-06  0.2500722E+04  0.7818609E-02  0.8402728E-01
        2   -1    0    0  501    0  0.00000000000E+00  0.00000000000E+00  0.11753714497E+04  0.11753714497E+04  0.25500000920E-02 0.  1.
       -2   -1    0    0    0  501  0.00000000000E+00  0.00000000000E+00 -0.13301350687E+04  0.13301350687E+04  0.25500000920E-02 0. -1.
    10030    2    1    2    0    0  0.00000000000E+00  0.00000000000E+00 -0.15476361899E+03  0.25055065184E+04  0.25007221229E+04 0.  0.
        1    1    3    3  502    0 -0.82851050222E+03 -0.90400551624E+03  0.16751815820E+03  0.12376259366E+04  0.50400001928E-02 0.  1.
       -1    1    3    3    0  502  0.82851050222E+03  0.90400551624E+03 -0.32228177719E+03  0.12678805818E+04  0.50400001928E-02 0. -1.
</event>
<event>
 5   0  0.1574896E-06  0.2500021E+04  0.7818609E-02  0.8402978E-01
       -1   -1    0    0    0  501  0.00000000000E+00  0.00000000000E+00  0.22321124000E+04  0.22321124000E+04  0.50400001928E-02 0.  1.
        1   -1    0    0  501    0  0.00000000000E+00  0.00000000000E+00 -0.70002135958E+03  0.70002135959E+03  0.50400001928E-02 0. -1.
    10030    2    1    2    0    0  0.00000000000E+00  0.00000000000E+00  0.15320910404E+04  0.29321337596E+04  0.25000210855E+04 0.  0.
        3    1    3    3  502    0 -0.38843784534E+03 -0.34500922300E+03  0.20994872259E+04  0.21628134329E+04  0.10100000352E+00 0.  1.
       -3    1    3    3    0  502  0.38843784534E+03  0.34500922300E+03 -0.56739618545E+03  0.76932032672E+03  0.10100000352E+00 0. -1.
</event>
<event>
 5   0  0.1553604E-06  0.2501566E+04  0.7818609E-02  0.8402428E-01
       -1   -1    0    0    0  501  0.00000000000E+00  0.00000000000E+00  0.69680607851E+03  0.69680607852E+03  0.50400001928E-02 0.  1.
        1   -1    0    0  501    0  0.00000000000E+00  0.00000000000E+00 -0.22451846952E+04  0.22451846952E+04  0.50400001928E-02 0. -1.
    10030    2    1    2    0    0  0.00000000000E+00  0.00000000000E+00 -0.15483786166E+04  0.29419907737E+04  0.25015661838E+04 0.  0.
        1    1    3    3  502    0  0.71164095928E+03  0.31201304402E+03 -0.19268916625E+04  0.20776661122E+04  0.50400001928E-02 0. -1.
       -1    1    3    3    0  502 -0.71164095928E+03 -0.31201304402E+03  0.37851304588E+03  0.86432466151E+03  0.50400001928E-02 0.  1.
</event>
<event>
 5   0  0.1574896E-06  0.2500356E+04  0.7818609E-02  0.8402859E-01
       -1   -1    0    0    0  501  0.00000000000E+00  0.00000000000E+00  0.68385274107E+03  0.68385274109E+03  0.50400001928E-02 0.  1.
        1   -1    0    0  501    0  0.00000000000E+00  0.00000000000E+00 -0.22855002041E+04  0.22855002041E+04  0.50400001928E-02 0. -1.
    10030    2    1    2    0    0  0.00000000000E+00  0.00000000000E+00 -0.16016474631E+04  0.29693529452E+04  0.25003564381E+04 0.  0.
        3    1    3    3  502    0  0.55060225108E+03  0.23046921665E+03 -0.21053521871E+04  0.21883296691E+04  0.10100000352E+00 0. -1.
       -3    1    3    3    0  502 -0.55060225108E+03 -0.23046921665E+03  0.50370472400E+03  0.78102327616E+03  0.10100000352E+00 0.  1.
</event>
<event>
 5   0  0.3713394E-06  0.2501269E+04  0.7818609E-02  0.8402534E-01
        2   -1    0    0  501    0  0.00000000000E+00  0.00000000000E+00  0.13017994939E+04  0.13017994939E+04  0.25500000920E-02 0. -1.
       -2   -1    0    0    0  501  0.00000000000E+00  0.00000000000E+00 -0.12014803206E+04  0.12014803206E+04  0.25500000920E-02 0.  1.
    10030    2    1    2    0    0  0.00000000000E+00  0.00000000000E+00  0.10031917330E+03  0.25032798145E+04  0.25012688566E+04 0.  0.
        3    1    3    3  502    0 -0.78715376011E+03  0.84247549636E+03  0.53501834284E+03  0.12710706673E+04  0.10100000352E+00 0. -1.
       -3    1    3    3    0  502  0.78715376011E+03 -0.84247549636E+03 -0.43469916954E+03  0.12322091471E+04  0.10100000352E+00 0.  1.
</event>
<event>
 5   0  0.3924441E-06  0.2498712E+04  0.7818609E-02  0.8403444E-01
       -2   -1    0    0    0  501  0.00000000000E+00  0.00000000000E+00  0.10230439970E+04  0.10230439970E+04  0.25500000920E-02 0. -1.
        2   -1    0    0  501    0  0.00000000000E+00  0.00000000000E+00 -0.15257315756E+04  0.15257315756E+04  0.25500000920E-02 0.  1.
    10030    2    1    2    0    0  0.00000000000E+00  0.00000000000E+00 -0.50268757863E+03  0.25487755726E+04  0.24987120918E+04 0.  0.
        2    1    3    3  502    0 -0.60778604040E+03 -0.77485969703E+03  0.53287669573E+03  0.11197182654E+04  0.25500000920E-02 0. -1.
       -2    1    3    3    0  502  0.60778604040E+03  0.77485969703E+03 -0.10355642744E+04  0.14290573072E+04  0.25500000920E-02 0.  1.
</event>
<event>
 5   0  0.1519145E-06  0.2502333E+04  0.7818609E-02  0.8402155E-01
       -1   -1    0    0    0  501  0.00000000000E+00  0.00000000000E+00  0.11777982504E+04  0.11777982504E+04  0.50400001928E-02 0.  1.
        1   -1    0    0  501    0  0.00000000000E+00  0.00000000000E+00 -0.13291047395E+04  0.13291047395E+04  0.50400001928E-02 0. -1.
    10030    2    1    2    0    0  0.00000000000E+00  0.00000000000E+00 -0.15130648907E+03  0.25069029899E+04  0.25023327011E+04 0.  0.
        4    1    3    3  502    0 -0.25709946087E+02 -0.10219720782E+04 -0.79830813753E+03  0.12970680111E+04  0.12699999809E+01 0. -1.
       -4    1    3    3    0  502  0.25709946087E+02  0.10219720782E+04  0.64700164846E+03  0.12098349788E+04  0.12699999809E+01 0.  1.
</event>
<event>
 5   0  0.3808293E-06  0.2501432E+04  0.7818609E-02  0.8402476E-01
        2   -1    0    0  501    0  0.00000000000E+00  0.00000000000E+00  0.13792846614E+04  0.13792846614E+04  0.25500000920E-02 0. -1.
       -2   -1    0    0    0  501  0.00000000000E+00  0.00000000000E+00 -0.11341317362E+04  0.11341317362E+04  0.25500000920E-02 0.  1.
    10030    2    1    2    0    0  0.00000000000E+00  0.00000000000E+00  0.24515292527E+03  0.25134163976E+04  0.25014319961E+04 0.  0.
        1    1    3    3  502    0 -0.30055635454E+03 -0.94329371395E+03 -0.64538456487E+03  0.11818030249E+04  0.50400001928E-02 0.  1.
       -1    1    3    3    0  502  0.30055635454E+03  0.94329371395E+03  0.89053749014E+03  0.13316133727E+04  0.50400001928E-02 0. -1.
</event>
<event>
 5   0  0.1287375E-06  0.2501700E+04  0.7818609E-02  0.8402380E-01
       -4   -1    0    0    0  501  0.00000000000E+00  0.00000000000E+00  0.17548347912E+04  0.17548352508E+04  0.12699999809E+01 0.  1.
        4   -1    0    0  501    0  0.00000000000E+00  0.00000000000E+00 -0.89160759476E+03  0.89160849925E+03  0.12699999809E+01 0. -1.
    10030    2    1    2    0    0  0.00000000000E+00  0.00000000000E+00  0.86322719644E+03  0.26464437500E+04  0.25017000878E+04 0.  0.
        4    1    3    3  502    0  0.11721624512E+04 -0.35899191269E+03  0.69455936689E+03  0.14089905367E+04  0.12699999809E+01 0.  1.
       -4    1    3    3    0  502 -0.11721624512E+04  0.35899191269E+03  0.16866782955E+03  0.12374532133E+04  0.12699999809E+01 0. -1.
</event>
<event>
 5   0  0.1519145E-06  0.2502224E+04  0.7818609E-02  0.8402194E-01
        1   -1    0    0  501    0  0.00000000000E+00  0.00000000000E+00  0.16305708349E+04  0.16305708349E+04  0.50400001928E-02 0.  1.
       -1   -1    0    0    0  501  0.00000000000E+00  0.00000000000E+00 -0.95995899184E+03  0.95995899185E+03  0.50400001928E-02 0. -1.
    10030    2    1    2    0    0  0.00000000000E+00  0.00000000000E+00  0.67061184309E+03  0.25905298268E+04  0.25022239187E+04 0.  0.
        4    1    3    3  502    0  0.10642008574E+04  0.63520602292E+03  0.15818531924E+03  0.12494136083E+04  0.12699999809E+01 0. -1.
       -4    1    3    3    0  502 -0.10642008574E+04 -0.63520602292E+03  0.51242652385E+03  0.13411162185E+04  0.12699999809E+01 0.  1.
</event>
<event>
 5   0  0.3808293E-06  0.2493338E+04  0.7818609E-02  0.8405363E-01
        2   -1    0    0  501    0  0.00000000000E+00  0.00000000000E+00  0.23742026043E+04  0.23742026043E+04  0.25500000920E-02 0.  1.
       -2   -1    0    0    0  501  0.00000000000E+00  0.00000000000E+00 -0.65461297205E+03  0.65461297205E+03  0.25500000920E-02 0. -1.
    10030    2    1    2    0    0  0.00000000000E+00  0.00000000000E+00  0.17195896323E+04  0.30288155764E+04  0.24933381825E+04 0.  0.
        1    1    3    3  502    0 -0.51280112534E+03 -0.79913652972E+02 -0.51714488556E+03  0.73265955175E+03  0.50400001928E-02 0. -1.
       -1    1    3    3    0  502  0.51280112534E+03  0.79913652972E+02  0.22367345178E+04  0.22961560246E+04  0.50400001928E-02 0.  1.
</event>
<event>
 5   0  0.1553604E-06  0.2505608E+04  0.7818609E-02  0.8400990E-01
        1   -1    0    0  501    0  0.00000000000E+00  0.00000000000E+00  0.27401402171E+04  0.27401402171E+04  0.50400001928E-02 0.  1.
       -1   -1    0    0    0  501  0.00000000000E+00  0.00000000000E+00 -0.57278762054E+03  0.57278762056E+03  0.50400001928E-02 0. -1.
    10030    2    1    2    0    0  0.00000000000E+00  0.00000000000E+00  0.21673525966E+04  0.33129278377E+04  0.25056084251E+04 0.  0.
        1    1    3    3  502    0 -0.94159675037E+02  0.67388507211E+02 -0.56569746267E+03  0.57742607718E+03  0.50400001928E-02 0. -1.
       -1    1    3    3    0  502  0.94159675037E+02 -0.67388507211E+02  0.27330500593E+04  0.27355017605E+04  0.50400001928E-02 0.  1.
</event>
<event>
 5   0  0.3808293E-06  0.2499356E+04  0.7818609E-02  0.8403215E-01
        2   -1    0    0  501    0  0.00000000000E+00  0.00000000000E+00  0.17144603132E+04  0.17144603132E+04  0.25500000920E-02 0. -1.
       -2   -1    0    0    0  501  0.00000000000E+00  0.00000000000E+00 -0.91089639649E+03  0.91089639650E+03  0.25500000920E-02 0.  1.
    10030    2    1    2    0    0  0.00000000000E+00  0.00000000000E+00  0.80356391671E+03  0.26253567097E+04  0.24993564942E+04 0.  0.
        1    1    3    3  502    0  0.29356039706E+03 -0.10264406356E+04 -0.28053198532E+03  0.11038370713E+04  0.50400001928E-02 0.  1.
       -1    1    3    3    0  502 -0.29356039706E+03  0.10264406356E+04  0.10840959020E+04  0.15215196384E+04  0.50400001928E-02 0. -1.
</event>
<event>
 5   0  0.1519145E-06  0.2529838E+04  0.7818609E-02  0.8392432E-01
       -1   -1    0    0    0  501  0.00000000000E+00  0.00000000000E+00  0.16896449189E+04  0.16896449189E+04  0.50400001928E-02 0.  1.
        1   -1    0    0  501    0  0.00000000000E+00  0.00000000000E+00 -0.94695638912E+03  0.94695638913E+03  0.50400001928E-02 0. -1.
    10030    2    1    2    0    0  0.00000000000E+00  0.00000000000E+00  0.74268852974E+03  0.26366013080E+04  0.25298379800E+04 0.  0.
        4    1    3    3  502    0  0.28271451168E+03  0.99197893728E+03  0.11344100710E+04  0.15332441193E+04  0.12699999809E+01 0.  1.
       -4    1    3    3    0  502 -0.28271451168E+03 -0.99197893728E+03 -0.39172154128E+03  0.11033571887E+04  0.12699999809E+01 0. -1.
</event>
<event>
 5   0  0.3924441E-06  0.2501257E+04  0.7818609E-02  0.8402538E-01
       -2   -1    0    0    0  501  0.00000000000E+00  0.00000000000E+00  0.89284265842E+03  0.89284265843E+03  0.25500000920E-02 0.  1.
        2   -1    0    0  501    0  0.00000000000E+00  0.00000000000E+00 -0.17517884228E+04  0.17517884228E+04  0.25500000920E-02 0. -1.
    10030    2    1    2    0    0  0.00000000000E+00  0.00000000000E+00 -0.85894576438E+03  0.26446310812E+04  0.25012568300E+04 0.  0.
        2    1    3    3  502    0 -0.10691976127E+04 -0.46080181055E+03 -0.91232204087E+03  0.14791393950E+04  0.25500000920E-02 0. -1.
       -2    1    3    3    0  502  0.10691976127E+04  0.46080181055E+03  0.53376276484E+02  0.11654916862E+04  0.25500000920E-02 0.  1.
</event>
<event>
 5   0  0.3924441E-06  0.2506946E+04  0.7818609E-02  0.8400515E-01
        2   -1    0    0  501    0  0.00000000000E+00  0.00000000000E+00  0.14457863197E+04  0.14457863197E+04  0.25500000920E-02 0. -1.
       -2   -1    0    0    0  501  0.00000000000E+00  0.00000000000E+00 -0.10867402147E+04  0.10867402147E+04  0.25500000920E-02 0.  1.
    10030    2    1    2    0    0  0.00000000000E+00  0.00000000000E+00  0.35904610506E+03  0.25325265344E+04  0.25069456599E+04 0.  0.
        2    1    3    3  502    0  0.11755140772E+04 -0.26858672647E+03 -0.16634748872E+03  0.12172278597E+04  0.25500000920E-02 0.  1.
       -2    1    3    3    0  502 -0.11755140772E+04  0.26858672647E+03  0.52539359379E+03  0.13152986747E+04  0.25500000920E-02 0. -1.
</event>
<event>
 5   0  0.1519145E-06  0.2494633E+04  0.7818609E-02  0.8404900E-01
        1   -1    0    0  501    0  0.00000000000E+00  0.00000000000E+00  0.23504589830E+04  0.23504589830E+04  0.50400001928E-02 0. -1.
       -1   -1    0    0    0  501  0.00000000000E+00  0.00000000000E+00 -0.66191235633E+03  0.66191235635E+03  0.50400001928E-02 0.  1.
    10030    2    1    2    0    0  0.00000000000E+00  0.00000000000E+00  0.16885466267E+04  0.30123713393E+04  0.24946325131E+04 0.  0.
        4    1    3    3  502    0 -0.22010888704E+03  0.23771390048E+01 -0.63827182022E+03  0.67516375964E+03  0.12699999809E+01 0.  1.
       -4    1    3    3    0  502  0.22010888704E+03 -0.23771390048E+01  0.23268184469E+04  0.23372075797E+04  0.12699999809E+01 0. -1.
</event>
<event>
 5   0  0.1541852E-06  0.2499764E+04  0.7818609E-02  0.8403070E-01
        1   -1    0    0  501    0  0.00000000000E+00  0.00000000000E+00  0.12938761514E+04  0.12938761514E+04  0.50400001928E-02 0. -1.
       -1   -1    0    0    0  501  0.00000000000E+00  0.00000000000E+00 -0.12073835453E+04  0.12073835453E+04  0.50400001928E-02 0.  1.
    10030    2    1    2    0    0  0.00000000000E+00  0.00000000000E+00  0.86492606037E+02  0.25012596967E+04  0.24997638087E+04 0.  0.
        5    1    3    3  502    0 -0.20395475004E+03 -0.10184682199E+04  0.73886562191E+03  0.12746840990E+04  0.46999998093E+01 0. -1.
       -5    1    3    3    0  502  0.20395475004E+03  0.10184682199E+04 -0.65237301587E+03  0.12265755977E+04  0.46999998093E+01 0.  1.
</event>
<event>
 5   0  0.1501747E-06  0.2497251E+04  0.7818609E-02  0.8403966E-01
        1   -1    0    0  501    0  0.00000000000E+00  0.00000000000E+00  0.19910046116E+04  0.19910046116E+04  0.50400001928E-02 0.  1.
       -1   -1    0    0    0  501  0.00000000000E+00  0.00000000000E+00 -0.78305447469E+03  0.78305447470E+03  0.50400001928E-02 0. -1.
    10030    2    1    2    0    0  0.00000000000E+00  0.00000000000E+00  0.12079501369E+04  0.27740590863E+04  0.24972505443E+04 0.  0.
        2    1    3    3  502    0  0.82368476154E+02 -0.12191926380E+04  0.88903151870E+03  0.15111559469E+04  0.25500000920E-02 0.  1.
       -2    1    3    3    0  502 -0.82368476154E+02  0.12191926380E+04  0.31891861819E+03  0.12629031394E+04  0.25500000920E-02 0. -1.
</event>
<event>
 5   0  0.3713394E-06  0.2500014E+04  0.7818609E-02  0.8402980E-01
       -2   -1    0    0    0  501  0.00000000000E+00  0.00000000000E+00  0.10034510503E+04  0.10034510503E+04  0.25500000920E-02 0. -1.
        2   -1    0    0  501    0  0.00000000000E+00  0.00000000000E+00 -0.15571440480E+04  0.15571440480E+04  0.25500000920E-02 0.  1.
    10030    2    1    2    0    0  0.00000000000E+00  0.00000000000E+00 -0.55369299771E+03  0.25605950983E+04  0.25000142643E+04 0.  0.
        3    1    3    3  502    0 -0.82655909238E+03  0.32885848317E+03 -0.11762891591E+04  0.14747894870E+04  0.10100000352E+00 0.  1.
       -3    1    3    3    0  502  0.82655909238E+03 -0.32885848317E+03  0.62259616135E+03  0.10858056113E+04  0.10100000352E+00 0. -1.
</event>
<event>
 5   0  0.1501747E-06  0.2505219E+04  0.7818609E-02  0.8401129E-01
        1   -1    0    0  501    0  0.00000000000E+00  0.00000000000E+00  0.15974272862E+04  0.15974272862E+04  0.50400001928E-02 0. -1.
       -1   -1    0    0    0  501  0.00000000000E+00  0.00000000000E+00 -0.98222321393E+03  0.98222321394E+03  0.50400001928E-02 0.  1.
    10030    2    1    2    0    0  0.00000000000E+00  0.00000000000E+00  0.61520407223E+03  0.25796505001E+04  0.25052186835E+04 0.  0.
        2    1    3    3  502    0 -0.80534949565E+03 -0.69643271171E+03 -0.37186958955E+03  0.11277824807E+04  0.25500000920E-02 0.  1.
       -2    1    3    3    0  502  0.80534949565E+03  0.69643271171E+03  0.98707366178E+03  0.14518680194E+04  0.25500000920E-02 0. -1.
</event>
<event>
 5   0  0.1553604E-06  0.2495388E+04  0.7818609E-02  0.8404630E-01
        1   -1    0    0  501    0  0.00000000000E+00  0.00000000000E+00  0.14182803979E+04  0.14182803979E+04  0.50400001928E-02 0. -1.
       -1   -1    0    0    0  501  0.00000000000E+00  0.00000000000E+00 -0.10976251726E+04  0.10976251726E+04  0.50400001928E-02 0.  1.
    10030    2    1    2    0    0  0.00000000000E+00  0.00000000000E+00  0.32065522535E+03  0.25159055705E+04  0.24953879591E+04 0.  0.
        1    1    3    3  502    0 -0.10245706629E+04 -0.60673367522E+03 -0.21538835402E+03  0.12100673283E+04  0.50400001928E-02 0.  1.
       -1    1    3    3    0  502  0.10245706629E+04  0.60673367522E+03  0.53604357937E+03  0.13058382422E+04  0.50400001928E-02 0. -1.
</event>
<event>
 5   0  0.3808293E-06  0.2499907E+04  0.7818609E-02  0.8403019E-01
       -2   -1    0    0    0  501  0.00000000000E+00  0.00000000000E+00  0.78778255139E+03  0.78778255139E+03  0.25500000920E-02 0.  1.
        2   -1    0    0  501    0  0.00000000000E+00  0.00000000000E+00 -0.19832678072E+04  0.19832678072E+04  0.25500000920E-02 0. -1.
    10030    2    1    2    0    0  0.00000000000E+00  0.00000000000E+00 -0.11954852558E+04  0.27710503586E+04  0.24999070169E+04 0.  0.
        1    1    3    3  502    0  0.24716838288E+03 -0.11579688698E+04 -0.10416805908E+04  0.15770486886E+04  0.50400001928E-02 0.  1.
       -1    1    3    3    0  502 -0.24716838288E+03  0.11579688698E+04 -0.15380466506E+03  0.11940016700E+04  0.50400001928E-02 0. -1.
</event>
<event>
 5   0  0.1287375E-06  0.2501182E+04  0.7818609E-02  0.8402565E-01
        3   -1    0    0  501    0  0.00000000000E+00  0.00000000000E+00  0.24796878357E+04  0.24796878378E+04  0.10100000352E+00 0.  1.
       -3   -1    0    0    0  501  0.00000000000E+00  0.00000000000E+00 -0.63071561499E+03  0.63071562308E+03  0.10100000352E+00 0. -1.
    10030    2    1    2    0    0  0.00000000000E+00  0.00000000000E+00  0.18489722207E+04  0.31104034609E+04  0.25011820038E+04 0.  0.
        2    1    3    3  502    0 -0.36202217667E+03 -0.27842076767E+03 -0.52330237957E+03  0.69456717511E+03  0.25500000920E-02 0. -1.
       -2    1    3    3    0  502  0.36202217667E+03  0.27842076767E+03  0.23722746003E+04  0.24158362858E+04  0.25500000920E-02 0.  1.
</event>
<event>
 5   0  0.1541852E-06  0.2499935E+04  0.7818609E-02  0.8403009E-01
       -1   -1    0    0    0  501  0.00000000000E+00  0.00000000000E+00  0.14765414022E+04  0.14765414022E+04  0.50400001928E-02 0.  1.
        1   -1    0    0  501    0  0.00000000000E+00  0.00000000000E+00 -0.10581609895E+04  0.10581609895E+04  0.50400001928E-02 0. -1.
    10030    2    1    2    0    0  0.00000000000E+00  0.00000000000E+00  0.41838041267E+03  0.25347023917E+04  0.24999348081E+04 0.  0.
        5    1    3    3  502    0 -0.69272884099E+03  0.97144168347E+03  0.58696321690E+03  0.13297067720E+04  0.46999998093E+01 0.  1.
       -5    1    3    3    0  502  0.69272884099E+03 -0.97144168347E+03 -0.16858280423E+03  0.12049956197E+04  0.46999998093E+01 0. -1.
</event>
<event>
 5   0  0.3924441E-06  0.2508822E+04  0.7818609E-02  0.8399850E-01
        2   -1    0    0  501    0  0.00000000000E+00  0.00000000000E+00  0.17842534552E+04  0.17842534552E+04  0.25500000920E-02 0.  1.
       -2   -1    0    0    0  501  0.00000000000E+00  0.00000000000E+00 -0.88190751630E+03  0.88190751630E+03  0.25500000920E-02 0. -1.
    10030    2    1    2    0    0  0.00000000000E+00  0.00000000000E+00  0.90234593887E+03  0.26661609715E+04  0.25088216621E+04 0.  0.
        2    1    3    3  502    0  0.27990914548E+03 -0.85635492824E+03 -0.47640910939E+03  0.10191459819E+04  0.25500000920E-02 0. -1.
       -2    1    3    3    0  502 -0.27990914548E+03  0.85635492824E+03  0.13787550483E+04  0.16470149896E+04  0.25500000920E-02 0.  1.
</event>
<event>
 5   0  0.3924441E-06  0.2497869E+04  0.7818609E-02  0.8403745E-01
       -2   -1    0    0    0  501  0.00000000000E+00  0.00000000000E+00  0.11244148237E+04  0.11244148237E+04  0.25500000920E-02 0. -1.
        2   -1    0    0  501    0  0.00000000000E+00  0.00000000000E+00 -0.13872435684E+04  0.13872435684E+04  0.25500000920E-02 0.  1.
    10030    2    1    2    0    0  0.00000000000E+00  0.00000000000E+00 -0.26282874471E+03  0.25116583920E+04  0.24978688775E+04 0.  0.
        2    1    3    3  502    0  0.11154072942E+04  0.67415460176E+02  0.42948129729E+03  0.11971351056E+04  0.25500000920E-02 0. -1.
       -2    1    3    3    0  502 -0.11154072942E+04 -0.67415460176E+02 -0.69231004200E+03  0.13145232864E+04  0.25500000920E-02 0.  1.
</event>
<event>
 5   0  0.1574896E-06  0.2488805E+04  0.7818609E-02  0.8406985E-01
       -1   -1    0    0    0  501  0.00000000000E+00  0.00000000000E+00  0.77211301058E+03  0.77211301059E+03  0.50400001928E-02 0.  1.
        1   -1    0    0  501    0  0.00000000000E+00  0.00000000000E+00 -0.20055834267E+04  0.20055834267E+04  0.50400001928E-02 0. -1.
    10030    2    1    2    0    0  0.00000000000E+00  0.00000000000E+00 -0.12334704161E+04  0.27776964373E+04  0.24888045786E+04 0.  0.
        3    1    3    3  502    0 -0.11822596604E+04 -0.38259294399E+03 -0.54252004401E+03  0.13558920583E+04  0.10100000352E+00 0.  1.
       -3    1    3    3    0  502  0.11822596604E+04  0.38259294399E+03 -0.69095037211E+03  0.14218043790E+04  0.10100000352E+00 0. -1.
</event>
<event>
 5   0  0.3814260E-06  0.2506183E+04  0.7818609E-02  0.8400786E-01
        2   -1    0    0  501    0  0.00000000000E+00  0.00000000000E+00  0.18325701179E+04  0.18325701179E+04  0.25500000920E-02 0. -1.
       -2   -1    0    0    0  501  0.00000000000E+00  0.00000000000E+00 -0.85685010517E+03  0.85685010517E+03  0.25500000920E-02 0.  1.
    10030    2    1    2    0    0  0.00000000000E+00  0.00000000000E+00  0.97572001268E+03  0.26894202230E+04  0.25061826735E+04 0.  0.
        5    1    3    3  502    0  0.46520596446E+03 -0.43765208659E+02 -0.75985566260E+03  0.89203962964E+03  0.46999998093E+01 0.  1.
       -5    1    3    3    0  502 -0.46520596446E+03  0.43765208659E+02  0.17355756753E+04  0.17973805934E+04  0.46999998093E+01 0. -1.
</event>
<event>
 5   0  0.1519145E-06  0.2505546E+04  0.7818609E-02  0.8401012E-01
        1   -1    0    0  501    0  0.00000000000E+00  0.00000000000E+00  0.13837756606E+04  0.13837756606E+04  0.50400001928E-02 0.  1.
       -1   -1    0    0    0  501  0.00000000000E+00  0.00000000000E+00 -0.11341727415E+04  0.11341727415E+04  0.50400001928E-02 0. -1.
    10030    2    1    2    0    0  0.00000000000E+00  0.00000000000E+00  0.24960291911E+03  0.25179484021E+04  0.25055463552E+04 0.  0.
        4    1    3    3  502    0  0.55123029077E+03  0.25279578749E+03 -0.97683557058E+03  0.11497694936E+04  0.12699999809E+01 0. -1.
       -4    1    3    3    0  502 -0.55123029077E+03 -0.25279578749E+03  0.12264384897E+04  0.13681789084E+04  0.12699999809E+01 0.  1.
</event>
<event>
 5   0  0.3924441E-06  0.2577069E+04  0.7818609E-02  0.8376032E-01
        2   -1    0    0  501    0  0.00000000000E+00  0.00000000000E+00  0.19716121382E+04  0.19716121382E+04  0.25500000920E-02 0.  1.
       -2   -1    0    0    0  501  0.00000000000E+00  0.00000000000E+00 -0.84211327356E+03  0.84211327356E+03  0.25500000920E-02 0. -1.
    10030    2    1    2    0    0  0.00000000000E+00  0.00000000000E+00  0.11294988646E+04  0.28137254117E+04  0.25770686850E+04 0.  0.
        2    1    3    3  502    0  0.88345606068E+03  0.81443384835E+03  0.10728016907E+04  0.16108074286E+04  0.25500000920E-02 0. -1.
       -2    1    3    3    0  502 -0.88345606068E+03 -0.81443384835E+03  0.56697173872E+02  0.12029179831E+04  0.25500000920E-02 0.  1.
</event>
<event>
 5   0  0.1541852E-06  0.2499007E+04  0.7818609E-02  0.8403340E-01
        1   -1    0    0  501    0  0.00000000000E+00  0.00000000000E+00  0.19742994259E+04  0.19742994259E+04  0.50400001928E-02 0.  1.
       -1   -1    0    0    0  501  0.00000000000E+00  0.00000000000E+00 -0.79079108121E+03  0.79079108123E+03  0.50400001928E-02 0. -1.
    10030    2    1    2    0    0  0.00000000000E+00  0.00000000000E+00  0.11835083447E+04  0.27650905071E+04  0.24990065047E+04 0.  0.
        5    1    3    3  502    0  0.63985025540E+03 -0.14991066973E+03 -0.58410998420E+03  0.87925429875E+03  0.46999998093E+01 0. -1.
       -5    1    3    3    0  502 -0.63985025540E+03  0.14991066973E+03  0.17676183289E+04  0.18858362084E+04  0.46999998093E+01 0.  1.
</event>
<event>
 5   0  0.1287375E-06  0.2496716E+04  0.7818609E-02  0.8404156E-01
       -3   -1    0    0    0  501  0.00000000000E+00  0.00000000000E+00  0.14672345406E+04  0.14672345441E+04  0.10100000352E+00 0.  1.
        3   -1    0    0  501    0  0.00000000000E+00  0.00000000000E+00 -0.10621324754E+04  0.10621324802E+04  0.10100000352E+00 0. -1.
    10030    2    1    2    0    0  0.00000000000E+00  0.00000000000E+00  0.40510206523E+03  0.25293670243E+04  0.24967158149E+04 0.  0.
        2    1    3    3  502    0 -0.90746392669E+03 -0.79121965055E+03  0.53683312304E+03  0.13182219523E+04  0.25500000920E-02 0.  1.
       -2    1    3    3    0  502  0.90746392669E+03  0.79121965055E+03 -0.13173105781E+03  0.12111450719E+04  0.25500000920E-02 0. -1.
</event>
<event>
 5   0  0.1501747E-06  0.2503804E+04  0.7818609E-02  0.8401631E-01
       -1   -1    0    0    0  501  0.00000000000E+00  0.00000000000E+00  0.81679588436E+03  0.81679588437E+03  0.50400001928E-02 0.  1.
        1   -1    0    0  501    0  0.00000000000E+00  0.00000000000E+00 -0.19187892382E+04  0.19187892383E+04  0.50400001928E-02 0. -1.
    10030    2    1    2    0    0  0.00000000000E+00  0.00000000000E+00 -0.11019933539E+04  0.27355851226E+04  0.25038044275E+04 0.  0.
        2    1    3    3  502    0 -0.12287528338E+04 -0.68538473952E+02 -0.30011386631E+03  0.12667278247E+04  0.25500000920E-02 0.  1.
       -2    1    3    3    0  502  0.12287528338E+04  0.68538473952E+02 -0.80187948758E+03  0.14688572979E+04  0.25500000920E-02 0. -1.
</event>
<event>
 5   0  0.1541852E-06  0.2501848E+04  0.7818609E-02  0.8402327E-01
        1   -1    0    0  501    0  0.00000000000E+00  0.00000000000E+00  0.14501395882E+04  0.14501395882E+04  0.50400001928E-02 0.  1.
       -1   -1    0    0    0  501  0.00000000000E+00  0.00000000000E+00 -0.10790759741E+04  0.10790759741E+04  0.50400001928E-02 0. -1.
    10030    2    1    2    0    0  0.00000000000E+00  0.00000000000E+00  0.37106361417E+03  0.25292155623E+04  0.25018479480E+04 0.  0.
        5    1    3    3  502    0 -0.58629063216E+03 -0.10882982629E+04  0.37909133562E+03  0.12930050832E+04  0.46999998093E+01 0. -1.
       -5    1    3    3    0  502  0.58629063216E+03  0.10882982629E+04 -0.80277214495E+01  0.12362104791E+04  0.46999998093E+01 0.  1.
</event>
<event>
 5   0  0.3924441E-06  0.2471818E+04  0.7818609E-02  0.8413095E-01
       -2   -1    0    0    0  501  0.00000000000E+00  0.00000000000E+00  0.69326219391E+03  0.69326219392E+03  0.25500000920E-02 0.  1.
        2   -1    0    0  501    0  0.00000000000E+00  0.00000000000E+00 -0.22033086010E+04  0.22033086010E+04  0.25500000920E-02 0. -1.
    10030    2    1    2    0    0  0.00000000000E+00  0.00000000000E+00 -0.15100464071E+04  0.28965707949E+04  0.24718175941E+04 0.  0.
        2    1    3    3  502    0 -0.10645284087E+04 -0.44515433993E+03 -0.12739338863E+04  0.17188050110E+04  0.25500000920E-02 0.  1.
       -2    1    3    3    0  502  0.10645284087E+04  0.44515433993E+03 -0.23611252080E+03  0.11777657839E+04  0.25500000920E-02 0. -1.
</event>
<event>
 5   0  0.3924441E-06  0.2508171E+04  0.7818609E-02  0.8400080E-01
        2   -1    0    0  501    0  0.00000000000E+00  0.00000000000E+00  0.20684653444E+04  0.20684653444E+04  0.25500000920E-02 0.  1.
       -2   -1    0    0    0  501  0.00000000000E+00  0.00000000000E+00 -0.76033689646E+03  0.76033689646E+03  0.25500000920E-02 0. -1.
    10030    2    1    2    0    0  0.00000000000E+00  0.00000000000E+00  0.13081284479E+04  0.28288022409E+04  0.25081710631E+04 0.  0.
        2    1    3    3  502    0 -0.74425912456E+03  0.80089679215E+03  0.13469010508E+04  0.17347909837E+04  0.25500000920E-02 0.  1.
       -2    1    3    3    0  502  0.74425912456E+03 -0.80089679215E+03 -0.38772602904E+02  0.10940112572E+04  0.25500000920E-02 0. -1.
</event>
<event>
 5   0  0.1519145E-06  0.2524932E+04  0.7818609E-02  0.8394157E-01
       -1   -1    0    0    0  501  0.00000000000E+00  0.00000000000E+00  0.86787622532E+03  0.86787622534E+03  0.50400001928E-02 0.  1.
        1   -1    0    0  501    0  0.00000000000E+00  0.00000000000E+00 -0.18364609602E+04  0.18364609603E+04  0.50400001928E-02 0. -1.
    10030    2    1    2    0    0  0.00000000000E+00  0.00000000000E+00 -0.96858473493E+03  0.27043371856E+04  0.25249323208E+04 0.  0.
        4    1    3    3  502    0  0.47471767181E+03  0.10748229951E+04 -0.97885680306E+03  0.15293016683E+04  0.12699999809E+01 0.  1.
       -4    1    3    3    0  502 -0.47471767181E+03 -0.10748229951E+04  0.10272068133E+02  0.11750355173E+04  0.12699999809E+01 0. -1.
</event>
<event>
 5   0  0.3971759E-06  0.2500178E+04  0.7818609E-02  0.8402922E-01
        2   -1    0    0  501    0  0.00000000000E+00  0.00000000000E+00  0.85558077671E+03  0.85558077672E+03  0.25500000920E-02 0. -1.
       -2   -1    0    0    0  501  0.00000000000E+00  0.00000000000E+00 -0.18265047266E+04  0.18265047266E+04  0.25500000920E-02 0.  1.
    10030    2    1    2    0    0  0.00000000000E+00  0.00000000000E+00 -0.97092394990E+03  0.26820855033E+04  0.25001778598E+04 0.  0.
        4    1    3    3  502    0  0.23333417321E+02 -0.42008031283E+03  0.77734712160E+03  0.88390162232E+03  0.12699999809E+01 0. -1.
       -4    1    3    3    0  502 -0.23333417321E+02  0.42008031283E+03 -0.17482710715E+04  0.17981838810E+04  0.12699999809E+01 0.  1.
</event>
<event>
 5   0  0.1287375E-06  0.2505796E+04  0.7818609E-02  0.8400924E-01
        3   -1    0    0  501    0  0.00000000000E+00  0.00000000000E+00  0.13459135368E+04  0.13459135406E+04  0.10100000352E+00 0. -1.
       -3   -1    0    0    0  501  0.00000000000E+00  0.00000000000E+00 -0.11663107668E+04  0.11663107712E+04  0.10100000352E+00 0.  1.
    10030    2    1    2    0    0  0.00000000000E+00  0.00000000000E+00  0.17960276996E+03  0.25122243118E+04  0.25057960487E+04 0.  0.
        3    1    3    3  502    0 -0.67039948519E+03  0.10234198186E+03 -0.96639258218E+03  0.11806032289E+04  0.10100000352E+00 0.  1.
       -3    1    3    3    0  502  0.67039948519E+03 -0.10234198186E+03  0.11459953521E+04  0.13316210829E+04  0.10100000352E+00 0. -1.
</event>
<event>
 5   0  0.1287375E-06  0.2496902E+04  0.7818609E-02  0.8404090E-01
       -3   -1    0    0    0  501  0.00000000000E+00  0.00000000000E+00  0.60676349291E+03  0.60676350132E+03  0.10100000352E+00 0.  1.
        3   -1    0    0  501    0  0.00000000000E+00  0.00000000000E+00 -0.25687604107E+04  0.25687604127E+04  0.10100000352E+00 0. -1.
    10030    2    1    2    0    0  0.00000000000E+00  0.00000000000E+00 -0.19619969178E+04  0.31755239140E+04  0.24969021252E+04 0.  0.
        2    1    3    3  502    0 -0.10776967784E+04  0.49766651581E+03 -0.48921403901E+03  0.12839130356E+04  0.25500000920E-02 0.  1.
       -2    1    3    3    0  502  0.10776967784E+04 -0.49766651581E+03 -0.14727828787E+04  0.18916108783E+04  0.25500000920E-02 0. -1.
</event>
<event>
 5   0  0.1574896E-06  0.2500710E+04  0.7818609E-02  0.8402733E-01
        1   -1    0    0  501    0  0.00000000000E+00  0.00000000000E+00  0.20329117979E+04  0.20329117979E+04  0.50400001928E-02 0.  1.
       -1   -1    0    0    0  501  0.00000000000E+00  0.00000000000E+00 -0.76903838633E+03  0.76903838635E+03  0.50400001928E-02 0. -1.
    10030    2    1    2    0    0  0.00000000000E+00  0.00000000000E+00  0.12638734115E+04  0.28019501842E+04  0.25007096662E+04 0.  0.
        3    1    3    3  502    0 -0.51240816734E+03 -0.78614299028E+03  0.15577965535E+04  0.18186019475E+04  0.10100000352E+00 0.  1.
       -3    1    3    3    0  502  0.51240816734E+03  0.78614299028E+03 -0.29392314195E+03  0.98334823674E+03  0.10100000352E+00 0. -1.
</event>
<event>
 5   0  0.3924441E-06  0.2499330E+04  0.7818609E-02  0.8403224E-01
        2   -1    0    0  501    0  0.00000000000E+00  0.00000000000E+00  0.15576517626E+04  0.15576517626E+04  0.25500000920E-02 0.  1.
       -2   -1    0    0    0  501  0.00000000000E+00  0.00000000000E+00 -0.10025753103E+04  0.10025753103E+04  0.25500000920E-02 0. -1.
    10030    2    1    2    0    0  0.00000000000E+00  0.00000000000E+00  0.55507645226E+03  0.25602270729E+04  0.24993304698E+04 0.  0.
        2    1    3    3  502    0 -0.17975342831E+03  0.69033982991E+03 -0.77351376005E+03  0.10522375743E+04  0.25500000920E-02 0. -1.
       -2    1    3    3    0  502  0.17975342831E+03 -0.69033982991E+03  0.13285902123E+04  0.15079894986E+04  0.25500000920E-02 0.  1.
</event>
<event>
 5   0  0.1553604E-06  0.2498334E+04  0.7818609E-02  0.8403579E-01
        1   -1    0    0  501    0  0.00000000000E+00  0.00000000000E+00  0.76408669441E+03  0.76408669443E+03  0.50400001928E-02 0.  1.
       -1   -1    0    0    0  501  0.00000000000E+00  0.00000000000E+00 -0.20422012625E+04  0.20422012625E+04  0.50400001928E-02 0. -1.
    10030    2    1    2    0    0  0.00000000000E+00  0.00000000000E+00 -0.12781145681E+04  0.28062879570E+04  0.24983344949E+04 0.  0.
        1    1    3    3  502    0 -0.73478267985E+03 -0.10075501332E+04 -0.72126263430E+03  0.14405841334E+04  0.50400001928E-02 0.  1.
       -1    1    3    3    0  502  0.73478267985E+03  0.10075501332E+04 -0.55685193381E+03  0.13657038236E+04  0.50400001928E-02 0. -1.
</event>
<event>
 5   0  0.3924441E-06  0.2501097E+04  0.7818609E-02  0.8402595E-01
       -2   -1    0    0    0  501  0.00000000000E+00  0.00000000000E+00  0.75075374917E+03  0.75075374918E+03  0.25500000920E-02 0.  1.
        2   -1    0    0  501    0  0.00000000000E+00  0.00000000000E+00 -0.20830690791E+04  0.20830690791E+04  0.25500000920E-02 0. -1.
    10030    2    1    2    0    0  0.00000000000E+00  0.00000000000E+00 -0.13323153300E+04  0.28338228283E+04  0.25010972959E+04 0.  0.
        2    1    3    3  502    0  0.97785134971E+03 -0.69410523902E+03 -0.26413636167E+03  0.12279020167E+04  0.25500000920E-02 0.  1.
       -2    1    3    3    0  502 -0.97785134971E+03  0.69410523902E+03 -0.10681789683E+04  0.16059208116E+04  0.25500000920E-02 0. -1.
</event>
<event>
 5   0  0.3924441E-06  0.2501655E+04  0.7818609E-02  0.8402396E-01
       -2   -1    0    0    0  501  0.00000000000E+00  0.00000000000E+00  0.12426479840E+04  0.12426479840E+04  0.25500000920E-02 0.  1.
        2   -1    0    0  501    0  0.00000000000E+00  0.00000000000E+00 -0.12590605749E+04  0.12590605749E+04  0.25500000920E-02 0. -1.
    10030    2    1    2    0    0  0.00000000000E+00  0.00000000000E+00 -0.16412590935E+02  0.25017085589E+04  0.25016547205E+04 0.  0.
        2    1    3    3  502    0 -0.74437178362E+02  0.64805898299E+03 -0.10754910625E+04  0.12578562575E+04  0.25500000920E-02 0. -1.
       -2    1    3    3    0  502  0.74437178362E+02 -0.64805898299E+03  0.10590784716E+04  0.12438523015E+04  0.25500000920E-02 0.  1.
</event>
<event>
 5   0  0.1574896E-06  0.2502414E+04  0.7818609E-02  0.8402126E-01
        1   -1    0    0  501    0  0.00000000000E+00  0.00000000000E+00  0.89411769461E+03  0.89411769462E+03  0.50400001928E-02 0. -1.
       -1   -1    0    0    0  501  0.00000000000E+00  0.00000000000E+00 -0.17509089817E+04  0.17509089817E+04  0.50400001928E-02 0.  1.
    10030    2    1    2    0    0  0.00000000000E+00  0.00000000000E+00 -0.85679128712E+03  0.26450266764E+04  0.25024137965E+04 0.  0.
        3    1    3    3  502    0 -0.36420648166E+03 -0.36841359315E+03 -0.16322251538E+04  0.17124642770E+04  0.10100000352E+00 0.  1.
       -3    1    3    3    0  502  0.36420648166E+03  0.36841359315E+03  0.77543386671E+03  0.93256239939E+03  0.10100000352E+00 0. -1.
</event>
<event>
 5   0  0.1553604E-06  0.2499647E+04  0.7818609E-02  0.8403111E-01
       -1   -1    0    0    0  501  0.00000000000E+00  0.00000000000E+00  0.16797971876E+04  0.16797971877E+04  0.50400001928E-02 0.  1.
        1   -1    0    0  501    0  0.00000000000E+00  0.00000000000E+00 -0.92990946282E+03  0.92990946284E+03  0.50400001928E-02 0. -1.
    10030    2    1    2    0    0  0.00000000000E+00  0.00000000000E+00  0.74988772483E+03  0.26097066505E+04  0.24996474155E+04 0.  0.
        1    1    3    3  502    0  0.66762676725E+02  0.48767682407E+03  0.15743399205E+04  0.16494945059E+04  0.50400001928E-02 0.  1.
       -1    1    3    3    0  502 -0.66762676725E+02 -0.48767682407E+03 -0.82445219564E+03  0.96021214461E+03  0.50400001928E-02 0. -1.
</event>
<event>
 5   0  0.1574896E-06  0.2502815E+04  0.7818609E-02  0.8401983E-01
       -1   -1    0    0    0  501  0.00000000000E+00  0.00000000000E+00  0.75061447890E+03  0.75061447892E+03  0.50400001928E-02 0. -1.
        1   -1    0    0  501    0  0.00000000000E+00  0.00000000000E+00 -0.20863189619E+04  0.20863189619E+04  0.50400001928E-02 0.  1.
    10030    2    1    2    0    0  0.00000000000E+00  0.00000000000E+00 -0.13357044830E+04  0.28369334408E+04  0.25028153911E+04 0.  0.
        3    1    3    3  502    0  0.48806876681E+03 -0.74024884308E+03  0.33312353501E+03  0.94718043191E+03  0.10100000352E+00 0. -1.
       -3    1    3    3    0  502 -0.48806876681E+03  0.74024884308E+03 -0.16688280180E+04  0.18897530089E+04  0.10100000352E+00 0.  1.
</event>
<event>
 5   0  0.1287375E-06  0.2490410E+04  0.7818609E-02  0.8406410E-01
        3   -1    0    0  501    0  0.00000000000E+00  0.00000000000E+00  0.11374188747E+04  0.11374188792E+04  0.10100000352E+00 0. -1.
       -3   -1    0    0    0  501  0.00000000000E+00  0.00000000000E+00 -0.13632051624E+04  0.13632051662E+04  0.10100000352E+00 0.  1.
    10030    2    1    2    0    0  0.00000000000E+00  0.00000000000E+00 -0.22578628770E+03  0.25006240454E+04  0.24904098395E+04 0.  0.
        1    1    3    3  502    0 -0.44892782859E+03 -0.19720986924E+03 -0.12621868366E+04  0.13540840219E+04  0.50400001928E-02 0.  1.
       -1    1    3    3    0  502  0.44892782859E+03  0.19720986924E+03  0.10364005489E+04  0.11465400235E+04  0.50400001928E-02 0. -1.
</event>
<event>
 5   0  0.1519145E-06  0.2501590E+04  0.7818609E-02  0.8402419E-01
       -1   -1    0    0    0  501  0.00000000000E+00  0.00000000000E+00  0.94160183166E+03  0.94160183167E+03  0.50400001928E-02 0.  1.
        1   -1    0    0  501    0  0.00000000000E+00  0.00000000000E+00 -0.16615178386E+04  0.16615178386E+04  0.50400001928E-02 0. -1.
    10030    2    1    2    0    0  0.00000000000E+00  0.00000000000E+00 -0.71991600696E+03  0.26031196703E+04  0.25015900865E+04 0.  0.
        4    1    3    3  502    0 -0.12056563697E+04 -0.22478720266E+03 -0.61559095604E+03  0.13722574126E+04  0.12699999809E+01 0. -1.
       -4    1    3    3    0  502  0.12056563697E+04  0.22478720266E+03 -0.10432505092E+03  0.12308622577E+04  0.12699999809E+01 0.  1.
</event>
<event>
 5   0  0.1519145E-06  0.2556530E+04  0.7818609E-02  0.8383119E-01
       -1   -1    0    0    0  501  0.00000000000E+00  0.00000000000E+00  0.87913092862E+03  0.87913092863E+03  0.50400001928E-02 0.  1.
        1   -1    0    0  501    0  0.00000000000E+00  0.00000000000E+00 -0.18586098637E+04  0.18586098637E+04  0.50400001928E-02 0. -1.
    10030    2    1    2    0    0  0.00000000000E+00  0.00000000000E+00 -0.97947893506E+03  0.27377407923E+04  0.25565300041E+04 0.  0.
        4    1    3    3  502    0  0.10105417556E+03 -0.72395871773E+03  0.63322249239E+03  0.96710935738E+03  0.12699999809E+01 0.  1.
       -4    1    3    3    0  502 -0.10105417556E+03  0.72395871773E+03 -0.16127014274E+04  0.17706314349E+04  0.12699999809E+01 0. -1.
</event>
<event>
 5   0  0.3808293E-06  0.2498844E+04  0.7818609E-02  0.8403398E-01
       -2   -1    0    0    0  501  0.00000000000E+00  0.00000000000E+00  0.16805553255E+04  0.16805553255E+04  0.25500000920E-02 0. -1.
        2   -1    0    0  501    0  0.00000000000E+00  0.00000000000E+00 -0.92889226803E+03  0.92889226803E+03  0.25500000920E-02 0.  1.
    10030    2    1    2    0    0  0.00000000000E+00  0.00000000000E+00  0.75166305749E+03  0.26094475936E+04  0.24988436109E+04 0.  0.
        1    1    3    3  502    0  0.36417869896E+03 -0.31769299961E+03 -0.82733778742E+03  0.95814549067E+03  0.50400001928E-02 0.  1.
       -1    1    3    3    0  502 -0.36417869896E+03  0.31769299961E+03  0.15790008449E+04  0.16513021029E+04  0.50400001928E-02 0. -1.
</event>
<event>
 5   0  0.3713394E-06  0.2500885E+04  0.7818609E-02  0.8402670E-01
        2   -1    0    0  501    0  0.00000000000E+00  0.00000000000E+00  0.13555988159E+04  0.13555988159E+04  0.25500000920E-02 0.  1.
       -2   -1    0    0    0  501  0.00000000000E+00  0.00000000000E+00 -0.11534429137E+04  0.11534429137E+04  0.25500000920E-02 0. -1.
    10030    2    1    2    0    0  0.00000000000E+00  0.00000000000E+00  0.20215590221E+03  0.25090417296E+04  0.25008845219E+04 0.  0.
        3    1    3    3  502    0  0.66101514540E+03 -0.96867755496E+03  0.53646188194E+03  0.12896001663E+04  0.10100000352E+00 0. -1.
       -3    1    3    3    0  502 -0.66101514540E+03  0.96867755496E+03 -0.33430597973E+03  0.12194415633E+04  0.10100000352E+00 0.  1.
</event>
<event>
 5   0  0.1287375E-06  0.2510555E+04  0.7818609E-02  0.8399235E-01
        3   -1    0    0  501    0  0.00000000000E+00  0.00000000000E+00  0.18449683787E+04  0.18449683814E+04  0.10100000352E+00 0.  1.
       -3   -1    0    0    0  501  0.00000000000E+00  0.00000000000E+00 -0.85406410902E+03  0.85406411499E+03  0.10100000352E+00 0. -1.
    10030    2    1    2    0    0  0.00000000000E+00  0.00000000000E+00  0.99090426966E+03  0.26990324964E+04  0.25105547485E+04 0.  0.
        2    1    3    3  502    0 -0.10204749836E+04 -0.38140113355E+03  0.11658755334E+04  0.15956508942E+04  0.25500000920E-02 0.  1.
       -2    1    3    3    0  502  0.10204749836E+04  0.38140113355E+03 -0.17497126374E+03  0.11033816022E+04  0.25500000920E-02 0. -1.
</event>
<event>
 5   0  0.3924441E-06  0.2483886E+04  0.7818609E-02  0.8408749E-01
       -2   -1    0    0    0  501  0.00000000000E+00  0.00000000000E+00  0.11179661757E+04  0.11179661757E+04  0.25500000920E-02 0.  1.
        2   -1    0    0  501    0  0.00000000000E+00  0.00000000000E+00 -0.13796687614E+04  0.13796687614E+04  0.25500000920E-02 0. -1.
    10030    2    1    2    0    0  0.00000000000E+00  0.00000000000E+00 -0.26170258570E+03  0.24976349370E+04  0.24838864779E+04 0.  0.
        2    1    3    3  502    0  0.79565559267E+03  0.77694408089E+03  0.42512238282E+03  0.11905624584E+04  0.25500000920E-02 0.  1.
       -2    1    3    3    0  502 -0.79565559267E+03 -0.77694408089E+03 -0.68682496851E+03  0.13070724786E+04  0.25500000920E-02 0. -1.
</event>
<event>
 5   0  0.3971759E-06  0.2500780E+04  0.7818609E-02  0.8402708E-01
        2   -1    0    0  501    0  0.00000000000E+00  0.00000000000E+00  0.17468218432E+04  0.17468218432E+04  0.25500000920E-02 0. -1.
       -2   -1    0    0    0  501  0.00000000000E+00  0.00000000000E+00 -0.89503959141E+03  0.89503959142E+03  0.25500000920E-02 0.  1.
    10030    2    1    2    0    0  0.00000000000E+00  0.00000000000E+00  0.85178225175E+03  0.26418614346E+04  0.25007796455E+04 0.  0.
        4    1    3    3  502    0  0.37393669705E+03 -0.45045133553E+03  0.15930926548E+04  0.16972568688E+04  0.12699999809E+01 0. -1.
       -4    1    3    3    0  502 -0.37393669705E+03  0.45045133553E+03 -0.74131040305E+03  0.94460456576E+03  0.12699999809E+01 0.  1.
</event>
<event>
 5   0  0.1519145E-06  0.2502230E+04  0.7818609E-02  0.8402192E-01
       -1   -1    0    0    0  501  0.00000000000E+00  0.00000000000E+00  0.13166052180E+04  0.13166052180E+04  0.50400001928E-02 0.  1.
        1   -1    0    0  501    0  0.00000000000E+00  0.00000000000E+00 -0.11888819543E+04  0.11888819543E+04  0.50400001928E-02 0. -1.
    10030    2    1    2    0    0  0.00000000000E+00  0.00000000000E+00  0.12772326369E+03  0.25054871723E+04  0.25022295535E+04 0.  0.
        4    1    3    3  502    0 -0.50006960470E+03  0.97760173850E+03  0.66423526510E+03  0.12833490831E+04  0.12699999809E+01 0.  1.
       -4    1    3    3    0  502  0.50006960470E+03 -0.97760173850E+03 -0.53651200141E+03  0.12221380893E+04  0.12699999809E+01 0. -1.
</event>
<event>
 5   0  0.3814260E-06  0.2497843E+04  0.7818609E-02  0.8403754E-01
       -2   -1    0    0    0  501  0.00000000000E+00  0.00000000000E+00  0.12134556714E+04  0.12134556714E+04  0.25500000920E-02 0.  1.
        2   -1    0    0  501    0  0.00000000000E+00  0.00000000000E+00 -0.12854239767E+04  0.12854239767E+04  0.25500000920E-02 0. -1.
    10030    2    1    2    0    0  0.00000000000E+00  0.00000000000E+00 -0.71968305316E+02  0.24988796481E+04  0.24978430813E+04 0.  0.
        5    1    3    3  502    0  0.89542080239E+03 -0.38826446673E+03  0.74360504884E+03  0.12269874768E+04  0.46999998093E+01 0.  1.
       -5    1    3    3    0  502 -0.89542080239E+03  0.38826446673E+03 -0.81557335416E+03  0.12718921713E+04  0.46999998093E+01 0. -1.
</event>
<event>
 5   0  0.3713394E-06  0.2501345E+04  0.7818609E-02  0.8402507E-01
        2   -1    0    0  501    0  0.00000000000E+00  0.00000000000E+00  0.10620637180E+04  0.10620637180E+04  0.25500000920E-02 0.  1.
       -2   -1    0    0    0  501  0.00000000000E+00  0.00000000000E+00 -0.14727756955E+04  0.14727756955E+04  0.25500000920E-02 0. -1.
    10030    2    1    2    0    0  0.00000000000E+00  0.00000000000E+00 -0.41071197749E+03  0.25348394135E+04  0.25013449430E+04 0.  0.
        3    1    3    3  502    0  0.45666550328E+03 -0.11059463300E+04  0.16355291889E+03  0.12076465684E+04  0.10100000352E+00 0.  1.
       -3    1    3    3    0  502 -0.45666550328E+03  0.11059463300E+04 -0.57426489639E+03  0.13271928451E+04  0.10100000352E+00 0. -1.
</event>
<event>
 5   0  0.1519145E-06  0.2499361E+04  0.7818609E-02  0.8403213E-01
       -1   -1    0    0    0  501  0.00000000000E+00  0.00000000000E+00  0.14670703143E+04  0.14670703143E+04  0.50400001928E-02 0.  1.
        1   -1    0    0  501    0  0.00000000000E+00  0.00000000000E+00 -0.10645032999E+04  0.10645032999E+04  0.50400001928E-02 0. -1.
    10030    2    1    2    0    0  0.00000000000E+00  0.00000000000E+00  0.40256701444E+03  0.25315736142E+04  0.24993608709E+04 0.  0.
        4    1    3    3  502    0 -0.19407219924E+03  0.11356636838E+04  0.69157124845E+03  0.13437516236E+04  0.12699999809E+01 0.  1.
       -4    1    3    3    0  502  0.19407219924E+03 -0.11356636838E+04 -0.28900423401E+03  0.11878219906E+04  0.12699999809E+01 0. -1.
</event>
<event>
 5   0  0.1574896E-06  0.2497105E+04  0.7818609E-02  0.8404018E-01
       -1   -1    0    0    0  501  0.00000000000E+00  0.00000000000E+00  0.18600777264E+04  0.18600777264E+04  0.50400001928E-02 0. -1.
        1   -1    0    0  501    0  0.00000000000E+00  0.00000000000E+00 -0.83807409822E+03  0.83807409824E+03  0.50400001928E-02 0.  1.
    10030    2    1    2    0    0  0.00000000000E+00  0.00000000000E+00  0.10220036282E+04  0.26981518246E+04  0.24971046940E+04 0.  0.
        3    1    3    3  502    0 -0.17232873597E+03  0.51330219125E+03  0.17266171167E+04  0.18095256314E+04  0.10100000352E+00 0. -1.
       -3    1    3    3    0  502  0.17232873597E+03 -0.51330219125E+03 -0.70461348856E+03  0.88862619321E+03  0.10100000352E+00 0.  1.
</event>
<event>
 5   0  0.3971759E-06  0.2500265E+04  0.7818609E-02  0.8402891E-01
       -2   -1    0    0    0  501  0.00000000000E+00  0.00000000000E+00  0.10671240258E+04  0.10671240258E+04  0.25500000920E-02 0. -1.
        2   -1    0    0  501    0  0.00000000000E+00  0.00000000000E+00 -0.14645268342E+04  0.14645268342E+04  0.25500000920E-02 0.  1.
    10030    2    1    2    0    0  0.00000000000E+00  0.00000000000E+00 -0.39740280845E+03  0.25316508600E+04  0.25002654028E+04 0.  0.
        4    1    3    3  502    0  0.27906548070E+03 -0.35910078781E+03 -0.13777926734E+04  0.14509118450E+04  0.12699999809E+01 0.  1.
       -4    1    3    3    0  502 -0.27906548070E+03  0.35910078781E+03  0.98038986491E+03  0.10807390150E+04  0.12699999809E+01 0. -1.
</event>
<event>
 5   0  0.3713394E-06  0.2497806E+04  0.7818609E-02  0.8403768E-01
       -2   -1    0    0    0  501  0.00000000000E+00  0.00000000000E+00  0.11507079567E+04  0.11507079567E+04  0.25500000920E-02 0.  1.
        2   -1    0    0  501    0  0.00000000000E+00  0.00000000000E+00 -0.13554772740E+04  0.13554772740E+04  0.25500000920E-02 0. -1.
    10030    2    1    2    0    0  0.00000000000E+00  0.00000000000E+00 -0.20476931731E+03  0.25061852307E+04  0.24978058246E+04 0.  0.
        3    1    3    3  502    0  0.83646891851E+03 -0.48675434407E+03 -0.89443036728E+03  0.13178071692E+04  0.10100000352E+00 0. -1.
       -3    1    3    3    0  502 -0.83646891851E+03  0.48675434407E+03  0.68966104996E+03  0.11883780615E+04  0.10100000352E+00 0.  1.
</event>
<event>
 5   0  0.3924441E-06  0.2502521E+04  0.7818609E-02  0.8402088E-01
       -2   -1    0    0    0  501  0.00000000000E+00  0.00000000000E+00  0.46818827354E+03  0.46818827354E+03  0.25500000920E-02 0.  1.
        2   -1    0    0  501    0  0.00000000000E+00  0.00000000000E+00 -0.33440670433E+04  0.33440670433E+04  0.25500000920E-02 0. -1.
    10030    2    1    2    0    0  0.00000000000E+00  0.00000000000E+00 -0.28758787698E+04  0.38122553169E+04  0.25025211093E+04 0.  0.
        2    1    3    3  502    0 -0.11805545951E+04 -0.12245698545E+03 -0.83443243609E+03  0.14508557322E+04  0.25500000920E-02 0.  1.
       -2    1    3    3    0  502  0.11805545951E+04  0.12245698545E+03 -0.20414463337E+04  0.23613995847E+04  0.25500000920E-02 0. -1.
</event>
<event>
 5   0  0.3924441E-06  0.2499220E+04  0.7818609E-02  0.8403263E-01
       -2   -1    0    0    0  501  0.00000000000E+00  0.00000000000E+00  0.14661038693E+04  0.14661038693E+04  0.25500000920E-02 0. -1.
        2   -1    0    0  501    0  0.00000000000E+00  0.00000000000E+00 -0.10650852973E+04  0.10650852973E+04  0.25500000920E-02 0.  1.
    10030    2    1    2    0    0  0.00000000000E+00  0.00000000000E+00  0.40101857199E+03  0.25311891666E+04  0.24992204189E+04 0.  0.
        2    1    3    3  502    0 -0.97788987681E+03 -0.54652130868E+03 -0.36026223371E+03  0.11767510480E+04  0.25500000920E-02 0.  1.
       -2    1    3    3    0  502  0.97788987681E+03  0.54652130868E+03  0.76128080570E+03  0.13544381186E+04  0.25500000920E-02 0. -1.
</event>
<event>
 5   0  0.3971759E-06  0.2501910E+04  0.7818609E-02  0.8402305E-01
       -2   -1    0    0    0  501  0.00000000000E+00  0.00000000000E+00  0.10187274952E+04  0.10187274952E+04  0.25500000920E-02 0. -1.
        2   -1    0    0  501    0  0.00000000000E+00  0.00000000000E+00 -0.15361206138E+04  0.15361206138E+04  0.25500000920E-02 0.  1.
    10030    2    1    2    0    0  0.00000000000E+00  0.00000000000E+00 -0.51739311864E+03  0.25548481090E+04  0.25019099146E+04 0.  0.
        4    1    3    3  502    0 -0.96845222626E+03 -0.31594443793E+02 -0.10666320538E+04  0.14410424957E+04  0.12699999809E+01 0.  1.
       -4    1    3    3    0  502  0.96845222626E+03  0.31594443793E+02  0.54923893514E+03  0.11138056133E+04  0.12699999809E+01 0. -1.
</event>
<event>
 5   0  0.3814260E-06  0.2512836E+04  0.7818609E-02  0.8398427E-01
        2   -1    0    0  501    0  0.00000000000E+00  0.00000000000E+00  0.21343984573E+04  0.21343984573E+04  0.25500000920E-02 0.  1.
       -2   -1    0    0    0  501  0.00000000000E+00  0.00000000000E+00 -0.73959289756E+03  0.73959289757E+03  0.25500000920E-02 0. -1.
    10030    2    1    2    0    0  0.00000000000E+00  0.00000000000E+00  0.13948055597E+04  0.28739913548E+04  0.25128358001E+04 0.  0.
        5    1    3    3  502    0 -0.12040879140E+04  0.32331377643E+03  0.51946505560E+03  0.13506389364E+04  0.46999998093E+01 0. -1.
       -5    1    3    3    0  502  0.12040879140E+04 -0.32331377643E+03  0.87534050411E+03  0.15233524184E+04  0.46999998093E+01 0.  1.
</event>
<event>
 5   0  0.3814260E-06  0.2500934E+04  0.7818609E-02  0.8402653E-01
       -2   -1    0    0    0  501  0.00000000000E+00  0.00000000000E+00  0.17273269544E+04  0.17273269544E+04  0.25500000920E-02 0. -1.
        2   -1    0    0  501    0  0.00000000000E+00  0.00000000000E+00 -0.90525275141E+03  0.90525275141E+03  0.25500000920E-02 0.  1.
    10030    2    1    2    0    0  0.00000000000E+00  0.00000000000E+00  0.82207420300E+03  0.26325797058E+04  0.25009338081E+04 0.  0.
        5    1    3    3  502    0 -0.14304934045E+03 -0.11979231827E+04  0.75722934549E+03  0.14243951127E+04  0.46999998093E+01 0. -1.
       -5    1    3    3    0  502  0.14304934045E+03  0.11979231827E+04  0.64844857511E+02  0.12081845931E+04  0.46999998093E+01 0.  1.
</event>
<event>
 5   0  0.3713394E-06  0.2506487E+04  0.7818609E-02  0.8400678E-01
       -2   -1    0    0    0  501  0.00000000000E+00  0.00000000000E+00  0.80053279376E+03  0.80053279377E+03  0.25500000920E-02 0. -1.
        2   -1    0    0  501    0  0.00000000000E+00  0.00000000000E+00 -0.19619673260E+04  0.19619673260E+04  0.25500000920E-02 0.  1.
    10030    2    1    2    0    0  0.00000000000E+00  0.00000000000E+00 -0.11614345322E+04  0.27625001197E+04  0.25064869317E+04 0.  0.
        3    1    3    3  502    0  0.40213997528E+03  0.33600119782E+03 -0.18354185289E+04  0.19087625707E+04  0.10100000352E+00 0.  1.
       -3    1    3    3    0  502 -0.40213997528E+03 -0.33600119782E+03  0.67398399672E+03  0.85373754907E+03  0.10100000352E+00 0. -1.
</event>
<event>
 5   0  0.1553604E-06  0.2493917E+04  0.7818609E-02  0.8405156E-01
        1   -1    0    0  501    0  0.00000000000E+00  0.00000000000E+00  0.13807073674E+04  0.13807073674E+04  0.50400001928E-02 0. -1.
       -1   -1    0    0    0  501  0.00000000000E+00  0.00000000000E+00 -0.11261662082E+04  0.11261662082E+04  0.50400001928E-02 0.  1.
    10030    2    1    2    0    0  0.00000000000E+00  0.00000000000E+00  0.25454115924E+03  0.25068735756E+04  0.24939173848E+04 0.  0.
        1    1    3    3  502    0  0.39181562931E+03 -0.45012432363E+03  0.12278442878E+04  0.13651860640E+04  0.50400001928E-02 0. -1.
       -1    1    3    3    0  502 -0.39181562931E+03  0.45012432363E+03 -0.97330312856E+03  0.11416875116E+04  0.50400001928E-02 0.  1.
</event>
<event>
 5   0  0.1553604E-06  0.2498453E+04  0.7818609E-02  0.8403537E-01
       -1   -1    0    0    0  501  0.00000000000E+00  0.00000000000E+00  0.12253824919E+04  0.12253824919E+04  0.50400001928E-02 0. -1.
        1   -1    0    0  501    0  0.00000000000E+00  0.00000000000E+00 -0.12735349002E+04  0.12735349002E+04  0.50400001928E-02 0.  1.
    10030    2    1    2    0    0  0.00000000000E+00  0.00000000000E+00 -0.48152408299E+02  0.24989173922E+04  0.24984534173E+04 0.  0.
        1    1    3    3  502    0  0.48199468650E+03 -0.11068516676E+04 -0.34527113545E+03  0.12556479001E+04  0.50400001928E-02 0.  1.
       -1    1    3    3    0  502 -0.48199468650E+03  0.11068516676E+04  0.29711872715E+03  0.12432694921E+04  0.50400001928E-02 0. -1.
</event>
<event>
 5   0  0.3924441E-06  0.2497674E+04  0.7818609E-02  0.8403815E-01
        2   -1    0    0  501    0  0.00000000000E+00  0.00000000000E+00  0.12992387266E+04  0.12992387266E+04  0.25500000920E-02 0. -1.
       -2   -1    0    0    0  501  0.00000000000E+00  0.00000000000E+00 -0.12003900788E+04  0.12003900788E+04  0.25500000920E-02 0.  1.
    10030    2    1    2    0    0  0.00000000000E+00  0.00000000000E+00  0.98848647795E+02  0.24996288055E+04  0.24976735395E+04 0.  0.
        2    1    3    3  502    0  0.54056608761E+03 -0.20970895467E+03  0.11563660264E+04  0.12935887784E+04  0.25500000920E-02 0. -1.
       -2    1    3    3    0  502 -0.54056608761E+03  0.20970895467E+03 -0.10575173786E+04  0.12060400270E+04  0.25500000920E-02 0.  1.
</event>
<event>
 5   0  0.3971759E-06  0.2500079E+04  0.7818609E-02  0.8402957E-01
        2   -1    0    0  501    0  0.00000000000E+00  0.00000000000E+00  0.10969582205E+04  0.10969582205E+04  0.25500000920E-02 0.  1.
       -2   -1    0    0    0  501  0.00000000000E+00  0.00000000000E+00 -0.14244836283E+04  0.14244836283E+04  0.25500000920E-02 0. -1.
    10030    2    1    2    0    0  0.00000000000E+00  0.00000000000E+00 -0.32752540774E+03  0.25214418488E+04  0.25000792196E+04 0.  0.
        4    1    3    3  502    0  0.84513647114E+03 -0.72652127602E+03  0.40720957795E+03  0.11865538642E+04  0.12699999809E+01 0.  1.
       -4    1    3    3    0  502 -0.84513647114E+03  0.72652127602E+03 -0.73473498569E+03  0.13348879846E+04  0.12699999809E+01 0. -1.
</event>
<event>
 5   0  0.1541852E-06  0.2489627E+04  0.7818609E-02  0.8406690E-01
       -1   -1    0    0    0  501  0.00000000000E+00  0.00000000000E+00  0.75809832750E+03  0.75809832751E+03  0.50400001928E-02 0. -1.
        1   -1    0    0  501    0  0.00000000000E+00  0.00000000000E+00 -0.20440093324E+04  0.20440093324E+04  0.50400001928E-02 0.  1.
    10030    2    1    2    0    0  0.00000000000E+00  0.00000000000E+00 -0.12859110049E+04  0.28021076599E+04  0.24896265232E+04 0.  0.
        5    1    3    3  502    0 -0.78381066078E+03 -0.83526411905E+03 -0.94433563808E+02  0.11493324534E+04  0.46999998093E+01 0. -1.
       -5    1    3    3    0  502  0.78381066078E+03  0.83526411905E+03 -0.11914774411E+04  0.16527752064E+04  0.46999998093E+01 0.  1.
</event>
<event>
 5   0  0.3808293E-06  0.2503529E+04  0.7818609E-02  0.8401729E-01
        2   -1    0    0  501    0  0.00000000000E+00  0.00000000000E+00  0.17192610913E+04  0.17192610913E+04  0.25500000920E-02 0. -1.
       -2   -1    0    0    0  501  0.00000000000E+00  0.00000000000E+00 -0.91138830498E+03  0.91138830498E+03  0.25500000920E-02 0.  1.
    10030    2    1    2    0    0  0.00000000000E+00  0.00000000000E+00  0.80787278631E+03  0.26306493963E+04  0.25035290706E+04 0.  0.
        1    1    3    3  502    0 -0.10570902837E+04 -0.60602280672E+03  0.10265303510E+03  0.12228005380E+04  0.50400001928E-02 0. -1.
       -1    1    3    3    0  502  0.10570902837E+04  0.60602280672E+03  0.70521975121E+03  0.14078488582E+04  0.50400001928E-02 0.  1.
</event>
<event>
 5   0  0.1541852E-06  0.2497035E+04  0.7818609E-02  0.8404043E-01
        1   -1    0    0  501    0  0.00000000000E+00  0.00000000000E+00  0.13690217388E+04  0.13690217389E+04  0.50400001928E-02 0.  1.
       -1   -1    0    0    0  501  0.00000000000E+00  0.00000000000E+00 -0.11386201817E+04  0.11386201817E+04  0.50400001928E-02 0. -1.
    10030    2    1    2    0    0  0.00000000000E+00  0.00000000000E+00  0.23040155715E+03  0.25076419206E+04  0.24970348664E+04 0.  0.
        5    1    3    3  502    0  0.88142733680E+03  0.18794376167E+03 -0.75249301568E+03  0.11740974560E+04  0.46999998093E+01 0. -1.
       -5    1    3    3    0  502 -0.88142733680E+03 -0.18794376167E+03  0.98289457283E+03  0.13335444645E+04  0.46999998093E+01 0.  1.
</event>
<event>
 5   0  0.1519145E-06  0.2503432E+04  0.7818609E-02  0.8401764E-01
        1   -1    0    0  501    0  0.00000000000E+00  0.00000000000E+00  0.15747445265E+04  0.15747445265E+04  0.50400001928E-02 0.  1.
       -1   -1    0    0    0  501  0.00000000000E+00  0.00000000000E+00 -0.99495054915E+03  0.99495054917E+03  0.50400001928E-02 0. -1.
    10030    2    1    2    0    0  0.00000000000E+00  0.00000000000E+00  0.57979397730E+03  0.25696950756E+04  0.25034319894E+04 0.  0.
        4    1    3    3  502    0  0.34405609512E+03  0.25420231617E+03 -0.91758908090E+03  0.10124054269E+04  0.12699999809E+01 0. -1.
       -4    1    3    3    0  502 -0.34405609512E+03 -0.25420231617E+03  0.14973830582E+04  0.15572896487E+04  0.12699999809E+01 0.  1.
</event>
<event>
 5   0  0.1553604E-06  0.2501019E+04  0.7818609E-02  0.8402623E-01
       -1   -1    0    0    0  501  0.00000000000E+00  0.00000000000E+00  0.93513359540E+03  0.93513359541E+03  0.50400001928E-02 0.  1.
        1   -1    0    0  501    0  0.00000000000E+00  0.00000000000E+00 -0.16722463176E+04  0.16722463176E+04  0.50400001928E-02 0. -1.
    10030    2    1    2    0    0  0.00000000000E+00  0.00000000000E+00 -0.73711272220E+03  0.26073799130E+04  0.25010187615E+04 0.  0.
        1    1    3    3  502    0 -0.70293999043E+03  0.47774887652E+03  0.58773434240E+03  0.10333442197E+04  0.50400001928E-02 0.  1.
       -1    1    3    3    0  502  0.70293999043E+03 -0.47774887652E+03 -0.13248470646E+04  0.15740356933E+04  0.50400001928E-02 0. -1.
</event>
<event>
 5   0  0.1553604E-06  0.2500039E+04  0.7818609E-02  0.8402972E-01
       -1   -1    0    0    0  501  0.00000000000E+00  0.00000000000E+00  0.11290489888E+04  0.11290489888E+04  0.50400001928E-02 0. -1.
        1   -1    0    0  501    0  0.00000000000E+00  0.00000000000E+00 -0.13839508814E+04  0.13839508814E+04  0.50400001928E-02 0.  1.
    10030    2    1    2    0    0  0.00000000000E+00  0.00000000000E+00 -0.25490189259E+03  0.25129998702E+04  0.25000386742E+04 0.  0.
        1    1    3    3  502    0  0.17151934147E+03  0.83282776692E+03  0.79355655770E+03  0.11630790963E+04  0.50400001928E-02 0. -1.
       -1    1    3    3    0  502 -0.17151934147E+03 -0.83282776692E+03 -0.10484584503E+04  0.13499207739E+04  0.50400001928E-02 0.  1.
</event>
<event>
 5   0  0.1553604E-06  0.2499503E+04  0.7818609E-02  0.8403163E-01
        1   -1    0    0  501    0  0.00000000000E+00  0.00000000000E+00  0.15847568973E+04  0.15847568973E+04  0.50400001928E-02 0. -1.
       -1   -1    0    0    0  501  0.00000000000E+00  0.00000000000E+00 -0.98556354224E+03  0.98556354225E+03  0.50400001928E-02 0.  1.
    10030    2    1    2    0    0  0.00000000000E+00  0.00000000000E+00  0.59919335510E+03  0.25703204396E+04  0.24995028477E+04 0.  0.
        1    1    3    3  502    0 -0.95594254087E+03 -0.55068945128E+03 -0.30423130755E+03  0.11443957802E+04  0.50400001928E-02 0.  1.
       -1    1    3    3    0  502  0.95594254087E+03  0.55068945128E+03  0.90342466265E+03  0.14259246594E+04  0.50400001928E-02 0. -1.
</event>
<event>
 5   0  0.1501747E-06  0.2501205E+04  0.7818609E-02  0.8402557E-01
        1   -1    0    0  501    0  0.00000000000E+00  0.00000000000E+00  0.13725291203E+04  0.13725291203E+04  0.50400001928E-02 0.  1.
       -1   -1    0    0    0  501  0.00000000000E+00  0.00000000000E+00 -0.11395066535E+04  0.11395066535E+04  0.50400001928E-02 0. -1.
    10030    2    1    2    0    0  0.00000000000E+00  0.00000000000E+00  0.23302246684E+03  0.25120357738E+04  0.25012045616E+04 0.  0.
        2    1    3    3  502    0  0.49293011286E+03  0.46211055516E+03  0.11734370722E+04  0.13540608642E+04  0.25500000920E-02 0.  1.
       -2    1    3    3    0  502 -0.49293011286E+03 -0.46211055516E+03 -0.94041460538E+03  0.11579749096E+04  0.25500000920E-02 0. -1.
</event>
<event>
 5   0  0.1541852E-06  0.2500798E+04  0.7818609E-02  0.8402701E-01
        1   -1    0    0  501    0  0.00000000000E+00  0.00000000000E+00  0.98051889233E+03  0.98051889234E+03  0.50400001928E-02 0. -1.
       -1   -1    0    0    0  501  0.00000000000E+00  0.00000000000E+00 -0.15945610972E+04  0.15945610972E+04  0.50400001928E-02 0.  1.
    10030    2    1    2    0    0  0.00000000000E+00  0.00000000000E+00 -0.61404220485E+03  0.25750799895E+04  0.25007976974E+04 0.  0.
        5    1    3    3  502    0  0.22584931257E+03 -0.69033948850E+03  0.74100186633E+03  0.10376330649E+04  0.46999998093E+01 0. -1.
       -5    1    3    3    0  502 -0.22584931257E+03  0.69033948850E+03 -0.13550440712E+04  0.15374469247E+04  0.46999998093E+01 0.  1.
</event>
<event>
 5   0  0.3713394E-06  0.2504966E+04  0.7818609E-02  0.8401218E-01
       -2   -1    0    0    0  501  0.00000000000E+00  0.00000000000E+00  0.20624031473E+04  0.20624031473E+04  0.25500000920E-02 0.  1.
        2   -1    0    0  501    0  0.00000000000E+00  0.00000000000E+00 -0.76062429967E+03  0.76062429968E+03  0.25500000920E-02 0. -1.
    10030    2    1    2    0    0  0.00000000000E+00  0.00000000000E+00  0.13017788476E+04  0.28230274470E+04  0.25049662270E+04 0.  0.
        3    1    3    3  502    0  0.53451058814E+03 -0.95914499193E+03  0.13299341696E+04  0.17246407133E+04  0.10100000352E+00 0.  1.
       -3    1    3    3    0  502 -0.53451058814E+03  0.95914499193E+03 -0.28155321946E+02  0.10983867337E+04  0.10100000352E+00 0. -1.
</event>
<event>
 5   0  0.1574896E-06  0.2499264E+04  0.7818609E-02  0.8403248E-01
       -1   -1    0    0    0  501  0.00000000000E+00  0.00000000000E+00  0.57052317034E+03  0.57052317036E+03  0.50400001928E-02 0. -1.
        1   -1    0    0  501    0  0.00000000000E+00  0.00000000000E+00 -0.27371010297E+04  0.27371010297E+04  0.50400001928E-02 0.  1.
    10030    2    1    2    0    0  0.00000000000E+00  0.00000000000E+00 -0.21665778594E+04  0.33076242001E+04  0.24992635372E+04 0.  0.
        3    1    3    3  502    0  0.42667259372E+03 -0.29103603880E+03  0.42265970917E+03  0.66737749293E+03  0.10100000352E+00 0. -1.
       -3    1    3    3    0  502 -0.42667259372E+03  0.29103603880E+03 -0.25892375685E+04  0.26402467071E+04  0.10100000352E+00 0.  1.
</event>
<event>
 5   0  0.1501747E-06  0.2500840E+04  0.7818609E-02  0.8402686E-01
        1   -1    0    0  501    0  0.00000000000E+00  0.00000000000E+00  0.19508623592E+04  0.19508623592E+04  0.50400001928E-02 0. -1.
       -1   -1    0    0    0  501  0.00000000000E+00  0.00000000000E+00 -0.80146593425E+03  0.80146593426E+03  0.50400001928E-02 0.  1.
    10030    2    1    2    0    0  0.00000000000E+00  0.00000000000E+00  0.11493964250E+04  0.27523282935E+04  0.25008396377E+04 0.  0.
        2    1    3    3  502    0  0.71940609883E+02 -0.10649807571E+04  0.12914928309E+04  0.16755038635E+04  0.25500000920E-02 0. -1.
       -2    1    3    3    0  502 -0.71940609883E+02  0.10649807571E+04 -0.14209640596E+03  0.10768244300E+04  0.25500000920E-02 0.  1.
</event>
<event>
 5   0  0.3814260E-06  0.2508693E+04  0.7818609E-02  0.8399895E-01
       -2   -1    0    0    0  501  0.00000000000E+00  0.00000000000E+00  0.95802387863E+03  0.95802387863E+03  0.25500000920E-02 0.  1.
        2   -1    0    0  501    0  0.00000000000E+00  0.00000000000E+00 -0.16423237925E+04  0.16423237925E+04  0.25500000920E-02 0. -1.
    10030    2    1    2    0    0  0.00000000000E+00  0.00000000000E+00 -0.68429991391E+03  0.26003476712E+04  0.25086932134E+04 0.  0.
        5    1    3    3  502    0 -0.11088480630E+04  0.51436521751E+03 -0.63394454979E+03  0.13769616501E+04  0.46999998093E+01 0. -1.
       -5    1    3    3    0  502  0.11088480630E+04 -0.51436521751E+03 -0.50355364120E+02  0.12233860210E+04  0.46999998093E+01 0.  1.
</event>
<event>
 5   0  0.3713394E-06  0.2500933E+04  0.7818609E-02  0.8402653E-01
        2   -1    0    0  501    0  0.00000000000E+00  0.00000000000E+00  0.25761552595E+04  0.25761552595E+04  0.25500000920E-02 0. -1.
       -2   -1    0    0    0  501  0.00000000000E+00  0.00000000000E+00 -0.60697680728E+03  0.60697680728E+03  0.25500000920E-02 0.  1.
    10030    2    1    2    0    0  0.00000000000E+00  0.00000000000E+00  0.19691784522E+04  0.31831320668E+04  0.25009330215E+04 0.  0.
        3    1    3    3  502    0  0.62509307765E+03  0.10430719072E+04  0.13555032477E+04  0.18210242788E+04  0.10100000352E+00 0. -1.
       -3    1    3    3    0  502 -0.62509307765E+03 -0.10430719072E+04  0.61367520455E+03  0.13621077880E+04  0.10100000352E+00 0.  1.
</event>
<event>
 5   0  0.1553604E-06  0.2502681E+04  0.7818609E-02  0.8402031E-01
        1   -1    0    0  501    0  0.00000000000E+00  0.00000000000E+00  0.14555758794E+04  0.14555758794E+04  0.50400001928E-02 0.  1.
       -1   -1    0    0    0  501  0.00000000000E+00  0.00000000000E+00 -0.10757615129E+04  0.10757615129E+04  0.50400001928E-02 0. -1.
    10030    2    1    2    0    0  0.00000000000E+00  0.00000000000E+00  0.37981436646E+03  0.25313373923E+04  0.25026805711E+04 0.  0.
        1    1    3    3  502    0 -0.29504237454E+03 -0.30500805180E+02 -0.10396905489E+04  0.10811737785E+04  0.50400001928E-02 0. -1.
       -1    1    3    3    0  502  0.29504237454E+03  0.30500805180E+02  0.14195049154E+04  0.14501636138E+04  0.50400001928E-02 0.  1.
</event>
<event>
 5   0  0.3971759E-06  0.2496883E+04  0.7818609E-02  0.8404097E-01
       -2   -1    0    0    0  501  0.00000000000E+00  0.00000000000E+00  0.80877480276E+03  0.80877480276E+03  0.25500000920E-02 0. -1.
        2   -1    0    0  501    0  0.00000000000E+00  0.00000000000E+00 -0.19271199629E+04  0.19271199629E+04  0.25500000920E-02 0.  1.
    10030    2    1    2    0    0  0.00000000000E+00  0.00000000000E+00 -0.11183451602E+04  0.27358947657E+04  0.24968829111E+04 0.  0.
        4    1    3    3  502    0  0.11888393482E+04 -0.36436165624E+03 -0.68170786455E+03  0.14180358380E+04  0.12699999809E+01 0.  1.
       -4    1    3    3    0  502 -0.11888393482E+04  0.36436165624E+03 -0.43663729561E+03  0.13178589277E+04  0.12699999809E+01 0. -1.
</event>
<event>
 5   0  0.3808293E-06  0.2502713E+04  0.7818609E-02  0.8402020E-01
        2   -1    0    0  501    0  0.00000000000E+00  0.00000000000E+00  0.12876949791E+04  0.12876949791E+04  0.25500000920E-02 0. -1.
       -2   -1    0    0    0  501  0.00000000000E+00  0.00000000000E+00 -0.12160433208E+04  0.12160433208E+04  0.25500000920E-02 0.  1.
    10030    2    1    2    0    0  0.00000000000E+00  0.00000000000E+00  0.71651658245E+02  0.25037382999E+04  0.25027128310E+04 0.  0.
        1    1    3    3  502    0 -0.95142869261E+03 -0.76839693054E+03  0.30096740091E+03  0.12594569371E+04  0.50400001928E-02 0. -1.
       -1    1    3    3    0  502  0.95142869261E+03  0.76839693054E+03 -0.22931574266E+03  0.12442813628E+04  0.50400001928E-02 0.  1.
</event>
<event>
 5   0  0.3713394E-06  0.2502110E+04  0.7818609E-02  0.8402234E-01
       -2   -1    0    0    0  501  0.00000000000E+00  0.00000000000E+00  0.14145627890E+04  0.14145627890E+04  0.25500000920E-02 0. -1.
        2   -1    0    0  501    0  0.00000000000E+00  0.00000000000E+00 -0.11064464653E+04  0.11064464653E+04  0.25500000920E-02 0.  1.
    10030    2    1    2    0    0  0.00000000000E+00  0.00000000000E+00  0.30811632368E+03  0.25210092543E+04  0.25021095083E+04 0.  0.
        3    1    3    3  502    0 -0.11543898410E+03 -0.89455451606E+03 -0.71942975790E+03  0.11537474282E+04  0.10100000352E+00 0.  1.
       -3    1    3    3    0  502  0.11543898410E+03  0.89455451606E+03  0.10275460816E+04  0.13672618261E+04  0.10100000352E+00 0. -1.
</event>
<event>
 5   0  0.1541852E-06  0.2499850E+04  0.7818609E-02  0.8403039E-01
       -1   -1    0    0    0  501  0.00000000000E+00  0.00000000000E+00  0.10961752024E+04  0.10961752024E+04  0.50400001928E-02 0.  1.
        1   -1    0    0  501    0  0.00000000000E+00  0.00000000000E+00 -0.14252395724E+04  0.14252395724E+04  0.50400001928E-02 0. -1.
    10030    2    1    2    0    0  0.00000000000E+00  0.00000000000E+00 -0.32906436997E+03  0.25214147749E+04  0.24998498169E+04 0.  0.
        5    1    3    3  502    0  0.19004000603E+03  0.17886465428E+03  0.10683801167E+04  0.10998026788E+04  0.46999998093E+01 0.  1.
       -5    1    3    3    0  502 -0.19004000603E+03 -0.17886465428E+03 -0.13974444867E+04  0.14216120961E+04  0.46999998093E+01 0. -1.
</event>
<event>
 5   0  0.1501747E-06  0.2440138E+04  0.7818609E-02  0.8424628E-01
        1   -1    0    0  501    0  0.00000000000E+00  0.00000000000E+00  0.16028825365E+04  0.16028825365E+04  0.50400001928E-02 0. -1.
       -1   -1    0    0    0  501  0.00000000000E+00  0.00000000000E+00 -0.92868187944E+03  0.92868187946E+03  0.50400001928E-02 0.  1.
    10030    2    1    2    0    0  0.00000000000E+00  0.00000000000E+00  0.67420065702E+03  0.25315644159E+04  0.24401376736E+04 0.  0.
        2    1    3    3  502    0  0.36576514436E+03  0.10918691737E+04  0.75545277429E+03  0.13771969095E+04  0.25500000920E-02 0. -1.
       -2    1    3    3    0  502 -0.36576514436E+03 -0.10918691737E+04 -0.81252117266E+02  0.11543675064E+04  0.25500000920E-02 0.  1.
</event>
<event>
 5   0  0.1574896E-06  0.2501571E+04  0.7818609E-02  0.8402426E-01
        1   -1    0    0  501    0  0.00000000000E+00  0.00000000000E+00  0.20525749633E+04  0.20525749633E+04  0.50400001928E-02 0.  1.
       -1   -1    0    0    0  501  0.00000000000E+00  0.00000000000E+00 -0.76219603363E+03  0.76219603365E+03  0.50400001928E-02 0. -1.
    10030    2    1    2    0    0  0.00000000000E+00  0.00000000000E+00  0.12903789296E+04  0.28147709969E+04  0.25015711029E+04 0.  0.
        3    1    3    3  502    0  0.10400018446E+04 -0.43854954529E+03  0.12516875082E+04  0.16854231423E+04  0.10100000352E+00 0.  1.
       -3    1    3    3    0  502 -0.10400018446E+04  0.43854954529E+03  0.38691421448E+02  0.11293478546E+04  0.10100000352E+00 0. -1.
</event>
<event>
 5   0  0.3924441E-06  0.2502768E+04  0.7818609E-02  0.8402000E-01
       -2   -1    0    0    0  501  0.00000000000E+00  0.00000000000E+00  0.11488239180E+04  0.11488239180E+04  0.25500000920E-02 0.  1.
        2   -1    0    0  501    0  0.00000000000E+00  0.00000000000E+00 -0.13630997472E+04  0.13630997472E+04  0.25500000920E-02 0. -1.
    10030    2    1    2    0    0  0.00000000000E+00  0.00000000000E+00 -0.21427582919E+03  0.25119236651E+04  0.25027677416E+04 0.  0.
        2    1    3    3  502    0 -0.81725168176E+03  0.16389545881E+02  0.84384762863E+03  0.11748394567E+04  0.25500000920E-02 0.  1.
       -2    1    3    3    0  502  0.81725168176E+03 -0.16389545881E+02 -0.10581234578E+04  0.13370842085E+04  0.25500000920E-02 0. -1.
</event>
<event>
 5   0  0.3971759E-06  0.2501307E+04  0.7818609E-02  0.8402520E-01
       -2   -1    0    0    0  501  0.00000000000E+00  0.00000000000E+00  0.10920476963E+04  0.10920476963E+04  0.25500000920E-02 0. -1.
        2   -1    0    0  501    0  0.00000000000E+00  0.00000000000E+00 -0.14322947548E+04  0.14322947548E+04  0.25500000920E-02 0.  1.
    10030    2    1    2    0    0  0.00000000000E+00  0.00000000000E+00 -0.34024705852E+03  0.25243424511E+04  0.25013070083E+04 0.  0.
        4    1    3    3  502    0 -0.81415327290E+03  0.57844071633E+03  0.58959957304E+03  0.11597708754E+04  0.12699999809E+01 0. -1.
       -4    1    3    3    0  502  0.81415327290E+03 -0.57844071633E+03 -0.92984663156E+03  0.13645715757E+04  0.12699999809E+01 0.  1.
</event>
<event>
 5   0  0.1501747E-06  0.2504304E+04  0.7818609E-02  0.8401454E-01
        1   -1    0    0  501    0  0.00000000000E+00  0.00000000000E+00  0.13530222409E+04  0.13530222409E+04  0.50400001928E-02 0. -1.
       -1   -1    0    0    0  501  0.00000000000E+00  0.00000000000E+00 -0.11588019520E+04  0.11588019520E+04  0.50400001928E-02 0.  1.
    10030    2    1    2    0    0  0.00000000000E+00  0.00000000000E+00  0.19422028893E+03  0.25118241929E+04  0.25043041460E+04 0.  0.
        2    1    3    3  502    0  0.45411729858E+03 -0.66573973467E+02  0.12656107015E+04  0.13462633704E+04  0.25500000920E-02 0. -1.
       -2    1    3    3    0  502 -0.45411729858E+03  0.66573973467E+02 -0.10713904126E+04  0.11655608225E+04  0.25500000920E-02 0.  1.
</event>
<event>
 5   0  0.1541852E-06  0.2502512E+04  0.7818609E-02  0.8402091E-01
       -1   -1    0    0    0  501  0.00000000000E+00  0.00000000000E+00  0.81827294034E+03  0.81827294036E+03  0.50400001928E-02 0. -1.
        1   -1    0    0  501    0  0.00000000000E+00  0.00000000000E+00 -0.19133483057E+04  0.19133483057E+04  0.50400001928E-02 0.  1.
    10030    2    1    2    0    0  0.00000000000E+00  0.00000000000E+00 -0.10950753653E+04  0.27316212460E+04  0.25025116535E+04 0.  0.
        5    1    3    3  502    0 -0.48856336165E+03 -0.10101735925E+04  0.56746657213E+02  0.11235600199E+04  0.46999998093E+01 0. -1.
       -5    1    3    3    0  502  0.48856336165E+03  0.10101735925E+04 -0.11518220225E+04  0.16080612261E+04  0.46999998093E+01 0.  1.
</event>
<event>
 5   0  0.1501747E-06  0.2503490E+04  0.7818609E-02  0.8401743E-01
        1   -1    0    0  501    0  0.00000000000E+00  0.00000000000E+00  0.11871729354E+04  0.11871729354E+04  0.50400001928E-02 0. -1.
       -1   -1    0    0    0  501  0.00000000000E+00  0.00000000000E+00 -0.13198291405E+04  0.13198291405E+04  0.50400001928E-02 0.  1.
    10030    2    1    2    0    0  0.00000000000E+00  0.00000000000E+00 -0.13265620512E+03  0.25070020759E+04  0.25034899120E+04 0.  0.
        2    1    3    3  502    0 -0.80311704023E+03 -0.95385454771E+03 -0.17616313287E+03  0.12593128793E+04  0.25500000920E-02 0.  1.
       -2    1    3    3    0  502  0.80311704023E+03  0.95385454771E+03  0.43506927755E+02  0.12476891966E+04  0.25500000920E-02 0. -1.
</event>
<event>
 5   0  0.3924441E-06  0.2500609E+04  0.7818609E-02  0.8402769E-01
        2   -1    0    0  501    0  0.00000000000E+00  0.00000000000E+00  0.66115204319E+03  0.66115204320E+03  0.25500000920E-02 0. -1.
       -2   -1    0    0    0  501  0.00000000000E+00  0.00000000000E+00 -0.23644504875E+04  0.23644504875E+04  0.25500000920E-02 0.  1.
    10030    2    1    2    0    0  0.00000000000E+00  0.00000000000E+00 -0.17032984443E+04  0.30256025307E+04  0.25006089425E+04 0.  0.
        2    1    3    3  502    0  0.53112398518E+03 -0.10949447712E+04 -0.11986835278E+04  0.17081682995E+04  0.25500000920E-02 0. -1.
       -2    1    3    3    0  502 -0.53112398518E+03  0.10949447712E+04 -0.50461491654E+03  0.13174342312E+04  0.25500000920E-02 0.  1.
</event>
<event>
 5   0  0.3713394E-06  0.2508616E+04  0.7818609E-02  0.8399923E-01
        2   -1    0    0  501    0  0.00000000000E+00  0.00000000000E+00  0.16822223586E+04  0.16822223586E+04  0.25500000920E-02 0.  1.
       -2   -1    0    0    0  501  0.00000000000E+00  0.00000000000E+00 -0.93524377222E+03  0.93524377222E+03  0.25500000920E-02 0. -1.
    10030    2    1    2    0    0  0.00000000000E+00  0.00000000000E+00  0.74697858640E+03  0.26174661308E+04  0.25086155420E+04 0.  0.
        3    1    3    3  502    0  0.34705536630E+02  0.20205996815E+03  0.16646216358E+04  0.16771994233E+04  0.10100000352E+00 0.  1.
       -3    1    3    3    0  502 -0.34705536630E+02 -0.20205996815E+03 -0.91764304939E+03  0.94026670753E+03  0.10100000352E+00 0. -1.
</event>
<event>
 5   0  0.3924441E-06  0.2499990E+04  0.7818609E-02  0.8402989E-01
        2   -1    0    0  501    0  0.00000000000E+00  0.00000000000E+00  0.10640204313E+04  0.10640204313E+04  0.25500000920E-02 0. -1.
       -2   -1    0    0    0  501  0.00000000000E+00  0.00000000000E+00 -0.14684749110E+04  0.14684749110E+04  0.25500000920E-02 0.  1.
    10030    2    1    2    0    0  0.00000000000E+00  0.00000000000E+00 -0.40445447969E+03  0.25324953424E+04  0.24999898466E+04 0.  0.
        2    1    3    3  502    0  0.12098880220E+04 -0.22680045192E+02  0.11512536086E+03  0.12155645845E+04  0.25500000920E-02 0. -1.
       -2    1    3    3    0  502 -0.12098880220E+04  0.22680045192E+02 -0.51957984056E+03  0.13169307579E+04  0.25500000920E-02 0.  1.
</event>
<event>
 5   0  0.1574896E-06  0.2504461E+04  0.7818609E-02  0.8401398E-01
        1   -1    0    0  501    0  0.00000000000E+00  0.00000000000E+00  0.10782532265E+04  0.10782532265E+04  0.50400001928E-02 0.  1.
       -1   -1    0    0    0  501  0.00000000000E+00  0.00000000000E+00 -0.14542788596E+04  0.14542788596E+04  0.50400001928E-02 0. -1.
    10030    2    1    2    0    0  0.00000000000E+00  0.00000000000E+00 -0.37602563308E+03  0.25325320861E+04  0.25044607184E+04 0.  0.
        3    1    3    3  502    0 -0.79053174307E+03 -0.81371508353E+03 -0.72405654543E+03  0.13458568145E+04  0.10100000352E+00 0. -1.
       -3    1    3    3    0  502  0.79053174307E+03  0.81371508353E+03  0.34803091235E+03  0.11866752716E+04  0.10100000352E+00 0.  1.
</event>
<event>
 5   0  0.1541852E-06  0.2502260E+04  0.7818609E-02  0.8402181E-01
        1   -1    0    0  501    0  0.00000000000E+00  0.00000000000E+00  0.10318302989E+04  0.10318302989E+04  0.50400001928E-02 0. -1.
       -1   -1    0    0    0  501  0.00000000000E+00  0.00000000000E+00 -0.15170379252E+04  0.15170379252E+04  0.50400001928E-02 0.  1.
    10030    2    1    2    0    0  0.00000000000E+00  0.00000000000E+00 -0.48520762629E+03  0.25488682242E+04  0.25022595356E+04 0.  0.
        5    1    3    3  502    0 -0.18485889261E+03 -0.12296260515E+04 -0.38356705313E+03  0.13012681549E+04  0.46999998093E+01 0.  1.
       -5    1    3    3    0  502  0.18485889261E+03  0.12296260515E+04 -0.10164057316E+03  0.12476000693E+04  0.46999998093E+01 0. -1.
</event>
<event>
 5   0  0.3814260E-06  0.2499879E+04  0.7818609E-02  0.8403029E-01
       -2   -1    0    0    0  501  0.00000000000E+00  0.00000000000E+00  0.11698961312E+04  0.11698961313E+04  0.25500000920E-02 0.  1.
        2   -1    0    0  501    0  0.00000000000E+00  0.00000000000E+00 -0.13354591517E+04  0.13354591517E+04  0.25500000920E-02 0. -1.
    10030    2    1    2    0    0  0.00000000000E+00  0.00000000000E+00 -0.16556302042E+03  0.25053552829E+04  0.24998787930E+04 0.  0.
        5    1    3    3  502    0  0.13931086914E+03  0.12384740693E+03 -0.13214424753E+04  0.13345328785E+04  0.46999998093E+01 0. -1.
       -5    1    3    3    0  502 -0.13931086914E+03 -0.12384740693E+03  0.11558794548E+04  0.11708224044E+04  0.46999998093E+01 0.  1.
</event>
<event>
 5   0  0.1541852E-06  0.2491980E+04  0.7818609E-02  0.8405848E-01
        1   -1    0    0  501    0  0.00000000000E+00  0.00000000000E+00  0.14084532611E+04  0.14084532611E+04  0.50400001928E-02 0.  1.
       -1   -1    0    0    0  501  0.00000000000E+00  0.00000000000E+00 -0.11022668141E+04  0.11022668141E+04  0.50400001928E-02 0. -1.
    10030    2    1    2    0    0  0.00000000000E+00  0.00000000000E+00  0.30618644697E+03  0.25107200752E+04  0.24919801676E+04 0.  0.
        5    1    3    3  502    0  0.28187690781E+03 -0.69440400104E+03 -0.84979051554E+03  0.11330567144E+04  0.46999998093E+01 0. -1.
       -5    1    3    3    0  502 -0.28187690781E+03  0.69440400104E+03  0.11559769625E+04  0.13776633608E+04  0.46999998093E+01 0.  1.
</event>
<event>
 5   0  0.1501747E-06  0.2500338E+04  0.7818609E-02  0.8402865E-01
        1   -1    0    0  501    0  0.00000000000E+00  0.00000000000E+00  0.12764528581E+04  0.12764528581E+04  0.50400001928E-02 0.  1.
       -1   -1    0    0    0  501  0.00000000000E+00  0.00000000000E+00 -0.12244267509E+04  0.12244267510E+04  0.50400001928E-02 0. -1.
    10030    2    1    2    0    0  0.00000000000E+00  0.00000000000E+00  0.52026107164E+02  0.25008796091E+04  0.25003383978E+04 0.  0.
        2    1    3    3  502    0 -0.63189174349E+03  0.10105586812E+04  0.40346325993E+03  0.12582919478E+04  0.25500000920E-02 0. -1.
       -2    1    3    3    0  502  0.63189174349E+03 -0.10105586812E+04 -0.35143715276E+03  0.12425876613E+04  0.25500000920E-02 0.  1.
</event>
<event>
 5   0  0.3814260E-06  0.2509446E+04  0.7818609E-02  0.8399628E-01
       -2   -1    0    0    0  501  0.00000000000E+00  0.00000000000E+00  0.11266861684E+04  0.11266861684E+04  0.25500000920E-02 0. -1.
        2   -1    0    0  501    0  0.00000000000E+00  0.00000000000E+00 -0.13973098209E+04  0.13973098209E+04  0.25500000920E-02 0.  1.
    10030    2    1    2    0    0  0.00000000000E+00  0.00000000000E+00 -0.27062365251E+03  0.25239959893E+04  0.25094458736E+04 0.  0.
        5    1    3    3  502    0 -0.19915532165E+03  0.11983817893E+04 -0.45101999526E+03  0.12958483249E+04  0.46999998093E+01 0.  1.
       -5    1    3    3    0  502  0.19915532165E+03 -0.11983817893E+04  0.18039634276E+03  0.12281476644E+04  0.46999998093E+01 0. -1.
</event>
<event>
 5   0  0.1553604E-06  0.2483731E+04  0.7818609E-02  0.8408804E-01
       -1   -1    0    0    0  501  0.00000000000E+00  0.00000000000E+00  0.11083207015E+04  0.11083207016E+04  0.50400001928E-02 0. -1.
        1   -1    0    0  501    0  0.00000000000E+00  0.00000000000E+00 -0.13915018777E+04  0.13915018777E+04  0.50400001928E-02 0.  1.
    10030    2    1    2    0    0  0.00000000000E+00  0.00000000000E+00 -0.28318117617E+03  0.24998225793E+04  0.24837313360E+04 0.  0.
        1    1    3    3  502    0  0.64297882549E+03 -0.25162151149E+03 -0.11805063016E+04  0.13676001913E+04  0.50400001928E-02 0.  1.
       -1    1    3    3    0  502 -0.64297882549E+03  0.25162151149E+03  0.89732512544E+03  0.11322223880E+04  0.50400001928E-02 0. -1.
</event>
<event>
 5   0  0.3713394E-06  0.2490173E+04  0.7818609E-02  0.8406495E-01
       -2   -1    0    0    0  501  0.00000000000E+00  0.00000000000E+00  0.96084314255E+03  0.96084314255E+03  0.25500000920E-02 0.  1.
        2   -1    0    0  501    0  0.00000000000E+00  0.00000000000E+00 -0.16134165204E+04  0.16134165204E+04  0.25500000920E-02 0. -1.
    10030    2    1    2    0    0  0.00000000000E+00  0.00000000000E+00 -0.65257337786E+03  0.25742596630E+04  0.24901728452E+04 0.  0.
        3    1    3    3  502    0 -0.50920309128E+03  0.33126488946E+03  0.79725066146E+03  0.10023137446E+04  0.10100000352E+00 0.  1.
       -3    1    3    3    0  502  0.50920309128E+03 -0.33126488946E+03 -0.14498240393E+04  0.15719459184E+04  0.10100000352E+00 0. -1.
</event>
<event>
 5   0  0.3808293E-06  0.2502485E+04  0.7818609E-02  0.8402101E-01
       -2   -1    0    0    0  501  0.00000000000E+00  0.00000000000E+00  0.71098298845E+03  0.71098298845E+03  0.25500000920E-02 0.  1.
        2   -1    0    0  501    0  0.00000000000E+00  0.00000000000E+00 -0.22020331218E+04  0.22020331218E+04  0.25500000920E-02 0. -1.
    10030    2    1    2    0    0  0.00000000000E+00  0.00000000000E+00 -0.14910501333E+04  0.29130161102E+04  0.25024852364E+04 0.  0.
        1    1    3    3  502    0 -0.17923834799E+03 -0.71836027476E+03 -0.19196810977E+04  0.20575090247E+04  0.50400001928E-02 0. -1.
       -1    1    3    3    0  502  0.17923834799E+03  0.71836027476E+03  0.42863096439E+03  0.85550708553E+03  0.50400001928E-02 0.  1.
</event>
<event>
 5   0  0.3713394E-06  0.2498233E+04  0.7818609E-02  0.8403615E-01
        2   -1    0    0  501    0  0.00000000000E+00  0.00000000000E+00  0.19391532149E+04  0.19391532149E+04  0.25500000920E-02 0. -1.
       -2   -1    0    0    0  501  0.00000000000E+00  0.00000000000E+00 -0.80462564131E+03  0.80462564132E+03  0.25500000920E-02 0.  1.
    10030    2    1    2    0    0  0.00000000000E+00  0.00000000000E+00  0.11345275736E+04  0.27437788562E+04  0.24982332951E+04 0.  0.
        3    1    3    3  502    0  0.37630629010E+03 -0.10211732352E+04 -0.10609601410E+03  0.10934612817E+04  0.10100000352E+00 0.  1.
       -3    1    3    3    0  502 -0.37630629010E+03  0.10211732352E+04  0.12406235877E+04  0.16503175745E+04  0.10100000352E+00 0. -1.
</event>
<event>
 5   0  0.1501747E-06  0.2503769E+04  0.7818609E-02  0.8401644E-01
       -1   -1    0    0    0  501  0.00000000000E+00  0.00000000000E+00  0.99401831186E+03  0.99401831188E+03  0.50400001928E-02 0.  1.
        1   -1    0    0  501    0  0.00000000000E+00  0.00000000000E+00 -0.15766455136E+04  0.15766455136E+04  0.50400001928E-02 0. -1.
    10030    2    1    2    0    0  0.00000000000E+00  0.00000000000E+00 -0.58262720171E+03  0.25706638255E+04  0.25037687687E+04 0.  0.
        2    1    3    3  502    0  0.12523774943E+03  0.91856279164E+03 -0.11550831402E+04  0.14811006572E+04  0.25500000920E-02 0. -1.
       -2    1    3    3    0  502 -0.12523774943E+03 -0.91856279164E+03  0.57245593848E+03  0.10895631682E+04  0.25500000920E-02 0.  1.
</event>
<event>
 5   0  0.3971759E-06  0.2499325E+04  0.7818609E-02  0.8403226E-01
        2   -1    0    0  501    0  0.00000000000E+00  0.00000000000E+00  0.11228790133E+04  0.11228790133E+04  0.25500000920E-02 0.  1.
       -2   -1    0    0    0  501  0.00000000000E+00  0.00000000000E+00 -0.13907614990E+04  0.13907614990E+04  0.25500000920E-02 0. -1.
    10030    2    1    2    0    0  0.00000000000E+00  0.00000000000E+00 -0.26788248566E+03  0.25136405123E+04  0.24993254287E+04 0.  0.
        4    1    3    3  502    0  0.85054474582E+03  0.48650652018E+03 -0.91397380685E+03  0.13399495107E+04  0.12699999809E+01 0. -1.
       -4    1    3    3    0  502 -0.85054474582E+03 -0.48650652018E+03  0.64609132119E+03  0.11736910015E+04  0.12699999809E+01 0.  1.
</event>
<event>
 5   0  0.1541852E-06  0.2511629E+04  0.7818609E-02  0.8398854E-01
        1   -1    0    0  501    0  0.00000000000E+00  0.00000000000E+00  0.26360917236E+04  0.26360917237E+04  0.50400001928E-02 0. -1.
       -1   -1    0    0    0  501  0.00000000000E+00  0.00000000000E+00 -0.59826071291E+03  0.59826071293E+03  0.50400001928E-02 0.  1.
    10030    2    1    2    0    0  0.00000000000E+00  0.00000000000E+00  0.20378310107E+04  0.32343524366E+04  0.25116290442E+04 0.  0.
        5    1    3    3  502    0  0.86481135137E+02 -0.31186976036E+03  0.25814547322E+04  0.26016672268E+04  0.46999998093E+01 0. -1.
       -5    1    3    3    0  502 -0.86481135137E+02  0.31186976036E+03 -0.54362372150E+03  0.63268520983E+03  0.46999998093E+01 0.  1.
</event>
<event>
 5   0  0.1501747E-06  0.2479878E+04  0.7818609E-02  0.8410189E-01
       -1   -1    0    0    0  501  0.00000000000E+00  0.00000000000E+00  0.72203648832E+03  0.72203648834E+03  0.50400001928E-02 0.  1.
        1   -1    0    0  501    0  0.00000000000E+00  0.00000000000E+00 -0.21293226818E+04  0.21293226818E+04  0.50400001928E-02 0. -1.
    10030    2    1    2    0    0  0.00000000000E+00  0.00000000000E+00 -0.14072861934E+04  0.28513591701E+04  0.24798779580E+04 0.  0.
        2    1    3    3  502    0  0.57167066216E+03  0.11120921138E+03 -0.19622776682E+04  0.20468777398E+04  0.25500000920E-02 0. -1.
       -2    1    3    3    0  502 -0.57167066216E+03 -0.11120921138E+03  0.55499147473E+03  0.80448143030E+03  0.25500000920E-02 0.  1.
</event>
<event>
 5   0  0.1287375E-06  0.2496349E+04  0.7818609E-02  0.8404288E-01
        3   -1    0    0  501    0  0.00000000000E+00  0.00000000000E+00  0.11012794844E+04  0.11012794890E+04  0.10100000352E+00 0. -1.
       -3   -1    0    0    0  501  0.00000000000E+00  0.00000000000E+00 -0.14146627562E+04  0.14146627598E+04  0.10100000352E+00 0.  1.
    10030    2    1    2    0    0  0.00000000000E+00  0.00000000000E+00 -0.31338327185E+03  0.25159422488E+04  0.24963485983E+04 0.  0.
        5    1    3    3  502    0 -0.61680050344E+03  0.12367649267E+03  0.92981356406E+03  0.11226371140E+04  0.46999998093E+01 0. -1.
       -5    1    3    3    0  502  0.61680050344E+03 -0.12367649267E+03 -0.12431968359E+04  0.13933051348E+04  0.46999998093E+01 0.  1.
</event>
<event>
 5   0  0.1501747E-06  0.2497728E+04  0.7818609E-02  0.8403795E-01
        1   -1    0    0  501    0  0.00000000000E+00  0.00000000000E+00  0.21615467389E+04  0.21615467389E+04  0.50400001928E-02 0. -1.
       -1   -1    0    0    0  501  0.00000000000E+00  0.00000000000E+00 -0.72154859448E+03  0.72154859450E+03  0.50400001928E-02 0.  1.
    10030    2    1    2    0    0  0.00000000000E+00  0.00000000000E+00  0.14399981444E+04  0.28830953334E+04  0.24977277765E+04 0.  0.
        2    1    3    3  502    0 -0.83384677366E+03  0.31362242657E+03 -0.29025060847E+03  0.93696578599E+03  0.25500000920E-02 0.  1.
       -2    1    3    3    0  502  0.83384677366E+03 -0.31362242657E+03  0.17302487529E+04  0.19461295474E+04  0.25500000920E-02 0. -1.
</event>
<event>
 5   0  0.1574896E-06  0.2499880E+04  0.7818609E-02  0.8403028E-01
        1   -1    0    0  501    0  0.00000000000E+00  0.00000000000E+00  0.18794003746E+04  0.18794003746E+04  0.50400001928E-02 0.  1.
       -1   -1    0    0    0  501  0.00000000000E+00  0.00000000000E+00 -0.83130226891E+03  0.83130226892E+03  0.50400001928E-02 0. -1.
    10030    2    1    2    0    0  0.00000000000E+00  0.00000000000E+00  0.10480981057E+04  0.27107026435E+04  0.24998798336E+04 0.  0.
        3    1    3    3  502    0  0.30676302484E+03 -0.73447305927E+03 -0.52096663667E+03  0.95129410538E+03  0.10100000352E+00 0. -1.
       -3    1    3    3    0  502 -0.30676302484E+03  0.73447305927E+03  0.15690647423E+04  0.17594085381E+04  0.10100000352E+00 0.  1.
</event>
<event>
 5   0  0.1541852E-06  0.2499579E+04  0.7818609E-02  0.8403136E-01
        1   -1    0    0  501    0  0.00000000000E+00  0.00000000000E+00  0.10310192791E+04  0.10310192792E+04  0.50400001928E-02 0.  1.
       -1   -1    0    0    0  501  0.00000000000E+00  0.00000000000E+00 -0.15149801633E+04  0.15149801633E+04  0.50400001928E-02 0. -1.
    10030    2    1    2    0    0  0.00000000000E+00  0.00000000000E+00 -0.48396088416E+03  0.25459994425E+04  0.24995789693E+04 0.  0.
        5    1    3    3  502    0 -0.30734759287E+03 -0.11898356980E+04 -0.47375887947E+03  0.13170577425E+04  0.46999998093E+01 0. -1.
       -5    1    3    3    0  502  0.30734759287E+03  0.11898356980E+04 -0.10202004691E+02  0.12289417000E+04  0.46999998093E+01 0.  1.
</event>
<event>
 5   0  0.3814260E-06  0.2490337E+04  0.7818609E-02  0.8406436E-01
       -2   -1    0    0    0  501  0.00000000000E+00  0.00000000000E+00  0.98880156088E+03  0.98880156089E+03  0.25500000920E-02 0. -1.
        2   -1    0    0  501    0  0.00000000000E+00  0.00000000000E+00 -0.15680042924E+04  0.15680042924E+04  0.25500000920E-02 0.  1.
    10030    2    1    2    0    0  0.00000000000E+00  0.00000000000E+00 -0.57920273156E+03  0.25568058533E+04  0.24903374003E+04 0.  0.
        5    1    3    3  502    0  0.84466612809E+03 -0.45437717259E+03  0.52563457583E+03  0.10937244992E+04  0.46999998093E+01 0. -1.
       -5    1    3    3    0  502 -0.84466612809E+03  0.45437717259E+03 -0.11048373074E+04  0.14630813541E+04  0.46999998093E+01 0.  1.
</event>
<event>
 5   0  0.1553604E-06  0.2482208E+04  0.7818609E-02  0.8409351E-01
       -1   -1    0    0    0  501  0.00000000000E+00  0.00000000000E+00  0.81620172578E+03  0.81620172580E+03  0.50400001928E-02 0. -1.
        1   -1    0    0  501    0  0.00000000000E+00  0.00000000000E+00 -0.18872046235E+04  0.18872046235E+04  0.50400001928E-02 0.  1.
    10030    2    1    2    0    0  0.00000000000E+00  0.00000000000E+00 -0.10710028977E+04  0.27034063493E+04  0.24822084285E+04 0.  0.
        1    1    3    3  502    0 -0.60709381968E+03 -0.10169344247E+04 -0.93953335250E+03  0.15117676576E+04  0.50400001928E-02 0. -1.
       -1    1    3    3    0  502  0.60709381968E+03  0.10169344247E+04 -0.13146954518E+03  0.11916386917E+04  0.50400001928E-02 0.  1.
</event>
<event>
 5   0  0.1541852E-06  0.2500938E+04  0.7818609E-02  0.8402652E-01
        1   -1    0    0  501    0  0.00000000000E+00  0.00000000000E+00  0.20850641174E+04  0.20850641174E+04  0.50400001928E-02 0.  1.
       -1   -1    0    0    0  501  0.00000000000E+00  0.00000000000E+00 -0.74993969531E+03  0.74993969532E+03  0.50400001928E-02 0. -1.
    10030    2    1    2    0    0  0.00000000000E+00  0.00000000000E+00  0.13351244221E+04  0.28350038127E+04  0.25009377033E+04 0.  0.
        5    1    3    3  502    0  0.23765002125E+03 -0.38967293334E+03  0.19872552797E+04  0.20390017568E+04  0.46999998093E+01 0.  1.
       -5    1    3    3    0  502 -0.23765002125E+03  0.38967293334E+03 -0.65213085761E+03  0.79600205592E+03  0.46999998093E+01 0. -1.
</event>
<event>
 5   0  0.1519145E-06  0.2500001E+04  0.7818609E-02  0.8402985E-01
       -1   -1    0    0    0  501  0.00000000000E+00  0.00000000000E+00  0.82217784054E+03  0.82217784056E+03  0.50400001928E-02 0.  1.
        1   -1    0    0  501    0  0.00000000000E+00  0.00000000000E+00 -0.19004417156E+04  0.19004417156E+04  0.50400001928E-02 0. -1.
    10030    2    1    2    0    0  0.00000000000E+00  0.00000000000E+00 -0.10782638751E+04  0.27226195562E+04  0.25000008527E+04 0.  0.
        4    1    3    3  502    0 -0.15116481017E+03  0.10090100361E+04 -0.13256228253E+04  0.16727909435E+04  0.12699999809E+01 0. -1.
       -4    1    3    3    0  502  0.15116481017E+03 -0.10090100361E+04  0.24735895027E+03  0.10498286127E+04  0.12699999809E+01 0.  1.
</event>
<event>
 5   0  0.1501747E-06  0.2499384E+04  0.7818609E-02  0.8403205E-01
       -1   -1    0    0    0  501  0.00000000000E+00  0.00000000000E+00  0.84441236373E+03  0.84441236375E+03  0.50400001928E-02 0. -1.
        1   -1    0    0  501    0  0.00000000000E+00  0.00000000000E+00 -0.18494875766E+04  0.18494875766E+04  0.50400001928E-02 0.  1.
    10030    2    1    2    0    0  0.00000000000E+00  0.00000000000E+00 -0.10050752128E+04  0.26938999403E+04  0.24993840651E+04 0.  0.
        2    1    3    3  502    0  0.88625564170E+03 -0.83306958548E+03 -0.19337602319E+03  0.12316039473E+04  0.25500000920E-02 0. -1.
       -2    1    3    3    0  502 -0.88625564170E+03  0.83306958548E+03 -0.81169918963E+03  0.14622959930E+04  0.25500000920E-02 0.  1.
</event>
<event>
 5   0  0.3924441E-06  0.2501380E+04  0.7818609E-02  0.8402494E-01
       -2   -1    0    0    0  501  0.00000000000E+00  0.00000000000E+00  0.14984479935E+04  0.14984479935E+04  0.25500000920E-02 0.  1.
        2   -1    0    0  501    0  0.00000000000E+00  0.00000000000E+00 -0.10438969123E+04  0.10438969123E+04  0.25500000920E-02 0. -1.
    10030    2    1    2    0    0  0.00000000000E+00  0.00000000000E+00  0.45455108114E+03  0.25423449058E+04  0.25013798062E+04 0.  0.
        2    1    3    3  502    0  0.81653850677E+03  0.79662935193E+03 -0.29383134177E+03  0.11780026803E+04  0.25500000920E-02 0. -1.
       -2    1    3    3    0  502 -0.81653850677E+03 -0.79662935193E+03  0.74838242290E+03  0.13643422255E+04  0.25500000920E-02 0.  1.
</event>
<event>
 5   0  0.3713394E-06  0.2507184E+04  0.7818609E-02  0.8400431E-01
       -2   -1    0    0    0  501  0.00000000000E+00  0.00000000000E+00  0.56964380985E+03  0.56964380985E+03  0.25500000920E-02 0. -1.
        2   -1    0    0  501    0  0.00000000000E+00  0.00000000000E+00 -0.27587291159E+04  0.27587291159E+04  0.25500000920E-02 0.  1.
    10030    2    1    2    0    0  0.00000000000E+00  0.00000000000E+00 -0.21890853061E+04  0.33283729258E+04  0.25071840491E+04 0.  0.
        3    1    3    3  502    0  0.71289276092E+03  0.56020445014E+03  0.54712528340E+02  0.90831634659E+03  0.10100000352E+00 0. -1.
       -3    1    3    3    0  502 -0.71289276092E+03 -0.56020445014E+03 -0.22437978344E+04  0.24200565792E+04  0.10100000352E+00 0.  1.
</event>
<event>
 5   0  0.3971759E-06  0.2498798E+04  0.7818609E-02  0.8403414E-01
       -2   -1    0    0    0  501  0.00000000000E+00  0.00000000000E+00  0.64406647229E+03  0.64406647229E+03  0.25500000920E-02 0.  1.
        2   -1    0    0  501    0  0.00000000000E+00  0.00000000000E+00 -0.24236593317E+04  0.24236593317E+04  0.25500000920E-02 0. -1.
    10030    2    1    2    0    0  0.00000000000E+00  0.00000000000E+00 -0.17795928594E+04  0.30677258040E+04  0.24987978836E+04 0.  0.
        4    1    3    3  502    0  0.29422086577E+03 -0.11262231298E+04 -0.14470764271E+04  0.18571419586E+04  0.12699999809E+01 0. -1.
       -4    1    3    3    0  502 -0.29422086577E+03  0.11262231298E+04 -0.33251643232E+03  0.12105838453E+04  0.12699999809E+01 0.  1.
</event>
<event>
 5   0  0.1541852E-06  0.2501540E+04  0.7818609E-02  0.8402437E-01
        1   -1    0    0  501    0  0.00000000000E+00  0.00000000000E+00  0.20236608934E+04  0.20236608934E+04  0.50400001928E-02 0. -1.
       -1   -1    0    0    0  501  0.00000000000E+00  0.00000000000E+00 -0.77306722162E+03  0.77306722163E+03  0.50400001928E-02 0.  1.
    10030    2    1    2    0    0  0.00000000000E+00  0.00000000000E+00  0.12505936718E+04  0.27967281151E+04  0.25015402491E+04 0.  0.
        5    1    3    3  502    0 -0.27659344221E+03 -0.82094918934E+02  0.19859385642E+04  0.20067928590E+04  0.46999998093E+01 0. -1.
       -5    1    3    3    0  502  0.27659344221E+03  0.82094918934E+02 -0.73534489242E+03  0.78993525608E+03  0.46999998093E+01 0.  1.
</event>
<event>
 5   0  0.3808293E-06  0.2502444E+04  0.7818609E-02  0.8402116E-01
        2   -1    0    0  501    0  0.00000000000E+00  0.00000000000E+00  0.23051072741E+04  0.23051072741E+04  0.25500000920E-02 0.  1.
       -2   -1    0    0    0  501  0.00000000000E+00  0.00000000000E+00 -0.67916839423E+03  0.67916839423E+03  0.25500000920E-02 0. -1.
    10030    2    1    2    0    0  0.00000000000E+00  0.00000000000E+00  0.16259388799E+04  0.29842756683E+04  0.25024436105E+04 0.  0.
        1    1    3    3  502    0 -0.10845939438E+04 -0.45450051584E+03  0.30331702067E+03  0.12144611797E+04  0.50400001928E-02 0. -1.
       -1    1    3    3    0  502  0.10845939438E+04  0.45450051584E+03  0.13226218592E+04  0.17698144887E+04  0.50400001928E-02 0.  1.
</event>
<event>
 5   0  0.3814260E-06  0.2514598E+04  0.7818609E-02  0.8397803E-01
       -2   -1    0    0    0  501  0.00000000000E+00  0.00000000000E+00  0.12885974113E+04  0.12885974113E+04  0.25500000920E-02 0.  1.
        2   -1    0    0  501    0  0.00000000000E+00  0.00000000000E+00 -0.12267607859E+04  0.12267607859E+04  0.25500000920E-02 0. -1.
    10030    2    1    2    0    0  0.00000000000E+00  0.00000000000E+00  0.61836625374E+02  0.25153581971E+04  0.25145979980E+04 0.  0.
        5    1    3    3  502    0 -0.11672018388E+04 -0.11212955005E+03 -0.42292085865E+03  0.12465220861E+04  0.46999998093E+01 0. -1.
       -5    1    3    3    0  502  0.11672018388E+04  0.11212955005E+03  0.48475748402E+03  0.12688361111E+04  0.46999998093E+01 0.  1.
</event>
<event>
 5   0  0.1519145E-06  0.2495602E+04  0.7818609E-02  0.8404554E-01
        1   -1    0    0  501    0  0.00000000000E+00  0.00000000000E+00  0.19153887079E+04  0.19153887079E+04  0.50400001928E-02 0.  1.
       -1   -1    0    0    0  501  0.00000000000E+00  0.00000000000E+00 -0.81289335819E+03  0.81289335821E+03  0.50400001928E-02 0. -1.
    10030    2    1    2    0    0  0.00000000000E+00  0.00000000000E+00  0.11024953497E+04  0.27282820661E+04  0.24956015379E+04 0.  0.
        4    1    3    3  502    0 -0.84484101002E+03 -0.91523588106E+03  0.46949512081E+03  0.13311049288E+04  0.12699999809E+01 0. -1.
       -4    1    3    3    0  502  0.84484101002E+03  0.91523588106E+03  0.63300022886E+03  0.13971771372E+04  0.12699999809E+01 0.  1.
</event>
<event>
 5   0  0.1501747E-06  0.2504660E+04  0.7818609E-02  0.8401327E-01
       -1   -1    0    0    0  501  0.00000000000E+00  0.00000000000E+00  0.12509389355E+04  0.12509389356E+04  0.50400001928E-02 0.  1.
        1   -1    0    0  501    0  0.00000000000E+00  0.00000000000E+00 -0.12537225838E+04  0.12537225838E+04  0.50400001928E-02 0. -1.
    10030    2    1    2    0    0  0.00000000000E+00  0.00000000000E+00 -0.27836482581E+01  0.25046615194E+04  0.25046599725E+04 0.  0.
        2    1    3    3  502    0  0.96524963051E+03 -0.20606340181E+03  0.76942732042E+03  0.12514740813E+04  0.25500000920E-02 0.  1.
       -2    1    3    3    0  502 -0.96524963051E+03  0.20606340181E+03 -0.77221096867E+03  0.12531874381E+04  0.25500000920E-02 0. -1.
</event>
<event>
 5   0  0.1501747E-06  0.2499217E+04  0.7818609E-02  0.8403264E-01
       -1   -1    0    0    0  501  0.00000000000E+00  0.00000000000E+00  0.12190709127E+04  0.12190709128E+04  0.50400001928E-02 0. -1.
        1   -1    0    0  501    0  0.00000000000E+00  0.00000000000E+00 -0.12809114524E+04  0.12809114524E+04  0.50400001928E-02 0.  1.
    10030    2    1    2    0    0  0.00000000000E+00  0.00000000000E+00 -0.61840539613E+02  0.24999823651E+04  0.24992173922E+04 0.  0.
        2    1    3    3  502    0  0.50692465929E+03  0.11149160846E+03  0.11061417434E+04  0.12218643728E+04  0.25500000920E-02 0. -1.
       -2    1    3    3    0  502 -0.50692465929E+03 -0.11149160846E+03 -0.11679822830E+04  0.12781179924E+04  0.25500000920E-02 0.  1.
</event>
<event>
 5   0  0.1541852E-06  0.2516777E+04  0.7818609E-02  0.8397033E-01
       -1   -1    0    0    0  501  0.00000000000E+00  0.00000000000E+00  0.87159865797E+03  0.87159865799E+03  0.50400001928E-02 0.  1.
        1   -1    0    0  501    0  0.00000000000E+00  0.00000000000E+00 -0.18168239970E+04  0.18168239970E+04  0.50400001928E-02 0. -1.
    10030    2    1    2    0    0  0.00000000000E+00  0.00000000000E+00 -0.94522533901E+03  0.26884226550E+04  0.25167767939E+04 0.  0.
        5    1    3    3  502    0  0.45999966870E+03  0.11464845382E+04 -0.72874210068E+03  0.14342641426E+04  0.46999998093E+01 0. -1.
       -5    1    3    3    0  502 -0.45999966870E+03 -0.11464845382E+04 -0.21648323833E+03  0.12541585123E+04  0.46999998093E+01 0.  1.
</event>
<event>
 5   0  0.1501747E-06  0.2498129E+04  0.7818609E-02  0.8403652E-01
        1   -1    0    0  501    0  0.00000000000E+00  0.00000000000E+00  0.95823705184E+03  0.95823705185E+03  0.50400001928E-02 0.  1.
       -1   -1    0    0    0  501  0.00000000000E+00  0.00000000000E+00 -0.16281593903E+04  0.16281593903E+04  0.50400001928E-02 0. -1.
    10030    2    1    2    0    0  0.00000000000E+00  0.00000000000E+00 -0.66992233842E+03  0.25863964421E+04  0.24981294235E+04 0.  0.
        2    1    3    3  502    0 -0.54769335846E+02  0.78370339580E+03  0.67041722821E+03  0.10327874673E+04  0.25500000920E-02 0.  1.
       -2    1    3    3    0  502  0.54769335846E+02 -0.78370339580E+03 -0.13403395666E+04  0.15536089748E+04  0.25500000920E-02 0. -1.
</event>
<event>
 5   0  0.3924441E-06  0.2499308E+04  0.7818609E-02  0.8403232E-01
        2   -1    0    0  501    0  0.00000000000E+00  0.00000000000E+00  0.17274111375E+04  0.17274111375E+04  0.25500000920E-02 0.  1.
       -2   -1    0    0    0  501  0.00000000000E+00  0.00000000000E+00 -0.90403218358E+03  0.90403218358E+03  0.25500000920E-02 0. -1.
    10030    2    1    2    0    0  0.00000000000E+00  0.00000000000E+00  0.82337895392E+03  0.26314433211E+04  0.24993081143E+04 0.  0.
        2    1    3    3  502    0  0.24054726715E+02 -0.88870714394E+03 -0.51295241928E+03  0.10264010922E+04  0.25500000920E-02 0. -1.
       -2    1    3    3    0  502 -0.24054726715E+02  0.88870714394E+03  0.13363313732E+04  0.16050422289E+04  0.25500000920E-02 0.  1.
</event>
<event>
 5   0  0.3924441E-06  0.2498789E+04  0.7818609E-02  0.8403417E-01
       -2   -1    0    0    0  501  0.00000000000E+00  0.00000000000E+00  0.81674347431E+03  0.81674347431E+03  0.25500000920E-02 0.  1.
        2   -1    0    0  501    0  0.00000000000E+00  0.00000000000E+00 -0.19112330598E+04  0.19112330598E+04  0.25500000920E-02 0. -1.
    10030    2    1    2    0    0  0.00000000000E+00  0.00000000000E+00 -0.10944895855E+04  0.27279765341E+04  0.24987894105E+04 0.  0.
        2    1    3    3  502    0 -0.11836748622E+04  0.32938291236E+03 -0.29971602413E+03  0.12646774204E+04  0.25500000920E-02 0.  1.
       -2    1    3    3    0  502  0.11836748622E+04 -0.32938291236E+03 -0.79477356133E+03  0.14632991137E+04  0.25500000920E-02 0. -1.
</event>
<event>
 5   0  0.3713394E-06  0.2506432E+04  0.7818609E-02  0.8400698E-01
        2   -1    0    0  501    0  0.00000000000E+00  0.00000000000E+00  0.96963044875E+03  0.96963044875E+03  0.25500000920E-02 0. -1.
       -2   -1    0    0    0  501  0.00000000000E+00  0.00000000000E+00 -0.16197417934E+04  0.16197417934E+04  0.25500000920E-02 0.  1.
    10030    2    1    2    0    0  0.00000000000E+00  0.00000000000E+00 -0.65011134463E+03  0.25893722421E+04  0.25064324942E+04 0.  0.
        3    1    3    3  502    0 -0.97814331576E+03 -0.60552245214E+03  0.18851530988E+03  0.11657443195E+04  0.10100000352E+00 0. -1.
       -3    1    3    3    0  502  0.97814331576E+03  0.60552245214E+03 -0.83862665451E+03  0.14236279226E+04  0.10100000352E+00 0.  1.
</event>
<event>
 5   0  0.1553604E-06  0.2495334E+04  0.7818609E-02  0.8404650E-01
       -1   -1    0    0    0  501  0.00000000000E+00  0.00000000000E+00  0.12519704451E+04  0.12519704452E+04  0.50400001928E-02 0. -1.
        1   -1    0    0  501    0  0.00000000000E+00  0.00000000000E+00 -0.12433780903E+04  0.12433780903E+04  0.50400001928E-02 0.  1.
    10030    2    1    2    0    0  0.00000000000E+00  0.00000000000E+00  0.85923548351E+01  0.24953485355E+04  0.24953337422E+04 0.  0.
        1    1    3    3  502    0  0.32131259772E+03 -0.11843387208E+04  0.22962534139E+03  0.12484501546E+04  0.50400001928E-02 0. -1.
       -1    1    3    3    0  502 -0.32131259772E+03  0.11843387208E+04 -0.22103298656E+03  0.12468983809E+04  0.50400001928E-02 0.  1.
</event>
<event>
 5   0  0.1501747E-06  0.2502954E+04  0.7818609E-02  0.8401934E-01
       -1   -1    0    0    0  501  0.00000000000E+00  0.00000000000E+00  0.12021807380E+04  0.12021807380E+04  0.50400001928E-02 0. -1.
        1   -1    0    0  501    0  0.00000000000E+00  0.00000000000E+00 -0.13027945033E+04  0.13027945033E+04  0.50400001928E-02 0.  1.
    10030    2    1    2    0    0  0.00000000000E+00  0.00000000000E+00 -0.10061376532E+03  0.25049752414E+04  0.25029538210E+04 0.  0.
        2    1    3    3  502    0 -0.85061752475E+03 -0.41513195302E+03 -0.86969255856E+03  0.12853987157E+04  0.25500000920E-02 0.  1.
       -2    1    3    3    0  502  0.85061752475E+03  0.41513195302E+03  0.76907879324E+03  0.12195765257E+04  0.25500000920E-02 0. -1.
</event>
<event>
 5   0  0.1501747E-06  0.2497547E+04  0.7818609E-02  0.8403860E-01
       -1   -1    0    0    0  501  0.00000000000E+00  0.00000000000E+00  0.77903139016E+03  0.77903139017E+03  0.50400001928E-02 0. -1.
        1   -1    0    0  501    0  0.00000000000E+00  0.00000000000E+00 -0.20017622324E+04  0.20017622325E+04  0.50400001928E-02 0.  1.
    10030    2    1    2    0    0  0.00000000000E+00  0.00000000000E+00 -0.12227308423E+04  0.27807936226E+04  0.24975472886E+04 0.  0.
        2    1    3    3  502    0 -0.11556128034E+04 -0.35023170326E+03 -0.96579441382E+03  0.15462412642E+04  0.25500000920E-02 0.  1.
       -2    1    3    3    0  502  0.11556128034E+04  0.35023170326E+03 -0.25693642847E+03  0.12345523584E+04  0.25500000920E-02 0. -1.
</event>
<event>
 5   0  0.3713394E-06  0.2507823E+04  0.7818609E-02  0.8400204E-01
        2   -1    0    0  501    0  0.00000000000E+00  0.00000000000E+00  0.19607056574E+04  0.19607056574E+04  0.25500000920E-02 0.  1.
       -2   -1    0    0    0  501  0.00000000000E+00  0.00000000000E+00 -0.80190182624E+03  0.80190182624E+03  0.25500000920E-02 0. -1.
    10030    2    1    2    0    0  0.00000000000E+00  0.00000000000E+00  0.11588038311E+04  0.27626074836E+04  0.25078225195E+04 0.  0.
        3    1    3    3  502    0  0.12487810440E+04 -0.89654707501E+02  0.50307017026E+03  0.13492856142E+04  0.10100000352E+00 0. -1.
       -3    1    3    3    0  502 -0.12487810440E+04  0.89654707501E+02  0.65573366088E+03  0.14133218694E+04  0.10100000352E+00 0.  1.
</event>
<event>
 5   0  0.3924441E-06  0.2497414E+04  0.7818609E-02  0.8403907E-01
       -2   -1    0    0    0  501  0.00000000000E+00  0.00000000000E+00  0.12596596232E+04  0.12596596232E+04  0.25500000920E-02 0.  1.
        2   -1    0    0  501    0  0.00000000000E+00  0.00000000000E+00 -0.12378498849E+04  0.12378498849E+04  0.25500000920E-02 0. -1.
    10030    2    1    2    0    0  0.00000000000E+00  0.00000000000E+00  0.21809738271E+02  0.24975095081E+04  0.24974142785E+04 0.  0.
        2    1    3    3  502    0 -0.71233243578E+03 -0.13866427507E+03  0.10271248214E+04  0.12576289910E+04  0.25500000920E-02 0.  1.
       -2    1    3    3    0  502  0.71233243578E+03  0.13866427507E+03 -0.10053150832E+04  0.12398805171E+04  0.25500000920E-02 0. -1.
</event>
<event>
 5   0  0.3924441E-06  0.2500799E+04  0.7818609E-02  0.8402701E-01
       -2   -1    0    0    0  501  0.00000000000E+00  0.00000000000E+00  0.53807965615E+03  0.53807965615E+03  0.25500000920E-02 0. -1.
        2   -1    0    0  501    0  0.00000000000E+00  0.00000000000E+00 -0.29057022326E+04  0.29057022326E+04  0.25500000920E-02 0.  1.
    10030    2    1    2    0    0  0.00000000000E+00  0.00000000000E+00 -0.23676225765E+04  0.34437818888E+04  0.25007992788E+04 0.  0.
        2    1    3    3  502    0  0.50882756885E+03 -0.53921231006E+03  0.20276042903E+03  0.76861381833E+03  0.25500000920E-02 0. -1.
       -2    1    3    3    0  502 -0.50882756885E+03  0.53921231006E+03 -0.25703830055E+04  0.26751680704E+04  0.25500000920E-02 0.  1.
</event>
<event>
 5   0  0.1519145E-06  0.2497373E+04  0.7818609E-02  0.8403922E-01
       -1   -1    0    0    0  501  0.00000000000E+00  0.00000000000E+00  0.15490390708E+04  0.15490390709E+04  0.50400001928E-02 0. -1.
        1   -1    0    0  501    0  0.00000000000E+00  0.00000000000E+00 -0.10065710220E+04  0.10065710220E+04  0.50400001928E-02 0.  1.
    10030    2    1    2    0    0  0.00000000000E+00  0.00000000000E+00  0.54246804889E+03  0.25556100928E+04  0.24973728922E+04 0.  0.
        4    1    3    3  502    0  0.75755868399E+03  0.21912263691E+03  0.12619564147E+04  0.14881013054E+04  0.12699999809E+01 0. -1.
       -4    1    3    3    0  502 -0.75755868399E+03 -0.21912263691E+03 -0.71948836583E+03  0.10675087874E+04  0.12699999809E+01 0.  1.
</event>
<event>
 5   0  0.1287375E-06  0.2474771E+04  0.7818609E-02  0.8412029E-01
        3   -1    0    0  501    0  0.00000000000E+00  0.00000000000E+00  0.12197518144E+04  0.12197518186E+04  0.10100000352E+00 0. -1.
       -3   -1    0    0    0  501  0.00000000000E+00  0.00000000000E+00 -0.12552740011E+04  0.12552740052E+04  0.10100000352E+00 0.  1.
    10030    2    1    2    0    0  0.00000000000E+00  0.00000000000E+00 -0.35522186723E+02  0.24750258238E+04  0.24747708990E+04 0.  0.
        1    1    3    3  502    0  0.69152611380E+03  0.34797929078E+03 -0.98317125550E+03  0.12513687189E+04  0.50400001928E-02 0.  1.
       -1    1    3    3    0  502 -0.69152611380E+03 -0.34797929078E+03  0.94764906878E+03  0.12236571049E+04  0.50400001928E-02 0. -1.
</event>
<event>
 5   0  0.3808293E-06  0.2505146E+04  0.7818609E-02  0.8401154E-01
        2   -1    0    0  501    0  0.00000000000E+00  0.00000000000E+00  0.18225425515E+04  0.18225425515E+04  0.25500000920E-02 0. -1.
       -2   -1    0    0    0  501  0.00000000000E+00  0.00000000000E+00 -0.86085213584E+03  0.86085213584E+03  0.25500000920E-02 0.  1.
    10030    2    1    2    0    0  0.00000000000E+00  0.00000000000E+00  0.96169041564E+03  0.26833946873E+04  0.25051464214E+04 0.  0.
        1    1    3    3  502    0 -0.48488355476E+03  0.31563717136E+03 -0.70914762613E+03  0.91522087022E+03  0.50400001928E-02 0.  1.
       -1    1    3    3    0  502  0.48488355476E+03 -0.31563717136E+03  0.16708380418E+04  0.17681738171E+04  0.50400001928E-02 0. -1.
</event>
<event>
 5   0  0.3713394E-06  0.2508785E+04  0.7818609E-02  0.8399863E-01
        2   -1    0    0  501    0  0.00000000000E+00  0.00000000000E+00  0.28255545805E+04  0.28255545805E+04  0.25500000920E-02 0. -1.
       -2   -1    0    0    0  501  0.00000000000E+00  0.00000000000E+00 -0.55688202221E+03  0.55688202221E+03  0.25500000920E-02 0.  1.
    10030    2    1    2    0    0  0.00000000000E+00  0.00000000000E+00  0.22686725582E+04  0.33824366027E+04  0.25087850036E+04 0.  0.
        3    1    3    3  502    0  0.16239659533E+03  0.82486983403E+03 -0.12084091124E+03  0.84934411948E+03  0.10100000352E+00 0.  1.
       -3    1    3    3    0  502 -0.16239659533E+03 -0.82486983403E+03  0.23895134695E+04  0.25330924832E+04  0.10100000352E+00 0. -1.
</event>
<event>
 5   0  0.1501747E-06  0.2496979E+04  0.7818609E-02  0.8404063E-01
        1   -1    0    0  501    0  0.00000000000E+00  0.00000000000E+00  0.15531616074E+04  0.15531616074E+04  0.50400001928E-02 0.  1.
       -1   -1    0    0    0  501  0.00000000000E+00  0.00000000000E+00 -0.10035826633E+04  0.10035826633E+04  0.50400001928E-02 0. -1.
    10030    2    1    2    0    0  0.00000000000E+00  0.00000000000E+00  0.54957894408E+03  0.25567442707E+04  0.24969790247E+04 0.  0.
        2    1    3    3  502    0  0.32115314608E+03 -0.11337497491E+04  0.69721476254E+03  0.13691735689E+04  0.25500000920E-02 0.  1.
       -2    1    3    3    0  502 -0.32115314608E+03  0.11337497491E+04 -0.14763581845E+03  0.11875707018E+04  0.25500000920E-02 0. -1.
</event>
<event>
 5   0  0.3713394E-06  0.2501032E+04  0.7818609E-02  0.8402618E-01
        2   -1    0    0  501    0  0.00000000000E+00  0.00000000000E+00  0.22015906018E+04  0.22015906018E+04  0.25500000920E-02 0. -1.
       -2   -1    0    0    0  501  0.00000000000E+00  0.00000000000E+00 -0.71030011022E+03  0.71030011022E+03  0.25500000920E-02 0.  1.
    10030    2    1    2    0    0  0.00000000000E+00  0.00000000000E+00  0.14912904916E+04  0.29118907121E+04  0.25010318248E+04 0.  0.
        3    1    3    3  502    0  0.33183078168E+02 -0.10268285562E+04  0.15757273480E+04  0.18810621165E+04  0.10100000352E+00 0. -1.
       -3    1    3    3    0  502 -0.33183078168E+02  0.10268285562E+04 -0.84436856384E+02  0.10308285956E+04  0.10100000352E+00 0.  1.
</event>
<event>
 5   0  0.3924441E-06  0.2493525E+04  0.7818609E-02  0.8405296E-01
        2   -1    0    0  501    0  0.00000000000E+00  0.00000000000E+00  0.15590385248E+04  0.15590385248E+04  0.25500000920E-02 0.  1.
       -2   -1    0    0    0  501  0.00000000000E+00  0.00000000000E+00 -0.99703557185E+03  0.99703557185E+03  0.25500000920E-02 0. -1.
    10030    2    1    2    0    0  0.00000000000E+00  0.00000000000E+00  0.56200295300E+03  0.25560740967E+04  0.24935251089E+04 0.  0.
        2    1    3    3  502    0 -0.22261881243E+03 -0.47186309772E+03  0.14417498374E+04  0.15332503097E+04  0.25500000920E-02 0.  1.
       -2    1    3    3    0  502  0.22261881243E+03  0.47186309772E+03 -0.87974688438E+03  0.10228237870E+04  0.25500000920E-02 0. -1.
</event>
<event>
 5   0  0.3814260E-06  0.2506345E+04  0.7818609E-02  0.8400728E-01
        2   -1    0    0  501    0  0.00000000000E+00  0.00000000000E+00  0.23045968491E+04  0.23045968491E+04  0.25500000920E-02 0. -1.
       -2   -1    0    0    0  501  0.00000000000E+00  0.00000000000E+00 -0.68143883929E+03  0.68143883930E+03  0.25500000920E-02 0.  1.
    10030    2    1    2    0    0  0.00000000000E+00  0.00000000000E+00  0.16231580098E+04  0.29860356884E+04  0.25063453887E+04 0.  0.
        5    1    3    3  502    0 -0.10874515907E+04 -0.80840073672E+02  0.75869054218E+02  0.10930984782E+04  0.46999998093E+01 0.  1.
       -5    1    3    3    0  502  0.10874515907E+04  0.80840073672E+02  0.15472889556E+04  0.18929372102E+04  0.46999998093E+01 0. -1.
</event>
<event>
 5   0  0.1541852E-06  0.2500585E+04  0.7818609E-02  0.8402777E-01
        1   -1    0    0  501    0  0.00000000000E+00  0.00000000000E+00  0.16872031478E+04  0.16872031478E+04  0.50400001928E-02 0.  1.
       -1   -1    0    0    0  501  0.00000000000E+00  0.00000000000E+00 -0.92652227559E+03  0.92652227560E+03  0.50400001928E-02 0. -1.
    10030    2    1    2    0    0  0.00000000000E+00  0.00000000000E+00  0.76068087216E+03  0.26137254234E+04  0.25005849715E+04 0.  0.
        5    1    3    3  502    0 -0.62230371313E+03 -0.30130957678E+03 -0.70850240830E+03  0.98997329510E+03  0.46999998093E+01 0. -1.
       -5    1    3    3    0  502  0.62230371313E+03  0.30130957678E+03  0.14691832805E+04  0.16237521283E+04  0.46999998093E+01 0.  1.
</event>
<event>
 5   0  0.1541852E-06  0.2420715E+04  0.7818609E-02  0.8431789E-01
       -1   -1    0    0    0  501  0.00000000000E+00  0.00000000000E+00  0.12079343955E+04  0.12079343955E+04  0.50400001928E-02 0. -1.
        1   -1    0    0  501    0  0.00000000000E+00  0.00000000000E+00 -0.12127858431E+04  0.12127858431E+04  0.50400001928E-02 0.  1.
    10030    2    1    2    0    0  0.00000000000E+00  0.00000000000E+00 -0.48514476323E+01  0.24207202386E+04  0.24207153772E+04 0.  0.
        5    1    3    3  502    0 -0.60114269388E+03  0.34350245470E+03  0.99033866321E+03  0.12083704865E+04  0.46999998093E+01 0. -1.
       -5    1    3    3    0  502  0.60114269388E+03 -0.34350245470E+03 -0.99519011084E+03  0.12123497521E+04  0.46999998093E+01 0.  1.
</event>
<event>
 5   0  0.3808293E-06  0.2501645E+04  0.7818609E-02  0.8402400E-01
        2   -1    0    0  501    0  0.00000000000E+00  0.00000000000E+00  0.10644701688E+04  0.10644701688E+04  0.25500000920E-02 0. -1.
       -2   -1    0    0    0  501  0.00000000000E+00  0.00000000000E+00 -0.14697986067E+04  0.14697986067E+04  0.25500000920E-02 0.  1.
    10030    2    1    2    0    0  0.00000000000E+00  0.00000000000E+00 -0.40532843793E+03  0.25342687756E+04  0.25016448757E+04 0.  0.
        1    1    3    3  502    0  0.85822236926E+03  0.88550836641E+03 -0.41488619514E+03  0.13010769605E+04  0.50400001928E-02 0.  1.
       -1    1    3    3    0  502 -0.85822236926E+03 -0.88550836641E+03  0.95577572056E+01  0.12331918151E+04  0.50400001928E-02 0. -1.
</event>
<event>
 5   0  0.1519145E-06  0.2456042E+04  0.7818609E-02  0.8418815E-01
        1   -1    0    0  501    0  0.00000000000E+00  0.00000000000E+00  0.89159143466E+03  0.89159143468E+03  0.50400001928E-02 0.  1.
       -1   -1    0    0    0  501  0.00000000000E+00  0.00000000000E+00 -0.16913974013E+04  0.16913974013E+04  0.50400001928E-02 0. -1.
    10030    2    1    2    0    0  0.00000000000E+00  0.00000000000E+00 -0.79980596667E+03  0.25829888360E+04  0.24560418854E+04 0.  0.
        4    1    3    3  502    0 -0.95420704230E+03  0.14731688944E+03 -0.11979533706E+04  0.15386056144E+04  0.12699999809E+01 0. -1.
       -4    1    3    3    0  502  0.95420704230E+03 -0.14731688944E+03  0.39814740395E+03  0.10443832216E+04  0.12699999809E+01 0.  1.
</event>
<event>
 5   0  0.3924441E-06  0.2500078E+04  0.7818609E-02  0.8402958E-01
       -2   -1    0    0    0  501  0.00000000000E+00  0.00000000000E+00  0.74427390339E+03  0.74427390340E+03  0.25500000920E-02 0. -1.
        2   -1    0    0  501    0  0.00000000000E+00  0.00000000000E+00 -0.20994929615E+04  0.20994929615E+04  0.25500000920E-02 0.  1.
    10030    2    1    2    0    0  0.00000000000E+00  0.00000000000E+00 -0.13552190581E+04  0.28437668649E+04  0.25000782561E+04 0.  0.
        2    1    3    3  502    0 -0.20238598349E+03  0.12452829518E+03 -0.20735653677E+04  0.20871369665E+04  0.25500000920E-02 0.  1.
       -2    1    3    3    0  502  0.20238598349E+03 -0.12452829518E+03  0.71834630963E+03  0.75662989841E+03  0.25500000920E-02 0. -1.
</event>
<event>
 5   0  0.1553604E-06  0.2500338E+04  0.7818609E-02  0.8402865E-01
       -1   -1    0    0    0  501  0.00000000000E+00  0.00000000000E+00  0.23499706527E+04  0.23499706527E+04  0.50400001928E-02 0.  1.
        1   -1    0    0  501    0  0.00000000000E+00  0.00000000000E+00 -0.66508160007E+03  0.66508160009E+03  0.50400001928E-02 0. -1.
    10030    2    1    2    0    0  0.00000000000E+00  0.00000000000E+00  0.16848890526E+04  0.30150522528E+04  0.25003377707E+04 0.  0.
        1    1    3    3  502    0  0.32117137942E+03 -0.61414891242E+03  0.20971119689E+04  0.22086666909E+04  0.50400001928E-02 0.  1.
       -1    1    3    3    0  502 -0.32117137942E+03  0.61414891242E+03 -0.41222291628E+03  0.80638556183E+03  0.50400001928E-02 0. -1.
</event>
<event>
 5   0  0.3971759E-06  0.2500595E+04  0.7818609E-02  0.8402773E-01
        2   -1    0    0  501    0  0.00000000000E+00  0.00000000000E+00  0.13100700124E+04  0.13100700124E+04  0.25500000920E-02 0.  1.
       -2   -1    0    0    0  501  0.00000000000E+00  0.00000000000E+00 -0.11932524993E+04  0.11932524993E+04  0.25500000920E-02 0. -1.
    10030    2    1    2    0    0  0.00000000000E+00  0.00000000000E+00  0.11681751310E+03  0.25033225117E+04  0.25005953823E+04 0.  0.
        4    1    3    3  502    0  0.11808770446E+04  0.41067652271E+03  0.47584804347E+02  0.12511561562E+04  0.12699999809E+01 0. -1.
       -4    1    3    3    0  502 -0.11808770446E+04 -0.41067652271E+03  0.69232708757E+02  0.12521663554E+04  0.12699999809E+01 0.  1.
</event>
<event>
 5   0  0.1519145E-06  0.2503461E+04  0.7818609E-02  0.8401753E-01
       -1   -1    0    0    0  501  0.00000000000E+00  0.00000000000E+00  0.10592803633E+04  0.10592803633E+04  0.50400001928E-02 0. -1.
        1   -1    0    0  501    0  0.00000000000E+00  0.00000000000E+00 -0.14791455286E+04  0.14791455286E+04  0.50400001928E-02 0.  1.
    10030    2    1    2    0    0  0.00000000000E+00  0.00000000000E+00 -0.41986516534E+03  0.25384258919E+04  0.25034614540E+04 0.  0.
        4    1    3    3  502    0  0.10627878552E+03 -0.58339221715E+03 -0.13276835524E+04  0.14540931496E+04  0.12699999809E+01 0.  1.
       -4    1    3    3    0  502 -0.10627878552E+03  0.58339221715E+03  0.90781838710E+03  0.10843327424E+04  0.12699999809E+01 0. -1.
</event>
<event>
 5   0  0.1287375E-06  0.2501218E+04  0.7818609E-02  0.8402552E-01
       -4   -1    0    0    0  501  0.00000000000E+00  0.00000000000E+00  0.19544460185E+04  0.19544464311E+04  0.12699999809E+01 0. -1.
        4   -1    0    0  501    0  0.00000000000E+00  0.00000000000E+00 -0.80023768502E+03  0.80023869278E+03  0.12699999809E+01 0.  1.
    10030    2    1    2    0    0  0.00000000000E+00  0.00000000000E+00  0.11542083335E+04  0.27546851239E+04  0.25012183541E+04 0.  0.
        5    1    3    3  502    0 -0.14020429835E+03  0.41457091929E+03  0.18673503028E+04  0.19179534759E+04  0.46999998093E+01 0. -1.
       -5    1    3    3    0  502  0.14020429835E+03 -0.41457091929E+03 -0.71314196930E+03  0.83673164801E+03  0.46999998093E+01 0.  1.
</event>
<event>
 5   0  0.1519145E-06  0.2532745E+04  0.7818609E-02  0.8391412E-01
        1   -1    0    0  501    0  0.00000000000E+00  0.00000000000E+00  0.11188811065E+04  0.11188811065E+04  0.50400001928E-02 0.  1.
       -1   -1    0    0    0  501  0.00000000000E+00  0.00000000000E+00 -0.14333064462E+04  0.14333064462E+04  0.50400001928E-02 0. -1.
    10030    2    1    2    0    0  0.00000000000E+00  0.00000000000E+00 -0.31442533977E+03  0.25521875527E+04  0.25327451530E+04 0.  0.
        4    1    3    3  502    0  0.37746298585E+03  0.17920749218E+03  0.10474155977E+04  0.11276855405E+04  0.12699999809E+01 0.  1.
       -4    1    3    3    0  502 -0.37746298585E+03 -0.17920749218E+03 -0.13618409375E+04  0.14245020122E+04  0.12699999809E+01 0. -1.
</event>
<event>
 5   0  0.1541852E-06  0.2503092E+04  0.7818609E-02  0.8401885E-01
       -1   -1    0    0    0  501  0.00000000000E+00  0.00000000000E+00  0.10856735580E+04  0.10856735580E+04  0.50400001928E-02 0. -1.
        1   -1    0    0  501    0  0.00000000000E+00  0.00000000000E+00 -0.14427612882E+04  0.14427612882E+04  0.50400001928E-02 0.  1.
    10030    2    1    2    0    0  0.00000000000E+00  0.00000000000E+00 -0.35708773017E+03  0.25284348462E+04  0.25030923125E+04 0.  0.
        5    1    3    3  502    0 -0.77379966610E+03 -0.57354470970E+03 -0.98577569464E+03  0.13782217773E+04  0.46999998093E+01 0.  1.
       -5    1    3    3    0  502  0.77379966610E+03  0.57354470970E+03  0.62868796448E+03  0.11502130689E+04  0.46999998093E+01 0. -1.
</event>
<event>
 5   0  0.3808293E-06  0.2504108E+04  0.7818609E-02  0.8401524E-01
        2   -1    0    0  501    0  0.00000000000E+00  0.00000000000E+00  0.17684781747E+04  0.17684781747E+04  0.25500000920E-02 0. -1.
       -2   -1    0    0    0  501  0.00000000000E+00  0.00000000000E+00 -0.88643391251E+03  0.88643391252E+03  0.25500000920E-02 0.  1.
    10030    2    1    2    0    0  0.00000000000E+00  0.00000000000E+00  0.88204426223E+03  0.26549120873E+04  0.25041078472E+04 0.  0.
        1    1    3    3  502    0  0.21318939814E+03 -0.87975113644E+03 -0.47607191693E+03  0.10227689141E+04  0.50400001928E-02 0.  1.
       -1    1    3    3    0  502 -0.21318939814E+03  0.87975113644E+03  0.13581161792E+04  0.16321431732E+04  0.50400001928E-02 0. -1.
</event>
<event>
 5   0  0.1541852E-06  0.2511239E+04  0.7818609E-02  0.8398992E-01
       -1   -1    0    0    0  501  0.00000000000E+00  0.00000000000E+00  0.68600778454E+03  0.68600778456E+03  0.50400001928E-02 0. -1.
        1   -1    0    0  501    0  0.00000000000E+00  0.00000000000E+00 -0.22981960323E+04  0.22981960323E+04  0.50400001928E-02 0.  1.
    10030    2    1    2    0    0  0.00000000000E+00  0.00000000000E+00 -0.16121882477E+04  0.29842038168E+04  0.25112390317E+04 0.  0.
        5    1    3    3  502    0 -0.12043824492E+04  0.33119739868E+03 -0.65424000501E+03  0.14100641386E+04  0.46999998093E+01 0.  1.
       -5    1    3    3    0  502  0.12043824492E+04 -0.33119739868E+03 -0.95794824271E+03  0.15741396782E+04  0.46999998093E+01 0. -1.
</event>
<event>
 5   0  0.3808293E-06  0.2501331E+04  0.7818609E-02  0.8402512E-01
        2   -1    0    0  501    0  0.00000000000E+00  0.00000000000E+00  0.19622255055E+04  0.19622255055E+04  0.25500000920E-02 0.  1.
       -2   -1    0    0    0  501  0.00000000000E+00  0.00000000000E+00 -0.79713766416E+03  0.79713766416E+03  0.25500000920E-02 0. -1.
    10030    2    1    2    0    0  0.00000000000E+00  0.00000000000E+00  0.11650878414E+04  0.27593631697E+04  0.25013307307E+04 0.  0.
        1    1    3    3  502    0 -0.11057032350E+04  0.58404940793E+03  0.60647256344E+03  0.13897849924E+04  0.50400001928E-02 0.  1.
       -1    1    3    3    0  502  0.11057032350E+04 -0.58404940793E+03  0.55861527792E+03  0.13695781773E+04  0.50400001928E-02 0. -1.
</event>
<event>
 5   0  0.1574896E-06  0.2498088E+04  0.7818609E-02  0.8403667E-01
       -1   -1    0    0    0  501  0.00000000000E+00  0.00000000000E+00  0.68838175436E+03  0.68838175438E+03  0.50400001928E-02 0.  1.
        1   -1    0    0  501    0  0.00000000000E+00  0.00000000000E+00 -0.22663456102E+04  0.22663456102E+04  0.50400001928E-02 0. -1.
    10030    2    1    2    0    0  0.00000000000E+00  0.00000000000E+00 -0.15779638559E+04  0.29547273646E+04  0.24980880426E+04 0.  0.
        3    1    3    3  502    0  0.79358183804E+02 -0.37567792897E+03 -0.21948075974E+04  0.22281409353E+04  0.10100000352E+00 0. -1.
       -3    1    3    3    0  502 -0.79358183804E+02  0.37567792897E+03  0.61684374153E+03  0.72658642935E+03  0.10100000352E+00 0.  1.
</event>
<event>
 5   0  0.1541852E-06  0.2519920E+04  0.7818609E-02  0.8395923E-01
        1   -1    0    0  501    0  0.00000000000E+00  0.00000000000E+00  0.17083367706E+04  0.17083367706E+04  0.50400001928E-02 0.  1.
       -1   -1    0    0    0  501  0.00000000000E+00  0.00000000000E+00 -0.92926615563E+03  0.92926615565E+03  0.50400001928E-02 0. -1.
    10030    2    1    2    0    0  0.00000000000E+00  0.00000000000E+00  0.77907061500E+03  0.26376029263E+04  0.25199202713E+04 0.  0.
        5    1    3    3  502    0  0.72751064230E+03  0.26111921283E+03  0.14310014187E+04  0.16264200344E+04  0.46999998093E+01 0.  1.
       -5    1    3    3    0  502 -0.72751064230E+03 -0.26111921283E+03 -0.65193080372E+03  0.10111828919E+04  0.46999998093E+01 0. -1.
</event>
<event>
 5   0  0.3971759E-06  0.2500631E+04  0.7818609E-02  0.8402761E-01
        2   -1    0    0  501    0  0.00000000000E+00  0.00000000000E+00  0.23993712125E+04  0.23993712125E+04  0.25500000920E-02 0. -1.
       -2   -1    0    0    0  501  0.00000000000E+00  0.00000000000E+00 -0.65154092141E+03  0.65154092141E+03  0.25500000920E-02 0.  1.
    10030    2    1    2    0    0  0.00000000000E+00  0.00000000000E+00  0.17478302911E+04  0.30509121339E+04  0.25006307449E+04 0.  0.
        4    1    3    3  502    0  0.26789333010E+03  0.51837927871E+03 -0.47522909068E+03  0.75254781538E+03  0.12699999809E+01 0.  1.
       -4    1    3    3    0  502 -0.26789333010E+03 -0.51837927871E+03  0.22230593817E+04  0.22983643185E+04  0.12699999809E+01 0. -1.
</event>
<event>
 5   0  0.3924441E-06  0.2499011E+04  0.7818609E-02  0.8403338E-01
       -2   -1    0    0    0  501  0.00000000000E+00  0.00000000000E+00  0.77021505668E+03  0.77021505668E+03  0.25500000920E-02 0.  1.
        2   -1    0    0  501    0  0.00000000000E+00  0.00000000000E+00 -0.20270488300E+04  0.20270488300E+04  0.25500000920E-02 0. -1.
    10030    2    1    2    0    0  0.00000000000E+00  0.00000000000E+00 -0.12568337733E+04  0.27972638867E+04  0.24990106278E+04 0.  0.
        2    1    3    3  502    0  0.49772392169E+03 -0.16908145091E+03  0.64042572527E+03  0.82853047551E+03  0.25500000920E-02 0.  1.
       -2    1    3    3    0  502 -0.49772392169E+03  0.16908145091E+03 -0.18972594986E+04  0.19687334112E+04  0.25500000920E-02 0. -1.
</event>
<event>
 5   0  0.1519145E-06  0.2499922E+04  0.7818609E-02  0.8403013E-01
        1   -1    0    0  501    0  0.00000000000E+00  0.00000000000E+00  0.15555956508E+04  0.15555956508E+04  0.50400001928E-02 0.  1.
       -1   -1    0    0    0  501  0.00000000000E+00  0.00000000000E+00 -0.10043757783E+04  0.10043757783E+04  0.50400001928E-02 0. -1.
    10030    2    1    2    0    0  0.00000000000E+00  0.00000000000E+00  0.55121987257E+03  0.25599714291E+04  0.24999220728E+04 0.  0.
        4    1    3    3  502    0  0.10901260352E+04 -0.52010264252E+03 -0.53862905400E+02  0.12090427440E+04  0.12699999809E+01 0. -1.
       -4    1    3    3    0  502 -0.10901260352E+04  0.52010264252E+03  0.60508277797E+03  0.13509286852E+04  0.12699999809E+01 0.  1.
</event>
<event>
 5   0  0.3814260E-06  0.2500482E+04  0.7818609E-02  0.8402814E-01
       -2   -1    0    0    0  501  0.00000000000E+00  0.00000000000E+00  0.73113142711E+03  0.73113142712E+03  0.25500000920E-02 0.  1.
        2   -1    0    0  501    0  0.00000000000E+00  0.00000000000E+00 -0.21379230356E+04  0.21379230356E+04  0.25500000920E-02 0. -1.
    10030    2    1    2    0    0  0.00000000000E+00  0.00000000000E+00 -0.14067916085E+04  0.28690544628E+04  0.25004821296E+04 0.  0.
        5    1    3    3  502    0 -0.34737109741E+03  0.24079176614E+03  0.64665792267E+03  0.77255156004E+03  0.46999998093E+01 0.  1.
       -5    1    3    3    0  502  0.34737109741E+03 -0.24079176614E+03 -0.20534495312E+04  0.20965029027E+04  0.46999998093E+01 0. -1.
</event>
<event>
 5   0  0.1553604E-06  0.2506044E+04  0.7818609E-02  0.8400836E-01
       -1   -1    0    0    0  501  0.00000000000E+00  0.00000000000E+00  0.11192440123E+04  0.11192440123E+04  0.50400001928E-02 0.  1.
        1   -1    0    0  501    0  0.00000000000E+00  0.00000000000E+00 -0.14027897852E+04  0.14027897852E+04  0.50400001928E-02 0. -1.
    10030    2    1    2    0    0  0.00000000000E+00  0.00000000000E+00 -0.28354577287E+03  0.25220337975E+04  0.25060439483E+04 0.  0.
        1    1    3    3  502    0  0.46005116485E+03 -0.44826636235E+03 -0.12244972031E+04  0.13827448088E+04  0.50400001928E-02 0. -1.
       -1    1    3    3    0  502 -0.46005116485E+03  0.44826636235E+03  0.94095143019E+03  0.11392889888E+04  0.50400001928E-02 0.  1.
</event>
<event>
 5   0  0.3971759E-06  0.2499513E+04  0.7818609E-02  0.8403159E-01
        2   -1    0    0  501    0  0.00000000000E+00  0.00000000000E+00  0.22191132723E+04  0.22191132723E+04  0.25500000920E-02 0. -1.
       -2   -1    0    0    0  501  0.00000000000E+00  0.00000000000E+00 -0.70383555510E+03  0.70383555511E+03  0.25500000920E-02 0.  1.
    10030    2    1    2    0    0  0.00000000000E+00  0.00000000000E+00  0.15152777172E+04  0.29229488274E+04  0.24995126100E+04 0.  0.
        4    1    3    3  502    0 -0.30266982205E+03  0.11674370026E+04  0.11408246925E+04  0.16601207089E+04  0.12699999809E+01 0. -1.
       -4    1    3    3    0  502  0.30266982205E+03 -0.11674370026E+04  0.37445302469E+03  0.12628281185E+04  0.12699999809E+01 0.  1.
</event>
<event>
 5   0  0.1501747E-06  0.2502047E+04  0.7818609E-02  0.8402257E-01
       -1   -1    0    0    0  501  0.00000000000E+00  0.00000000000E+00  0.26071737500E+04  0.26071737500E+04  0.50400001928E-02 0.  1.
        1   -1    0    0  501    0  0.00000000000E+00  0.00000000000E+00 -0.60028962634E+03  0.60028962636E+03  0.50400001928E-02 0. -1.
    10030    2    1    2    0    0  0.00000000000E+00  0.00000000000E+00  0.20068841237E+04  0.32074633764E+04  0.25020466472E+04 0.  0.
        2    1    3    3  502    0  0.46595443701E+03  0.46982925321E+03  0.23644730269E+04  0.24553178531E+04  0.25500000920E-02 0.  1.
       -2    1    3    3    0  502 -0.46595443701E+03 -0.46982925321E+03 -0.35758890323E+03  0.75214552333E+03  0.25500000920E-02 0. -1.
</event>
<event>
 5   0  0.1501747E-06  0.2501184E+04  0.7818609E-02  0.8402564E-01
        1   -1    0    0  501    0  0.00000000000E+00  0.00000000000E+00  0.12476259828E+04  0.12476259828E+04  0.50400001928E-02 0. -1.
       -1   -1    0    0    0  501  0.00000000000E+00  0.00000000000E+00 -0.12535653444E+04  0.12535653444E+04  0.50400001928E-02 0.  1.
    10030    2    1    2    0    0  0.00000000000E+00  0.00000000000E+00 -0.59393616828E+01  0.25011913272E+04  0.25011842754E+04 0.  0.
        2    1    3    3  502    0  0.95412748085E+02  0.75090307027E+03 -0.99847320649E+03  0.12529595993E+04  0.25500000920E-02 0.  1.
       -2    1    3    3    0  502 -0.95412748085E+02 -0.75090307027E+03  0.99253384481E+03  0.12482317279E+04  0.25500000920E-02 0. -1.
</event>
<event>
 5   0  0.3924441E-06  0.2500053E+04  0.7818609E-02  0.8402967E-01
        2   -1    0    0  501    0  0.00000000000E+00  0.00000000000E+00  0.85494989883E+03  0.85494989883E+03  0.25500000920E-02 0. -1.
       -2   -1    0    0    0  501  0.00000000000E+00  0.00000000000E+00 -0.18276694109E+04  0.18276694109E+04  0.25500000920E-02 0.  1.
    10030    2    1    2    0    0  0.00000000000E+00  0.00000000000E+00 -0.97271951212E+03  0.26826193098E+04  0.25000526218E+04 0.  0.
        2    1    3    3  502    0  0.97700002539E+03 -0.61136321229E+03 -0.10057213826E+04  0.15296305195E+04  0.25500000920E-02 0.  1.
       -2    1    3    3    0  502 -0.97700002539E+03  0.61136321229E+03  0.33001870458E+02  0.11529887902E+04  0.25500000920E-02 0. -1.
</event>
<event>
 5   0  0.1541852E-06  0.2509781E+04  0.7818609E-02  0.8399509E-01
        1   -1    0    0  501    0  0.00000000000E+00  0.00000000000E+00  0.19570673451E+04  0.19570673451E+04  0.50400001928E-02 0. -1.
       -1   -1    0    0    0  501  0.00000000000E+00  0.00000000000E+00 -0.80464779085E+03  0.80464779087E+03  0.50400001928E-02 0.  1.
    10030    2    1    2    0    0  0.00000000000E+00  0.00000000000E+00  0.11524195542E+04  0.27617151359E+04  0.25097807998E+04 0.  0.
        5    1    3    3  502    0 -0.41960117853E+03  0.95983337546E+03  0.13364946784E+04  0.16981122970E+04  0.46999998093E+01 0. -1.
       -5    1    3    3    0  502  0.41960117853E+03 -0.95983337546E+03 -0.18407512423E+03  0.10636028390E+04  0.46999998093E+01 0.  1.
</event>
<event>
 5   0  0.1553604E-06  0.2498693E+04  0.7818609E-02  0.8403451E-01
        1   -1    0    0  501    0  0.00000000000E+00  0.00000000000E+00  0.26299445523E+04  0.26299445523E+04  0.50400001928E-02 0.  1.
       -1   -1    0    0    0  501  0.00000000000E+00  0.00000000000E+00 -0.59349788368E+03  0.59349788370E+03  0.50400001928E-02 0. -1.
    10030    2    1    2    0    0  0.00000000000E+00  0.00000000000E+00  0.20364466687E+04  0.32234424361E+04  0.24986928791E+04 0.  0.
        1    1    3    3  502    0  0.50655255303E+01  0.11867058533E+04  0.51432638048E+03  0.12933785476E+04  0.50400001928E-02 0. -1.
       -1    1    3    3    0  502 -0.50655255303E+01 -0.11867058533E+04  0.15221202882E+04  0.19300638884E+04  0.50400001928E-02 0.  1.
</event>
<event>
 5   0  0.1541852E-06  0.2497020E+04  0.7818609E-02  0.8404048E-01
        1   -1    0    0  501    0  0.00000000000E+00  0.00000000000E+00  0.10275315132E+04  0.10275315132E+04  0.50400001928E-02 0.  1.
       -1   -1    0    0    0  501  0.00000000000E+00  0.00000000000E+00 -0.15170116659E+04  0.15170116660E+04  0.50400001928E-02 0. -1.
    10030    2    1    2    0    0  0.00000000000E+00  0.00000000000E+00 -0.48948015274E+03  0.25445431792E+04  0.24970200581E+04 0.  0.
        5    1    3    3  502    0 -0.61824163681E+03  0.42125181086E+03  0.77382268571E+03  0.10763361225E+04  0.46999998093E+01 0.  1.
       -5    1    3    3    0  502  0.61824163681E+03 -0.42125181086E+03 -0.12633028385E+04  0.14682070567E+04  0.46999998093E+01 0. -1.
</event>
<event>
 5   0  0.3924441E-06  0.2498650E+04  0.7818609E-02  0.8403467E-01
       -2   -1    0    0    0  501  0.00000000000E+00  0.00000000000E+00  0.12701086322E+04  0.12701086322E+04  0.25500000920E-02 0. -1.
        2   -1    0    0  501    0  0.00000000000E+00  0.00000000000E+00 -0.12288811880E+04  0.12288811880E+04  0.25500000920E-02 0.  1.
    10030    2    1    2    0    0  0.00000000000E+00  0.00000000000E+00  0.41227444177E+02  0.24989898202E+04  0.24986497192E+04 0.  0.
        2    1    3    3  502    0 -0.20190933564E+03  0.42378949667E+02 -0.12117265667E+04  0.12291641989E+04  0.25500000920E-02 0.  1.
       -2    1    3    3    0  502  0.20190933564E+03 -0.42378949667E+02  0.12529540109E+04  0.12698256214E+04  0.25500000920E-02 0. -1.
</event>
<event>
 5   0  0.3924441E-06  0.2499650E+04  0.7818609E-02  0.8403110E-01
       -2   -1    0    0    0  501  0.00000000000E+00  0.00000000000E+00  0.19858168220E+04  0.19858168220E+04  0.25500000920E-02 0. -1.
        2   -1    0    0  501    0  0.00000000000E+00  0.00000000000E+00 -0.78660952229E+03  0.78660952230E+03  0.25500000920E-02 0.  1.
    10030    2    1    2    0    0  0.00000000000E+00  0.00000000000E+00  0.11992072997E+04  0.27724263443E+04  0.24996499128E+04 0.  0.
        2    1    3    3  502    0 -0.22832522039E+03 -0.56007948309E+03  0.18126856772E+04  0.19109293022E+04  0.25500000920E-02 0. -1.
       -2    1    3    3    0  502  0.22832522039E+03  0.56007948309E+03 -0.61347837758E+03  0.86149704202E+03  0.25500000920E-02 0.  1.
</event>
<event>
 5   0  0.1553604E-06  0.2501164E+04  0.7818609E-02  0.8402571E-01
       -1   -1    0    0    0  501  0.00000000000E+00  0.00000000000E+00  0.12659413427E+04  0.12659413427E+04  0.50400001928E-02 0.  1.
        1   -1    0    0  501    0  0.00000000000E+00  0.00000000000E+00 -0.12354091887E+04  0.12354091887E+04  0.50400001928E-02 0. -1.
    10030    2    1    2    0    0  0.00000000000E+00  0.00000000000E+00  0.30532154031E+02  0.25013505315E+04  0.25011641827E+04 0.  0.
        1    1    3    3  502    0  0.66834543952E+03 -0.10041785236E+04 -0.31475158974E+03  0.12466469818E+04  0.50400001928E-02 0. -1.
       -1    1    3    3    0  502 -0.66834543952E+03  0.10041785236E+04  0.34528374377E+03  0.12547035497E+04  0.50400001928E-02 0.  1.
</event>
<event>
 5   0  0.3713394E-06  0.2499776E+04  0.7818609E-02  0.8403065E-01
       -2   -1    0    0    0  501  0.00000000000E+00  0.00000000000E+00  0.14935152238E+04  0.14935152238E+04  0.25500000920E-02 0.  1.
        2   -1    0    0  501    0  0.00000000000E+00  0.00000000000E+00 -0.10460017038E+04  0.10460017038E+04  0.25500000920E-02 0. -1.
    10030    2    1    2    0    0  0.00000000000E+00  0.00000000000E+00  0.44751352002E+03  0.25395169276E+04  0.24997755650E+04 0.  0.
        3    1    3    3  502    0  0.12036861514E+04 -0.33534939555E+03  0.25423184263E+03  0.12751287810E+04  0.10100000352E+00 0.  1.
       -3    1    3    3    0  502 -0.12036861514E+04  0.33534939555E+03  0.19328167739E+03  0.12643881466E+04  0.10100000352E+00 0. -1.
</event>
<event>
 5   0  0.3713394E-06  0.2499761E+04  0.7818609E-02  0.8403071E-01
        2   -1    0    0  501    0  0.00000000000E+00  0.00000000000E+00  0.26890105139E+04  0.26890105139E+04  0.25500000920E-02 0.  1.
       -2   -1    0    0    0  501  0.00000000000E+00  0.00000000000E+00 -0.58095760581E+03  0.58095760582E+03  0.25500000920E-02 0. -1.
    10030    2    1    2    0    0  0.00000000000E+00  0.00000000000E+00  0.21080529081E+04  0.32699681197E+04  0.24997608767E+04 0.  0.
        3    1    3    3  502    0 -0.31888335216E+03 -0.92776010564E+03  0.20670965194E+04  0.22880807321E+04  0.10100000352E+00 0.  1.
       -3    1    3    3    0  502  0.31888335216E+03  0.92776010564E+03  0.40956388647E+02  0.98188738758E+03  0.10100000352E+00 0. -1.
</event>
<event>
 5   0  0.3971759E-06  0.2503952E+04  0.7818609E-02  0.8401579E-01
        2   -1    0    0  501    0  0.00000000000E+00  0.00000000000E+00  0.11968367328E+04  0.11968367328E+04  0.25500000920E-02 0. -1.
       -2   -1    0    0    0  501  0.00000000000E+00  0.00000000000E+00 -0.13096553169E+04  0.13096553169E+04  0.25500000920E-02 0.  1.
    10030    2    1    2    0    0  0.00000000000E+00  0.00000000000E+00 -0.11281858408E+03  0.25064920496E+04  0.25039517491E+04 0.  0.
        4    1    3    3  502    0 -0.77339045257E+03 -0.85816196942E+03  0.42664345321E+03  0.12315035554E+04  0.12699999809E+01 0. -1.
       -4    1    3    3    0  502  0.77339045257E+03  0.85816196942E+03 -0.53946203728E+03  0.12749884942E+04  0.12699999809E+01 0.  1.
</event>
<event>
 5   0  0.1519145E-06  0.2504575E+04  0.7818609E-02  0.8401358E-01
        1   -1    0    0  501    0  0.00000000000E+00  0.00000000000E+00  0.50087501001E+03  0.50087501004E+03  0.50400001928E-02 0. -1.
       -1   -1    0    0    0  501  0.00000000000E+00  0.00000000000E+00 -0.31309685830E+04  0.31309685830E+04  0.50400001928E-02 0.  1.
    10030    2    1    2    0    0  0.00000000000E+00  0.00000000000E+00 -0.26300935730E+04  0.36318435930E+04  0.25045749503E+04 0.  0.
        4    1    3    3  502    0  0.35713102380E+03 -0.10876613693E+03  0.41830364722E+03  0.56067120033E+03  0.12699999809E+01 0. -1.
       -4    1    3    3    0  502 -0.35713102380E+03  0.10876613693E+03 -0.30483972202E+04  0.30711723927E+04  0.12699999809E+01 0.  1.
</event>
<event>
 5   0  0.1519145E-06  0.2500058E+04  0.7818609E-02  0.8402965E-01
       -1   -1    0    0    0  501  0.00000000000E+00  0.00000000000E+00  0.75618525071E+03  0.75618525073E+03  0.50400001928E-02 0.  1.
        1   -1    0    0  501    0  0.00000000000E+00  0.00000000000E+00 -0.20663886768E+04  0.20663886768E+04  0.50400001928E-02 0. -1.
    10030    2    1    2    0    0  0.00000000000E+00  0.00000000000E+00 -0.13102034261E+04  0.28225739276E+04  0.25000581111E+04 0.  0.
        4    1    3    3  502    0 -0.31553620149E+02 -0.72792157655E+03  0.49165980431E+03  0.87897464618E+03  0.12699999809E+01 0.  1.
       -4    1    3    3    0  502  0.31553620149E+02  0.72792157655E+03 -0.18018632304E+04  0.19435992814E+04  0.12699999809E+01 0. -1.
</event>
<event>
 5   0  0.3814260E-06  0.2497486E+04  0.7818609E-02  0.8403882E-01
       -2   -1    0    0    0  501  0.00000000000E+00  0.00000000000E+00  0.15915801320E+04  0.15915801320E+04  0.25500000920E-02 0.  1.
        2   -1    0    0  501    0  0.00000000000E+00  0.00000000000E+00 -0.97975540096E+03  0.97975540097E+03  0.25500000920E-02 0. -1.
    10030    2    1    2    0    0  0.00000000000E+00  0.00000000000E+00  0.61182473103E+03  0.25713355330E+04  0.24974861204E+04 0.  0.
        5    1    3    3  502    0  0.64403743528E+03  0.65460003355E+03 -0.56530768861E+03  0.10783692757E+04  0.46999998093E+01 0. -1.
       -5    1    3    3    0  502 -0.64403743528E+03 -0.65460003355E+03  0.11771324196E+04  0.14929662573E+04  0.46999998093E+01 0.  1.
</event>
<event>
 5   0  0.1519145E-06  0.2499936E+04  0.7818609E-02  0.8403008E-01
       -1   -1    0    0    0  501  0.00000000000E+00  0.00000000000E+00  0.87971435437E+03  0.87971435438E+03  0.50400001928E-02 0.  1.
        1   -1    0    0  501    0  0.00000000000E+00  0.00000000000E+00 -0.17760541174E+04  0.17760541174E+04  0.50400001928E-02 0. -1.
    10030    2    1    2    0    0  0.00000000000E+00  0.00000000000E+00 -0.89633976300E+03  0.26557684718E+04  0.24999362402E+04 0.  0.
        4    1    3    3  502    0 -0.63643020586E+03 -0.27929630746E+01  0.69470033831E+03  0.94215783207E+03  0.12699999809E+01 0.  1.
       -4    1    3    3    0  502  0.63643020586E+03  0.27929630746E+01 -0.15910401013E+04  0.17136106397E+04  0.12699999809E+01 0. -1.
</event>
<event>
 5   0  0.3713394E-06  0.2499814E+04  0.7818609E-02  0.8403052E-01
       -2   -1    0    0    0  501  0.00000000000E+00  0.00000000000E+00  0.16440637358E+04  0.16440637358E+04  0.25500000920E-02 0.  1.
        2   -1    0    0  501    0  0.00000000000E+00  0.00000000000E+00 -0.95024771293E+03  0.95024771293E+03  0.25500000920E-02 0. -1.
    10030    2    1    2    0    0  0.00000000000E+00  0.00000000000E+00  0.69381602292E+03  0.25943114488E+04  0.24998142370E+04 0.  0.
        3    1    3    3  502    0  0.10330399860E+04  0.48012105523E+03  0.88072555646E+03  0.14399185242E+04  0.10100000352E+00 0.  1.
       -3    1    3    3    0  502 -0.10330399860E+04 -0.48012105523E+03 -0.18690953354E+03  0.11543929246E+04  0.10100000352E+00 0. -1.
</event>
<event>
 5   0  0.3814260E-06  0.2499494E+04  0.7818609E-02  0.8403166E-01
       -2   -1    0    0    0  501  0.00000000000E+00  0.00000000000E+00  0.14883914562E+04  0.14883914562E+04  0.25500000920E-02 0.  1.
        2   -1    0    0  501    0  0.00000000000E+00  0.00000000000E+00 -0.10493660815E+04  0.10493660815E+04  0.25500000920E-02 0. -1.
    10030    2    1    2    0    0  0.00000000000E+00  0.00000000000E+00  0.43902537472E+03  0.25377575377E+04  0.24994939569E+04 0.  0.
        5    1    3    3  502    0  0.40580308992E+03 -0.65688899049E+03  0.12172392487E+04  0.14414828380E+04  0.46999998093E+01 0.  1.
       -5    1    3    3    0  502 -0.40580308992E+03  0.65688899049E+03 -0.77821387399E+03  0.10962746997E+04  0.46999998093E+01 0. -1.
</event>
<event>
 5   0  0.1519145E-06  0.2502533E+04  0.7818609E-02  0.8402084E-01
       -1   -1    0    0    0  501  0.00000000000E+00  0.00000000000E+00  0.77294014883E+03  0.77294014885E+03  0.50400001928E-02 0. -1.
        1   -1    0    0  501    0  0.00000000000E+00  0.00000000000E+00 -0.20256002658E+04  0.20256002658E+04  0.50400001928E-02 0.  1.
    10030    2    1    2    0    0  0.00000000000E+00  0.00000000000E+00 -0.12526601170E+04  0.27985404146E+04  0.25025329336E+04 0.  0.
        4    1    3    3  502    0  0.22279821384E+03  0.10488580058E+04  0.94875011150E+02  0.10764502037E+04  0.12699999809E+01 0. -1.
       -4    1    3    3    0  502 -0.22279821384E+03 -0.10488580058E+04 -0.13475351281E+04  0.17220902110E+04  0.12699999809E+01 0.  1.
</event>
<event>
 5   0  0.1574896E-06  0.2519996E+04  0.7818609E-02  0.8395896E-01
        1   -1    0    0  501    0  0.00000000000E+00  0.00000000000E+00  0.11174219881E+04  0.11174219881E+04  0.50400001928E-02 0. -1.
       -1   -1    0    0    0  501  0.00000000000E+00  0.00000000000E+00 -0.14207652533E+04  0.14207652533E+04  0.50400001928E-02 0.  1.
    10030    2    1    2    0    0  0.00000000000E+00  0.00000000000E+00 -0.30334326522E+03  0.25381872414E+04  0.25199955031E+04 0.  0.
        3    1    3    3  502    0  0.10359522435E+04 -0.43206676043E+02  0.56940883174E+03  0.11829160137E+04  0.10100000352E+00 0. -1.
       -3    1    3    3    0  502 -0.10359522435E+04  0.43206676043E+02 -0.87275209696E+03  0.13552712277E+04  0.10100000352E+00 0.  1.
</event>
<event>
 5   0  0.1519145E-06  0.2472778E+04  0.7818609E-02  0.8412748E-01
        1   -1    0    0  501    0  0.00000000000E+00  0.00000000000E+00  0.16977992672E+04  0.16977992672E+04  0.50400001928E-02 0. -1.
       -1   -1    0    0    0  501  0.00000000000E+00  0.00000000000E+00 -0.90037601957E+03  0.90037601959E+03  0.50400001928E-02 0.  1.
    10030    2    1    2    0    0  0.00000000000E+00  0.00000000000E+00  0.79742324762E+03  0.25981752868E+04  0.24727779894E+04 0.  0.
        4    1    3    3  502    0 -0.39624788813E+03 -0.11686160344E+04  0.31745755396E+03  0.12741494167E+04  0.12699999809E+01 0.  1.
       -4    1    3    3    0  502  0.39624788813E+03  0.11686160344E+04  0.47996569366E+03  0.13240258701E+04  0.12699999809E+01 0. -1.
</event>
<event>
 5   0  0.3814260E-06  0.2520318E+04  0.7818609E-02  0.8395783E-01
       -2   -1    0    0    0  501  0.00000000000E+00  0.00000000000E+00  0.12461206754E+04  0.12461206754E+04  0.25500000920E-02 0. -1.
        2   -1    0    0  501    0  0.00000000000E+00  0.00000000000E+00 -0.12743554019E+04  0.12743554019E+04  0.25500000920E-02 0.  1.
    10030    2    1    2    0    0  0.00000000000E+00  0.00000000000E+00 -0.28234726538E+02  0.25204760774E+04  0.25203179277E+04 0.  0.
        5    1    3    3  502    0 -0.56869830315E+03  0.11428182513E+03 -0.11328923614E+04  0.12727707131E+04  0.46999998093E+01 0.  1.
       -5    1    3    3    0  502  0.56869830315E+03 -0.11428182513E+03  0.11046576349E+04  0.12477053642E+04  0.46999998093E+01 0. -1.
</event>
<event>
 5   0  0.1519145E-06  0.2492578E+04  0.7818609E-02  0.8405634E-01
       -1   -1    0    0    0  501  0.00000000000E+00  0.00000000000E+00  0.16595425905E+04  0.16595425905E+04  0.50400001928E-02 0.  1.
        1   -1    0    0  501    0  0.00000000000E+00  0.00000000000E+00 -0.93594250566E+03  0.93594250568E+03  0.50400001928E-02 0. -1.
    10030    2    1    2    0    0  0.00000000000E+00  0.00000000000E+00  0.72360008480E+03  0.25954850962E+04  0.24925781435E+04 0.  0.
        4    1    3    3  502    0 -0.22996450846E+03  0.99251091342E+03  0.11092610724E+04  0.15061285895E+04  0.12699999809E+01 0.  1.
       -4    1    3    3    0  502  0.22996450846E+03 -0.99251091342E+03 -0.38566098758E+03  0.10893565067E+04  0.12699999809E+01 0. -1.
</event>
<event>
 5   0  0.1501747E-06  0.2499379E+04  0.7818609E-02  0.8403207E-01
       -1   -1    0    0    0  501  0.00000000000E+00  0.00000000000E+00  0.13752413199E+04  0.13752413200E+04  0.50400001928E-02 0. -1.
        1   -1    0    0  501    0  0.00000000000E+00  0.00000000000E+00 -0.11356000623E+04  0.11356000623E+04  0.50400001928E-02 0.  1.
    10030    2    1    2    0    0  0.00000000000E+00  0.00000000000E+00  0.23964125764E+03  0.25108413823E+04  0.24993792258E+04 0.  0.
        2    1    3    3  502    0 -0.19864184648E+03  0.96369503245E+03  0.89378059132E+03  0.13292894509E+04  0.25500000920E-02 0. -1.
       -2    1    3    3    0  502  0.19864184648E+03 -0.96369503245E+03 -0.65413933368E+03  0.11815519314E+04  0.25500000920E-02 0.  1.
</event>
<event>
 5   0  0.1541852E-06  0.2501679E+04  0.7818609E-02  0.8402388E-01
        1   -1    0    0  501    0  0.00000000000E+00  0.00000000000E+00  0.74448879817E+03  0.74448879818E+03  0.50400001928E-02 0. -1.
       -1   -1    0    0    0  501  0.00000000000E+00  0.00000000000E+00 -0.21015750822E+04  0.21015750822E+04  0.50400001928E-02 0.  1.
    10030    2    1    2    0    0  0.00000000000E+00  0.00000000000E+00 -0.13570862840E+04  0.28460638804E+04  0.25016787221E+04 0.  0.
        5    1    3    3  502    0  0.75143975656E+03 -0.72274222642E+03 -0.14647315183E+04  0.17979094928E+04  0.46999998093E+01 0.  1.
       -5    1    3    3    0  502 -0.75143975656E+03  0.72274222642E+03  0.10764523435E+03  0.10481543875E+04  0.46999998093E+01 0. -1.
</event>
<event>
 5   0  0.3924441E-06  0.2501778E+04  0.7818609E-02  0.8402353E-01
       -2   -1    0    0    0  501  0.00000000000E+00  0.00000000000E+00  0.12080181732E+04  0.12080181732E+04  0.25500000920E-02 0.  1.
        2   -1    0    0  501    0  0.00000000000E+00  0.00000000000E+00 -0.12952808550E+04  0.12952808550E+04  0.25500000920E-02 0. -1.
    10030    2    1    2    0    0  0.00000000000E+00  0.00000000000E+00 -0.87262681787E+02  0.25032990282E+04  0.25017776178E+04 0.  0.
        2    1    3    3  502    0 -0.84526782904E+03 -0.65584360367E+03 -0.69218773933E+03  0.12742575885E+04  0.25500000920E-02 0. -1.
       -2    1    3    3    0  502  0.84526782904E+03  0.65584360367E+03  0.60492505754E+03  0.12290414397E+04  0.25500000920E-02 0.  1.
</event>
<event>
 5   0  0.3971759E-06  0.2512338E+04  0.7818609E-02  0.8398603E-01
        2   -1    0    0  501    0  0.00000000000E+00  0.00000000000E+00  0.17229084022E+04  0.17229084023E+04  0.25500000920E-02 0. -1.
       -2   -1    0    0    0  501  0.00000000000E+00  0.00000000000E+00 -0.91587060249E+03  0.91587060250E+03  0.25500000920E-02 0.  1.
    10030    2    1    2    0    0  0.00000000000E+00  0.00000000000E+00  0.80703779976E+03  0.26387790047E+04  0.25123384775E+04 0.  0.
        4    1    3    3  502    0 -0.45545303493E+03 -0.39486479857E+02 -0.82539288383E+03  0.94354208952E+03  0.12699999809E+01 0.  1.
       -4    1    3    3    0  502  0.45545303493E+03  0.39486479857E+02  0.16324306836E+04  0.16952369152E+04  0.12699999809E+01 0. -1.
</event>
<event>
 5   0  0.3713394E-06  0.2505247E+04  0.7818609E-02  0.8401118E-01
       -2   -1    0    0    0  501  0.00000000000E+00  0.00000000000E+00  0.14534762640E+04  0.14534762640E+04  0.25500000920E-02 0. -1.
        2   -1    0    0  501    0  0.00000000000E+00  0.00000000000E+00 -0.10795265637E+04  0.10795265637E+04  0.25500000920E-02 0.  1.
    10030    2    1    2    0    0  0.00000000000E+00  0.00000000000E+00  0.37394970035E+03  0.25330028277E+04  0.25052474821E+04 0.  0.
        3    1    3    3  502    0  0.91756631116E+03  0.85078979516E+03  0.24501302871E+03  0.12750696473E+04  0.10100000352E+00 0. -1.
       -3    1    3    3    0  502 -0.91756631116E+03 -0.85078979516E+03  0.12893667164E+03  0.12579331804E+04  0.10100000352E+00 0.  1.
</event>
<event>
 5   0  0.1553604E-06  0.2497945E+04  0.7818609E-02  0.8403718E-01
       -1   -1    0    0    0  501  0.00000000000E+00  0.00000000000E+00  0.13404950570E+04  0.13404950570E+04  0.50400001928E-02 0. -1.
        1   -1    0    0  501    0  0.00000000000E+00  0.00000000000E+00 -0.11636989858E+04  0.11636989858E+04  0.50400001928E-02 0.  1.
    10030    2    1    2    0    0  0.00000000000E+00  0.00000000000E+00  0.17679607115E+03  0.25041940428E+04  0.24979453463E+04 0.  0.
        1    1    3    3  502    0  0.90015360232E+03 -0.41082528449E+03  0.85245865350E+03  0.13060396924E+04  0.50400001928E-02 0. -1.
       -1    1    3    3    0  502 -0.90015360232E+03  0.41082528449E+03 -0.67566258235E+03  0.11981543504E+04  0.50400001928E-02 0.  1.
</event>
<event>
 5   0  0.1574896E-06  0.2486231E+04  0.7818609E-02  0.8407907E-01
        1   -1    0    0  501    0  0.00000000000E+00  0.00000000000E+00  0.14455241720E+04  0.14455241720E+04  0.50400001928E-02 0.  1.
       -1   -1    0    0    0  501  0.00000000000E+00  0.00000000000E+00 -0.10690491987E+04  0.10690491987E+04  0.50400001928E-02 0. -1.
    10030    2    1    2    0    0  0.00000000000E+00  0.00000000000E+00  0.37647497328E+03  0.25145733707E+04  0.24862312505E+04 0.  0.
        3    1    3    3  502    0 -0.39972485986E+03 -0.10652818689E+04  0.69467611976E+03  0.13331092774E+04  0.10100000352E+00 0.  1.
       -3    1    3    3    0  502  0.39972485986E+03  0.10652818689E+04 -0.31820114648E+03  0.11814640933E+04  0.10100000352E+00 0. -1.
</event>
<event>
 5   0  0.1541852E-06  0.2468983E+04  0.7818609E-02  0.8414119E-01
       -1   -1    0    0    0  501  0.00000000000E+00  0.00000000000E+00  0.75564988774E+03  0.75564988775E+03  0.50400001928E-02 0. -1.
        1   -1    0    0  501    0  0.00000000000E+00  0.00000000000E+00 -0.20167667840E+04  0.20167667840E+04  0.50400001928E-02 0.  1.
    10030    2    1    2    0    0  0.00000000000E+00  0.00000000000E+00 -0.12611168963E+04  0.27724166718E+04  0.24689832676E+04 0.  0.
        5    1    3    3  502    0  0.68064608928E+03 -0.12299574071E+03  0.51762366094E+03  0.86392325785E+03  0.46999998093E+01 0. -1.
       -5    1    3    3    0  502 -0.68064608928E+03  0.12299574071E+03 -0.17787405572E+04  0.19084934139E+04  0.46999998093E+01 0.  1.
</event>
<event>
 5   0  0.1541852E-06  0.2499218E+04  0.7818609E-02  0.8403264E-01
        1   -1    0    0  501    0  0.00000000000E+00  0.00000000000E+00  0.14245444526E+04  0.14245444526E+04  0.50400001928E-02 0.  1.
       -1   -1    0    0    0  501  0.00000000000E+00  0.00000000000E+00 -0.10961558403E+04  0.10961558404E+04  0.50400001928E-02 0. -1.
    10030    2    1    2    0    0  0.00000000000E+00  0.00000000000E+00  0.32838861227E+03  0.25207002930E+04  0.24992180550E+04 0.  0.
        5    1    3    3  502    0  0.87766120584E+03  0.54410635087E+03  0.87391867256E+03  0.13528107220E+04  0.46999998093E+01 0.  1.
       -5    1    3    3    0  502 -0.87766120584E+03 -0.54410635087E+03 -0.54553006030E+03  0.11678895710E+04  0.46999998093E+01 0. -1.
</event>
<event>
 5   0  0.3924441E-06  0.2498398E+04  0.7818609E-02  0.8403557E-01
       -2   -1    0    0    0  501  0.00000000000E+00  0.00000000000E+00  0.76418218937E+03  0.76418218938E+03  0.25500000920E-02 0.  1.
        2   -1    0    0  501    0  0.00000000000E+00  0.00000000000E+00 -0.20420495738E+04  0.20420495738E+04  0.25500000920E-02 0. -1.
    10030    2    1    2    0    0  0.00000000000E+00  0.00000000000E+00 -0.12778673844E+04  0.28062317631E+04  0.24983978179E+04 0.  0.
        2    1    3    3  502    0 -0.51380748586E+03  0.80881357457E+03 -0.15391311789E+04  0.18130367665E+04  0.25500000920E-02 0. -1.
       -2    1    3    3    0  502  0.51380748586E+03 -0.80881357457E+03  0.26126379453E+03  0.99319499660E+03  0.25500000920E-02 0.  1.
</event>
<event>
 5   0  0.3924441E-06  0.2495697E+04  0.7818609E-02  0.8404520E-01
        2   -1    0    0  501    0  0.00000000000E+00  0.00000000000E+00  0.21605020861E+04  0.21605020861E+04  0.25500000920E-02 0. -1.
       -2   -1    0    0    0  501  0.00000000000E+00  0.00000000000E+00 -0.72072399725E+03  0.72072399725E+03  0.25500000920E-02 0.  1.
    10030    2    1    2    0    0  0.00000000000E+00  0.00000000000E+00  0.14397780888E+04  0.28812260833E+04  0.24956968562E+04 0.  0.
        2    1    3    3  502    0  0.85319032567E+03 -0.52125380700E+03 -0.14210181097E+03  0.10098674110E+04  0.25500000920E-02 0.  1.
       -2    1    3    3    0  502 -0.85319032567E+03  0.52125380700E+03  0.15818798998E+04  0.18713586723E+04  0.25500000920E-02 0. -1.
</event>
<event>
 5   0  0.1574896E-06  0.2496163E+04  0.7818609E-02  0.8404354E-01
        1   -1    0    0  501    0  0.00000000000E+00  0.00000000000E+00  0.27296227108E+04  0.27296227108E+04  0.50400001928E-02 0. -1.
       -1   -1    0    0    0  501  0.00000000000E+00  0.00000000000E+00 -0.57066771468E+03  0.57066771470E+03  0.50400001928E-02 0.  1.
    10030    2    1    2    0    0  0.00000000000E+00  0.00000000000E+00  0.21589549961E+04  0.33002904255E+04  0.24961630991E+04 0.  0.
        3    1    3    3  502    0  0.88450575262E+03 -0.52019633155E+03  0.14014659649E+03  0.10356619760E+04  0.10100000352E+00 0. -1.
       -3    1    3    3    0  502 -0.88450575262E+03  0.52019633155E+03  0.20188083996E+04  0.22646284495E+04  0.10100000352E+00 0.  1.
</event>
<event>
 5   0  0.1553604E-06  0.2500852E+04  0.7818609E-02  0.8402682E-01
        1   -1    0    0  501    0  0.00000000000E+00  0.00000000000E+00  0.11056734652E+04  0.11056734652E+04  0.50400001928E-02 0. -1.
       -1   -1    0    0    0  501  0.00000000000E+00  0.00000000000E+00 -0.14141296487E+04  0.14141296488E+04  0.50400001928E-02 0.  1.
    10030    2    1    2    0    0  0.00000000000E+00  0.00000000000E+00 -0.30845618355E+03  0.25198031140E+04  0.25008523579E+04 0.  0.
        1    1    3    3  502    0 -0.10324257121E+04 -0.65454875882E+03 -0.41933536591E+03  0.12923540838E+04  0.50400001928E-02 0.  1.
       -1    1    3    3    0  502  0.10324257121E+04  0.65454875882E+03  0.11087918236E+03  0.12274490302E+04  0.50400001928E-02 0. -1.
</event>
<event>
 5   0  0.3713394E-06  0.2494399E+04  0.7818609E-02  0.8404984E-01
       -2   -1    0    0    0  501  0.00000000000E+00  0.00000000000E+00  0.73003800029E+03  0.73003800030E+03  0.25500000920E-02 0.  1.
        2   -1    0    0  501    0  0.00000000000E+00  0.00000000000E+00 -0.21307192701E+04  0.21307192701E+04  0.25500000920E-02 0. -1.
    10030    2    1    2    0    0  0.00000000000E+00  0.00000000000E+00 -0.14006812698E+04  0.28607572704E+04  0.24943985529E+04 0.  0.
        3    1    3    3  502    0  0.37314879051E+03  0.13560002729E+03 -0.20563100646E+04  0.20942871053E+04  0.10100000352E+00 0. -1.
       -3    1    3    3    0  502 -0.37314879051E+03 -0.13560002729E+03  0.65562879481E+03  0.76647016513E+03  0.10100000352E+00 0.  1.
</event>
<event>
 5   0  0.3814260E-06  0.2500854E+04  0.7818609E-02  0.8402681E-01
        2   -1    0    0  501    0  0.00000000000E+00  0.00000000000E+00  0.90330234291E+03  0.90330234291E+03  0.25500000920E-02 0.  1.
       -2   -1    0    0    0  501  0.00000000000E+00  0.00000000000E+00 -0.17309455832E+04  0.17309455832E+04  0.25500000920E-02 0. -1.
    10030    2    1    2    0    0  0.00000000000E+00  0.00000000000E+00 -0.82764324027E+03  0.26342479261E+04  0.25008536149E+04 0.  0.
        5    1    3    3  502    0  0.15598030219E+03 -0.50601347864E+03  0.77936872924E+03  0.94224052203E+03  0.46999998093E+01 0.  1.
       -5    1    3    3    0  502 -0.15598030219E+03  0.50601347864E+03 -0.16070119695E+04  0.16920074041E+04  0.46999998093E+01 0. -1.
</event>
<event>
 5   0  0.1501747E-06  0.2494029E+04  0.7818609E-02  0.8405116E-01
        1   -1    0    0  501    0  0.00000000000E+00  0.00000000000E+00  0.18019189757E+04  0.18019189757E+04  0.50400001928E-02 0. -1.
       -1   -1    0    0    0  501  0.00000000000E+00  0.00000000000E+00 -0.86299424978E+03  0.86299424979E+03  0.50400001928E-02 0.  1.
    10030    2    1    2    0    0  0.00000000000E+00  0.00000000000E+00  0.93892472594E+03  0.26649132255E+04  0.24940294422E+04 0.  0.
        2    1    3    3  502    0  0.68808303446E+02  0.94088150805E+03 -0.40192180223E+03  0.10254431871E+04  0.25500000920E-02 0.  1.
       -2    1    3    3    0  502 -0.68808303446E+02 -0.94088150805E+03  0.13408465282E+04  0.16394700384E+04  0.25500000920E-02 0. -1.
</event>
<event>
 5   0  0.1501747E-06  0.2500121E+04  0.7818609E-02  0.8402943E-01
       -1   -1    0    0    0  501  0.00000000000E+00  0.00000000000E+00  0.12403235930E+04  0.12403235930E+04  0.50400001928E-02 0. -1.
        1   -1    0    0  501    0  0.00000000000E+00  0.00000000000E+00 -0.12598735165E+04  0.12598735165E+04  0.50400001928E-02 0.  1.
    10030    2    1    2    0    0  0.00000000000E+00  0.00000000000E+00 -0.19549923500E+02  0.25001971095E+04  0.25001206744E+04 0.  0.
        2    1    3    3  502    0 -0.80610465153E+03  0.44174309884E+03  0.83742811728E+03  0.12434739749E+04  0.25500000920E-02 0. -1.
       -2    1    3    3    0  502  0.80610465153E+03 -0.44174309884E+03 -0.85697804078E+03  0.12567231346E+04  0.25500000920E-02 0.  1.
</event>
<event>
 5   0  0.1574896E-06  0.2470724E+04  0.7818609E-02  0.8413490E-01
        1   -1    0    0  501    0  0.00000000000E+00  0.00000000000E+00  0.11512398048E+04  0.11512398048E+04  0.50400001928E-02 0.  1.
       -1   -1    0    0    0  501  0.00000000000E+00  0.00000000000E+00 -0.13256306256E+04  0.13256306256E+04  0.50400001928E-02 0. -1.
    10030    2    1    2    0    0  0.00000000000E+00  0.00000000000E+00 -0.17439082074E+03  0.24768704304E+04  0.24707235723E+04 0.  0.
        3    1    3    3  502    0  0.42124210096E+03  0.55795075952E+03  0.93384957837E+03  0.11665457569E+04  0.10100000352E+00 0.  1.
       -3    1    3    3    0  502 -0.42124210096E+03 -0.55795075952E+03 -0.11082403991E+04  0.13103246735E+04  0.10100000352E+00 0. -1.
</event>
<event>
 5   0  0.3713394E-06  0.2498014E+04  0.7818609E-02  0.8403694E-01
       -2   -1    0    0    0  501  0.00000000000E+00  0.00000000000E+00  0.68483667783E+03  0.68483667783E+03  0.25500000920E-02 0.  1.
        2   -1    0    0  501    0  0.00000000000E+00  0.00000000000E+00 -0.22779414773E+04  0.22779414773E+04  0.25500000920E-02 0. -1.
    10030    2    1    2    0    0  0.00000000000E+00  0.00000000000E+00 -0.15931047995E+04  0.29627781552E+04  0.24980135097E+04 0.  0.
        3    1    3    3  502    0  0.41966149341E+03  0.10466389946E+04 -0.15955332466E+03  0.11388705930E+04  0.10100000352E+00 0.  1.
       -3    1    3    3    0  502 -0.41966149341E+03 -0.10466389946E+04 -0.14335514748E+04  0.18239075621E+04  0.10100000352E+00 0. -1.
</event>
<event>
 5   0  0.1541852E-06  0.2495458E+04  0.7818609E-02  0.8404605E-01
       -1   -1    0    0    0  501  0.00000000000E+00  0.00000000000E+00  0.15309496687E+04  0.15309496687E+04  0.50400001928E-02 0. -1.
        1   -1    0    0  501    0  0.00000000000E+00  0.00000000000E+00 -0.10169034909E+04  0.10169034909E+04  0.50400001928E-02 0.  1.
    10030    2    1    2    0    0  0.00000000000E+00  0.00000000000E+00  0.51404617781E+03  0.25478531596E+04  0.24954583247E+04 0.  0.
        5    1    3    3  502    0 -0.25597374846E+03 -0.25915752850E+03  0.14754443994E+04  0.15197511146E+04  0.46999998093E+01 0. -1.
       -5    1    3    3    0  502  0.25597374846E+03  0.25915752850E+03 -0.96139822163E+03  0.10281020450E+04  0.46999998093E+01 0.  1.
</event>
<event>
 5   0  0.1519145E-06  0.2499891E+04  0.7818609E-02  0.8403024E-01
        1   -1    0    0  501    0  0.00000000000E+00  0.00000000000E+00  0.12362027132E+04  0.12362027132E+04  0.50400001928E-02 0.  1.
       -1   -1    0    0    0  501  0.00000000000E+00  0.00000000000E+00 -0.12638409454E+04  0.12638409454E+04  0.50400001928E-02 0. -1.
    10030    2    1    2    0    0  0.00000000000E+00  0.00000000000E+00 -0.27638232219E+02  0.25000436586E+04  0.24998908822E+04 0.  0.
        4    1    3    3  502    0  0.57841508007E+02  0.74853348101E+03 -0.10132369735E+04  0.12610704935E+04  0.12699999809E+01 0. -1.
       -4    1    3    3    0  502 -0.57841508007E+02 -0.74853348101E+03  0.98559874125E+03  0.12389731651E+04  0.12699999809E+01 0.  1.
</event>
<event>
 5   0  0.3713394E-06  0.2502777E+04  0.7818609E-02  0.8401997E-01
        2   -1    0    0  501    0  0.00000000000E+00  0.00000000000E+00  0.21047520054E+04  0.21047520054E+04  0.25500000920E-02 0. -1.
       -2   -1    0    0    0  501  0.00000000000E+00  0.00000000000E+00 -0.74401809009E+03  0.74401809009E+03  0.25500000920E-02 0.  1.
    10030    2    1    2    0    0  0.00000000000E+00  0.00000000000E+00  0.13607339153E+04  0.28487700955E+04  0.25027773111E+04 0.  0.
        3    1    3    3  502    0 -0.15437882617E+03  0.87694836889E+03 -0.32044773691E+03  0.94633927635E+03  0.10100000352E+00 0.  1.
       -3    1    3    3    0  502  0.15437882617E+03 -0.87694836889E+03  0.16811816523E+04  0.19024308192E+04  0.10100000352E+00 0. -1.
</event>
<event>
 5   0  0.3814260E-06  0.2501683E+04  0.7818609E-02  0.8402386E-01
        2   -1    0    0  501    0  0.00000000000E+00  0.00000000000E+00  0.17206778956E+04  0.17206778956E+04  0.25500000920E-02 0. -1.
       -2   -1    0    0    0  501  0.00000000000E+00  0.00000000000E+00 -0.90929509734E+03  0.90929509735E+03  0.25500000920E-02 0.  1.
    10030    2    1    2    0    0  0.00000000000E+00  0.00000000000E+00  0.81138279828E+03  0.26299729930E+04  0.25016826134E+04 0.  0.
        5    1    3    3  502    0  0.10652721149E+04 -0.40088067601E+03 -0.13963088205E+03  0.11467470812E+04  0.46999998093E+01 0.  1.
       -5    1    3    3    0  502 -0.10652721149E+04  0.40088067601E+03  0.95101368033E+03  0.14832259117E+04  0.46999998093E+01 0. -1.
</event>
<event>
 5   0  0.3814260E-06  0.2501617E+04  0.7818609E-02  0.8402410E-01
       -2   -1    0    0    0  501  0.00000000000E+00  0.00000000000E+00  0.89587247971E+03  0.89587247972E+03  0.25500000920E-02 0.  1.
        2   -1    0    0  501    0  0.00000000000E+00  0.00000000000E+00 -0.17463674122E+04  0.17463674122E+04  0.25500000920E-02 0. -1.
    10030    2    1    2    0    0  0.00000000000E+00  0.00000000000E+00 -0.85049493252E+03  0.26422398920E+04  0.25016174800E+04 0.  0.
        5    1    3    3  502    0 -0.22108732147E+03 -0.90715099085E+03 -0.13043170929E+04  0.16040784560E+04  0.46999998093E+01 0.  1.
       -5    1    3    3    0  502  0.22108732147E+03  0.90715099085E+03  0.45382216042E+03  0.10381614360E+04  0.46999998093E+01 0. -1.
</event>
<event>
 5   0  0.3814260E-06  0.2519914E+04  0.7818609E-02  0.8395925E-01
        2   -1    0    0  501    0  0.00000000000E+00  0.00000000000E+00  0.10686256917E+04  0.10686256917E+04  0.25500000920E-02 0.  1.
       -2   -1    0    0    0  501  0.00000000000E+00  0.00000000000E+00 -0.14855455074E+04  0.14855455074E+04  0.25500000920E-02 0. -1.
    10030    2    1    2    0    0  0.00000000000E+00  0.00000000000E+00 -0.41691981567E+03  0.25541711991E+04  0.25199143600E+04 0.  0.
        5    1    3    3  502    0  0.99615312098E+03  0.68096271068E+03 -0.57593333089E+03  0.13370686390E+04  0.46999998093E+01 0. -1.
       -5    1    3    3    0  502 -0.99615312098E+03 -0.68096271068E+03  0.15901351522E+03  0.12171025601E+04  0.46999998093E+01 0.  1.
</event>
<event>
 5   0  0.3924441E-06  0.2500577E+04  0.7818609E-02  0.8402780E-01
       -2   -1    0    0    0  501  0.00000000000E+00  0.00000000000E+00  0.11345635625E+04  0.11345635625E+04  0.25500000920E-02 0.  1.
        2   -1    0    0  501    0  0.00000000000E+00  0.00000000000E+00 -0.13778173982E+04  0.13778173982E+04  0.25500000920E-02 0. -1.
    10030    2    1    2    0    0  0.00000000000E+00  0.00000000000E+00 -0.24325383566E+03  0.25123809607E+04  0.25005770660E+04 0.  0.
        2    1    3    3  502    0 -0.45438023187E+03  0.65896730793E+03  0.84338714258E+03  0.11627558558E+04  0.25500000920E-02 0.  1.
       -2    1    3    3    0  502  0.45438023187E+03 -0.65896730793E+03 -0.10866409782E+04  0.13496251048E+04  0.25500000920E-02 0. -1.
</event>
<event>
 5   0  0.3971759E-06  0.2498678E+04  0.7818609E-02  0.8403457E-01
        2   -1    0    0  501    0  0.00000000000E+00  0.00000000000E+00  0.16110428829E+04  0.16110428829E+04  0.25500000920E-02 0.  1.
       -2   -1    0    0    0  501  0.00000000000E+00  0.00000000000E+00 -0.96884298860E+03  0.96884298860E+03  0.25500000920E-02 0. -1.
    10030    2    1    2    0    0  0.00000000000E+00  0.00000000000E+00  0.64219989430E+03  0.25798858715E+04  0.24986777315E+04 0.  0.
        4    1    3    3  502    0 -0.10299145887E+04  0.57615398557E+03  0.74451138973E+03  0.13953409251E+04  0.12699999809E+01 0.  1.
       -4    1    3    3    0  502  0.10299145887E+04 -0.57615398557E+03 -0.10231149542E+03  0.11845449464E+04  0.12699999809E+01 0. -1.
</event>
<event>
 5   0  0.3814260E-06  0.2498563E+04  0.7818609E-02  0.8403498E-01
        2   -1    0    0  501    0  0.00000000000E+00  0.00000000000E+00  0.11692253252E+04  0.11692253252E+04  0.25500000920E-02 0.  1.
       -2   -1    0    0    0  501  0.00000000000E+00  0.00000000000E+00 -0.13348187306E+04  0.13348187306E+04  0.25500000920E-02 0. -1.
    10030    2    1    2    0    0  0.00000000000E+00  0.00000000000E+00 -0.16559340536E+03  0.25040440558E+04  0.24985626784E+04 0.  0.
        5    1    3    3  502    0 -0.50971767467E+03 -0.17272170401E+03 -0.12126727266E+04  0.13267411679E+04  0.46999998093E+01 0. -1.
       -5    1    3    3    0  502  0.50971767467E+03  0.17272170401E+03  0.10470793212E+04  0.11773028879E+04  0.46999998093E+01 0.  1.
</event>
<event>
 5   0  0.3814260E-06  0.2500847E+04  0.7818609E-02  0.8402684E-01
        2   -1    0    0  501    0  0.00000000000E+00  0.00000000000E+00  0.22873751486E+04  0.22873751486E+04  0.25500000920E-02 0. -1.
       -2   -1    0    0    0  501  0.00000000000E+00  0.00000000000E+00 -0.68356038798E+03  0.68356038798E+03  0.25500000920E-02 0.  1.
    10030    2    1    2    0    0  0.00000000000E+00  0.00000000000E+00  0.16038147606E+04  0.29709355366E+04  0.25008470917E+04 0.  0.
        5    1    3    3  502    0  0.53837351989E+03 -0.10911164957E+04  0.45933519230E+03  0.13005353371E+04  0.46999998093E+01 0.  1.
       -5    1    3    3    0  502 -0.53837351989E+03  0.10911164957E+04  0.11444795683E+04  0.16704001995E+04  0.46999998093E+01 0. -1.
</event>
<event>
 5   0  0.3808293E-06  0.2498235E+04  0.7818609E-02  0.8403615E-01
        2   -1    0    0  501    0  0.00000000000E+00  0.00000000000E+00  0.13419614630E+04  0.13419614630E+04  0.25500000920E-02 0.  1.
       -2   -1    0    0    0  501  0.00000000000E+00  0.00000000000E+00 -0.11626969139E+04  0.11626969140E+04  0.25500000920E-02 0. -1.
    10030    2    1    2    0    0  0.00000000000E+00  0.00000000000E+00  0.17926454902E+03  0.25046583769E+04  0.24982349382E+04 0.  0.
        1    1    3    3  502    0  0.28357952277E+03 -0.55564785247E+03 -0.99533902598E+03  0.11746751289E+04  0.50400001928E-02 0. -1.
       -1    1    3    3    0  502 -0.28357952277E+03  0.55564785247E+03  0.11746035750E+04  0.13299832481E+04  0.50400001928E-02 0.  1.
</event>
<event>
 5   0  0.1287375E-06  0.2490872E+04  0.7818609E-02  0.8406244E-01
       -3   -1    0    0    0  501  0.00000000000E+00  0.00000000000E+00  0.11086039617E+04  0.11086039663E+04  0.10100000352E+00 0. -1.
        3   -1    0    0  501    0  0.00000000000E+00  0.00000000000E+00 -0.13991573443E+04  0.13991573479E+04  0.10100000352E+00 0.  1.
    10030    2    1    2    0    0  0.00000000000E+00  0.00000000000E+00 -0.29055338261E+03  0.25077613142E+04  0.24908724457E+04 0.  0.
        5    1    3    3  502    0  0.72926311752E+03  0.48203451524E+03  0.74781593669E+03  0.11504054649E+04  0.46999998093E+01 0. -1.
       -5    1    3    3    0  502 -0.72926311752E+03 -0.48203451524E+03 -0.10383693193E+04  0.13573558493E+04  0.46999998093E+01 0.  1.
</event>
<event>
 5   0  0.3808293E-06  0.2509598E+04  0.7818609E-02  0.8399574E-01
       -2   -1    0    0    0  501  0.00000000000E+00  0.00000000000E+00  0.77306370357E+03  0.77306370357E+03  0.25500000920E-02 0. -1.
        2   -1    0    0  501    0  0.00000000000E+00  0.00000000000E+00 -0.20367285062E+04  0.20367285062E+04  0.25500000920E-02 0.  1.
    10030    2    1    2    0    0  0.00000000000E+00  0.00000000000E+00 -0.12636648026E+04  0.28097922097E+04  0.25095982803E+04 0.  0.
        1    1    3    3  502    0 -0.98785595979E+03 -0.75450327593E+02 -0.14939884765E+04  0.17926387582E+04  0.50400001928E-02 0.  1.
       -1    1    3    3    0  502  0.98785595979E+03  0.75450327593E+02  0.23032367395E+03  0.10171534516E+04  0.50400001928E-02 0. -1.
</event>
<event>
 5   0  0.1501747E-06  0.2500072E+04  0.7818609E-02  0.8402960E-01
        1   -1    0    0  501    0  0.00000000000E+00  0.00000000000E+00  0.11848180078E+04  0.11848180078E+04  0.50400001928E-02 0.  1.
       -1   -1    0    0    0  501  0.00000000000E+00  0.00000000000E+00 -0.13188436873E+04  0.13188436873E+04  0.50400001928E-02 0. -1.
    10030    2    1    2    0    0  0.00000000000E+00  0.00000000000E+00 -0.13402567945E+03  0.25036616951E+04  0.25000717991E+04 0.  0.
        2    1    3    3  502    0  0.44767663121E+03 -0.11196085580E+04 -0.39711027334E+03  0.12695015787E+04  0.25500000920E-02 0. -1.
       -2    1    3    3    0  502 -0.44767663121E+03  0.11196085580E+04  0.26308459389E+03  0.12341601163E+04  0.25500000920E-02 0.  1.
</event>
<event>
 5   0  0.3713394E-06  0.2495006E+04  0.7818609E-02  0.8404767E-01
       -2   -1    0    0    0  501  0.00000000000E+00  0.00000000000E+00  0.68929084113E+03  0.68929084114E+03  0.25500000920E-02 0.  1.
        2   -1    0    0  501    0  0.00000000000E+00  0.00000000000E+00 -0.22577747426E+04  0.22577747426E+04  0.25500000920E-02 0. -1.
    10030    2    1    2    0    0  0.00000000000E+00  0.00000000000E+00 -0.15684839015E+04  0.29470655837E+04  0.24950057727E+04 0.  0.
        3    1    3    3  502    0  0.21026009017E+03 -0.55641181255E+03  0.51100795888E+03  0.78417635447E+03  0.10100000352E+00 0.  1.
       -3    1    3    3    0  502 -0.21026009017E+03  0.55641181255E+03 -0.20794918603E+04  0.21628892293E+04  0.10100000352E+00 0. -1.
</event>
<event>
 5   0  0.1519145E-06  0.2499639E+04  0.7818609E-02  0.8403114E-01
       -1   -1    0    0    0  501  0.00000000000E+00  0.00000000000E+00  0.11164383873E+04  0.11164383873E+04  0.50400001928E-02 0.  1.
        1   -1    0    0  501    0  0.00000000000E+00  0.00000000000E+00 -0.13991351366E+04  0.13991351366E+04  0.50400001928E-02 0. -1.
    10030    2    1    2    0    0  0.00000000000E+00  0.00000000000E+00 -0.28269674930E+03  0.25155735240E+04  0.24996385143E+04 0.  0.
        4    1    3    3  502    0  0.46396612971E+03 -0.95677608876E+03 -0.80231647873E+03  0.13320654633E+04  0.12699999809E+01 0. -1.
       -4    1    3    3    0  502 -0.46396612971E+03  0.95677608876E+03  0.51961972944E+03  0.11835080607E+04  0.12699999809E+01 0.  1.
</event>
<event>
 5   0  0.1553604E-06  0.2490967E+04  0.7818609E-02  0.8406211E-01
        1   -1    0    0  501    0  0.00000000000E+00  0.00000000000E+00  0.16315409399E+04  0.16315409399E+04  0.50400001928E-02 0.  1.
       -1   -1    0    0    0  501  0.00000000000E+00  0.00000000000E+00 -0.95077542104E+03  0.95077542105E+03  0.50400001928E-02 0. -1.
    10030    2    1    2    0    0  0.00000000000E+00  0.00000000000E+00  0.68076551882E+03  0.25823163609E+04  0.24909668999E+04 0.  0.
        1    1    3    3  502    0  0.37467598683E+03 -0.52342206828E+03 -0.76496284991E+03  0.99976043052E+03  0.50400001928E-02 0. -1.
       -1    1    3    3    0  502 -0.37467598683E+03  0.52342206828E+03  0.14457283687E+04  0.15825559304E+04  0.50400001928E-02 0.  1.
</event>
<event>
 5   0  0.1541852E-06  0.2502942E+04  0.7818609E-02  0.8401938E-01
        1   -1    0    0  501    0  0.00000000000E+00  0.00000000000E+00  0.17083645737E+04  0.17083645737E+04  0.50400001928E-02 0.  1.
       -1   -1    0    0    0  501  0.00000000000E+00  0.00000000000E+00 -0.91677161326E+03  0.91677161327E+03  0.50400001928E-02 0. -1.
    10030    2    1    2    0    0  0.00000000000E+00  0.00000000000E+00  0.79159296039E+03  0.26251361869E+04  0.25029423855E+04 0.  0.
        5    1    3    3  502    0  0.45894785329E+03 -0.83472303946E+03  0.12470626571E+04  0.15692619429E+04  0.46999998093E+01 0.  1.
       -5    1    3    3    0  502 -0.45894785329E+03  0.83472303946E+03 -0.45546969670E+03  0.10558742441E+04  0.46999998093E+01 0. -1.
</event>
<event>
 5   0  0.3971759E-06  0.2499684E+04  0.7818609E-02  0.8403098E-01
        2   -1    0    0  501    0  0.00000000000E+00  0.00000000000E+00  0.19952019676E+04  0.19952019676E+04  0.25500000920E-02 0. -1.
       -2   -1    0    0    0  501  0.00000000000E+00  0.00000000000E+00 -0.78293093744E+03  0.78293093744E+03  0.25500000920E-02 0.  1.
    10030    2    1    2    0    0  0.00000000000E+00  0.00000000000E+00  0.12122710302E+04  0.27781329051E+04  0.24996842576E+04 0.  0.
        4    1    3    3  502    0  0.86070703808E+02  0.12251551086E+04  0.86365891625E+03  0.15014398232E+04  0.12699999809E+01 0. -1.
       -4    1    3    3    0  502 -0.86070703808E+02 -0.12251551086E+04  0.34861211394E+03  0.12766930818E+04  0.12699999809E+01 0.  1.
</event>
<event>
 5   0  0.1501747E-06  0.2506732E+04  0.7818609E-02  0.8400591E-01
        1   -1    0    0  501    0  0.00000000000E+00  0.00000000000E+00  0.91636425108E+03  0.91636425109E+03  0.50400001928E-02 0. -1.
       -1   -1    0    0    0  501  0.00000000000E+00  0.00000000000E+00 -0.17143031992E+04  0.17143031992E+04  0.50400001928E-02 0.  1.
    10030    2    1    2    0    0  0.00000000000E+00  0.00000000000E+00 -0.79793894809E+03  0.26306674503E+04  0.25067318702E+04 0.  0.
        2    1    3    3  502    0  0.84512716462E+03 -0.92355861715E+03 -0.33491294789E+03  0.12959039804E+04  0.25500000920E-02 0.  1.
       -2    1    3    3    0  502 -0.84512716462E+03  0.92355861715E+03 -0.46302600020E+03  0.13347634699E+04  0.25500000920E-02 0. -1.
</event>
<event>
 5   0  0.3924441E-06  0.2465568E+04  0.7818609E-02  0.8415356E-01
        2   -1    0    0  501    0  0.00000000000E+00  0.00000000000E+00  0.25556501608E+04  0.25556501608E+04  0.25500000920E-02 0. -1.
       -2   -1    0    0    0  501  0.00000000000E+00  0.00000000000E+00 -0.59466515652E+03  0.59466515652E+03  0.25500000920E-02 0.  1.
    10030    2    1    2    0    0  0.00000000000E+00  0.00000000000E+00  0.19609850043E+04  0.31503153173E+04  0.24655677666E+04 0.  0.
        2    1    3    3  502    0 -0.16841636881E+03 -0.21465279804E+03 -0.55560406033E+03  0.61897961909E+03  0.25500000920E-02 0.  1.
       -2    1    3    3    0  502  0.16841636881E+03  0.21465279804E+03  0.25165890646E+04  0.25313356982E+04  0.25500000920E-02 0. -1.
</event>
<event>
 5   0  0.3713394E-06  0.2506502E+04  0.7818609E-02  0.8400673E-01
        2   -1    0    0  501    0  0.00000000000E+00  0.00000000000E+00  0.17646385587E+04  0.17646385587E+04  0.25500000920E-02 0. -1.
       -2   -1    0    0    0  501  0.00000000000E+00  0.00000000000E+00 -0.89006239223E+03  0.89006239223E+03  0.25500000920E-02 0.  1.
    10030    2    1    2    0    0  0.00000000000E+00  0.00000000000E+00  0.87457616647E+03  0.26547009509E+04  0.25065022777E+04 0.  0.
        3    1    3    3  502    0  0.21588298042E+03 -0.11533079221E+03 -0.86450266482E+03  0.89848289941E+03  0.10100000352E+00 0.  1.
       -3    1    3    3    0  502 -0.21588298042E+03  0.11533079221E+03  0.17390788313E+04  0.17562180515E+04  0.10100000352E+00 0. -1.
</event>
<event>
 5   0  0.3814260E-06  0.2499493E+04  0.7818609E-02  0.8403166E-01
        2   -1    0    0  501    0  0.00000000000E+00  0.00000000000E+00  0.11229957736E+04  0.11229957736E+04  0.25500000920E-02 0.  1.
       -2   -1    0    0    0  501  0.00000000000E+00  0.00000000000E+00 -0.13908030270E+04  0.13908030270E+04  0.25500000920E-02 0. -1.
    10030    2    1    2    0    0  0.00000000000E+00  0.00000000000E+00 -0.26780725343E+03  0.25137988007E+04  0.24994926856E+04 0.  0.
        5    1    3    3  502    0  0.11166218341E+04  0.24598594968E+03  0.37345420269E+03  0.12028480949E+04  0.46999998093E+01 0.  1.
       -5    1    3    3    0  502 -0.11166218341E+04 -0.24598594968E+03 -0.64126145612E+03  0.13109507058E+04  0.46999998093E+01 0. -1.
</event>
<event>
 5   0  0.1501747E-06  0.2499059E+04  0.7818609E-02  0.8403321E-01
       -1   -1    0    0    0  501  0.00000000000E+00  0.00000000000E+00  0.15882871871E+04  0.15882871871E+04  0.50400001928E-02 0.  1.
        1   -1    0    0  501    0  0.00000000000E+00  0.00000000000E+00 -0.98302374017E+03  0.98302374018E+03  0.50400001928E-02 0. -1.
    10030    2    1    2    0    0  0.00000000000E+00  0.00000000000E+00  0.60526344695E+03  0.25713109273E+04  0.24990590319E+04 0.  0.
        2    1    3    3  502    0  0.19701129990E+03 -0.74226654234E+03 -0.71153853054E+03  0.10469289148E+04  0.25500000920E-02 0. -1.
       -2    1    3    3    0  502 -0.19701129990E+03  0.74226654234E+03  0.13168019775E+04  0.15243820125E+04  0.25500000920E-02 0.  1.
</event>
<event>
 5   0  0.1519145E-06  0.2516435E+04  0.7818609E-02  0.8397154E-01
       -1   -1    0    0    0  501  0.00000000000E+00  0.00000000000E+00  0.90827680226E+03  0.90827680227E+03  0.50400001928E-02 0. -1.
        1   -1    0    0  501    0  0.00000000000E+00  0.00000000000E+00 -0.17429829126E+04  0.17429829126E+04  0.50400001928E-02 0.  1.
    10030    2    1    2    0    0  0.00000000000E+00  0.00000000000E+00 -0.83470611036E+03  0.26512597149E+04  0.25164347369E+04 0.  0.
        4    1    3    3  502    0  0.99105428117E+03  0.35639797455E+03 -0.11426410998E+04  0.15539750321E+04  0.12699999809E+01 0.  1.
       -4    1    3    3    0  502 -0.99105428117E+03 -0.35639797455E+03  0.30793498944E+03  0.10972846828E+04  0.12699999809E+01 0. -1.
</event>
<event>
 5   0  0.3971759E-06  0.2502986E+04  0.7818609E-02  0.8401922E-01
        2   -1    0    0  501    0  0.00000000000E+00  0.00000000000E+00  0.20472112692E+04  0.20472112692E+04  0.25500000920E-02 0. -1.
       -2   -1    0    0    0  501  0.00000000000E+00  0.00000000000E+00 -0.76505795200E+03  0.76505795200E+03  0.25500000920E-02 0.  1.
    10030    2    1    2    0    0  0.00000000000E+00  0.00000000000E+00  0.12821533172E+04  0.28122692212E+04  0.25029864250E+04 0.  0.
        4    1    3    3  502    0  0.47288365906E+03 -0.40540455505E+02 -0.66001567866E+03  0.81294821023E+03  0.12699999809E+01 0.  1.
       -4    1    3    3    0  502 -0.47288365906E+03  0.40540455505E+02  0.19421689958E+04  0.19993210110E+04  0.12699999809E+01 0. -1.
</event>
<event>
 5   0  0.3713394E-06  0.2499090E+04  0.7818609E-02  0.8403310E-01
        2   -1    0    0  501    0  0.00000000000E+00  0.00000000000E+00  0.74221080114E+03  0.74221080115E+03  0.25500000920E-02 0. -1.
       -2   -1    0    0    0  501  0.00000000000E+00  0.00000000000E+00 -0.21036647667E+04  0.21036647667E+04  0.25500000920E-02 0.  1.
    10030    2    1    2    0    0  0.00000000000E+00  0.00000000000E+00 -0.13614539655E+04  0.28458755678E+04  0.24990900038E+04 0.  0.
        3    1    3    3  502    0 -0.63503397807E+03 -0.34771975915E+03  0.47901727748E+03  0.86812138928E+03  0.10100000352E+00 0. -1.
       -3    1    3    3    0  502  0.63503397807E+03  0.34771975915E+03 -0.18404712430E+04  0.19777541785E+04  0.10100000352E+00 0.  1.
</event>
<event>
 5   0  0.1553604E-06  0.2503538E+04  0.7818609E-02  0.8401726E-01
        1   -1    0    0  501    0  0.00000000000E+00  0.00000000000E+00  0.21921009396E+04  0.21921009396E+04  0.50400001928E-02 0.  1.
       -1   -1    0    0    0  501  0.00000000000E+00  0.00000000000E+00 -0.71480547422E+03  0.71480547424E+03  0.50400001928E-02 0. -1.
    10030    2    1    2    0    0  0.00000000000E+00  0.00000000000E+00  0.14772954654E+04  0.29069064139E+04  0.25035380977E+04 0.  0.
        1    1    3    3  502    0  0.44353603189E+03  0.98013194754E+03  0.14817122937E+04  0.18310800549E+04  0.50400001928E-02 0.  1.
       -1    1    3    3    0  502 -0.44353603189E+03 -0.98013194754E+03 -0.44168283170E+01  0.10758263589E+04  0.50400001928E-02 0. -1.
</event>
<event>
 5   0  0.1574896E-06  0.2516120E+04  0.7818609E-02  0.8397265E-01
       -1   -1    0    0    0  501  0.00000000000E+00  0.00000000000E+00  0.17949669067E+04  0.17949669067E+04  0.50400001928E-02 0. -1.
        1   -1    0    0  501    0  0.00000000000E+00  0.00000000000E+00 -0.88175139075E+03  0.88175139076E+03  0.50400001928E-02 0.  1.
    10030    2    1    2    0    0  0.00000000000E+00  0.00000000000E+00  0.91321551594E+03  0.26767182975E+04  0.25161196842E+04 0.  0.
        3    1    3    3  502    0  0.49181806250E+03 -0.33279789231E+03 -0.72327047248E+03  0.93582029808E+03  0.10100000352E+00 0.  1.
       -3    1    3    3    0  502 -0.49181806250E+03  0.33279789231E+03  0.16364859884E+04  0.17408979994E+04  0.10100000352E+00 0. -1.
</event>
<event>
 5   0  0.1501747E-06  0.2499655E+04  0.7818609E-02  0.8403108E-01
        1   -1    0    0  501    0  0.00000000000E+00  0.00000000000E+00  0.20405430471E+04  0.20405430471E+04  0.50400001928E-02 0. -1.
       -1   -1    0    0    0  501  0.00000000000E+00  0.00000000000E+00 -0.76551621282E+03  0.76551621284E+03  0.50400001928E-02 0.  1.
    10030    2    1    2    0    0  0.00000000000E+00  0.00000000000E+00  0.12750268343E+04  0.28060592600E+04  0.24996550047E+04 0.  0.
        2    1    3    3  502    0 -0.48122128076E+03  0.36241645005E+02 -0.65670893067E+03  0.81495643903E+03  0.25500000920E-02 0.  1.
       -2    1    3    3    0  502  0.48122128076E+03 -0.36241645005E+02  0.19317357650E+04  0.19911028209E+04  0.25500000920E-02 0. -1.
</event>
<event>
 5   0  0.1501747E-06  0.2488553E+04  0.7818609E-02  0.8407075E-01
       -1   -1    0    0    0  501  0.00000000000E+00  0.00000000000E+00  0.75573777127E+03  0.75573777128E+03  0.50400001928E-02 0. -1.
        1   -1    0    0  501    0  0.00000000000E+00  0.00000000000E+00 -0.20486255128E+04  0.20486255128E+04  0.50400001928E-02 0.  1.
    10030    2    1    2    0    0  0.00000000000E+00  0.00000000000E+00 -0.12928877416E+04  0.28043632841E+04  0.24885527354E+04 0.  0.
        2    1    3    3  502    0  0.91105800955E+03 -0.63124922260E+03 -0.92475226974E+01  0.11084167964E+04  0.25500000920E-02 0. -1.
       -2    1    3    3    0  502 -0.91105800955E+03  0.63124922260E+03 -0.12836402189E+04  0.16959464877E+04  0.25500000920E-02 0.  1.
</event>
<event>
 5   0  0.3814260E-06  0.2498509E+04  0.7818609E-02  0.8403517E-01
        2   -1    0    0  501    0  0.00000000000E+00  0.00000000000E+00  0.31987972594E+04  0.31987972594E+04  0.25500000920E-02 0.  1.
       -2   -1    0    0    0  501  0.00000000000E+00  0.00000000000E+00 -0.48788239627E+03  0.48788239627E+03  0.25500000920E-02 0. -1.
    10030    2    1    2    0    0  0.00000000000E+00  0.00000000000E+00  0.27109148632E+04  0.36866796557E+04  0.24985090531E+04 0.  0.
        5    1    3    3  502    0  0.10094304564E+04 -0.62743639411E+03  0.78782334184E+03  0.14259431907E+04  0.46999998093E+01 0. -1.
       -5    1    3    3    0  502 -0.10094304564E+04  0.62743639411E+03  0.19230915213E+04  0.22607364650E+04  0.46999998093E+01 0.  1.
</event>
<event>
 5   0  0.1541852E-06  0.2498315E+04  0.7818609E-02  0.8403586E-01
       -1   -1    0    0    0  501  0.00000000000E+00  0.00000000000E+00  0.78947168278E+03  0.78947168279E+03  0.50400001928E-02 0.  1.
        1   -1    0    0  501    0  0.00000000000E+00  0.00000000000E+00 -0.19765053019E+04  0.19765053019E+04  0.50400001928E-02 0. -1.
    10030    2    1    2    0    0  0.00000000000E+00  0.00000000000E+00 -0.11870336192E+04  0.27659769847E+04  0.24983154058E+04 0.  0.
        5    1    3    3  502    0 -0.93510453610E+03 -0.47987762099E+03  0.15383732934E+03  0.10622575198E+04  0.46999998093E+01 0.  1.
       -5    1    3    3    0  502  0.93510453610E+03  0.47987762099E+03 -0.13408709485E+04  0.17037194649E+04  0.46999998093E+01 0. -1.
</event>
<event>
 5   0  0.1574896E-06  0.2502669E+04  0.7818609E-02  0.8402035E-01
        1   -1    0    0  501    0  0.00000000000E+00  0.00000000000E+00  0.14241818004E+04  0.14241818004E+04  0.50400001928E-02 0. -1.
       -1   -1    0    0    0  501  0.00000000000E+00  0.00000000000E+00 -0.10994648007E+04  0.10994648007E+04  0.50400001928E-02 0.  1.
    10030    2    1    2    0    0  0.00000000000E+00  0.00000000000E+00  0.32471699970E+03  0.25236466010E+04  0.25026687829E+04 0.  0.
        3    1    3    3  502    0 -0.64760324912E+03 -0.74627245655E+03 -0.61188282795E+03  0.11622018555E+04  0.10100000352E+00 0.  1.
       -3    1    3    3    0  502  0.64760324912E+03  0.74627245655E+03  0.93659982765E+03  0.13614447455E+04  0.10100000352E+00 0. -1.
</event>
<event>
 5   0  0.1541852E-06  0.2500873E+04  0.7818609E-02  0.8402674E-01
        1   -1    0    0  501    0  0.00000000000E+00  0.00000000000E+00  0.82224972790E+03  0.82224972791E+03  0.50400001928E-02 0.  1.
       -1   -1    0    0    0  501  0.00000000000E+00  0.00000000000E+00 -0.19016023340E+04  0.19016023340E+04  0.50400001928E-02 0. -1.
    10030    2    1    2    0    0  0.00000000000E+00  0.00000000000E+00 -0.10793526061E+04  0.27238520619E+04  0.25008734488E+04 0.  0.
        5    1    3    3  502    0 -0.21890589803E+03  0.89840996179E+03 -0.14564553706E+04  0.17252085636E+04  0.46999998093E+01 0. -1.
       -5    1    3    3    0  502  0.21890589803E+03 -0.89840996179E+03  0.37710276448E+03  0.99864349825E+03  0.46999998093E+01 0.  1.
</event>
<event>
 5   0  0.1553604E-06  0.2495704E+04  0.7818609E-02  0.8404517E-01
        1   -1    0    0  501    0  0.00000000000E+00  0.00000000000E+00  0.12102734673E+04  0.12102734673E+04  0.50400001928E-02 0. -1.
       -1   -1    0    0    0  501  0.00000000000E+00  0.00000000000E+00 -0.12865976303E+04  0.12865976303E+04  0.50400001928E-02 0.  1.
    10030    2    1    2    0    0  0.00000000000E+00  0.00000000000E+00 -0.76324162983E+02  0.24968710977E+04  0.24957042895E+04 0.  0.
        1    1    3    3  502    0  0.55994678201E+02  0.11333813544E+04 -0.55748691450E+03  0.12643102302E+04  0.50400001928E-02 0.  1.
       -1    1    3    3    0  502 -0.55994678201E+02 -0.11333813544E+04  0.48116275152E+03  0.12325608674E+04  0.50400001928E-02 0. -1.
</event>
<event>
 5   0  0.3924441E-06  0.2490261E+04  0.7818609E-02  0.8406463E-01
        2   -1    0    0  501    0  0.00000000000E+00  0.00000000000E+00  0.10121568805E+04  0.10121568805E+04  0.25500000920E-02 0.  1.
       -2   -1    0    0    0  501  0.00000000000E+00  0.00000000000E+00 -0.15317287636E+04  0.15317287636E+04  0.25500000920E-02 0. -1.
    10030    2    1    2    0    0  0.00000000000E+00  0.00000000000E+00 -0.51957188305E+03  0.25438856441E+04  0.24902608756E+04 0.  0.
        2    1    3    3  502    0 -0.64972350566E+01  0.11203766023E+04 -0.81468086336E+03  0.13852764540E+04  0.25500000920E-02 0. -1.
       -2    1    3    3    0  502  0.64972350566E+01 -0.11203766023E+04  0.29510898031E+03  0.11586091900E+04  0.25500000920E-02 0.  1.
</event>
<event>
 5   0  0.3808293E-06  0.2502651E+04  0.7818609E-02  0.8402042E-01
        2   -1    0    0  501    0  0.00000000000E+00  0.00000000000E+00  0.18753033221E+04  0.18753033221E+04  0.25500000920E-02 0.  1.
       -2   -1    0    0    0  501  0.00000000000E+00  0.00000000000E+00 -0.83496619644E+03  0.83496619645E+03  0.25500000920E-02 0. -1.
    10030    2    1    2    0    0  0.00000000000E+00  0.00000000000E+00  0.10403371257E+04  0.27102695186E+04  0.25026505006E+04 0.  0.
        1    1    3    3  502    0  0.43340274530E+02 -0.36679426756E+03 -0.77459042075E+03  0.85814144176E+03  0.50400001928E-02 0. -1.
       -1    1    3    3    0  502 -0.43340274530E+02  0.36679426756E+03  0.18149275464E+04  0.18521280768E+04  0.50400001928E-02 0.  1.
</event>
<event>
 5   0  0.1541852E-06  0.2507697E+04  0.7818609E-02  0.8400249E-01
        1   -1    0    0  501    0  0.00000000000E+00  0.00000000000E+00  0.85152708021E+03  0.85152708022E+03  0.50400001928E-02 0. -1.
       -1   -1    0    0    0  501  0.00000000000E+00  0.00000000000E+00 -0.18462544962E+04  0.18462544962E+04  0.50400001928E-02 0.  1.
    10030    2    1    2    0    0  0.00000000000E+00  0.00000000000E+00 -0.99472741596E+03  0.26977815764E+04  0.25076967125E+04 0.  0.
        5    1    3    3  502    0 -0.10110197089E+04 -0.24057687364E+03 -0.12520173230E+04  0.16271470588E+04  0.46999998093E+01 0.  1.
       -5    1    3    3    0  502  0.10110197089E+04  0.24057687364E+03  0.25728990705E+03  0.10706345176E+04  0.46999998093E+01 0. -1.
</event>
<event>
 5   0  0.1501747E-06  0.2503236E+04  0.7818609E-02  0.8401834E-01
        1   -1    0    0  501    0  0.00000000000E+00  0.00000000000E+00  0.13923307947E+04  0.13923307947E+04  0.50400001928E-02 0.  1.
       -1   -1    0    0    0  501  0.00000000000E+00  0.00000000000E+00 -0.11251261619E+04  0.11251261619E+04  0.50400001928E-02 0. -1.
    10030    2    1    2    0    0  0.00000000000E+00  0.00000000000E+00  0.26720463282E+03  0.25174569565E+04  0.25032361479E+04 0.  0.
        2    1    3    3  502    0  0.10793941086E+04 -0.12126344681E+03  0.75902862290E+03  0.13251116616E+04  0.25500000920E-02 0.  1.
       -2    1    3    3    0  502 -0.10793941086E+04  0.12126344681E+03 -0.49182399007E+03  0.11923452950E+04  0.25500000920E-02 0. -1.
</event>
<event>
 5   0  0.1574896E-06  0.2499154E+04  0.7818609E-02  0.8403287E-01
        1   -1    0    0  501    0  0.00000000000E+00  0.00000000000E+00  0.14270060199E+04  0.14270060199E+04  0.50400001928E-02 0.  1.
       -1   -1    0    0    0  501  0.00000000000E+00  0.00000000000E+00 -0.10942084586E+04  0.10942084586E+04  0.50400001928E-02 0. -1.
    10030    2    1    2    0    0  0.00000000000E+00  0.00000000000E+00  0.33279756124E+03  0.25212144785E+04  0.24991535027E+04 0.  0.
        3    1    3    3  502    0 -0.81325566407E+03  0.32425688528E+03 -0.73305144824E+03  0.11418807901E+04  0.10100000352E+00 0. -1.
       -3    1    3    3    0  502  0.81325566407E+03 -0.32425688528E+03  0.10658490095E+04  0.13793336884E+04  0.10100000352E+00 0.  1.
</event>
<event>
 5   0  0.3924441E-06  0.2496301E+04  0.7818609E-02  0.8404304E-01
       -2   -1    0    0    0  501  0.00000000000E+00  0.00000000000E+00  0.84536015649E+03  0.84536015650E+03  0.25500000920E-02 0.  1.
        2   -1    0    0  501    0  0.00000000000E+00  0.00000000000E+00 -0.18428591763E+04  0.18428591763E+04  0.25500000920E-02 0. -1.
    10030    2    1    2    0    0  0.00000000000E+00  0.00000000000E+00 -0.99749901981E+03  0.26882193328E+04  0.24963010409E+04 0.  0.
        2    1    3    3  502    0  0.89777530832E+03  0.68917109132E+03  0.67942128684E+02  0.11338313059E+04  0.25500000920E-02 0.  1.
       -2    1    3    3    0  502 -0.89777530832E+03 -0.68917109132E+03 -0.10654411485E+04  0.15543880269E+04  0.25500000920E-02 0. -1.
</event>
<event>
 5   0  0.3713394E-06  0.2499341E+04  0.7818609E-02  0.8403220E-01
        2   -1    0    0  501    0  0.00000000000E+00  0.00000000000E+00  0.15978410580E+04  0.15978410580E+04  0.25500000920E-02 0.  1.
       -2   -1    0    0    0  501  0.00000000000E+00  0.00000000000E+00 -0.97736683005E+03  0.97736683006E+03  0.25500000920E-02 0. -1.
    10030    2    1    2    0    0  0.00000000000E+00  0.00000000000E+00  0.62047422799E+03  0.25752078881E+04  0.24993413931E+04 0.  0.
        3    1    3    3  502    0 -0.97337798181E+03 -0.52368735534E+03 -0.29052561918E+03  0.11428553221E+04  0.10100000352E+00 0. -1.
       -3    1    3    3    0  502  0.97337798181E+03  0.52368735534E+03  0.91099984717E+03  0.14323525660E+04  0.10100000352E+00 0.  1.
</event>
<event>
 5   0  0.1553604E-06  0.2497447E+04  0.7818609E-02  0.8403895E-01
        1   -1    0    0  501    0  0.00000000000E+00  0.00000000000E+00  0.73498098129E+03  0.73498098131E+03  0.50400001928E-02 0. -1.
       -1   -1    0    0    0  501  0.00000000000E+00  0.00000000000E+00 -0.21215664225E+04  0.21215664225E+04  0.50400001928E-02 0.  1.
    10030    2    1    2    0    0  0.00000000000E+00  0.00000000000E+00 -0.13865854412E+04  0.28565474038E+04  0.24974474738E+04 0.  0.
        1    1    3    3  502    0  0.78004989479E+03 -0.19738235177E+03 -0.17855182712E+04  0.19584466110E+04  0.50400001928E-02 0.  1.
       -1    1    3    3    0  502 -0.78004989479E+03  0.19738235177E+03  0.39893283004E+03  0.89810079282E+03  0.50400001928E-02 0. -1.
</event>
<event>
 5   0  0.3924441E-06  0.2499058E+04  0.7818609E-02  0.8403321E-01
       -2   -1    0    0    0  501  0.00000000000E+00  0.00000000000E+00  0.11000000311E+04  0.11000000311E+04  0.25500000920E-02 0.  1.
        2   -1    0    0  501    0  0.00000000000E+00  0.00000000000E+00 -0.14193838334E+04  0.14193838334E+04  0.25500000920E-02 0. -1.
    10030    2    1    2    0    0  0.00000000000E+00  0.00000000000E+00 -0.31938380224E+03  0.25193838645E+04  0.24990576311E+04 0.  0.
        2    1    3    3  502    0  0.72460237340E+03 -0.38146613117E+03 -0.11111677200E+04  0.13803110920E+04  0.25500000920E-02 0. -1.
       -2    1    3    3    0  502 -0.72460237340E+03  0.38146613117E+03  0.79178391772E+03  0.11390727725E+04  0.25500000920E-02 0.  1.
</event>
<event>
 5   0  0.1519145E-06  0.2495168E+04  0.7818609E-02  0.8404709E-01
        1   -1    0    0  501    0  0.00000000000E+00  0.00000000000E+00  0.12743224937E+04  0.12743224937E+04  0.50400001928E-02 0. -1.
       -1   -1    0    0    0  501  0.00000000000E+00  0.00000000000E+00 -0.12214061971E+04  0.12214061971E+04  0.50400001928E-02 0.  1.
    10030    2    1    2    0    0  0.00000000000E+00  0.00000000000E+00  0.52916296617E+02  0.24957286908E+04  0.24951676424E+04 0.  0.
        4    1    3    3  502    0  0.41296562167E+03 -0.43166090494E+02 -0.11502671190E+04  0.12229145408E+04  0.12699999809E+01 0.  1.
       -4    1    3    3    0  502 -0.41296562167E+03  0.43166090494E+02  0.12031834156E+04  0.12728141500E+04  0.12699999809E+01 0. -1.
</event>
<event>
 5   0  0.1574896E-06  0.2482049E+04  0.7818609E-02  0.8409409E-01
        1   -1    0    0  501    0  0.00000000000E+00  0.00000000000E+00  0.82907001364E+03  0.82907001365E+03  0.50400001928E-02 0. -1.
       -1   -1    0    0    0  501  0.00000000000E+00  0.00000000000E+00 -0.18576737532E+04  0.18576737532E+04  0.50400001928E-02 0.  1.
    10030    2    1    2    0    0  0.00000000000E+00  0.00000000000E+00 -0.10286037396E+04  0.26867437669E+04  0.24820488343E+04 0.  0.
        3    1    3    3  502    0 -0.40336907846E+03 -0.35782268822E+03  0.69564503958E+03  0.88015096486E+03  0.10100000352E+00 0. -1.
       -3    1    3    3    0  502  0.40336907846E+03  0.35782268822E+03 -0.17242487792E+04  0.18065928020E+04  0.10100000352E+00 0.  1.
</event>
<event>
 5   0  0.3814260E-06  0.2500384E+04  0.7818609E-02  0.8402849E-01
       -2   -1    0    0    0  501  0.00000000000E+00  0.00000000000E+00  0.64148718758E+03  0.64148718758E+03  0.25500000920E-02 0.  1.
        2   -1    0    0  501    0  0.00000000000E+00  0.00000000000E+00 -0.24364943226E+04  0.24364943226E+04  0.25500000920E-02 0. -1.
    10030    2    1    2    0    0  0.00000000000E+00  0.00000000000E+00 -0.17950071350E+04  0.30779815101E+04  0.25003838830E+04 0.  0.
        5    1    3    3  502    0 -0.75291212704E+03 -0.73567151173E+03 -0.67266204397E+02  0.10548156599E+04  0.46999998093E+01 0.  1.
       -5    1    3    3    0  502  0.75291212704E+03  0.73567151173E+03 -0.17277409306E+04  0.20231658502E+04  0.46999998093E+01 0. -1.
</event>
<event>
 5   0  0.3924441E-06  0.2498268E+04  0.7818609E-02  0.8403603E-01
        2   -1    0    0  501    0  0.00000000000E+00  0.00000000000E+00  0.17809380282E+04  0.17809380282E+04  0.25500000920E-02 0. -1.
       -2   -1    0    0    0  501  0.00000000000E+00  0.00000000000E+00 -0.87613164068E+03  0.87613164068E+03  0.25500000920E-02 0.  1.
    10030    2    1    2    0    0  0.00000000000E+00  0.00000000000E+00  0.90480638750E+03  0.26570696689E+04  0.24982683255E+04 0.  0.
        2    1    3    3  502    0  0.52365608604E+03 -0.10105578603E+04 -0.94989911864E+02  0.11421322029E+04  0.25500000920E-02 0.  1.
       -2    1    3    3    0  502 -0.52365608604E+03  0.10105578603E+04  0.99979629937E+03  0.15149374660E+04  0.25500000920E-02 0. -1.
</event>
<event>
 5   0  0.1287375E-06  0.2497100E+04  0.7818609E-02  0.8404020E-01
        3   -1    0    0  501    0  0.00000000000E+00  0.00000000000E+00  0.16405589629E+04  0.16405589661E+04  0.10100000352E+00 0.  1.
       -3   -1    0    0    0  501  0.00000000000E+00  0.00000000000E+00 -0.95021069330E+03  0.95021069867E+03  0.10100000352E+00 0. -1.
    10030    2    1    2    0    0  0.00000000000E+00  0.00000000000E+00  0.69034826964E+03  0.25907696647E+04  0.24970996621E+04 0.  0.
        3    1    3    3  502    0  0.80326593818E+03  0.34655242214E+03 -0.57905119062E+03  0.10491115481E+04  0.10100000352E+00 0. -1.
       -3    1    3    3    0  502 -0.80326593818E+03 -0.34655242214E+03  0.12693994603E+04  0.15416581167E+04  0.10100000352E+00 0.  1.
</event>
<event>
 5   0  0.1541852E-06  0.2481716E+04  0.7818609E-02  0.8409528E-01
       -1   -1    0    0    0  501  0.00000000000E+00  0.00000000000E+00  0.11757820107E+04  0.11757820107E+04  0.50400001928E-02 0. -1.
        1   -1    0    0  501    0  0.00000000000E+00  0.00000000000E+00 -0.13095357467E+04  0.13095357467E+04  0.50400001928E-02 0.  1.
    10030    2    1    2    0    0  0.00000000000E+00  0.00000000000E+00 -0.13375373596E+03  0.24853177574E+04  0.24817159978E+04 0.  0.
        5    1    3    3  502    0 -0.19458659574E+03 -0.23236236653E+03  0.11381359549E+04  0.11778080296E+04  0.46999998093E+01 0. -1.
       -5    1    3    3    0  502  0.19458659574E+03  0.23236236653E+03 -0.12718896909E+04  0.13075097279E+04  0.46999998093E+01 0.  1.
</event>
<event>
 5   0  0.1501747E-06  0.2499702E+04  0.7818609E-02  0.8403092E-01
       -1   -1    0    0    0  501  0.00000000000E+00  0.00000000000E+00  0.13239891051E+04  0.13239891051E+04  0.50400001928E-02 0.  1.
        1   -1    0    0  501    0  0.00000000000E+00  0.00000000000E+00 -0.11798647991E+04  0.11798647991E+04  0.50400001928E-02 0. -1.
    10030    2    1    2    0    0  0.00000000000E+00  0.00000000000E+00  0.14412430599E+03  0.25038539043E+04  0.24997024940E+04 0.  0.
        2    1    3    3  502    0 -0.40103943449E+03 -0.10614425971E+04 -0.45286459351E+03  0.12217116497E+04  0.25500000920E-02 0.  1.
       -2    1    3    3    0  502  0.40103943449E+03  0.10614425971E+04  0.59698889950E+03  0.12821422546E+04  0.25500000920E-02 0. -1.
</event>
<event>
 5   0  0.1553604E-06  0.2511594E+04  0.7818609E-02  0.8398867E-01
        1   -1    0    0  501    0  0.00000000000E+00  0.00000000000E+00  0.16390004042E+04  0.16390004042E+04  0.50400001928E-02 0.  1.
       -1   -1    0    0    0  501  0.00000000000E+00  0.00000000000E+00 -0.96218740457E+03  0.96218740458E+03  0.50400001928E-02 0. -1.
    10030    2    1    2    0    0  0.00000000000E+00  0.00000000000E+00  0.67681299960E+03  0.26011878088E+04  0.25115935539E+04 0.  0.
        1    1    3    3  502    0  0.11607366634E+04 -0.47885885623E+03  0.31743217688E+03  0.12951365151E+04  0.50400001928E-02 0. -1.
       -1    1    3    3    0  502 -0.11607366634E+04  0.47885885623E+03  0.35938082272E+03  0.13060512936E+04  0.50400001928E-02 0.  1.
</event>
<event>
 5   0  0.3924441E-06  0.2496818E+04  0.7818609E-02  0.8404120E-01
        2   -1    0    0  501    0  0.00000000000E+00  0.00000000000E+00  0.93135325345E+03  0.93135325345E+03  0.25500000920E-02 0. -1.
       -2   -1    0    0    0  501  0.00000000000E+00  0.00000000000E+00 -0.16733990108E+04  0.16733990108E+04  0.25500000920E-02 0.  1.
    10030    2    1    2    0    0  0.00000000000E+00  0.00000000000E+00 -0.74204575733E+03  0.26047522642E+04  0.24968184660E+04 0.  0.
        2    1    3    3  502    0 -0.41393051346E+03 -0.18691741211E+03 -0.15841541419E+04  0.16479747978E+04  0.25500000920E-02 0.  1.
       -2    1    3    3    0  502  0.41393051346E+03  0.18691741211E+03  0.84210838455E+03  0.95677746643E+03  0.25500000920E-02 0. -1.
</event>
<event>
 5   0  0.1553604E-06  0.2499366E+04  0.7818609E-02  0.8403211E-01
        1   -1    0    0  501    0  0.00000000000E+00  0.00000000000E+00  0.15049102757E+04  0.15049102757E+04  0.50400001928E-02 0. -1.
       -1   -1    0    0    0  501  0.00000000000E+00  0.00000000000E+00 -0.10377413354E+04  0.10377413354E+04  0.50400001928E-02 0.  1.
    10030    2    1    2    0    0  0.00000000000E+00  0.00000000000E+00  0.46716894027E+03  0.25426516112E+04  0.24993659990E+04 0.  0.
        1    1    3    3  502    0  0.12334210770E+04 -0.16362662421E+03  0.11491795217E+03  0.12495228534E+04  0.50400001928E-02 0. -1.
       -1    1    3    3    0  502 -0.12334210770E+04  0.16362662421E+03  0.35225098811E+03  0.12931287577E+04  0.50400001928E-02 0.  1.
</event>
<event>
 5   0  0.1287375E-06  0.2474619E+04  0.7818609E-02  0.8412084E-01
        4   -1    0    0  501    0  0.00000000000E+00  0.00000000000E+00  0.11332956316E+04  0.11332963432E+04  0.12699999809E+01 0.  1.
       -4   -1    0    0    0  501  0.00000000000E+00  0.00000000000E+00 -0.13508682555E+04  0.13508688525E+04  0.12699999809E+01 0. -1.
    10030    2    1    2    0    0  0.00000000000E+00  0.00000000000E+00 -0.21757262397E+03  0.24841651957E+04  0.24746189349E+04 0.  0.
        1    1    3    3  502    0 -0.90363106187E+03  0.61460828090E+03  0.47366076891E+03  0.11910696701E+04  0.50400001928E-02 0.  1.
       -1    1    3    3    0  502  0.90363106187E+03 -0.61460828090E+03 -0.69123339288E+03  0.12930955256E+04  0.50400001928E-02 0. -1.
</event>
<event>
 5   0  0.1574896E-06  0.2499870E+04  0.7818609E-02  0.8403032E-01
       -1   -1    0    0    0  501  0.00000000000E+00  0.00000000000E+00  0.84857753769E+03  0.84857753770E+03  0.50400001928E-02 0.  1.
        1   -1    0    0  501    0  0.00000000000E+00  0.00000000000E+00 -0.18411245566E+04  0.18411245566E+04  0.50400001928E-02 0. -1.
    10030    2    1    2    0    0  0.00000000000E+00  0.00000000000E+00 -0.99254701894E+03  0.26897020943E+04  0.24998695509E+04 0.  0.
        3    1    3    3  502    0  0.39268342887E+03 -0.13077420474E+03 -0.17652565747E+04  0.18131279471E+04  0.10100000352E+00 0. -1.
       -3    1    3    3    0  502 -0.39268342887E+03  0.13077420474E+03  0.77270955572E+03  0.87657414725E+03  0.10100000352E+00 0.  1.
</event>
<event>
 5   0  0.1287375E-06  0.2498266E+04  0.7818609E-02  0.8403604E-01
       -3   -1    0    0    0  501  0.00000000000E+00  0.00000000000E+00  0.91634556038E+03  0.91634556594E+03  0.10100000352E+00 0. -1.
        3   -1    0    0  501    0  0.00000000000E+00  0.00000000000E+00 -0.17027777508E+04  0.17027777538E+04  0.10100000352E+00 0.  1.
    10030    2    1    2    0    0  0.00000000000E+00  0.00000000000E+00 -0.78643219042E+03  0.26191233197E+04  0.24982656732E+04 0.  0.
        1    1    3    3  502    0 -0.86401132008E+03 -0.29035621677E+03 -0.12886491351E+04  0.15784292468E+04  0.50400001928E-02 0.  1.
       -1    1    3    3    0  502  0.86401132008E+03  0.29035621677E+03  0.50221694467E+03  0.10406940729E+04  0.50400001928E-02 0. -1.
</event>
<event>
 5   0  0.1541852E-06  0.2491600E+04  0.7818609E-02  0.8405984E-01
       -1   -1    0    0    0  501  0.00000000000E+00  0.00000000000E+00  0.92462773378E+03  0.92462773380E+03  0.50400001928E-02 0.  1.
        1   -1    0    0  501    0  0.00000000000E+00  0.00000000000E+00 -0.16785319977E+04  0.16785319977E+04  0.50400001928E-02 0. -1.
    10030    2    1    2    0    0  0.00000000000E+00  0.00000000000E+00 -0.75390426394E+03  0.26031597315E+04  0.24915996766E+04 0.  0.
        5    1    3    3  502    0 -0.44379224121E+03  0.21079395699E+03  0.81912505683E+03  0.95518249271E+03  0.46999998093E+01 0.  1.
       -5    1    3    3    0  502  0.44379224121E+03 -0.21079395699E+03 -0.15730293208E+04  0.16479772388E+04  0.46999998093E+01 0. -1.
</event>
<event>
 5   0  0.3924441E-06  0.2499204E+04  0.7818609E-02  0.8403269E-01
       -2   -1    0    0    0  501  0.00000000000E+00  0.00000000000E+00  0.81894320425E+03  0.81894320425E+03  0.25500000920E-02 0. -1.
        2   -1    0    0  501    0  0.00000000000E+00  0.00000000000E+00 -0.19067322806E+04  0.19067322806E+04  0.25500000920E-02 0.  1.
    10030    2    1    2    0    0  0.00000000000E+00  0.00000000000E+00 -0.10877890764E+04  0.27256754849E+04  0.24992042282E+04 0.  0.
        2    1    3    3  502    0  0.60658593738E+02 -0.72650154481E+03  0.56297272459E+03  0.92109839228E+03  0.25500000920E-02 0. -1.
       -2    1    3    3    0  502 -0.60658593738E+02  0.72650154481E+03 -0.16507618010E+04  0.18045770926E+04  0.25500000920E-02 0.  1.
</event>
<event>
 5   0  0.1287375E-06  0.2497375E+04  0.7818609E-02  0.8403921E-01
       -3   -1    0    0    0  501  0.00000000000E+00  0.00000000000E+00  0.15218563773E+04  0.15218563807E+04  0.10100000352E+00 0. -1.
        3   -1    0    0  501    0  0.00000000000E+00  0.00000000000E+00 -0.10245519211E+04  0.10245519261E+04  0.10100000352E+00 0.  1.
    10030    2    1    2    0    0  0.00000000000E+00  0.00000000000E+00  0.49730445620E+03  0.25464083067E+04  0.24973753307E+04 0.  0.
        3    1    3    3  502    0  0.21487084187E+03 -0.24748101355E+03  0.14772176863E+04  0.15131386036E+04  0.10100000352E+00 0. -1.
       -3    1    3    3    0  502 -0.21487084187E+03  0.24748101355E+03 -0.97991323009E+03  0.10332697032E+04  0.10100000352E+00 0.  1.
</event>
<event>
 5   0  0.1553604E-06  0.2494815E+04  0.7818609E-02  0.8404835E-01
       -1   -1    0    0    0  501  0.00000000000E+00  0.00000000000E+00  0.90503074311E+03  0.90503074312E+03  0.50400001928E-02 0. -1.
        1   -1    0    0  501    0  0.00000000000E+00  0.00000000000E+00 -0.17193066926E+04  0.17193066926E+04  0.50400001928E-02 0.  1.
    10030    2    1    2    0    0  0.00000000000E+00  0.00000000000E+00 -0.81427594951E+03  0.26243374358E+04  0.24948149540E+04 0.  0.
        1    1    3    3  502    0 -0.15269150046E+03  0.65597138242E+03  0.69733057896E+03  0.96947567542E+03  0.50400001928E-02 0. -1.
       -1    1    3    3    0  502  0.15269150046E+03 -0.65597138242E+03 -0.15116065285E+04  0.16548617603E+04  0.50400001928E-02 0.  1.
</event>
<event>
 5   0  0.3924441E-06  0.2502722E+04  0.7818609E-02  0.8402017E-01
       -2   -1    0    0    0  501  0.00000000000E+00  0.00000000000E+00  0.11183644649E+04  0.11183644649E+04  0.25500000920E-02 0.  1.
        2   -1    0    0  501    0  0.00000000000E+00  0.00000000000E+00 -0.14001730927E+04  0.14001730927E+04  0.25500000920E-02 0. -1.
    10030    2    1    2    0    0  0.00000000000E+00  0.00000000000E+00 -0.28180862779E+03  0.25185375575E+04  0.25027215838E+04 0.  0.
        2    1    3    3  502    0 -0.89938441274E+03 -0.27933019861E+03 -0.97011778776E+03  0.13520525892E+04  0.25500000920E-02 0. -1.
       -2    1    3    3    0  502  0.89938441274E+03  0.27933019861E+03  0.68830915997E+03  0.11664849684E+04  0.25500000920E-02 0.  1.
</event>
<event>
 5   0  0.1501747E-06  0.2501477E+04  0.7818609E-02  0.8402460E-01
        1   -1    0    0  501    0  0.00000000000E+00  0.00000000000E+00  0.14566633338E+04  0.14566633338E+04  0.50400001928E-02 0. -1.
       -1   -1    0    0    0  501  0.00000000000E+00  0.00000000000E+00 -0.10739244866E+04  0.10739244866E+04  0.50400001928E-02 0.  1.
    10030    2    1    2    0    0  0.00000000000E+00  0.00000000000E+00  0.38273884717E+03  0.25305878204E+04  0.25014767022E+04 0.  0.
        2    1    3    3  502    0  0.51427381690E+02 -0.83314218660E+03  0.11336465564E+04  0.14078086495E+04  0.25500000920E-02 0. -1.
       -2    1    3    3    0  502 -0.51427381690E+02  0.83314218660E+03 -0.75090770927E+03  0.11227791709E+04  0.25500000920E-02 0.  1.
</event>
<event>
 5   0  0.1501747E-06  0.2494830E+04  0.7818609E-02  0.8404830E-01
       -1   -1    0    0    0  501  0.00000000000E+00  0.00000000000E+00  0.97438647566E+03  0.97438647568E+03  0.50400001928E-02 0. -1.
        1   -1    0    0  501    0  0.00000000000E+00  0.00000000000E+00 -0.15969482574E+04  0.15969482574E+04  0.50400001928E-02 0.  1.
    10030    2    1    2    0    0  0.00000000000E+00  0.00000000000E+00 -0.62256178173E+03  0.25713347331E+04  0.24948304827E+04 0.  0.
        2    1    3    3  502    0 -0.93429105524E+03  0.65381407846E+02 -0.11604828210E+04  0.14912729067E+04  0.25500000920E-02 0.  1.
       -2    1    3    3    0  502  0.93429105524E+03 -0.65381407846E+02  0.53792103924E+03  0.10800618264E+04  0.25500000920E-02 0. -1.
</event>
<event>
 5   0  0.1519145E-06  0.2502448E+04  0.7818609E-02  0.8402114E-01
       -1   -1    0    0    0  501  0.00000000000E+00  0.00000000000E+00  0.13787634011E+04  0.13787634011E+04  0.50400001928E-02 0. -1.
        1   -1    0    0  501    0  0.00000000000E+00  0.00000000000E+00 -0.11354824340E+04  0.11354824340E+04  0.50400001928E-02 0.  1.
    10030    2    1    2    0    0  0.00000000000E+00  0.00000000000E+00  0.24328096715E+03  0.25142458351E+04  0.25024480994E+04 0.  0.
        4    1    3    3  502    0 -0.93140648845E+02  0.60180654925E+02  0.13738159065E+04  0.13782846765E+04  0.12699999809E+01 0. -1.
       -4    1    3    3    0  502  0.93140648845E+02 -0.60180654925E+02 -0.11305349394E+04  0.11359611585E+04  0.12699999809E+01 0.  1.
</event>
<event>
 5   0  0.1519145E-06  0.2500044E+04  0.7818609E-02  0.8402970E-01
        1   -1    0    0  501    0  0.00000000000E+00  0.00000000000E+00  0.17399803463E+04  0.17399803463E+04  0.50400001928E-02 0.  1.
       -1   -1    0    0    0  501  0.00000000000E+00  0.00000000000E+00 -0.89803008470E+03  0.89803008472E+03  0.50400001928E-02 0. -1.
    10030    2    1    2    0    0  0.00000000000E+00  0.00000000000E+00  0.84195026160E+03  0.26380104310E+04  0.25000437579E+04 0.  0.
        4    1    3    3  502    0  0.60695180274E+03 -0.46917638992E+03 -0.62042212028E+03  0.98663174282E+03  0.12699999809E+01 0. -1.
       -4    1    3    3    0  502 -0.60695180274E+03  0.46917638992E+03  0.14623723819E+04  0.16513786882E+04  0.12699999809E+01 0.  1.
</event>
<event>
 5   0  0.1541852E-06  0.2498904E+04  0.7818609E-02  0.8403376E-01
       -1   -1    0    0    0  501  0.00000000000E+00  0.00000000000E+00  0.11328953513E+04  0.11328953513E+04  0.50400001928E-02 0. -1.
        1   -1    0    0  501    0  0.00000000000E+00  0.00000000000E+00 -0.13780006161E+04  0.13780006161E+04  0.50400001928E-02 0.  1.
    10030    2    1    2    0    0  0.00000000000E+00  0.00000000000E+00 -0.24510526479E+03  0.25108959675E+04  0.24989041536E+04 0.  0.
        5    1    3    3  502    0  0.10605650024E+04 -0.43179448130E+03 -0.62481517839E+03  0.13044771733E+04  0.46999998093E+01 0.  1.
       -5    1    3    3    0  502 -0.10605650024E+04  0.43179448130E+03  0.37970991360E+03  0.12064187942E+04  0.46999998093E+01 0. -1.
</event>
<event>
 5   0  0.1574896E-06  0.2505196E+04  0.7818609E-02  0.8401137E-01
        1   -1    0    0  501    0  0.00000000000E+00  0.00000000000E+00  0.89742292837E+03  0.89742292838E+03  0.50400001928E-02 0.  1.
       -1   -1    0    0    0  501  0.00000000000E+00  0.00000000000E+00 -0.17483417849E+04  0.17483417849E+04  0.50400001928E-02 0. -1.
    10030    2    1    2    0    0  0.00000000000E+00  0.00000000000E+00 -0.85091885651E+03  0.26457647133E+04  0.25051962034E+04 0.  0.
        3    1    3    3  502    0  0.30756725418E+03  0.62303071907E+03 -0.15261665877E+04  0.16768868049E+04  0.10100000352E+00 0. -1.
       -3    1    3    3    0  502 -0.30756725418E+03 -0.62303071907E+03  0.67524773117E+03  0.96887790841E+03  0.10100000352E+00 0.  1.
</event>
<event>
 5   0  0.3814260E-06  0.2504825E+04  0.7818609E-02  0.8401269E-01
       -2   -1    0    0    0  501  0.00000000000E+00  0.00000000000E+00  0.20192470193E+04  0.20192470193E+04  0.25500000920E-02 0. -1.
        2   -1    0    0  501    0  0.00000000000E+00  0.00000000000E+00 -0.77679276967E+03  0.77679276968E+03  0.25500000920E-02 0.  1.
    10030    2    1    2    0    0  0.00000000000E+00  0.00000000000E+00  0.12424542496E+04  0.27960397889E+04  0.25048245326E+04 0.  0.
        5    1    3    3  502    0  0.87856607162E+03 -0.88360572897E+03  0.48057385667E+03  0.13355189060E+04  0.46999998093E+01 0. -1.
       -5    1    3    3    0  502 -0.87856607162E+03  0.88360572897E+03  0.76188039291E+03  0.14605208830E+04  0.46999998093E+01 0.  1.
</event>
<event>
 5   0  0.1541852E-06  0.2499041E+04  0.7818609E-02  0.8403327E-01
       -1   -1    0    0    0  501  0.00000000000E+00  0.00000000000E+00  0.60237873503E+03  0.60237873505E+03  0.50400001928E-02 0. -1.
        1   -1    0    0  501    0  0.00000000000E+00  0.00000000000E+00 -0.25918939559E+04  0.25918939559E+04  0.50400001928E-02 0.  1.
    10030    2    1    2    0    0  0.00000000000E+00  0.00000000000E+00 -0.19895152209E+04  0.31942726910E+04  0.24990412582E+04 0.  0.
        5    1    3    3  502    0 -0.38739665958E+03  0.43252898880E+03 -0.24089579981E+04  0.24779544437E+04  0.46999998093E+01 0.  1.
       -5    1    3    3    0  502  0.38739665958E+03 -0.43252898880E+03  0.41944277727E+03  0.71631824730E+03  0.46999998093E+01 0. -1.
</event>
<event>
 5   0  0.3808293E-06  0.2483628E+04  0.7818609E-02  0.8408841E-01
       -2   -1    0    0    0  501  0.00000000000E+00  0.00000000000E+00  0.11105873816E+04  0.11105873816E+04  0.25500000920E-02 0.  1.
        2   -1    0    0  501    0  0.00000000000E+00  0.00000000000E+00 -0.13885463377E+04  0.13885463377E+04  0.25500000920E-02 0. -1.
    10030    2    1    2    0    0  0.00000000000E+00  0.00000000000E+00 -0.27795895612E+03  0.24991337193E+04  0.24836280249E+04 0.  0.
        1    1    3    3  502    0  0.27973957424E+03  0.88048570187E+03 -0.97397503108E+03  0.13424368372E+04  0.50400001928E-02 0. -1.
       -1    1    3    3    0  502 -0.27973957424E+03 -0.88048570187E+03  0.69601607496E+03  0.11566968822E+04  0.50400001928E-02 0.  1.
</event>
<event>
 5   0  0.1574896E-06  0.2498384E+04  0.7818609E-02  0.8403562E-01
       -1   -1    0    0    0  501  0.00000000000E+00  0.00000000000E+00  0.80869792395E+03  0.80869792396E+03  0.50400001928E-02 0.  1.
        1   -1    0    0  501    0  0.00000000000E+00  0.00000000000E+00 -0.19296208034E+04  0.19296208034E+04  0.50400001928E-02 0. -1.
    10030    2    1    2    0    0  0.00000000000E+00  0.00000000000E+00 -0.11209228795E+04  0.27383187274E+04  0.24983837477E+04 0.  0.
        3    1    3    3  502    0 -0.10442982720E+04  0.12914463716E+03  0.17742657384E+03  0.10671070319E+04  0.10100000352E+00 0.  1.
       -3    1    3    3    0  502  0.10442982720E+04 -0.12914463716E+03 -0.12983494533E+04  0.16712116955E+04  0.10100000352E+00 0. -1.
</event>
<event>
 5   0  0.1519145E-06  0.2487151E+04  0.7818609E-02  0.8407577E-01
       -1   -1    0    0    0  501  0.00000000000E+00  0.00000000000E+00  0.20284520121E+04  0.20284520121E+04  0.50400001928E-02 0.  1.
        1   -1    0    0  501    0  0.00000000000E+00  0.00000000000E+00 -0.76239442617E+03  0.76239442619E+03  0.50400001928E-02 0. -1.
    10030    2    1    2    0    0  0.00000000000E+00  0.00000000000E+00  0.12660575859E+04  0.27908464383E+04  0.24871513889E+04 0.  0.
        4    1    3    3  502    0  0.17559014923E+02 -0.32534859317E+03 -0.71364697349E+03  0.78450853516E+03  0.12699999809E+01 0. -1.
       -4    1    3    3    0  502 -0.17559014923E+02  0.32534859317E+03  0.19797045594E+04  0.20063379031E+04  0.12699999809E+01 0.  1.
</event>
<event>
 5   0  0.3808293E-06  0.2498544E+04  0.7818609E-02  0.8403504E-01
        2   -1    0    0  501    0  0.00000000000E+00  0.00000000000E+00  0.11763098483E+04  0.11763098483E+04  0.25500000920E-02 0.  1.
       -2   -1    0    0    0  501  0.00000000000E+00  0.00000000000E+00 -0.13267595745E+04  0.13267595745E+04  0.25500000920E-02 0. -1.
    10030    2    1    2    0    0  0.00000000000E+00  0.00000000000E+00 -0.15044972617E+03  0.25030694228E+04  0.24985438590E+04 0.  0.
        1    1    3    3  502    0 -0.60725912365E+03 -0.25804369332E+03  0.98751237255E+03  0.11876577272E+04  0.50400001928E-02 0.  1.
       -1    1    3    3    0  502  0.60725912365E+03  0.25804369332E+03 -0.11379620987E+04  0.13154116956E+04  0.50400001928E-02 0. -1.
</event>
<event>
 5   0  0.3713394E-06  0.2487168E+04  0.7818609E-02  0.8407571E-01
        2   -1    0    0  501    0  0.00000000000E+00  0.00000000000E+00  0.24187251817E+04  0.24187251817E+04  0.25500000920E-02 0. -1.
       -2   -1    0    0    0  501  0.00000000000E+00  0.00000000000E+00 -0.63938681824E+03  0.63938681824E+03  0.25500000920E-02 0.  1.
    10030    2    1    2    0    0  0.00000000000E+00  0.00000000000E+00  0.17793383635E+04  0.30581120000E+04  0.24871678658E+04 0.  0.
        3    1    3    3  502    0 -0.47641288461E+03 -0.65444706423E+02  0.22997767270E+04  0.23495159609E+04  0.10100000352E+00 0. -1.
       -3    1    3    3    0  502  0.47641288461E+03  0.65444706423E+02 -0.52043836350E+03  0.70859603910E+03  0.10100000352E+00 0.  1.
</event>
<event>
 5   0  0.3808293E-06  0.2507290E+04  0.7818609E-02  0.8400393E-01
        2   -1    0    0  501    0  0.00000000000E+00  0.00000000000E+00  0.11501844142E+04  0.11501844142E+04  0.25500000920E-02 0.  1.
       -2   -1    0    0    0  501  0.00000000000E+00  0.00000000000E+00 -0.13664116156E+04  0.13664116156E+04  0.25500000920E-02 0. -1.
    10030    2    1    2    0    0  0.00000000000E+00  0.00000000000E+00 -0.21622720141E+03  0.25165960299E+04  0.25072896472E+04 0.  0.
        1    1    3    3  502    0  0.32538922127E+03 -0.11419684533E+04  0.29544249010E+03  0.12236242719E+04  0.50400001928E-02 0.  1.
       -1    1    3    3    0  502 -0.32538922127E+03  0.11419684533E+04 -0.51166969151E+03  0.12929717580E+04  0.50400001928E-02 0. -1.
</event>
<event>
 5   0  0.3713394E-06  0.2515379E+04  0.7818609E-02  0.8397527E-01
       -2   -1    0    0    0  501  0.00000000000E+00  0.00000000000E+00  0.16547031931E+04  0.16547031931E+04  0.25500000920E-02 0.  1.
        2   -1    0    0  501    0  0.00000000000E+00  0.00000000000E+00 -0.95593111976E+03  0.95593111976E+03  0.25500000920E-02 0. -1.
    10030    2    1    2    0    0  0.00000000000E+00  0.00000000000E+00  0.69877207335E+03  0.26106343129E+04  0.25153785212E+04 0.  0.
        3    1    3    3  502    0  0.18418579633E+03  0.60110252504E+03 -0.78114559075E+03  0.10027148634E+04  0.10100000352E+00 0. -1.
       -3    1    3    3    0  502 -0.18418579633E+03 -0.60110252504E+03  0.14799176641E+04  0.16079194494E+04  0.10100000352E+00 0.  1.
</event>
<event>
 5   0  0.3924441E-06  0.2499271E+04  0.7818609E-02  0.8403245E-01
        2   -1    0    0  501    0  0.00000000000E+00  0.00000000000E+00  0.19719844680E+04  0.19719844680E+04  0.25500000920E-02 0.  1.
       -2   -1    0    0    0  501  0.00000000000E+00  0.00000000000E+00 -0.79188723514E+03  0.79188723514E+03  0.25500000920E-02 0. -1.
    10030    2    1    2    0    0  0.00000000000E+00  0.00000000000E+00  0.11800972329E+04  0.27638717032E+04  0.24992713563E+04 0.  0.
        2    1    3    3  502    0  0.58677939232E+03 -0.92321211697E+03 -0.78028051072E+02  0.10966854813E+04  0.25500000920E-02 0. -1.
       -2    1    3    3    0  502 -0.58677939232E+03  0.92321211697E+03  0.12581252840E+04  0.16671862218E+04  0.25500000920E-02 0.  1.
</event>
<event>
 5   0  0.3808293E-06  0.2501823E+04  0.7818609E-02  0.8402336E-01
        2   -1    0    0  501    0  0.00000000000E+00  0.00000000000E+00  0.23118838415E+04  0.23118838415E+04  0.25500000920E-02 0.  1.
       -2   -1    0    0    0  501  0.00000000000E+00  0.00000000000E+00 -0.67684199530E+03  0.67684199531E+03  0.25500000920E-02 0. -1.
    10030    2    1    2    0    0  0.00000000000E+00  0.00000000000E+00  0.16350418462E+04  0.29887258368E+04  0.25018233928E+04 0.  0.
        1    1    3    3  502    0  0.81328884184E+03  0.88315864935E+03  0.12371233233E+04  0.17239147477E+04  0.50400001928E-02 0. -1.
       -1    1    3    3    0  502 -0.81328884184E+03 -0.88315864935E+03  0.39791852284E+03  0.12648110891E+04  0.50400001928E-02 0.  1.
</event>
<event>
 5   0  0.1541852E-06  0.2500168E+04  0.7818609E-02  0.8402926E-01
        1   -1    0    0  501    0  0.00000000000E+00  0.00000000000E+00  0.19335000898E+04  0.19335000898E+04  0.50400001928E-02 0.  1.
       -1   -1    0    0    0  501  0.00000000000E+00  0.00000000000E+00 -0.80822849966E+03  0.80822849967E+03  0.50400001928E-02 0. -1.
    10030    2    1    2    0    0  0.00000000000E+00  0.00000000000E+00  0.11252715901E+04  0.27417285894E+04  0.25001678957E+04 0.  0.
        5    1    3    3  502    0 -0.64734938917E+03 -0.57400846713E+03  0.15521113185E+04  0.17769689325E+04  0.46999998093E+01 0.  1.
       -5    1    3    3    0  502  0.64734938917E+03  0.57400846713E+03 -0.42683972838E+03  0.96475965697E+03  0.46999998093E+01 0. -1.
</event>
<event>
 5   0  0.1541852E-06  0.2499780E+04  0.7818609E-02  0.8403064E-01
       -1   -1    0    0    0  501  0.00000000000E+00  0.00000000000E+00  0.90828282472E+03  0.90828282474E+03  0.50400001928E-02 0.  1.
        1   -1    0    0  501    0  0.00000000000E+00  0.00000000000E+00 -0.17199757589E+04  0.17199757589E+04  0.50400001928E-02 0. -1.
    10030    2    1    2    0    0  0.00000000000E+00  0.00000000000E+00 -0.81169293422E+03  0.26282585837E+04  0.24997795429E+04 0.  0.
        5    1    3    3  502    0 -0.51591114383E+03  0.10280553609E+04  0.10830690868E+03  0.11553417719E+04  0.46999998093E+01 0.  1.
       -5    1    3    3    0  502  0.51591114383E+03 -0.10280553609E+04 -0.91999984289E+03  0.14729168118E+04  0.46999998093E+01 0. -1.
</event>
<event>
 5   0  0.3924441E-06  0.2494119E+04  0.7818609E-02  0.8405084E-01
       -2   -1    0    0    0  501  0.00000000000E+00  0.00000000000E+00  0.65236088520E+03  0.65236088520E+03  0.25500000920E-02 0. -1.
        2   -1    0    0  501    0  0.00000000000E+00  0.00000000000E+00 -0.23838920438E+04  0.23838920438E+04  0.25500000920E-02 0.  1.
    10030    2    1    2    0    0  0.00000000000E+00  0.00000000000E+00 -0.17315311586E+04  0.30362529290E+04  0.24941194229E+04 0.  0.
        2    1    3    3  502    0  0.57765256941E+02 -0.26634015763E+03 -0.23471958878E+04  0.23629647565E+04  0.25500000920E-02 0.  1.
       -2    1    3    3    0  502 -0.57765256941E+02  0.26634015763E+03  0.61566472922E+03  0.67328817254E+03  0.25500000920E-02 0. -1.
</event>
<event>
 5   0  0.1574896E-06  0.2500655E+04  0.7818609E-02  0.8402752E-01
        1   -1    0    0  501    0  0.00000000000E+00  0.00000000000E+00  0.73151116941E+03  0.73151116943E+03  0.50400001928E-02 0. -1.
       -1   -1    0    0    0  501  0.00000000000E+00  0.00000000000E+00 -0.21371080569E+04  0.21371080569E+04  0.50400001928E-02 0.  1.
    10030    2    1    2    0    0  0.00000000000E+00  0.00000000000E+00 -0.14055968875E+04  0.28686192263E+04  0.25006546454E+04 0.  0.
        3    1    3    3  502    0  0.57098395978E+03 -0.12467674640E+03 -0.19707732239E+04  0.20556055273E+04  0.10100000352E+00 0.  1.
       -3    1    3    3    0  502 -0.57098395978E+03  0.12467674640E+03  0.56517633643E+03  0.81301369907E+03  0.10100000352E+00 0. -1.
</event>
<event>
 5   0  0.1541852E-06  0.2514475E+04  0.7818609E-02  0.8397847E-01
        1   -1    0    0  501    0  0.00000000000E+00  0.00000000000E+00  0.18030272935E+04  0.18030272936E+04  0.50400001928E-02 0.  1.
       -1   -1    0    0    0  501  0.00000000000E+00  0.00000000000E+00 -0.87666244933E+03  0.87666244935E+03  0.50400001928E-02 0. -1.
    10030    2    1    2    0    0  0.00000000000E+00  0.00000000000E+00  0.92636484422E+03  0.26796897429E+04  0.25144751527E+04 0.  0.
        5    1    3    3  502    0  0.46178331676E+03  0.75515648059E+03 -0.48829562158E+03  0.10109202965E+04  0.46999998093E+01 0. -1.
       -5    1    3    3    0  502 -0.46178331676E+03 -0.75515648059E+03  0.14146604658E+04  0.16687694464E+04  0.46999998093E+01 0.  1.
</event>
<event>
 5   0  0.1501747E-06  0.2506632E+04  0.7818609E-02  0.8400627E-01
       -1   -1    0    0    0  501  0.00000000000E+00  0.00000000000E+00  0.79355409679E+03  0.79355409680E+03  0.50400001928E-02 0. -1.
        1   -1    0    0  501    0  0.00000000000E+00  0.00000000000E+00 -0.19794506825E+04  0.19794506825E+04  0.50400001928E-02 0.  1.
    10030    2    1    2    0    0  0.00000000000E+00  0.00000000000E+00 -0.11858965857E+04  0.27730047793E+04  0.25066321617E+04 0.  0.
        2    1    3    3  502    0 -0.17088700363E+03 -0.82721669670E+03 -0.16172533137E+04  0.18245542228E+04  0.25500000920E-02 0.  1.
       -2    1    3    3    0  502  0.17088700363E+03  0.82721669670E+03  0.43135672800E+03  0.94845055648E+03  0.25500000920E-02 0. -1.
</event>
<event>
 5   0  0.3713394E-06  0.2496209E+04  0.7818609E-02  0.8404337E-01
        2   -1    0    0  501    0  0.00000000000E+00  0.00000000000E+00  0.14063488899E+04  0.14063488899E+04  0.25500000920E-02 0.  1.
       -2   -1    0    0    0  501  0.00000000000E+00  0.00000000000E+00 -0.11076661578E+04  0.11076661578E+04  0.25500000920E-02 0. -1.
    10030    2    1    2    0    0  0.00000000000E+00  0.00000000000E+00  0.29868273209E+03  0.25140150476E+04  0.24962091830E+04 0.  0.
        3    1    3    3  502    0  0.65205049314E+03 -0.11350504109E+03  0.12150537879E+04  0.13836216816E+04  0.10100000352E+00 0.  1.
       -3    1    3    3    0  502 -0.65205049314E+03  0.11350504109E+03 -0.91637105582E+03  0.11303933661E+04  0.10100000352E+00 0. -1.
</event>
<event>
 5   0  0.1541852E-06  0.2498255E+04  0.7818609E-02  0.8403607E-01
        1   -1    0    0  501    0  0.00000000000E+00  0.00000000000E+00  0.19394449083E+04  0.19394449083E+04  0.50400001928E-02 0.  1.
       -1   -1    0    0    0  501  0.00000000000E+00  0.00000000000E+00 -0.80451884570E+03  0.80451884572E+03  0.50400001928E-02 0. -1.
    10030    2    1    2    0    0  0.00000000000E+00  0.00000000000E+00  0.11349260626E+04  0.27439637541E+04  0.24982553744E+04 0.  0.
        5    1    3    3  502    0 -0.78502243885E+03 -0.52178625087E+03  0.14676941685E+04  0.17443249076E+04  0.46999998093E+01 0.  1.
       -5    1    3    3    0  502  0.78502243885E+03  0.52178625087E+03 -0.33276810584E+03  0.99963884646E+03  0.46999998093E+01 0. -1.
</event>
<event>
 5   0  0.3924441E-06  0.2504899E+04  0.7818609E-02  0.8401242E-01
        2   -1    0    0  501    0  0.00000000000E+00  0.00000000000E+00  0.20124068751E+04  0.20124068751E+04  0.25500000920E-02 0.  1.
       -2   -1    0    0    0  501  0.00000000000E+00  0.00000000000E+00 -0.77947936604E+03  0.77947936604E+03  0.25500000920E-02 0. -1.
    10030    2    1    2    0    0  0.00000000000E+00  0.00000000000E+00  0.12329275091E+04  0.27918862412E+04  0.25048989083E+04 0.  0.
        2    1    3    3  502    0  0.48683971086E+03  0.40455661614E+02  0.19018394435E+04  0.19635790876E+04  0.25500000920E-02 0.  1.
       -2    1    3    3    0  502 -0.48683971086E+03 -0.40455661614E+02 -0.66891193439E+03  0.82830715353E+03  0.25500000920E-02 0. -1.
</event>
<event>
 5   0  0.1553604E-06  0.2512960E+04  0.7818609E-02  0.8398383E-01
       -1   -1    0    0    0  501  0.00000000000E+00  0.00000000000E+00  0.83099762899E+03  0.83099762900E+03  0.50400001928E-02 0.  1.
        1   -1    0    0  501    0  0.00000000000E+00  0.00000000000E+00 -0.18998151342E+04  0.18998151342E+04  0.50400001928E-02 0. -1.
    10030    2    1    2    0    0  0.00000000000E+00  0.00000000000E+00 -0.10688175052E+04  0.27308127632E+04  0.25129599058E+04 0.  0.
        1    1    3    3  502    0 -0.30851758310E+03  0.90281666781E+02 -0.18543737978E+04  0.18820297714E+04  0.50400001928E-02 0. -1.
       -1    1    3    3    0  502  0.30851758310E+03 -0.90281666781E+02  0.78555629256E+03  0.84878299184E+03  0.50400001928E-02 0.  1.
</event>
<event>
 5   0  0.3713394E-06  0.2499489E+04  0.7818609E-02  0.8403168E-01
       -2   -1    0    0    0  501  0.00000000000E+00  0.00000000000E+00  0.86627010546E+03  0.86627010546E+03  0.25500000920E-02 0.  1.
        2   -1    0    0  501    0  0.00000000000E+00  0.00000000000E+00 -0.18029727962E+04  0.18029727962E+04  0.25500000920E-02 0. -1.
    10030    2    1    2    0    0  0.00000000000E+00  0.00000000000E+00 -0.93670269078E+03  0.26692429017E+04  0.24994890953E+04 0.  0.
        3    1    3    3  502    0  0.82268469557E+03 -0.12008922706E+03 -0.14647970456E+04  0.16842986451E+04  0.10100000352E+00 0. -1.
       -3    1    3    3    0  502 -0.82268469557E+03  0.12008922706E+03  0.52809435486E+03  0.98494425660E+03  0.10100000352E+00 0.  1.
</event>
<event>
 5   0  0.1501747E-06  0.2501795E+04  0.7818609E-02  0.8402347E-01
       -1   -1    0    0    0  501  0.00000000000E+00  0.00000000000E+00  0.13330539702E+04  0.13330539702E+04  0.50400001928E-02 0. -1.
        1   -1    0    0  501    0  0.00000000000E+00  0.00000000000E+00 -0.11738039030E+04  0.11738039031E+04  0.50400001928E-02 0.  1.
    10030    2    1    2    0    0  0.00000000000E+00  0.00000000000E+00  0.15925006712E+03  0.25068578732E+04  0.25017945185E+04 0.  0.
        2    1    3    3  502    0  0.10858633351E+04  0.58731651405E+03 -0.12253582010E+03  0.12405865135E+04  0.25500000920E-02 0.  1.
       -2    1    3    3    0  502 -0.10858633351E+04 -0.58731651405E+03  0.28178588722E+03  0.12662713597E+04  0.25500000920E-02 0. -1.
</event>
<event>
 5   0  0.1574896E-06  0.2501334E+04  0.7818609E-02  0.8402510E-01
        1   -1    0    0  501    0  0.00000000000E+00  0.00000000000E+00  0.17379617087E+04  0.17379617087E+04  0.50400001928E-02 0.  1.
       -1   -1    0    0    0  501  0.00000000000E+00  0.00000000000E+00 -0.90000140631E+03  0.90000140632E+03  0.50400001928E-02 0. -1.
    10030    2    1    2    0    0  0.00000000000E+00  0.00000000000E+00  0.83796030235E+03  0.26379631150E+04  0.25013340296E+04 0.  0.
        3    1    3    3  502    0  0.56568552611E+03  0.30595699622E+03  0.15502112042E+04  0.16783219553E+04  0.10100000352E+00 0.  1.
       -3    1    3    3    0  502 -0.56568552611E+03 -0.30595699622E+03 -0.71225090182E+03  0.95964115967E+03  0.10100000352E+00 0. -1.
</event>
<event>
 5   0  0.1541852E-06  0.2498527E+04  0.7818609E-02  0.8403511E-01
        1   -1    0    0  501    0  0.00000000000E+00  0.00000000000E+00  0.10838136046E+04  0.10838136046E+04  0.50400001928E-02 0. -1.
       -1   -1    0    0    0  501  0.00000000000E+00  0.00000000000E+00 -0.14399699436E+04  0.14399699436E+04  0.50400001928E-02 0.  1.
    10030    2    1    2    0    0  0.00000000000E+00  0.00000000000E+00 -0.35615633898E+03  0.25237835482E+04  0.24985267780E+04 0.  0.
        5    1    3    3  502    0  0.12158206497E+03  0.11254581716E+02 -0.14339191251E+04  0.14391160521E+04  0.46999998093E+01 0.  1.
       -5    1    3    3    0  502 -0.12158206497E+03 -0.11254581716E+02  0.10777627861E+04  0.10846674962E+04  0.46999998093E+01 0. -1.
</event>
<event>
 5   0  0.1501747E-06  0.2431204E+04  0.7818609E-02  0.8427913E-01
        1   -1    0    0  501    0  0.00000000000E+00  0.00000000000E+00  0.22087944093E+04  0.22087944093E+04  0.50400001928E-02 0. -1.
       -1   -1    0    0    0  501  0.00000000000E+00  0.00000000000E+00 -0.66900239484E+03  0.66900239486E+03  0.50400001928E-02 0.  1.
    10030    2    1    2    0    0  0.00000000000E+00  0.00000000000E+00  0.15397920144E+04  0.28777968041E+04  0.24312044336E+04 0.  0.
        2    1    3    3  502    0  0.49804079121E+03  0.45099440076E+03 -0.42923006222E+03  0.79729481721E+03  0.25500000920E-02 0.  1.
       -2    1    3    3    0  502 -0.49804079121E+03 -0.45099440076E+03  0.19690220766E+04  0.20805019869E+04  0.25500000920E-02 0. -1.
</event>
<event>
 5   0  0.3971759E-06  0.2504426E+04  0.7818609E-02  0.8401411E-01
       -2   -1    0    0    0  501  0.00000000000E+00  0.00000000000E+00  0.67931572345E+03  0.67931572345E+03  0.25500000920E-02 0. -1.
        2   -1    0    0  501    0  0.00000000000E+00  0.00000000000E+00 -0.23082592286E+04  0.23082592286E+04  0.25500000920E-02 0.  1.
    10030    2    1    2    0    0  0.00000000000E+00  0.00000000000E+00 -0.16289435052E+04  0.29875749521E+04  0.25044255132E+04 0.  0.
        4    1    3    3  502    0 -0.22872708532E+03  0.27702980517E+03  0.61651990106E+03  0.71355447852E+03  0.12699999809E+01 0. -1.
       -4    1    3    3    0  502  0.22872708532E+03 -0.27702980517E+03 -0.22454634063E+04  0.22740204736E+04  0.12699999809E+01 0.  1.
</event>
<event>
 5   0  0.1519145E-06  0.2497580E+04  0.7818609E-02  0.8403848E-01
        1   -1    0    0  501    0  0.00000000000E+00  0.00000000000E+00  0.18588733694E+04  0.18588733695E+04  0.50400001928E-02 0.  1.
       -1   -1    0    0    0  501  0.00000000000E+00  0.00000000000E+00 -0.83893611964E+03  0.83893611965E+03  0.50400001928E-02 0. -1.
    10030    2    1    2    0    0  0.00000000000E+00  0.00000000000E+00  0.10199372498E+04  0.26978094891E+04  0.24975796376E+04 0.  0.
        4    1    3    3  502    0 -0.79776042708E+03 -0.88323105750E+03  0.10156224557E+03  0.11945021149E+04  0.12699999809E+01 0. -1.
       -4    1    3    3    0  502  0.79776042708E+03  0.88323105750E+03  0.91837500424E+03  0.15033073742E+04  0.12699999809E+01 0.  1.
</event>
<event>
 5   0  0.1541852E-06  0.2508602E+04  0.7818609E-02  0.8399927E-01
        1   -1    0    0  501    0  0.00000000000E+00  0.00000000000E+00  0.11510657311E+04  0.11510657311E+04  0.50400001928E-02 0. -1.
       -1   -1    0    0    0  501  0.00000000000E+00  0.00000000000E+00 -0.13667951837E+04  0.13667951837E+04  0.50400001928E-02 0.  1.
    10030    2    1    2    0    0  0.00000000000E+00  0.00000000000E+00 -0.21572945265E+03  0.25178609148E+04  0.25086020787E+04 0.  0.
        5    1    3    3  502    0 -0.74919970727E+03 -0.86027263085E+03 -0.63121015448E+03  0.13037705127E+04  0.46999998093E+01 0.  1.
       -5    1    3    3    0  502  0.74919970727E+03  0.86027263085E+03  0.41548070183E+03  0.12140904020E+04  0.46999998093E+01 0. -1.
</event>
<event>
 5   0  0.1501747E-06  0.2514043E+04  0.7818609E-02  0.8398000E-01
       -1   -1    0    0    0  501  0.00000000000E+00  0.00000000000E+00  0.11705489921E+04  0.11705489921E+04  0.50400001928E-02 0. -1.
        1   -1    0    0  501    0  0.00000000000E+00  0.00000000000E+00 -0.13498824136E+04  0.13498824136E+04  0.50400001928E-02 0.  1.
    10030    2    1    2    0    0  0.00000000000E+00  0.00000000000E+00 -0.17933342149E+03  0.25204314057E+04  0.25140433558E+04 0.  0.
        2    1    3    3  502    0 -0.44533323597E+03  0.11734618145E+04 -0.15890141864E+03  0.12651418821E+04  0.25500000920E-02 0.  1.
       -2    1    3    3    0  502  0.44533323597E+03 -0.11734618145E+04 -0.20432002853E+02  0.12552895235E+04  0.25500000920E-02 0. -1.
</event>
<event>
 5   0  0.3808293E-06  0.2507877E+04  0.7818609E-02  0.8400185E-01
       -2   -1    0    0    0  501  0.00000000000E+00  0.00000000000E+00  0.81185851102E+03  0.81185851103E+03  0.25500000920E-02 0.  1.
        2   -1    0    0  501    0  0.00000000000E+00  0.00000000000E+00 -0.19367442924E+04  0.19367442924E+04  0.25500000920E-02 0. -1.
    10030    2    1    2    0    0  0.00000000000E+00  0.00000000000E+00 -0.11248857814E+04  0.27486028034E+04  0.25078774591E+04 0.  0.
        1    1    3    3  502    0 -0.17316240777E+03  0.12415571888E+04 -0.59555668265E+03  0.13878534630E+04  0.50400001928E-02 0. -1.
       -1    1    3    3    0  502  0.17316240777E+03 -0.12415571888E+04 -0.52932909871E+03  0.13607493404E+04  0.50400001928E-02 0.  1.
</event>
<event>
 5   0  0.3713394E-06  0.2504796E+04  0.7818609E-02  0.8401279E-01
        2   -1    0    0  501    0  0.00000000000E+00  0.00000000000E+00  0.93125979834E+03  0.93125979834E+03  0.25500000920E-02 0.  1.
       -2   -1    0    0    0  501  0.00000000000E+00  0.00000000000E+00 -0.16842777233E+04  0.16842777233E+04  0.25500000920E-02 0. -1.
    10030    2    1    2    0    0  0.00000000000E+00  0.00000000000E+00 -0.75301792494E+03  0.26155375216E+04  0.25047955070E+04 0.  0.
        3    1    3    3  502    0 -0.31471655494E+03 -0.82838710522E+03 -0.13006385966E+04  0.15738273334E+04  0.10100000352E+00 0. -1.
       -3    1    3    3    0  502  0.31471655494E+03  0.82838710522E+03  0.54762067168E+03  0.10417101882E+04  0.10100000352E+00 0.  1.
</event>
<event>
 5   0  0.3713394E-06  0.2501209E+04  0.7818609E-02  0.8402555E-01
       -2   -1    0    0    0  501  0.00000000000E+00  0.00000000000E+00  0.10158820734E+04  0.10158820734E+04  0.25500000920E-02 0.  1.
        2   -1    0    0  501    0  0.00000000000E+00  0.00000000000E+00 -0.15395607506E+04  0.15395607506E+04  0.25500000920E-02 0. -1.
    10030    2    1    2    0    0  0.00000000000E+00  0.00000000000E+00 -0.52367867723E+03  0.25554428240E+04  0.25012094414E+04 0.  0.
        3    1    3    3  502    0  0.46705645860E+03  0.49756845936E+02  0.92234120378E+03  0.10350511029E+04  0.10100000352E+00 0.  1.
       -3    1    3    3    0  502 -0.46705645860E+03 -0.49756845936E+02 -0.14460198810E+04  0.15203917211E+04  0.10100000352E+00 0. -1.
</event>
<event>
 5   0  0.1519145E-06  0.2501014E+04  0.7818609E-02  0.8402624E-01
        1   -1    0    0  501    0  0.00000000000E+00  0.00000000000E+00  0.11374543848E+04  0.11374543848E+04  0.50400001928E-02 0. -1.
       -1   -1    0    0    0  501  0.00000000000E+00  0.00000000000E+00 -0.13747959972E+04  0.13747959972E+04  0.50400001928E-02 0.  1.
    10030    2    1    2    0    0  0.00000000000E+00  0.00000000000E+00 -0.23734161246E+03  0.25122503820E+04  0.25010139826E+04 0.  0.
        4    1    3    3  502    0 -0.33847628344E+03 -0.11330521322E+04  0.28984145173E+03  0.12175315227E+04  0.12699999809E+01 0. -1.
       -4    1    3    3    0  502  0.33847628344E+03  0.11330521322E+04 -0.52718306419E+03  0.12947188593E+04  0.12699999809E+01 0.  1.
</event>
<event>
 5   0  0.3808293E-06  0.2502800E+04  0.7818609E-02  0.8401989E-01
       -2   -1    0    0    0  501  0.00000000000E+00  0.00000000000E+00  0.11750752830E+04  0.11750752830E+04  0.25500000920E-02 0. -1.
        2   -1    0    0  501    0  0.00000000000E+00  0.00000000000E+00 -0.13326818244E+04  0.13326818244E+04  0.25500000920E-02 0.  1.
    10030    2    1    2    0    0  0.00000000000E+00  0.00000000000E+00 -0.15760654144E+03  0.25077571073E+04  0.25027996099E+04 0.  0.
        1    1    3    3  502    0 -0.65987304083E+03  0.13657171852E+02  0.98649717447E+03  0.11869269664E+04  0.50400001928E-02 0. -1.
       -1    1    3    3    0  502  0.65987304083E+03 -0.13657171852E+02 -0.11441037159E+04  0.13208301409E+04  0.50400001928E-02 0.  1.
</event>
<event>
 5   0  0.1501747E-06  0.2472002E+04  0.7818609E-02  0.8413029E-01
        1   -1    0    0  501    0  0.00000000000E+00  0.00000000000E+00  0.10161692547E+04  0.10161692547E+04  0.50400001928E-02 0.  1.
       -1   -1    0    0    0  501  0.00000000000E+00  0.00000000000E+00 -0.15033891820E+04  0.15033891821E+04  0.50400001928E-02 0. -1.
    10030    2    1    2    0    0  0.00000000000E+00  0.00000000000E+00 -0.48721992736E+03  0.25195584367E+04  0.24720015086E+04 0.  0.
        2    1    3    3  502    0 -0.13780710889E+03 -0.73115893270E+03  0.76234960355E+03  0.10652516614E+04  0.25500000920E-02 0.  1.
       -2    1    3    3    0  502  0.13780710889E+03  0.73115893270E+03 -0.12495695309E+04  0.14543067753E+04  0.25500000920E-02 0. -1.
</event>
<event>
 5   0  0.1553604E-06  0.2499941E+04  0.7818609E-02  0.8403007E-01
       -1   -1    0    0    0  501  0.00000000000E+00  0.00000000000E+00  0.16658719507E+04  0.16658719508E+04  0.50400001928E-02 0. -1.
        1   -1    0    0  501    0  0.00000000000E+00  0.00000000000E+00 -0.93790285144E+03  0.93790285145E+03  0.50400001928E-02 0.  1.
    10030    2    1    2    0    0  0.00000000000E+00  0.00000000000E+00  0.72796909931E+03  0.26037748022E+04  0.24999408415E+04 0.  0.
        1    1    3    3  502    0  0.86612040440E+03  0.71369950303E+03  0.93720198831E+03  0.14621487963E+04  0.50400001928E-02 0. -1.
       -1    1    3    3    0  502 -0.86612040440E+03 -0.71369950303E+03 -0.20923288900E+03  0.11416260059E+04  0.50400001928E-02 0.  1.
</event>
<event>
 5   0  0.1541852E-06  0.2493711E+04  0.7818609E-02  0.8405230E-01
       -1   -1    0    0    0  501  0.00000000000E+00  0.00000000000E+00  0.22329560292E+04  0.22329560292E+04  0.50400001928E-02 0.  1.
        1   -1    0    0  501    0  0.00000000000E+00  0.00000000000E+00 -0.69622884894E+03  0.69622884896E+03  0.50400001928E-02 0. -1.
    10030    2    1    2    0    0  0.00000000000E+00  0.00000000000E+00  0.15367271803E+04  0.29291848782E+04  0.24937108140E+04 0.  0.
        5    1    3    3  502    0  0.14863076958E+02 -0.43412394422E+03 -0.60446651211E+03  0.74436977656E+03  0.46999998093E+01 0. -1.
       -5    1    3    3    0  502 -0.14863076958E+02  0.43412394422E+03  0.21411936924E+04  0.21848151016E+04  0.46999998093E+01 0.  1.
</event>
<event>
 5   0  0.3924441E-06  0.2505589E+04  0.7818609E-02  0.8400997E-01
       -2   -1    0    0    0  501  0.00000000000E+00  0.00000000000E+00  0.12121566946E+04  0.12121566946E+04  0.25500000920E-02 0. -1.
        2   -1    0    0  501    0  0.00000000000E+00  0.00000000000E+00 -0.12947943353E+04  0.12947943354E+04  0.25500000920E-02 0.  1.
    10030    2    1    2    0    0  0.00000000000E+00  0.00000000000E+00 -0.82637640711E+02  0.25069510300E+04  0.25055886508E+04 0.  0.
        2    1    3    3  502    0 -0.12064045237E+04  0.33152627936E+03  0.23307888011E+02  0.12513451987E+04  0.25500000920E-02 0. -1.
       -2    1    3    3    0  502  0.12064045237E+04 -0.33152627936E+03 -0.10594552872E+03  0.12556058313E+04  0.25500000920E-02 0.  1.
</event>
<event>
 5   0  0.3808293E-06  0.2498965E+04  0.7818609E-02  0.8403354E-01
        2   -1    0    0  501    0  0.00000000000E+00  0.00000000000E+00  0.22875932530E+04  0.22875932530E+04  0.25500000920E-02 0. -1.
       -2   -1    0    0    0  501  0.00000000000E+00  0.00000000000E+00 -0.68246664506E+03  0.68246664506E+03  0.25500000920E-02 0.  1.
    10030    2    1    2    0    0  0.00000000000E+00  0.00000000000E+00  0.16051266080E+04  0.29700598981E+04  0.24989646597E+04 0.  0.
        1    1    3    3  502    0  0.49075428587E+02 -0.46130555356E+03 -0.57631772880E+03  0.73983331636E+03  0.50400001928E-02 0.  1.
       -1    1    3    3    0  502 -0.49075428587E+02  0.46130555356E+03  0.21814443368E+04  0.22302265817E+04  0.50400001928E-02 0. -1.
</event>
<event>
 5   0  0.3814260E-06  0.2500760E+04  0.7818609E-02  0.8402715E-01
        2   -1    0    0  501    0  0.00000000000E+00  0.00000000000E+00  0.93357144589E+03  0.93357144589E+03  0.25500000920E-02 0.  1.
       -2   -1    0    0    0  501  0.00000000000E+00  0.00000000000E+00 -0.16746975738E+04  0.16746975738E+04  0.25500000920E-02 0. -1.
    10030    2    1    2    0    0  0.00000000000E+00  0.00000000000E+00 -0.74112612787E+03  0.26082690197E+04  0.25007597529E+04 0.  0.
        5    1    3    3  502    0  0.97050089672E+03  0.33284219399E+03  0.37484464483E+03  0.10923307715E+04  0.46999998093E+01 0.  1.
       -5    1    3    3    0  502 -0.97050089672E+03 -0.33284219399E+03 -0.11159707727E+04  0.15159382481E+04  0.46999998093E+01 0. -1.
</event>
<event>
 5   0  0.1287375E-06  0.2502128E+04  0.7818609E-02  0.8402228E-01
       -3   -1    0    0    0  501  0.00000000000E+00  0.00000000000E+00  0.88020145732E+03  0.88020146311E+03  0.10100000352E+00 0. -1.
        3   -1    0    0  501    0  0.00000000000E+00  0.00000000000E+00 -0.17781856859E+04  0.17781856887E+04  0.10100000352E+00 0.  1.
    10030    2    1    2    0    0  0.00000000000E+00  0.00000000000E+00 -0.89798422854E+03  0.26583871518E+04  0.25021284088E+04 0.  0.
        5    1    3    3  502    0  0.45753661912E+03 -0.51995923468E+03 -0.15559012823E+04  0.17030996018E+04  0.46999998093E+01 0.  1.
       -5    1    3    3    0  502 -0.45753661912E+03  0.51995923468E+03  0.65791705375E+03  0.95528755000E+03  0.46999998093E+01 0. -1.
</event>
<event>
 5   0  0.1501747E-06  0.2506886E+04  0.7818609E-02  0.8400537E-01
        1   -1    0    0  501    0  0.00000000000E+00  0.00000000000E+00  0.92244976863E+03  0.92244976865E+03  0.50400001928E-02 0. -1.
       -1   -1    0    0    0  501  0.00000000000E+00  0.00000000000E+00 -0.17032027211E+04  0.17032027211E+04  0.50400001928E-02 0.  1.
    10030    2    1    2    0    0  0.00000000000E+00  0.00000000000E+00 -0.78075295244E+03  0.26256524897E+04  0.25068856823E+04 0.  0.
        2    1    3    3  502    0 -0.11631318057E+04 -0.24424952952E+03 -0.80747100128E+03  0.14368517140E+04  0.25500000920E-02 0.  1.
       -2    1    3    3    0  502  0.11631318057E+04  0.24424952952E+03  0.26718048839E+02  0.11888007757E+04  0.25500000920E-02 0. -1.
</event>
<event>
 5   0  0.3971759E-06  0.2500647E+04  0.7818609E-02  0.8402755E-01
       -2   -1    0    0    0  501  0.00000000000E+00  0.00000000000E+00  0.53947310665E+03  0.53947310665E+03  0.25500000920E-02 0. -1.
        2   -1    0    0  501    0  0.00000000000E+00  0.00000000000E+00 -0.28978432050E+04  0.28978432050E+04  0.25500000920E-02 0.  1.
    10030    2    1    2    0    0  0.00000000000E+00  0.00000000000E+00 -0.23583700984E+04  0.34373163117E+04  0.25006466975E+04 0.  0.
        4    1    3    3  502    0 -0.57504274878E+03 -0.99257166315E+03 -0.18629345469E+04  0.21877841320E+04  0.12699999809E+01 0.  1.
       -4    1    3    3    0  502  0.57504274878E+03  0.99257166315E+03 -0.49543555146E+03  0.12495321796E+04  0.12699999809E+01 0. -1.
</event>
<event>
 5   0  0.3808293E-06  0.2492496E+04  0.7818609E-02  0.8405664E-01
        2   -1    0    0  501    0  0.00000000000E+00  0.00000000000E+00  0.27008756391E+04  0.27008756391E+04  0.25500000920E-02 0.  1.
       -2   -1    0    0    0  501  0.00000000000E+00  0.00000000000E+00 -0.57504838124E+03  0.57504838125E+03  0.25500000920E-02 0. -1.
    10030    2    1    2    0    0  0.00000000000E+00  0.00000000000E+00  0.21258272579E+04  0.32759240204E+04  0.24924960696E+04 0.  0.
        1    1    3    3  502    0  0.44850059822E+03  0.11625311628E+04  0.10334462042E+04  0.16188398772E+04  0.50400001928E-02 0.  1.
       -1    1    3    3    0  502 -0.44850059822E+03 -0.11625311628E+04  0.10923810537E+04  0.16570841432E+04  0.50400001928E-02 0. -1.
</event>
<event>
 5   0  0.1553604E-06  0.2502523E+04  0.7818609E-02  0.8402087E-01
        1   -1    0    0  501    0  0.00000000000E+00  0.00000000000E+00  0.15016100626E+04  0.15016100626E+04  0.50400001928E-02 0. -1.
       -1   -1    0    0    0  501  0.00000000000E+00  0.00000000000E+00 -0.10426514694E+04  0.10426514695E+04  0.50400001928E-02 0.  1.
    10030    2    1    2    0    0  0.00000000000E+00  0.00000000000E+00  0.45895859314E+03  0.25442615320E+04  0.25025234771E+04 0.  0.
        1    1    3    3  502    0  0.35156999124E+03  0.91902805212E+03  0.10153144215E+04  0.14138873342E+04  0.50400001928E-02 0. -1.
       -1    1    3    3    0  502 -0.35156999124E+03 -0.91902805212E+03 -0.55635582836E+03  0.11303741978E+04  0.50400001928E-02 0.  1.
</event>
<event>
 5   0  0.1541852E-06  0.2496832E+04  0.7818609E-02  0.8404115E-01
        1   -1    0    0  501    0  0.00000000000E+00  0.00000000000E+00  0.24103411916E+04  0.24103411916E+04  0.50400001928E-02 0. -1.
       -1   -1    0    0    0  501  0.00000000000E+00  0.00000000000E+00 -0.64660682732E+03  0.64660682734E+03  0.50400001928E-02 0.  1.
    10030    2    1    2    0    0  0.00000000000E+00  0.00000000000E+00  0.17637343643E+04  0.30569480189E+04  0.24968324499E+04 0.  0.
        5    1    3    3  502    0 -0.78742718381E+03 -0.23985911489E+03 -0.26727442201E+03  0.86546615847E+03  0.46999998093E+01 0.  1.
       -5    1    3    3    0  502  0.78742718381E+03  0.23985911489E+03  0.20310087863E+04  0.21914818605E+04  0.46999998093E+01 0. -1.
</event>
<event>
 5   0  0.3814260E-06  0.2501334E+04  0.7818609E-02  0.8402510E-01
        2   -1    0    0  501    0  0.00000000000E+00  0.00000000000E+00  0.10739670446E+04  0.10739670446E+04  0.25500000920E-02 0.  1.
       -2   -1    0    0    0  501  0.00000000000E+00  0.00000000000E+00 -0.14564393750E+04  0.14564393750E+04  0.25500000920E-02 0. -1.
    10030    2    1    2    0    0  0.00000000000E+00  0.00000000000E+00 -0.38247233036E+03  0.25304064196E+04  0.25013339571E+04 0.  0.
        5    1    3    3  502    0 -0.89597805964E+03 -0.35050201262E+03  0.61712415908E+03  0.11430190996E+04  0.46999998093E+01 0.  1.
       -5    1    3    3    0  502  0.89597805964E+03  0.35050201262E+03 -0.99959648944E+03  0.13873873201E+04  0.46999998093E+01 0. -1.
</event>
<event>
 5   0  0.3814260E-06  0.2499094E+04  0.7818609E-02  0.8403309E-01
        2   -1    0    0  501    0  0.00000000000E+00  0.00000000000E+00  0.10334486353E+04  0.10334486353E+04  0.25500000920E-02 0. -1.
       -2   -1    0    0    0  501  0.00000000000E+00  0.00000000000E+00 -0.15108318857E+04  0.15108318857E+04  0.25500000920E-02 0.  1.
    10030    2    1    2    0    0  0.00000000000E+00  0.00000000000E+00 -0.47738325046E+03  0.25442805210E+04  0.24990935560E+04 0.  0.
        5    1    3    3  502    0  0.31358807446E+03  0.99672331900E+03 -0.93631897084E+03  0.14030360509E+04  0.46999998093E+01 0.  1.
       -5    1    3    3    0  502 -0.31358807446E+03 -0.99672331900E+03  0.45893572038E+03  0.11412444701E+04  0.46999998093E+01 0. -1.
</event>
<event>
 5   0  0.3814260E-06  0.2496710E+04  0.7818609E-02  0.8404158E-01
       -2   -1    0    0    0  501  0.00000000000E+00  0.00000000000E+00  0.67165789924E+03  0.67165789925E+03  0.25500000920E-02 0.  1.
        2   -1    0    0  501    0  0.00000000000E+00  0.00000000000E+00 -0.23202147129E+04  0.23202147129E+04  0.25500000920E-02 0. -1.
    10030    2    1    2    0    0  0.00000000000E+00  0.00000000000E+00 -0.16485568137E+04  0.29918726122E+04  0.24967102674E+04 0.  0.
        5    1    3    3  502    0 -0.33661588897E+03  0.10775683748E+04 -0.14627787847E+04  0.18477574846E+04  0.46999998093E+01 0. -1.
       -5    1    3    3    0  502  0.33661588897E+03 -0.10775683748E+04 -0.18577802896E+03  0.11441151275E+04  0.46999998093E+01 0.  1.
</event>
<event>
 5   0  0.3971759E-06  0.2524842E+04  0.7818609E-02  0.8394188E-01
        2   -1    0    0  501    0  0.00000000000E+00  0.00000000000E+00  0.23526090365E+04  0.23526090365E+04  0.25500000920E-02 0. -1.
       -2   -1    0    0    0  501  0.00000000000E+00  0.00000000000E+00 -0.67742117629E+03  0.67742117630E+03  0.25500000920E-02 0.  1.
    10030    2    1    2    0    0  0.00000000000E+00  0.00000000000E+00  0.16751878602E+04  0.30300302128E+04  0.25248423166E+04 0.  0.
        4    1    3    3  502    0  0.12157962342E+04 -0.20631338910E+02  0.43041338556E+03  0.12899005507E+04  0.12699999809E+01 0.  1.
       -4    1    3    3    0  502 -0.12157962342E+04  0.20631338910E+02  0.12447744746E+04  0.17401296621E+04  0.12699999809E+01 0. -1.
</event>
<event>
 5   0  0.3971759E-06  0.2499825E+04  0.7818609E-02  0.8403048E-01
        2   -1    0    0  501    0  0.00000000000E+00  0.00000000000E+00  0.13425510086E+04  0.13425510086E+04  0.25500000920E-02 0. -1.
       -2   -1    0    0    0  501  0.00000000000E+00  0.00000000000E+00 -0.11636665642E+04  0.11636665642E+04  0.25500000920E-02 0.  1.
    10030    2    1    2    0    0  0.00000000000E+00  0.00000000000E+00  0.17888444439E+03  0.25062175729E+04  0.24998253695E+04 0.  0.
        4    1    3    3  502    0 -0.10260525051E+04  0.96064296047E+02 -0.61966264737E+03  0.12024955308E+04  0.12699999809E+01 0.  1.
       -4    1    3    3    0  502  0.10260525051E+04 -0.96064296047E+02  0.79854709176E+03  0.13037220420E+04  0.12699999809E+01 0. -1.
</event>
<event>
 5   0  0.1541852E-06  0.2503163E+04  0.7818609E-02  0.8401860E-01
        1   -1    0    0  501    0  0.00000000000E+00  0.00000000000E+00  0.12786906127E+04  0.12786906127E+04  0.50400001928E-02 0. -1.
       -1   -1    0    0    0  501  0.00000000000E+00  0.00000000000E+00 -0.12250472396E+04  0.12250472396E+04  0.50400001928E-02 0.  1.
    10030    2    1    2    0    0  0.00000000000E+00  0.00000000000E+00  0.53643373046E+02  0.25037378523E+04  0.25031631233E+04 0.  0.
        5    1    3    3  502    0  0.11650392793E+04 -0.27487087103E+03 -0.33872603570E+03  0.12440369509E+04  0.46999998093E+01 0. -1.
       -5    1    3    3    0  502 -0.11650392793E+04  0.27487087103E+03  0.39236940874E+03  0.12597009014E+04  0.46999998093E+01 0.  1.
</event>
<event>
 5   0  0.3713394E-06  0.2493388E+04  0.7818609E-02  0.8405345E-01
       -2   -1    0    0    0  501  0.00000000000E+00  0.00000000000E+00  0.10676041487E+04  0.10676041487E+04  0.25500000920E-02 0.  1.
        2   -1    0    0  501    0  0.00000000000E+00  0.00000000000E+00 -0.14558259292E+04  0.14558259292E+04  0.25500000920E-02 0. -1.
    10030    2    1    2    0    0  0.00000000000E+00  0.00000000000E+00 -0.38822178045E+03  0.25234300779E+04  0.24933878975E+04 0.  0.
        3    1    3    3  502    0  0.10022923344E+04 -0.70668168321E+03  0.32770634848E+02  0.12268100300E+04  0.10100000352E+00 0. -1.
       -3    1    3    3    0  502 -0.10022923344E+04  0.70668168321E+03 -0.42099241530E+03  0.12966200480E+04  0.10100000352E+00 0.  1.
</event>
<event>
 5   0  0.3971759E-06  0.2495560E+04  0.7818609E-02  0.8404569E-01
        2   -1    0    0  501    0  0.00000000000E+00  0.00000000000E+00  0.23452840441E+04  0.23452840441E+04  0.25500000920E-02 0. -1.
       -2   -1    0    0    0  501  0.00000000000E+00  0.00000000000E+00 -0.66386635264E+03  0.66386635265E+03  0.25500000920E-02 0.  1.
    10030    2    1    2    0    0  0.00000000000E+00  0.00000000000E+00  0.16814176915E+04  0.30091503968E+04  0.24955601891E+04 0.  0.
        4    1    3    3  502    0 -0.24612219082E+03  0.96105402218E+03 -0.71846838009E+02  0.99466805890E+03  0.12699999809E+01 0.  1.
       -4    1    3    3    0  502  0.24612219082E+03 -0.96105402218E+03  0.17532645295E+04  0.20144823379E+04  0.12699999809E+01 0. -1.
</event>
<event>
 5   0  0.1574896E-06  0.2498238E+04  0.7818609E-02  0.8403613E-01
       -1   -1    0    0    0  501  0.00000000000E+00  0.00000000000E+00  0.13852210677E+04  0.13852210678E+04  0.50400001928E-02 0. -1.
        1   -1    0    0  501    0  0.00000000000E+00  0.00000000000E+00 -0.11263894849E+04  0.11263894849E+04  0.50400001928E-02 0.  1.
    10030    2    1    2    0    0  0.00000000000E+00  0.00000000000E+00  0.25883158282E+03  0.25116105527E+04  0.24982381352E+04 0.  0.
        3    1    3    3  502    0  0.19244231489E+03  0.60307187400E+03 -0.95318093259E+03  0.11442393238E+04  0.10100000352E+00 0.  1.
       -3    1    3    3    0  502 -0.19244231489E+03 -0.60307187400E+03  0.12120125154E+04  0.13673712288E+04  0.10100000352E+00 0. -1.
</event>
<event>
 5   0  0.3814260E-06  0.2506240E+04  0.7818609E-02  0.8400766E-01
        2   -1    0    0  501    0  0.00000000000E+00  0.00000000000E+00  0.13137241028E+04  0.13137241028E+04  0.25500000920E-02 0. -1.
       -2   -1    0    0    0  501  0.00000000000E+00  0.00000000000E+00 -0.11953120862E+04  0.11953120862E+04  0.25500000920E-02 0.  1.
    10030    2    1    2    0    0  0.00000000000E+00  0.00000000000E+00  0.11841201660E+03  0.25090361890E+04  0.25062404497E+04 0.  0.
        5    1    3    3  502    0 -0.10036484896E+04 -0.14951320576E+03  0.79529739863E+03  0.12892573566E+04  0.46999998093E+01 0. -1.
       -5    1    3    3    0  502  0.10036484896E+04  0.14951320576E+03 -0.67688538203E+03  0.12197788323E+04  0.46999998093E+01 0.  1.
</event>
<event>
 5   0  0.3924441E-06  0.2510646E+04  0.7818609E-02  0.8399203E-01
        2   -1    0    0  501    0  0.00000000000E+00  0.00000000000E+00  0.12449165683E+04  0.12449165683E+04  0.25500000920E-02 0.  1.
       -2   -1    0    0    0  501  0.00000000000E+00  0.00000000000E+00 -0.12658165909E+04  0.12658165909E+04  0.25500000920E-02 0. -1.
    10030    2    1    2    0    0  0.00000000000E+00  0.00000000000E+00 -0.20900022556E+02  0.25107331592E+04  0.25106461689E+04 0.  0.
        2    1    3    3  502    0 -0.98669839838E+03 -0.20585747765E+03 -0.75873058365E+03  0.12615954696E+04  0.25500000920E-02 0. -1.
       -2    1    3    3    0  502  0.98669839838E+03  0.20585747765E+03  0.73783056109E+03  0.12491376895E+04  0.25500000920E-02 0.  1.
</event>
<event>
 5   0  0.1553604E-06  0.2502703E+04  0.7818609E-02  0.8402023E-01
       -1   -1    0    0    0  501  0.00000000000E+00  0.00000000000E+00  0.65369279980E+03  0.65369279982E+03  0.50400001928E-02 0.  1.
        1   -1    0    0  501    0  0.00000000000E+00  0.00000000000E+00 -0.23954373825E+04  0.23954373825E+04  0.50400001928E-02 0. -1.
    10030    2    1    2    0    0  0.00000000000E+00  0.00000000000E+00 -0.17417445827E+04  0.30491301823E+04  0.25027026746E+04 0.  0.
        1    1    3    3  502    0 -0.27463277568E+02  0.11021779011E+04 -0.14975608305E+03  0.11126442566E+04  0.50400001928E-02 0.  1.
       -1    1    3    3    0  502  0.27463277568E+02 -0.11021779011E+04 -0.15919884996E+04  0.19364859257E+04  0.50400001928E-02 0. -1.
</event>
<event>
 5   0  0.3814260E-06  0.2506301E+04  0.7818609E-02  0.8400744E-01
        2   -1    0    0  501    0  0.00000000000E+00  0.00000000000E+00  0.12813112324E+04  0.12813112324E+04  0.25500000920E-02 0.  1.
       -2   -1    0    0    0  501  0.00000000000E+00  0.00000000000E+00 -0.12256084486E+04  0.12256084486E+04  0.25500000920E-02 0. -1.
    10030    2    1    2    0    0  0.00000000000E+00  0.00000000000E+00  0.55702783752E+02  0.25069196810E+04  0.25063007575E+04 0.  0.
        5    1    3    3  502    0 -0.52267824469E+03  0.48951337612E+03  0.10564768193E+04  0.12763154989E+04  0.46999998093E+01 0.  1.
       -5    1    3    3    0  502  0.52267824469E+03 -0.48951337612E+03 -0.10007740356E+04  0.12306041821E+04  0.46999998093E+01 0. -1.
</event>
<event>
 5   0  0.1501747E-06  0.2506378E+04  0.7818609E-02  0.8400717E-01
       -1   -1    0    0    0  501  0.00000000000E+00  0.00000000000E+00  0.10280408665E+04  0.10280408665E+04  0.50400001928E-02 0.  1.
        1   -1    0    0  501    0  0.00000000000E+00  0.00000000000E+00 -0.15276466562E+04  0.15276466562E+04  0.50400001928E-02 0. -1.
    10030    2    1    2    0    0  0.00000000000E+00  0.00000000000E+00 -0.49960578975E+03  0.25556875227E+04  0.25063784168E+04 0.  0.
        2    1    3    3  502    0 -0.88952859828E+03  0.86688264668E+03 -0.41962228114E+03  0.13110413834E+04  0.25500000920E-02 0. -1.
       -2    1    3    3    0  502  0.88952859828E+03 -0.86688264668E+03 -0.79983508613E+02  0.12446461392E+04  0.25500000920E-02 0.  1.
</event>
<event>
 5   0  0.3713394E-06  0.2504181E+04  0.7818609E-02  0.8401498E-01
        2   -1    0    0  501    0  0.00000000000E+00  0.00000000000E+00  0.12414063971E+04  0.12414063971E+04  0.25500000920E-02 0. -1.
       -2   -1    0    0    0  501  0.00000000000E+00  0.00000000000E+00 -0.12628665038E+04  0.12628665038E+04  0.25500000920E-02 0.  1.
    10030    2    1    2    0    0  0.00000000000E+00  0.00000000000E+00 -0.21460106731E+02  0.25042729009E+04  0.25041809491E+04 0.  0.
        3    1    3    3  502    0  0.11568304724E+04 -0.31887222036E+03  0.34676637561E+03  0.12490729219E+04  0.10100000352E+00 0. -1.
       -3    1    3    3    0  502 -0.11568304724E+04  0.31887222036E+03 -0.36822648234E+03  0.12551999790E+04  0.10100000352E+00 0.  1.
</event>
<event>
 5   0  0.1501747E-06  0.2501025E+04  0.7818609E-02  0.8402621E-01
        1   -1    0    0  501    0  0.00000000000E+00  0.00000000000E+00  0.26478281216E+04  0.26478281216E+04  0.50400001928E-02 0. -1.
       -1   -1    0    0    0  501  0.00000000000E+00  0.00000000000E+00 -0.59059017250E+03  0.59059017252E+03  0.50400001928E-02 0.  1.
    10030    2    1    2    0    0  0.00000000000E+00  0.00000000000E+00  0.20572379491E+04  0.32384182941E+04  0.25010248037E+04 0.  0.
        2    1    3    3  502    0  0.11370881225E+04 -0.50703856534E+03  0.87693086672E+03  0.15228477436E+04  0.25500000920E-02 0.  1.
       -2    1    3    3    0  502 -0.11370881225E+04  0.50703856534E+03  0.11803070824E+04  0.17155705505E+04  0.25500000920E-02 0. -1.
</event>
<event>
 5   0  0.1541852E-06  0.2500573E+04  0.7818609E-02  0.8402782E-01
        1   -1    0    0  501    0  0.00000000000E+00  0.00000000000E+00  0.86133922224E+03  0.86133922225E+03  0.50400001928E-02 0.  1.
       -1   -1    0    0    0  501  0.00000000000E+00  0.00000000000E+00 -0.18148669355E+04  0.18148669355E+04  0.50400001928E-02 0. -1.
    10030    2    1    2    0    0  0.00000000000E+00  0.00000000000E+00 -0.95352771323E+03  0.26762061577E+04  0.25005727941E+04 0.  0.
        5    1    3    3  502    0  0.18698771507E+03  0.13825757935E+03 -0.17915077079E+04  0.18065440823E+04  0.46999998093E+01 0. -1.
       -5    1    3    3    0  502 -0.18698771507E+03 -0.13825757935E+03  0.83797999471E+03  0.86966207539E+03  0.46999998093E+01 0.  1.
</event>
<event>
 5   0  0.3924441E-06  0.2492988E+04  0.7818609E-02  0.8405488E-01
        2   -1    0    0  501    0  0.00000000000E+00  0.00000000000E+00  0.17587412943E+04  0.17587412943E+04  0.25500000920E-02 0. -1.
       -2   -1    0    0    0  501  0.00000000000E+00  0.00000000000E+00 -0.88344284971E+03  0.88344284971E+03  0.25500000920E-02 0.  1.
    10030    2    1    2    0    0  0.00000000000E+00  0.00000000000E+00  0.87529844457E+03  0.26421841440E+04  0.24929881034E+04 0.  0.
        2    1    3    3  502    0 -0.39581245122E+03 -0.86171570873E+02  0.16870341919E+04  0.17349862826E+04  0.25500000920E-02 0. -1.
       -2    1    3    3    0  502  0.39581245122E+03  0.86171570873E+02 -0.81173574734E+03  0.90719786138E+03  0.25500000920E-02 0.  1.
</event>
<event>
 5   0  0.3808293E-06  0.2487039E+04  0.7818609E-02  0.8407618E-01
       -2   -1    0    0    0  501  0.00000000000E+00  0.00000000000E+00  0.72270927758E+03  0.72270927759E+03  0.25500000920E-02 0.  1.
        2   -1    0    0  501    0  0.00000000000E+00  0.00000000000E+00 -0.21396436079E+04  0.21396436079E+04  0.25500000920E-02 0. -1.
    10030    2    1    2    0    0  0.00000000000E+00  0.00000000000E+00 -0.14169343303E+04  0.28623528855E+04  0.24870386295E+04 0.  0.
        1    1    3    3  502    0  0.97570326538E+02  0.12008645166E+04 -0.35421038135E+03  0.12558107143E+04  0.50400001928E-02 0.  1.
       -1    1    3    3    0  502 -0.97570326538E+02 -0.12008645166E+04 -0.10627239490E+04  0.16065421712E+04  0.50400001928E-02 0. -1.
</event>
<event>
 5   0  0.1519145E-06  0.2498045E+04  0.7818609E-02  0.8403682E-01
        1   -1    0    0  501    0  0.00000000000E+00  0.00000000000E+00  0.19905079423E+04  0.19905079423E+04  0.50400001928E-02 0.  1.
       -1   -1    0    0    0  501  0.00000000000E+00  0.00000000000E+00 -0.78374839342E+03  0.78374839344E+03  0.50400001928E-02 0. -1.
    10030    2    1    2    0    0  0.00000000000E+00  0.00000000000E+00  0.12067595489E+04  0.27742563358E+04  0.24980451573E+04 0.  0.
        4    1    3    3  502    0  0.13663944021E+03  0.11273013220E+04  0.11810658323E+04  0.16384128663E+04  0.12699999809E+01 0.  1.
       -4    1    3    3    0  502 -0.13663944021E+03 -0.11273013220E+04  0.25693716586E+02  0.11358434695E+04  0.12699999809E+01 0. -1.
</event>
<event>
 5   0  0.1574896E-06  0.2498681E+04  0.7818609E-02  0.8403455E-01
        1   -1    0    0  501    0  0.00000000000E+00  0.00000000000E+00  0.15528742146E+04  0.15528742147E+04  0.50400001928E-02 0.  1.
       -1   -1    0    0    0  501  0.00000000000E+00  0.00000000000E+00 -0.10051375029E+04  0.10051375029E+04  0.50400001928E-02 0. -1.
    10030    2    1    2    0    0  0.00000000000E+00  0.00000000000E+00  0.54773671173E+03  0.25580117176E+04  0.24986813406E+04 0.  0.
        3    1    3    3  502    0  0.62613939111E+03 -0.10617320149E+04  0.65248652829E+02  0.12343349649E+04  0.10100000352E+00 0. -1.
       -3    1    3    3    0  502 -0.62613939111E+03  0.10617320149E+04  0.48248805890E+03  0.13236767527E+04  0.10100000352E+00 0.  1.
</event>
<event>
 5   0  0.3924441E-06  0.2508929E+04  0.7818609E-02  0.8399812E-01
        2   -1    0    0  501    0  0.00000000000E+00  0.00000000000E+00  0.12429556260E+04  0.12429556260E+04  0.25500000920E-02 0.  1.
       -2   -1    0    0    0  501  0.00000000000E+00  0.00000000000E+00 -0.12660796300E+04  0.12660796300E+04  0.25500000920E-02 0. -1.
    10030    2    1    2    0    0  0.00000000000E+00  0.00000000000E+00 -0.23124003984E+02  0.25090352561E+04  0.25089286950E+04 0.  0.
        2    1    3    3  502    0 -0.79081116951E+02  0.12162541726E+04 -0.30847992348E+03  0.12572541106E+04  0.25500000920E-02 0. -1.
       -2    1    3    3    0  502  0.79081116951E+02 -0.12162541726E+04  0.28535591950E+03  0.12517811455E+04  0.25500000920E-02 0.  1.
</event>
<event>
 5   0  0.1553604E-06  0.2501526E+04  0.7818609E-02  0.8402442E-01
        1   -1    0    0  501    0  0.00000000000E+00  0.00000000000E+00  0.73021588805E+03  0.73021588807E+03  0.50400001928E-02 0. -1.
       -1   -1    0    0    0  501  0.00000000000E+00  0.00000000000E+00 -0.21423915797E+04  0.21423915797E+04  0.50400001928E-02 0.  1.
    10030    2    1    2    0    0  0.00000000000E+00  0.00000000000E+00 -0.14121756916E+04  0.28726074678E+04  0.25015262301E+04 0.  0.
        1    1    3    3  502    0 -0.34584591301E+03 -0.33357430595E+03 -0.20321752692E+04  0.20882091701E+04  0.50400001928E-02 0.  1.
       -1    1    3    3    0  502  0.34584591301E+03  0.33357430595E+03  0.61999957760E+03  0.78439829767E+03  0.50400001928E-02 0. -1.
</event>
<event>
 5   0  0.1553604E-06  0.2526919E+04  0.7818609E-02  0.8393458E-01
        1   -1    0    0  501    0  0.00000000000E+00  0.00000000000E+00  0.10888447023E+04  0.10888447023E+04  0.50400001928E-02 0. -1.
       -1   -1    0    0    0  501  0.00000000000E+00  0.00000000000E+00 -0.14660772678E+04  0.14660772679E+04  0.50400001928E-02 0.  1.
    10030    2    1    2    0    0  0.00000000000E+00  0.00000000000E+00 -0.37723256559E+03  0.25549219701E+04  0.25269194417E+04 0.  0.
        1    1    3    3  502    0 -0.32612414391E+03  0.11897036598E+04 -0.46473362236E+03  0.13182295305E+04  0.50400001928E-02 0. -1.
       -1    1    3    3    0  502  0.32612414391E+03 -0.11897036598E+04  0.87501056769E+02  0.12366924396E+04  0.50400001928E-02 0.  1.
</event>
<event>
 5   0  0.1501747E-06  0.2500513E+04  0.7818609E-02  0.8402803E-01
       -1   -1    0    0    0  501  0.00000000000E+00  0.00000000000E+00  0.77374286035E+03  0.77374286037E+03  0.50400001928E-02 0.  1.
        1   -1    0    0  501    0  0.00000000000E+00  0.00000000000E+00 -0.20202339434E+04  0.20202339434E+04  0.50400001928E-02 0. -1.
    10030    2    1    2    0    0  0.00000000000E+00  0.00000000000E+00 -0.12464910831E+04  0.27939768038E+04  0.25005132193E+04 0.  0.
        2    1    3    3  502    0 -0.11786797210E+04 -0.22969054593E+03 -0.10120775889E+04  0.15704600210E+04  0.25500000920E-02 0. -1.
       -2    1    3    3    0  502  0.11786797210E+04  0.22969054593E+03 -0.23441349412E+03  0.12235167828E+04  0.25500000920E-02 0.  1.
</event>
<event>
 5   0  0.3971759E-06  0.2499960E+04  0.7818609E-02  0.8403000E-01
        2   -1    0    0  501    0  0.00000000000E+00  0.00000000000E+00  0.14348235701E+04  0.14348235701E+04  0.25500000920E-02 0. -1.
       -2   -1    0    0    0  501  0.00000000000E+00  0.00000000000E+00 -0.10889491873E+04  0.10889491873E+04  0.25500000920E-02 0.  1.
    10030    2    1    2    0    0  0.00000000000E+00  0.00000000000E+00  0.34587438285E+03  0.25237727574E+04  0.24999599682E+04 0.  0.
        4    1    3    3  502    0 -0.23086044033E+03 -0.56135473108E+03 -0.93018926057E+03  0.11107066896E+04  0.12699999809E+01 0.  1.
       -4    1    3    3    0  502  0.23086044033E+03  0.56135473108E+03  0.12760636434E+04  0.14130660678E+04  0.12699999809E+01 0. -1.
</event>
<event>
 5   0  0.1501747E-06  0.2498639E+04  0.7818609E-02  0.8403470E-01
       -1   -1    0    0    0  501  0.00000000000E+00  0.00000000000E+00  0.11865893334E+04  0.11865893334E+04  0.50400001928E-02 0.  1.
        1   -1    0    0  501    0  0.00000000000E+00  0.00000000000E+00 -0.13153661432E+04  0.13153661432E+04  0.50400001928E-02 0. -1.
    10030    2    1    2    0    0  0.00000000000E+00  0.00000000000E+00 -0.12877680986E+03  0.25019554766E+04  0.24986391777E+04 0.  0.
        2    1    3    3  502    0 -0.42799991689E+03 -0.49940093149E+03 -0.11279724542E+04  0.13057209031E+04  0.25500000920E-02 0. -1.
       -2    1    3    3    0  502  0.42799991689E+03  0.49940093149E+03  0.99919564437E+03  0.11962345736E+04  0.25500000920E-02 0.  1.
</event>
<event>
 5   0  0.3971759E-06  0.2497424E+04  0.7818609E-02  0.8403904E-01
        2   -1    0    0  501    0  0.00000000000E+00  0.00000000000E+00  0.10451789546E+04  0.10451789546E+04  0.25500000920E-02 0. -1.
       -2   -1    0    0    0  501  0.00000000000E+00  0.00000000000E+00 -0.14918796305E+04  0.14918796305E+04  0.25500000920E-02 0.  1.
    10030    2    1    2    0    0  0.00000000000E+00  0.00000000000E+00 -0.44670067588E+03  0.25370585852E+04  0.24974236266E+04 0.  0.
        4    1    3    3  502    0 -0.79759753075E+03  0.18942406915E+03 -0.11802313270E+04  0.14370076190E+04  0.12699999809E+01 0.  1.
       -4    1    3    3    0  502  0.79759753075E+03 -0.18942406915E+03  0.73353065113E+03  0.11000509661E+04  0.12699999809E+01 0. -1.
</event>
<event>
 5   0  0.3808293E-06  0.2505227E+04  0.7818609E-02  0.8401126E-01
        2   -1    0    0  501    0  0.00000000000E+00  0.00000000000E+00  0.19201043120E+04  0.19201043120E+04  0.25500000920E-02 0. -1.
       -2   -1    0    0    0  501  0.00000000000E+00  0.00000000000E+00 -0.81716451583E+03  0.81716451584E+03  0.25500000920E-02 0.  1.
    10030    2    1    2    0    0  0.00000000000E+00  0.00000000000E+00  0.11029397962E+04  0.27372688279E+04  0.25052274232E+04 0.  0.
        1    1    3    3  502    0 -0.88518243590E+02  0.82568898268E+03  0.15761167866E+04  0.17814999019E+04  0.50400001928E-02 0. -1.
       -1    1    3    3    0  502  0.88518243590E+02 -0.82568898268E+03 -0.47317699039E+03  0.95576892595E+03  0.50400001928E-02 0.  1.
</event>
<event>
 5   0  0.1287375E-06  0.2512099E+04  0.7818609E-02  0.8398688E-01
       -4   -1    0    0    0  501  0.00000000000E+00  0.00000000000E+00  0.98692469840E+03  0.98692551554E+03  0.12699999809E+01 0.  1.
        4   -1    0    0  501    0  0.00000000000E+00  0.00000000000E+00 -0.15985600657E+04  0.15985605702E+04  0.12699999809E+01 0. -1.
    10030    2    1    2    0    0  0.00000000000E+00  0.00000000000E+00 -0.61163536728E+03  0.25854860857E+04  0.25120988191E+04 0.  0.
        3    1    3    3  502    0 -0.41202165286E+03 -0.66225571178E+03  0.70748243929E+03  0.10530317575E+04  0.10100000352E+00 0.  1.
       -3    1    3    3    0  502  0.41202165286E+03  0.66225571178E+03 -0.13191178066E+04  0.15324543282E+04  0.10100000352E+00 0. -1.
</event>
<event>
 5   0  0.3713394E-06  0.2501812E+04  0.7818609E-02  0.8402340E-01
       -2   -1    0    0    0  501  0.00000000000E+00  0.00000000000E+00  0.90103259027E+03  0.90103259027E+03  0.25500000920E-02 0.  1.
        2   -1    0    0  501    0  0.00000000000E+00  0.00000000000E+00 -0.17366356070E+04  0.17366356070E+04  0.25500000920E-02 0. -1.
    10030    2    1    2    0    0  0.00000000000E+00  0.00000000000E+00 -0.83560301677E+03  0.26376681973E+04  0.25018115671E+04 0.  0.
        3    1    3    3  502    0 -0.51821653675E+03 -0.85543619252E+03 -0.12098954543E+04  0.15697663772E+04  0.10100000352E+00 0. -1.
       -3    1    3    3    0  502  0.51821653675E+03  0.85543619252E+03  0.37429243752E+03  0.10679018201E+04  0.10100000352E+00 0.  1.
</event>
<event>
 5   0  0.3971759E-06  0.2508411E+04  0.7818609E-02  0.8399995E-01
        2   -1    0    0  501    0  0.00000000000E+00  0.00000000000E+00  0.18977306085E+04  0.18977306085E+04  0.25500000920E-02 0.  1.
       -2   -1    0    0    0  501  0.00000000000E+00  0.00000000000E+00 -0.82890123786E+03  0.82890123787E+03  0.25500000920E-02 0. -1.
    10030    2    1    2    0    0  0.00000000000E+00  0.00000000000E+00  0.10688293706E+04  0.27266318463E+04  0.25084108519E+04 0.  0.
        4    1    3    3  502    0 -0.92651481913E+03 -0.14283583000E+03 -0.37125423637E+03  0.10082971315E+04  0.12699999809E+01 0. -1.
       -4    1    3    3    0  502  0.92651481913E+03  0.14283583000E+03  0.14400836070E+04  0.17183347149E+04  0.12699999809E+01 0.  1.
</event>
<event>
 5   0  0.1574896E-06  0.2506333E+04  0.7818609E-02  0.8400733E-01
       -1   -1    0    0    0  501  0.00000000000E+00  0.00000000000E+00  0.13438168738E+04  0.13438168738E+04  0.50400001928E-02 0. -1.
        1   -1    0    0  501    0  0.00000000000E+00  0.00000000000E+00 -0.11686310031E+04  0.11686310031E+04  0.50400001928E-02 0.  1.
    10030    2    1    2    0    0  0.00000000000E+00  0.00000000000E+00  0.17518587071E+03  0.25124478769E+04  0.25063328281E+04 0.  0.
        3    1    3    3  502    0 -0.65891101147E+01 -0.11963984669E+04  0.46134754870E+03  0.12822847885E+04  0.10100000352E+00 0.  1.
       -3    1    3    3    0  502  0.65891101147E+01  0.11963984669E+04 -0.28616167799E+03  0.12301630884E+04  0.10100000352E+00 0. -1.
</event>
<event>
 5   0  0.1501747E-06  0.2489492E+04  0.7818609E-02  0.8406739E-01
       -1   -1    0    0    0  501  0.00000000000E+00  0.00000000000E+00  0.12509739457E+04  0.12509739458E+04  0.50400001928E-02 0.  1.
        1   -1    0    0  501    0  0.00000000000E+00  0.00000000000E+00 -0.12385489287E+04  0.12385489287E+04  0.50400001928E-02 0. -1.
    10030    2    1    2    0    0  0.00000000000E+00  0.00000000000E+00  0.12425017091E+02  0.24895228744E+04  0.24894918681E+04 0.  0.
        2    1    3    3  502    0  0.98367962398E+01 -0.66822932028E+03  0.10563518912E+04  0.12500026021E+04  0.25500000920E-02 0.  1.
       -2    1    3    3    0  502 -0.98367962398E+01  0.66822932028E+03 -0.10439268741E+04  0.12395202724E+04  0.25500000920E-02 0. -1.
</event>
<event>
 5   0  0.1541852E-06  0.2498078E+04  0.7818609E-02  0.8403671E-01
        1   -1    0    0  501    0  0.00000000000E+00  0.00000000000E+00  0.24980389542E+04  0.24980389542E+04  0.50400001928E-02 0.  1.
       -1   -1    0    0    0  501  0.00000000000E+00  0.00000000000E+00 -0.62452910126E+03  0.62452910128E+03  0.50400001928E-02 0. -1.
    10030    2    1    2    0    0  0.00000000000E+00  0.00000000000E+00  0.18735098529E+04  0.31225680555E+04  0.24980776794E+04 0.  0.
        5    1    3    3  502    0  0.51098639512E+03  0.10074879469E+04  0.27068952989E+03  0.11616513981E+04  0.46999998093E+01 0. -1.
       -5    1    3    3    0  502 -0.51098639512E+03 -0.10074879469E+04  0.16028203230E+04  0.19609166574E+04  0.46999998093E+01 0.  1.
</event>
<event>
 5   0  0.3971759E-06  0.2500324E+04  0.7818609E-02  0.8402870E-01
       -2   -1    0    0    0  501  0.00000000000E+00  0.00000000000E+00  0.67968933259E+03  0.67968933259E+03  0.25500000920E-02 0.  1.
        2   -1    0    0  501    0  0.00000000000E+00  0.00000000000E+00 -0.22994407543E+04  0.22994407543E+04  0.25500000920E-02 0. -1.
    10030    2    1    2    0    0  0.00000000000E+00  0.00000000000E+00 -0.16197514217E+04  0.29791300869E+04  0.25003242603E+04 0.  0.
        4    1    3    3  502    0 -0.69247920850E+03 -0.52737006741E+03  0.25932789118E+03  0.90823962160E+03  0.12699999809E+01 0.  1.
       -4    1    3    3    0  502  0.69247920850E+03  0.52737006741E+03 -0.18790793129E+04  0.20708904653E+04  0.12699999809E+01 0. -1.
</event>
<event>
 5   0  0.1553604E-06  0.2506246E+04  0.7818609E-02  0.8400764E-01
       -1   -1    0    0    0  501  0.00000000000E+00  0.00000000000E+00  0.66082840356E+03  0.66082840358E+03  0.50400001928E-02 0. -1.
        1   -1    0    0  501    0  0.00000000000E+00  0.00000000000E+00 -0.23762856508E+04  0.23762856509E+04  0.50400001928E-02 0.  1.
    10030    2    1    2    0    0  0.00000000000E+00  0.00000000000E+00 -0.17154572473E+04  0.30371140544E+04  0.25062458404E+04 0.  0.
        1    1    3    3  502    0 -0.23733036400E+03  0.31581089696E+03 -0.22988523471E+04  0.23325488929E+04  0.50400001928E-02 0.  1.
       -1    1    3    3    0  502  0.23733036400E+03 -0.31581089696E+03  0.58339509978E+03  0.70456516149E+03  0.50400001928E-02 0. -1.
</event>
<event>
 5   0  0.1541852E-06  0.2500332E+04  0.7818609E-02  0.8402867E-01
        1   -1    0    0  501    0  0.00000000000E+00  0.00000000000E+00  0.93699632242E+03  0.93699632243E+03  0.50400001928E-02 0. -1.
       -1   -1    0    0    0  501  0.00000000000E+00  0.00000000000E+00 -0.16680057490E+04  0.16680057490E+04  0.50400001928E-02 0.  1.
    10030    2    1    2    0    0  0.00000000000E+00  0.00000000000E+00 -0.73100942661E+03  0.26050020715E+04  0.25003321800E+04 0.  0.
        5    1    3    3  502    0 -0.95502268084E+03  0.77478339804E+03 -0.59971650997E+03  0.13682249878E+04  0.46999998093E+01 0.  1.
       -5    1    3    3    0  502  0.95502268084E+03 -0.77478339804E+03 -0.13129291663E+03  0.12367770837E+04  0.46999998093E+01 0. -1.
</event>
<event>
 5   0  0.1553604E-06  0.2493329E+04  0.7818609E-02  0.8405366E-01
        1   -1    0    0  501    0  0.00000000000E+00  0.00000000000E+00  0.15121747029E+04  0.15121747029E+04  0.50400001928E-02 0. -1.
       -1   -1    0    0    0  501  0.00000000000E+00  0.00000000000E+00 -0.10277728635E+04  0.10277728635E+04  0.50400001928E-02 0.  1.
    10030    2    1    2    0    0  0.00000000000E+00  0.00000000000E+00  0.48440183947E+03  0.25399475664E+04  0.24933287986E+04 0.  0.
        1    1    3    3  502    0 -0.27025806428E+03 -0.11933175641E+04  0.48568002921E+03  0.13164084931E+04  0.50400001928E-02 0. -1.
       -1    1    3    3    0  502  0.27025806428E+03  0.11933175641E+04 -0.12781897388E+01  0.12235390733E+04  0.50400001928E-02 0.  1.
</event>
<event>
 5   0  0.1501747E-06  0.2492578E+04  0.7818609E-02  0.8405634E-01
       -1   -1    0    0    0  501  0.00000000000E+00  0.00000000000E+00  0.11106171934E+04  0.11106171934E+04  0.50400001928E-02 0.  1.
        1   -1    0    0  501    0  0.00000000000E+00  0.00000000000E+00 -0.13985341422E+04  0.13985341422E+04  0.50400001928E-02 0. -1.
    10030    2    1    2    0    0  0.00000000000E+00  0.00000000000E+00 -0.28791694879E+03  0.25091513357E+04  0.24925778335E+04 0.  0.
        2    1    3    3  502    0 -0.44794965813E+03 -0.11203600692E+03 -0.13092500162E+04  0.13882890794E+04  0.25500000920E-02 0. -1.
       -2    1    3    3    0  502  0.44794965813E+03  0.11203600692E+03  0.10213330674E+04  0.11208622563E+04  0.25500000920E-02 0.  1.
</event>
<event>
 5   0  0.3814260E-06  0.2500743E+04  0.7818609E-02  0.8402721E-01
       -2   -1    0    0    0  501  0.00000000000E+00  0.00000000000E+00  0.10518516926E+04  0.10518516926E+04  0.25500000920E-02 0. -1.
        2   -1    0    0  501    0  0.00000000000E+00  0.00000000000E+00 -0.14863589350E+04  0.14863589350E+04  0.25500000920E-02 0.  1.
    10030    2    1    2    0    0  0.00000000000E+00  0.00000000000E+00 -0.43450724242E+03  0.25382106277E+04  0.25007432189E+04 0.  0.
        5    1    3    3  502    0 -0.33489057925E+03 -0.78554319483E+03 -0.11442706925E+04  0.14277980665E+04  0.46999998093E+01 0.  1.
       -5    1    3    3    0  502  0.33489057925E+03  0.78554319483E+03  0.70976345005E+03  0.11104125612E+04  0.46999998093E+01 0. -1.
</event>
<event>
 5   0  0.3971759E-06  0.2500044E+04  0.7818609E-02  0.8402970E-01
        2   -1    0    0  501    0  0.00000000000E+00  0.00000000000E+00  0.97083951866E+03  0.97083951866E+03  0.25500000920E-02 0. -1.
       -2   -1    0    0    0  501  0.00000000000E+00  0.00000000000E+00 -0.16094881920E+04  0.16094881920E+04  0.25500000920E-02 0.  1.
    10030    2    1    2    0    0  0.00000000000E+00  0.00000000000E+00 -0.63864867332E+03  0.25803277106E+04  0.25000437929E+04 0.  0.
        4    1    3    3  502    0  0.74363303085E+03  0.93520589384E+02  0.71321017084E+03  0.10346045360E+04  0.12699999809E+01 0. -1.
       -4    1    3    3    0  502 -0.74363303085E+03 -0.93520589384E+02 -0.13518588442E+04  0.15457231746E+04  0.12699999809E+01 0.  1.
</event>
<event>
 5   0  0.1574896E-06  0.2498608E+04  0.7818609E-02  0.8403482E-01
       -1   -1    0    0    0  501  0.00000000000E+00  0.00000000000E+00  0.12819201685E+04  0.12819201685E+04  0.50400001928E-02 0. -1.
        1   -1    0    0  501    0  0.00000000000E+00  0.00000000000E+00 -0.12175176985E+04  0.12175176985E+04  0.50400001928E-02 0.  1.
    10030    2    1    2    0    0  0.00000000000E+00  0.00000000000E+00  0.64402470052E+02  0.24994378670E+04  0.24986080071E+04 0.  0.
        3    1    3    3  502    0  0.36857299196E+03  0.10308071956E+04 -0.56995463568E+03  0.12342033146E+04  0.10100000352E+00 0.  1.
       -3    1    3    3    0  502 -0.36857299196E+03 -0.10308071956E+04  0.63435710573E+03  0.12652345524E+04  0.10100000352E+00 0. -1.
</event>
<event>
 5   0  0.1501747E-06  0.2500237E+04  0.7818609E-02  0.8402901E-01
        1   -1    0    0  501    0  0.00000000000E+00  0.00000000000E+00  0.18908157782E+04  0.18908157782E+04  0.50400001928E-02 0.  1.
       -1   -1    0    0    0  501  0.00000000000E+00  0.00000000000E+00 -0.82651950738E+03  0.82651950739E+03  0.50400001928E-02 0. -1.
    10030    2    1    2    0    0  0.00000000000E+00  0.00000000000E+00  0.10642962708E+04  0.27173352856E+04  0.25002368892E+04 0.  0.
        2    1    3    3  502    0 -0.58545035938E+03 -0.55885234133E+03  0.15676239289E+04  0.17642315168E+04  0.25500000920E-02 0.  1.
       -2    1    3    3    0  502  0.58545035938E+03  0.55885234133E+03 -0.50332765801E+03  0.95310376877E+03  0.25500000920E-02 0. -1.
</event>
<event>
 5   0  0.3971759E-06  0.2499948E+04  0.7818609E-02  0.8403004E-01
       -2   -1    0    0    0  501  0.00000000000E+00  0.00000000000E+00  0.10251607798E+04  0.10251607798E+04  0.25500000920E-02 0. -1.
        2   -1    0    0  501    0  0.00000000000E+00  0.00000000000E+00 -0.15240875981E+04  0.15240875981E+04  0.25500000920E-02 0.  1.
    10030    2    1    2    0    0  0.00000000000E+00  0.00000000000E+00 -0.49892681827E+03  0.25492483780E+04  0.24999478640E+04 0.  0.
        4    1    3    3  502    0  0.17247318629E+03  0.11293302016E+04  0.26778680902E+03  0.11733904262E+04  0.12699999809E+01 0.  1.
       -4    1    3    3    0  502 -0.17247318629E+03 -0.11293302016E+04 -0.76671362729E+03  0.13758579518E+04  0.12699999809E+01 0. -1.
</event>
<event>
 5   0  0.1553604E-06  0.2503960E+04  0.7818609E-02  0.8401576E-01
        1   -1    0    0  501    0  0.00000000000E+00  0.00000000000E+00  0.17254629860E+04  0.17254629860E+04  0.50400001928E-02 0.  1.
       -1   -1    0    0    0  501  0.00000000000E+00  0.00000000000E+00 -0.90842490269E+03  0.90842490271E+03  0.50400001928E-02 0. -1.
    10030    2    1    2    0    0  0.00000000000E+00  0.00000000000E+00  0.81703808326E+03  0.26338878887E+04  0.25039597003E+04 0.  0.
        1    1    3    3  502    0  0.65327729202E+03  0.96833739190E+03  0.88245901464E+03  0.14639612144E+04  0.50400001928E-02 0.  1.
       -1    1    3    3    0  502 -0.65327729202E+03 -0.96833739190E+03 -0.65420931379E+02  0.11699266742E+04  0.50400001928E-02 0. -1.
</event>
<event>
 5   0  0.3808293E-06  0.2502211E+04  0.7818609E-02  0.8402198E-01
        2   -1    0    0  501    0  0.00000000000E+00  0.00000000000E+00  0.16082859516E+04  0.16082859516E+04  0.25500000920E-02 0. -1.
       -2   -1    0    0    0  501  0.00000000000E+00  0.00000000000E+00 -0.97325020573E+03  0.97325020573E+03  0.25500000920E-02 0.  1.
    10030    2    1    2    0    0  0.00000000000E+00  0.00000000000E+00  0.63503574583E+03  0.25815361573E+04  0.25022107291E+04 0.  0.
        1    1    3    3  502    0  0.12243286970E+04  0.25534642644E+03  0.35145565834E+03  0.12991164827E+04  0.50400001928E-02 0. -1.
       -1    1    3    3    0  502 -0.12243286970E+04 -0.25534642644E+03  0.28358008749E+03  0.12824196746E+04  0.50400001928E-02 0.  1.
</event>
<event>
 5   0  0.1553604E-06  0.2514055E+04  0.7818609E-02  0.8397995E-01
       -1   -1    0    0    0  501  0.00000000000E+00  0.00000000000E+00  0.93061424356E+03  0.93061424357E+03  0.50400001928E-02 0. -1.
        1   -1    0    0  501    0  0.00000000000E+00  0.00000000000E+00 -0.16979306941E+04  0.16979306941E+04  0.50400001928E-02 0.  1.
    10030    2    1    2    0    0  0.00000000000E+00  0.00000000000E+00 -0.76731645052E+03  0.26285449377E+04  0.25140552806E+04 0.  0.
        1    1    3    3  502    0  0.58514389594E+03  0.54829933394E+03 -0.13957780192E+04  0.16097272494E+04  0.50400001928E-02 0.  1.
       -1    1    3    3    0  502 -0.58514389594E+03 -0.54829933394E+03  0.62846156869E+03  0.10188176883E+04  0.50400001928E-02 0. -1.
</event>
<event>
 5   0  0.1553604E-06  0.2501861E+04  0.7818609E-02  0.8402323E-01
        1   -1    0    0  501    0  0.00000000000E+00  0.00000000000E+00  0.19254481808E+04  0.19254481808E+04  0.50400001928E-02 0.  1.
       -1   -1    0    0    0  501  0.00000000000E+00  0.00000000000E+00 -0.81270812740E+03  0.81270812741E+03  0.50400001928E-02 0. -1.
    10030    2    1    2    0    0  0.00000000000E+00  0.00000000000E+00  0.11127400534E+04  0.27381563082E+04  0.25018612155E+04 0.  0.
        1    1    3    3  502    0 -0.78716109594E+03 -0.19889914720E+03  0.15979047672E+04  0.17923401203E+04  0.50400001928E-02 0.  1.
       -1    1    3    3    0  502  0.78716109594E+03  0.19889914720E+03 -0.48516471383E+03  0.94581618790E+03  0.50400001928E-02 0. -1.
</event>
<event>
 5   0  0.3814260E-06  0.2501783E+04  0.7818609E-02  0.8402351E-01
       -2   -1    0    0    0  501  0.00000000000E+00  0.00000000000E+00  0.10386304850E+04  0.10386304850E+04  0.25500000920E-02 0. -1.
        2   -1    0    0  501    0  0.00000000000E+00  0.00000000000E+00 -0.15065316511E+04  0.15065316511E+04  0.25500000920E-02 0.  1.
    10030    2    1    2    0    0  0.00000000000E+00  0.00000000000E+00 -0.46790116611E+03  0.25451621360E+04  0.25017831236E+04 0.  0.
        5    1    3    3  502    0 -0.14909477260E+03 -0.74122260937E+03  0.77985611943E+03  0.10862034178E+04  0.46999998093E+01 0. -1.
       -5    1    3    3    0  502  0.14909477260E+03  0.74122260937E+03 -0.12477572855E+04  0.14589587182E+04  0.46999998093E+01 0.  1.
</event>
<event>
 5   0  0.1541852E-06  0.2505210E+04  0.7818609E-02  0.8401132E-01
        1   -1    0    0  501    0  0.00000000000E+00  0.00000000000E+00  0.83851203345E+03  0.83851203346E+03  0.50400001928E-02 0.  1.
       -1   -1    0    0    0  501  0.00000000000E+00  0.00000000000E+00 -0.18711949976E+04  0.18711949976E+04  0.50400001928E-02 0. -1.
    10030    2    1    2    0    0  0.00000000000E+00  0.00000000000E+00 -0.10326829642E+04  0.27097070311E+04  0.25052101888E+04 0.  0.
        5    1    3    3  502    0  0.47321367528E+03  0.59713225414E+03  0.55904941656E+03  0.94501664089E+03  0.46999998093E+01 0.  1.
       -5    1    3    3    0  502 -0.47321367528E+03 -0.59713225414E+03 -0.15917323807E+04  0.17646903902E+04  0.46999998093E+01 0. -1.
</event>
<event>
 5   0  0.3713394E-06  0.2500526E+04  0.7818609E-02  0.8402798E-01
        2   -1    0    0  501    0  0.00000000000E+00  0.00000000000E+00  0.14454736787E+04  0.14454736787E+04  0.25500000920E-02 0.  1.
       -2   -1    0    0    0  501  0.00000000000E+00  0.00000000000E+00 -0.10814150346E+04  0.10814150346E+04  0.25500000920E-02 0. -1.
    10030    2    1    2    0    0  0.00000000000E+00  0.00000000000E+00  0.36405864413E+03  0.25268887134E+04  0.25005255194E+04 0.  0.
        3    1    3    3  502    0  0.54543459669E+03  0.22687199226E+03 -0.93148970413E+03  0.11030153577E+04  0.10100000352E+00 0. -1.
       -3    1    3    3    0  502 -0.54543459669E+03 -0.22687199226E+03  0.12955483483E+04  0.14238733557E+04  0.10100000352E+00 0.  1.
</event>
<event>
 5   0  0.3971759E-06  0.2500746E+04  0.7818609E-02  0.8402720E-01
        2   -1    0    0  501    0  0.00000000000E+00  0.00000000000E+00  0.20251368199E+04  0.20251368199E+04  0.25500000920E-02 0. -1.
       -2   -1    0    0    0  501  0.00000000000E+00  0.00000000000E+00 -0.77201310882E+03  0.77201310882E+03  0.25500000920E-02 0.  1.
    10030    2    1    2    0    0  0.00000000000E+00  0.00000000000E+00  0.12531237110E+04  0.27971499287E+04  0.25007456265E+04 0.  0.
        4    1    3    3  502    0 -0.30996451532E+02 -0.10320811297E+04 -0.16220016464E+03  0.10452094262E+04  0.12699999809E+01 0.  1.
       -4    1    3    3    0  502  0.30996451532E+02  0.10320811297E+04  0.14153238757E+04  0.17519405025E+04  0.12699999809E+01 0. -1.
</event>
<event>
 5   0  0.3713394E-06  0.2500060E+04  0.7818609E-02  0.8402964E-01
       -2   -1    0    0    0  501  0.00000000000E+00  0.00000000000E+00  0.13327416980E+04  0.13327416980E+04  0.25500000920E-02 0. -1.
        2   -1    0    0  501    0  0.00000000000E+00  0.00000000000E+00 -0.11724512442E+04  0.11724512442E+04  0.25500000920E-02 0.  1.
    10030    2    1    2    0    0  0.00000000000E+00  0.00000000000E+00  0.16029045383E+03  0.25051929422E+04  0.25000597289E+04 0.  0.
        3    1    3    3  502    0 -0.10778678603E+04 -0.59628001479E+03 -0.13295470316E+03  0.12389616392E+04  0.10100000352E+00 0.  1.
       -3    1    3    3    0  502  0.10778678603E+04  0.59628001479E+03  0.29324515699E+03  0.12662313029E+04  0.10100000352E+00 0. -1.
</event>
<event>
 5   0  0.3808293E-06  0.2498813E+04  0.7818609E-02  0.8403409E-01
       -2   -1    0    0    0  501  0.00000000000E+00  0.00000000000E+00  0.56651871692E+03  0.56651871693E+03  0.25500000920E-02 0. -1.
        2   -1    0    0  501    0  0.00000000000E+00  0.00000000000E+00 -0.27554545774E+04  0.27554545775E+04  0.25500000920E-02 0.  1.
    10030    2    1    2    0    0  0.00000000000E+00  0.00000000000E+00 -0.21889358605E+04  0.33219732944E+04  0.24988129916E+04 0.  0.
        1    1    3    3  502    0  0.28028452476E+03 -0.19521827498E+03 -0.26921786671E+04  0.27137604105E+04  0.50400001928E-02 0.  1.
       -1    1    3    3    0  502 -0.28028452476E+03  0.19521827498E+03  0.50324280661E+03  0.60821288390E+03  0.50400001928E-02 0. -1.
</event>
<event>
 5   0  0.1501747E-06  0.2501703E+04  0.7818609E-02  0.8402379E-01
       -1   -1    0    0    0  501  0.00000000000E+00  0.00000000000E+00  0.13765490802E+04  0.13765490802E+04  0.50400001928E-02 0.  1.
        1   -1    0    0  501    0  0.00000000000E+00  0.00000000000E+00 -0.11366315890E+04  0.11366315890E+04  0.50400001928E-02 0. -1.
    10030    2    1    2    0    0  0.00000000000E+00  0.00000000000E+00  0.23991749120E+03  0.25131806693E+04  0.25017027549E+04 0.  0.
        2    1    3    3  502    0 -0.14432833499E+02 -0.83645665348E+03  0.10541506160E+04  0.13457717344E+04  0.25500000920E-02 0.  1.
       -2    1    3    3    0  502  0.14432833499E+02  0.83645665348E+03 -0.81423312477E+03  0.11674089349E+04  0.25500000920E-02 0. -1.
</event>
<event>
 5   0  0.1519145E-06  0.2497249E+04  0.7818609E-02  0.8403966E-01
       -1   -1    0    0    0  501  0.00000000000E+00  0.00000000000E+00  0.18712341491E+04  0.18712341491E+04  0.50400001928E-02 0.  1.
        1   -1    0    0  501    0  0.00000000000E+00  0.00000000000E+00 -0.83317351832E+03  0.83317351834E+03  0.50400001928E-02 0. -1.
    10030    2    1    2    0    0  0.00000000000E+00  0.00000000000E+00  0.10380606307E+04  0.27044076674E+04  0.24972486777E+04 0.  0.
        4    1    3    3  502    0 -0.47549025786E+03  0.10624543057E+04  0.10083545751E+04  0.15400262008E+04  0.12699999809E+01 0.  1.
       -4    1    3    3    0  502  0.47549025786E+03 -0.10624543057E+04  0.29706055596E+02  0.11643814666E+04  0.12699999809E+01 0. -1.
</event>
<event>
 5   0  0.3814260E-06  0.2514097E+04  0.7818609E-02  0.8397981E-01
       -2   -1    0    0    0  501  0.00000000000E+00  0.00000000000E+00  0.13489999258E+04  0.13489999258E+04  0.25500000920E-02 0.  1.
        2   -1    0    0  501    0  0.00000000000E+00  0.00000000000E+00 -0.11713645520E+04  0.11713645520E+04  0.25500000920E-02 0. -1.
    10030    2    1    2    0    0  0.00000000000E+00  0.00000000000E+00  0.17763537382E+03  0.25203644778E+04  0.25140968109E+04 0.  0.
        5    1    3    3  502    0  0.12439655375E+04  0.17317904022E+03  0.36655621981E+02  0.12565058548E+04  0.46999998093E+01 0.  1.
       -5    1    3    3    0  502 -0.12439655375E+04 -0.17317904022E+03  0.14097975184E+03  0.12638586230E+04  0.46999998093E+01 0. -1.
</event>
<event>
 5   0  0.1553604E-06  0.2498885E+04  0.7818609E-02  0.8403383E-01
       -1   -1    0    0    0  501  0.00000000000E+00  0.00000000000E+00  0.73102286669E+03  0.73102286671E+03  0.50400001928E-02 0. -1.
        1   -1    0    0  501    0  0.00000000000E+00  0.00000000000E+00 -0.21355103109E+04  0.21355103109E+04  0.50400001928E-02 0.  1.
    10030    2    1    2    0    0  0.00000000000E+00  0.00000000000E+00 -0.14044874442E+04  0.28665331776E+04  0.24988852470E+04 0.  0.
        1    1    3    3  502    0 -0.68316656613E+03  0.32954675148E+03 -0.18411885816E+04  0.19913043493E+04  0.50400001928E-02 0.  1.
       -1    1    3    3    0  502  0.68316656613E+03 -0.32954675148E+03  0.43670113740E+03  0.87522882832E+03  0.50400001928E-02 0. -1.
</event>
<event>
 5   0  0.1519145E-06  0.2503602E+04  0.7818609E-02  0.8401704E-01
       -1   -1    0    0    0  501  0.00000000000E+00  0.00000000000E+00  0.74056918984E+03  0.74056918985E+03  0.50400001928E-02 0. -1.
        1   -1    0    0  501    0  0.00000000000E+00  0.00000000000E+00 -0.21159474264E+04  0.21159474264E+04  0.50400001928E-02 0.  1.
    10030    2    1    2    0    0  0.00000000000E+00  0.00000000000E+00 -0.13753782366E+04  0.28565166163E+04  0.25036017825E+04 0.  0.
        4    1    3    3  502    0 -0.72093485645E+03  0.38293956007E+03 -0.17704707252E+04  0.19496045690E+04  0.12699999809E+01 0.  1.
       -4    1    3    3    0  502  0.72093485645E+03 -0.38293956007E+03  0.39509248864E+03  0.90691204722E+03  0.12699999809E+01 0. -1.
</event>
<event>
 5   0  0.1541852E-06  0.2496679E+04  0.7818609E-02  0.8404169E-01
       -1   -1    0    0    0  501  0.00000000000E+00  0.00000000000E+00  0.85187307885E+03  0.85187307886E+03  0.50400001928E-02 0. -1.
        1   -1    0    0  501    0  0.00000000000E+00  0.00000000000E+00 -0.18293242038E+04  0.18293242038E+04  0.50400001928E-02 0.  1.
    10030    2    1    2    0    0  0.00000000000E+00  0.00000000000E+00 -0.97745112499E+03  0.26811972827E+04  0.24966794282E+04 0.  0.
        5    1    3    3  502    0  0.18647435661E+03 -0.73454311952E+03  0.57655584483E+03  0.95224209753E+03  0.46999998093E+01 0. -1.
       -5    1    3    3    0  502 -0.18647435661E+03  0.73454311952E+03 -0.15540069698E+04  0.17289551852E+04  0.46999998093E+01 0.  1.
</event>
<event>
 5   0  0.3971759E-06  0.2483766E+04  0.7818609E-02  0.8408792E-01
       -2   -1    0    0    0  501  0.00000000000E+00  0.00000000000E+00  0.13342912466E+04  0.13342912467E+04  0.25500000920E-02 0.  1.
        2   -1    0    0  501    0  0.00000000000E+00  0.00000000000E+00 -0.11558741849E+04  0.11558741849E+04  0.25500000920E-02 0. -1.
    10030    2    1    2    0    0  0.00000000000E+00  0.00000000000E+00  0.17841706174E+03  0.24901654316E+04  0.24837655341E+04 0.  0.
        4    1    3    3  502    0  0.31700177695E+03  0.93291059950E+03  0.84710537183E+03  0.12993850227E+04  0.12699999809E+01 0.  1.
       -4    1    3    3    0  502 -0.31700177695E+03 -0.93291059950E+03 -0.66868831009E+03  0.11907804089E+04  0.12699999809E+01 0. -1.
</event>
<event>
 5   0  0.1553604E-06  0.2466692E+04  0.7818609E-02  0.8414949E-01
       -1   -1    0    0    0  501  0.00000000000E+00  0.00000000000E+00  0.72441861783E+03  0.72441861785E+03  0.50400001928E-02 0. -1.
        1   -1    0    0  501    0  0.00000000000E+00  0.00000000000E+00 -0.20998116035E+04  0.20998116036E+04  0.50400001928E-02 0.  1.
    10030    2    1    2    0    0  0.00000000000E+00  0.00000000000E+00 -0.13753929857E+04  0.28242302214E+04  0.24666922139E+04 0.  0.
        1    1    3    3  502    0  0.10710603501E+04 -0.21492416003E+03 -0.32191013479E+02  0.10928855976E+04  0.50400001928E-02 0. -1.
       -1    1    3    3    0  502 -0.10710603501E+04  0.21492416003E+03 -0.13432019722E+04  0.17313446238E+04  0.50400001928E-02 0.  1.
</event>
<event>
 5   0  0.3924441E-06  0.2500686E+04  0.7818609E-02  0.8402741E-01
        2   -1    0    0  501    0  0.00000000000E+00  0.00000000000E+00  0.82414635176E+03  0.82414635177E+03  0.25500000920E-02 0.  1.
       -2   -1    0    0    0  501  0.00000000000E+00  0.00000000000E+00 -0.18969417632E+04  0.18969417632E+04  0.25500000920E-02 0. -1.
    10030    2    1    2    0    0  0.00000000000E+00  0.00000000000E+00 -0.10727954115E+04  0.27210881150E+04  0.25006860128E+04 0.  0.
        2    1    3    3  502    0  0.57996325124E+03  0.54614951723E+03  0.51224143873E+03  0.94711559987E+03  0.25500000920E-02 0.  1.
       -2    1    3    3    0  502 -0.57996325124E+03 -0.54614951723E+03 -0.15850368502E+04  0.17739725151E+04  0.25500000920E-02 0. -1.
</event>
<event>
 5   0  0.3814260E-06  0.2523167E+04  0.7818609E-02  0.8394779E-01
        2   -1    0    0  501    0  0.00000000000E+00  0.00000000000E+00  0.13871035990E+04  0.13871035990E+04  0.25500000920E-02 0.  1.
       -2   -1    0    0    0  501  0.00000000000E+00  0.00000000000E+00 -0.11474214454E+04  0.11474214454E+04  0.25500000920E-02 0. -1.
    10030    2    1    2    0    0  0.00000000000E+00  0.00000000000E+00  0.23968215363E+03  0.25345250444E+04  0.25231665950E+04 0.  0.
        5    1    3    3  502    0 -0.37096697704E+03  0.99634204488E+03  0.80205698703E+03  0.13317775598E+04  0.46999998093E+01 0.  1.
       -5    1    3    3    0  502  0.37096697704E+03 -0.99634204488E+03 -0.56237483340E+03  0.12027474846E+04  0.46999998093E+01 0. -1.
</event>
<event>
 5   0  0.1574896E-06  0.2490015E+04  0.7818609E-02  0.8406552E-01
       -1   -1    0    0    0  501  0.00000000000E+00  0.00000000000E+00  0.11979157537E+04  0.11979157537E+04  0.50400001928E-02 0.  1.
        1   -1    0    0  501    0  0.00000000000E+00  0.00000000000E+00 -0.12939501182E+04  0.12939501182E+04  0.50400001928E-02 0. -1.
    10030    2    1    2    0    0  0.00000000000E+00  0.00000000000E+00 -0.96034364511E+02  0.24918658719E+04  0.24900146434E+04 0.  0.
        3    1    3    3  502    0  0.10143520448E+04  0.21668624889E+03 -0.73713658455E+03  0.12724910042E+04  0.10100000352E+00 0. -1.
       -3    1    3    3    0  502 -0.10143520448E+04 -0.21668624889E+03  0.64110222004E+03  0.12193748677E+04  0.10100000352E+00 0.  1.
</event>
<event>
 5   0  0.1541852E-06  0.2498534E+04  0.7818609E-02  0.8403508E-01
        1   -1    0    0  501    0  0.00000000000E+00  0.00000000000E+00  0.20228018393E+04  0.20228018393E+04  0.50400001928E-02 0.  1.
       -1   -1    0    0    0  501  0.00000000000E+00  0.00000000000E+00 -0.77153756946E+03  0.77153756948E+03  0.50400001928E-02 0. -1.
    10030    2    1    2    0    0  0.00000000000E+00  0.00000000000E+00  0.12512642698E+04  0.27943394088E+04  0.24985336617E+04 0.  0.
        5    1    3    3  502    0 -0.44643358217E+03  0.11636125651E+04  0.52976058596E+03  0.13542398286E+04  0.46999998093E+01 0. -1.
       -5    1    3    3    0  502  0.44643358217E+03 -0.11636125651E+04  0.72150368385E+03  0.14400995802E+04  0.46999998093E+01 0.  1.
</event>
<event>
 5   0  0.3924441E-06  0.2493465E+04  0.7818609E-02  0.8405317E-01
       -2   -1    0    0    0  501  0.00000000000E+00  0.00000000000E+00  0.12218945393E+04  0.12218945393E+04  0.25500000920E-02 0. -1.
        2   -1    0    0  501    0  0.00000000000E+00  0.00000000000E+00 -0.12720755508E+04  0.12720755508E+04  0.25500000920E-02 0.  1.
    10030    2    1    2    0    0  0.00000000000E+00  0.00000000000E+00 -0.50181011514E+02  0.24939700902E+04  0.24934651946E+04 0.  0.
        2    1    3    3  502    0  0.19111549852E+03 -0.49842074798E+03 -0.11519924173E+04  0.12696593659E+04  0.25500000920E-02 0.  1.
       -2    1    3    3    0  502 -0.19111549852E+03  0.49842074798E+03  0.11018114058E+04  0.12243107243E+04  0.25500000920E-02 0. -1.
</event>
<event>
 5   0  0.1519145E-06  0.2499487E+04  0.7818609E-02  0.8403168E-01
        1   -1    0    0  501    0  0.00000000000E+00  0.00000000000E+00  0.19891947558E+04  0.19891947558E+04  0.50400001928E-02 0.  1.
       -1   -1    0    0    0  501  0.00000000000E+00  0.00000000000E+00 -0.78517164251E+03  0.78517164252E+03  0.50400001928E-02 0. -1.
    10030    2    1    2    0    0  0.00000000000E+00  0.00000000000E+00  0.12040231133E+04  0.27743663983E+04  0.24994873984E+04 0.  0.
        4    1    3    3  502    0 -0.40692155845E+03 -0.42388199724E+03  0.18263068031E+04  0.19185044317E+04  0.12699999809E+01 0.  1.
       -4    1    3    3    0  502  0.40692155845E+03  0.42388199724E+03 -0.62228368987E+03  0.85586196661E+03  0.12699999809E+01 0. -1.
</event>
<event>
 5   0  0.3713394E-06  0.2501185E+04  0.7818609E-02  0.8402564E-01
       -2   -1    0    0    0  501  0.00000000000E+00  0.00000000000E+00  0.16706329962E+04  0.16706329962E+04  0.25500000920E-02 0.  1.
        2   -1    0    0  501    0  0.00000000000E+00  0.00000000000E+00 -0.93616078728E+03  0.93616078729E+03  0.25500000920E-02 0. -1.
    10030    2    1    2    0    0  0.00000000000E+00  0.00000000000E+00  0.73447220892E+03  0.26067937835E+04  0.25011846001E+04 0.  0.
        3    1    3    3  502    0  0.63568306279E+03 -0.93120852918E+03 -0.19666258061E+03  0.11445166936E+04  0.10100000352E+00 0. -1.
       -3    1    3    3    0  502 -0.63568306279E+03  0.93120852918E+03  0.93113478953E+03  0.14622770899E+04  0.10100000352E+00 0.  1.
</event>
<event>
 5   0  0.3814260E-06  0.2501673E+04  0.7818609E-02  0.8402390E-01
       -2   -1    0    0    0  501  0.00000000000E+00  0.00000000000E+00  0.19423733030E+04  0.19423733030E+04  0.25500000920E-02 0.  1.
        2   -1    0    0  501    0  0.00000000000E+00  0.00000000000E+00 -0.80550546098E+03  0.80550546098E+03  0.25500000920E-02 0. -1.
    10030    2    1    2    0    0  0.00000000000E+00  0.00000000000E+00  0.11368678420E+04  0.27478787640E+04  0.25016732823E+04 0.  0.
        5    1    3    3  502    0  0.68264608398E+03  0.47132536399E+03 -0.45987205247E+03  0.94850285680E+03  0.46999998093E+01 0. -1.
       -5    1    3    3    0  502 -0.68264608398E+03 -0.47132536399E+03  0.15967398945E+04  0.17993759072E+04  0.46999998093E+01 0.  1.
</event>
<event>
 5   0  0.3808293E-06  0.2508863E+04  0.7818609E-02  0.8399835E-01
       -2   -1    0    0    0  501  0.00000000000E+00  0.00000000000E+00  0.59974036680E+03  0.59974036680E+03  0.25500000920E-02 0.  1.
        2   -1    0    0  501    0  0.00000000000E+00  0.00000000000E+00 -0.26237994162E+04  0.26237994162E+04  0.25500000920E-02 0. -1.
    10030    2    1    2    0    0  0.00000000000E+00  0.00000000000E+00 -0.20240590494E+04  0.32235397830E+04  0.25088630288E+04 0.  0.
        1    1    3    3  502    0 -0.32064032887E+03  0.30730751434E+03  0.49534292331E+03  0.66529147038E+03  0.50400001928E-02 0.  1.
       -1    1    3    3    0  502  0.32064032887E+03 -0.30730751434E+03 -0.25194019727E+04  0.25582483126E+04  0.50400001928E-02 0. -1.
</event>
<event>
 5   0  0.1519145E-06  0.2505370E+04  0.7818609E-02  0.8401075E-01
        1   -1    0    0  501    0  0.00000000000E+00  0.00000000000E+00  0.10406111919E+04  0.10406111920E+04  0.50400001928E-02 0. -1.
       -1   -1    0    0    0  501  0.00000000000E+00  0.00000000000E+00 -0.15079786556E+04  0.15079786556E+04  0.50400001928E-02 0.  1.
    10030    2    1    2    0    0  0.00000000000E+00  0.00000000000E+00 -0.46736746365E+03  0.25485898476E+04  0.25053698061E+04 0.  0.
        4    1    3    3  502    0 -0.10215138451E+04  0.63756175776E+03  0.11758809792E+03  0.12098777229E+04  0.12699999809E+01 0. -1.
       -4    1    3    3    0  502  0.10215138451E+04 -0.63756175776E+03 -0.58495556157E+03  0.13387121246E+04  0.12699999809E+01 0.  1.
</event>
<event>
 5   0  0.3808293E-06  0.2501587E+04  0.7818609E-02  0.8402420E-01
       -2   -1    0    0    0  501  0.00000000000E+00  0.00000000000E+00  0.89040158152E+03  0.89040158153E+03  0.25500000920E-02 0.  1.
        2   -1    0    0  501    0  0.00000000000E+00  0.00000000000E+00 -0.17570548322E+04  0.17570548322E+04  0.25500000920E-02 0. -1.
    10030    2    1    2    0    0  0.00000000000E+00  0.00000000000E+00 -0.86665325066E+03  0.26474564137E+04  0.25015870174E+04 0.  0.
        1    1    3    3  502    0 -0.32387404964E+03 -0.76069618709E+03 -0.14266352995E+04  0.16488909506E+04  0.50400001928E-02 0. -1.
       -1    1    3    3    0  502  0.32387404964E+03  0.76069618709E+03  0.55998204885E+03  0.99856546312E+03  0.50400001928E-02 0.  1.
</event>
<event>
 5   0  0.1553604E-06  0.2496793E+04  0.7818609E-02  0.8404129E-01
        1   -1    0    0  501    0  0.00000000000E+00  0.00000000000E+00  0.14539681303E+04  0.14539681304E+04  0.50400001928E-02 0. -1.
       -1   -1    0    0    0  501  0.00000000000E+00  0.00000000000E+00 -0.10718901323E+04  0.10718901323E+04  0.50400001928E-02 0.  1.
    10030    2    1    2    0    0  0.00000000000E+00  0.00000000000E+00  0.38207799805E+03  0.25258582627E+04  0.24967932166E+04 0.  0.
        1    1    3    3  502    0 -0.79670176806E+03  0.25513988180E+03  0.11284672442E+04  0.14047307172E+04  0.50400001928E-02 0. -1.
       -1    1    3    3    0  502  0.79670176806E+03 -0.25513988180E+03 -0.74638924613E+03  0.11211275455E+04  0.50400001928E-02 0.  1.
</event>
<event>
 5   0  0.3971759E-06  0.2495901E+04  0.7818609E-02  0.8404447E-01
        2   -1    0    0  501    0  0.00000000000E+00  0.00000000000E+00  0.20491890818E+04  0.20491890818E+04  0.25500000920E-02 0. -1.
       -2   -1    0    0    0  501  0.00000000000E+00  0.00000000000E+00 -0.75999829238E+03  0.75999829239E+03  0.25500000920E-02 0.  1.
    10030    2    1    2    0    0  0.00000000000E+00  0.00000000000E+00  0.12891907894E+04  0.28091873742E+04  0.24959008017E+04 0.  0.
        4    1    3    3  502    0 -0.24689012576E+03 -0.88530064364E+03  0.15947550766E+04  0.18406404676E+04  0.12699999809E+01 0. -1.
       -4    1    3    3    0  502  0.24689012576E+03  0.88530064364E+03 -0.30556428713E+03  0.96854690661E+03  0.12699999809E+01 0.  1.
</event>
<event>
 5   0  0.1553604E-06  0.2494909E+04  0.7818609E-02  0.8404801E-01
        1   -1    0    0  501    0  0.00000000000E+00  0.00000000000E+00  0.15746762394E+04  0.15746762394E+04  0.50400001928E-02 0.  1.
       -1   -1    0    0    0  501  0.00000000000E+00  0.00000000000E+00 -0.98823020980E+03  0.98823020981E+03  0.50400001928E-02 0. -1.
    10030    2    1    2    0    0  0.00000000000E+00  0.00000000000E+00  0.58644602958E+03  0.25629064492E+04  0.24949089205E+04 0.  0.
        1    1    3    3  502    0 -0.71026487922E+03  0.31028593670E+03  0.12973027272E+04  0.15112074401E+04  0.50400001928E-02 0.  1.
       -1    1    3    3    0  502  0.71026487922E+03 -0.31028593670E+03 -0.71085669757E+03  0.10516990091E+04  0.50400001928E-02 0. -1.
</event>
<event>
 5   0  0.3814260E-06  0.2498217E+04  0.7818609E-02  0.8403621E-01
       -2   -1    0    0    0  501  0.00000000000E+00  0.00000000000E+00  0.83600923948E+03  0.83600923948E+03  0.25500000920E-02 0. -1.
        2   -1    0    0  501    0  0.00000000000E+00  0.00000000000E+00 -0.18663337709E+04  0.18663337709E+04  0.25500000920E-02 0.  1.
    10030    2    1    2    0    0  0.00000000000E+00  0.00000000000E+00 -0.10303245314E+04  0.27023430104E+04  0.24982171855E+04 0.  0.
        5    1    3    3  502    0  0.91221487326E+03  0.73792973851E+03 -0.97862600783E+03  0.15278767055E+04  0.46999998093E+01 0.  1.
       -5    1    3    3    0  502 -0.91221487326E+03 -0.73792973851E+03 -0.51698523594E+02  0.11744663049E+04  0.46999998093E+01 0. -1.
</event>
<event>
 5   0  0.3814260E-06  0.2502353E+04  0.7818609E-02  0.8402148E-01
       -2   -1    0    0    0  501  0.00000000000E+00  0.00000000000E+00  0.18387241021E+04  0.18387241022E+04  0.25500000920E-02 0. -1.
        2   -1    0    0  501    0  0.00000000000E+00  0.00000000000E+00 -0.85137446959E+03  0.85137446960E+03  0.25500000920E-02 0.  1.
    10030    2    1    2    0    0  0.00000000000E+00  0.00000000000E+00  0.98734963256E+03  0.26900985717E+04  0.25023530983E+04 0.  0.
        5    1    3    3  502    0 -0.86568531117E+03  0.35457993085E+03 -0.39949305276E+03  0.10172289686E+04  0.46999998093E+01 0.  1.
       -5    1    3    3    0  502  0.86568531117E+03 -0.35457993085E+03  0.13868426853E+04  0.16728696032E+04  0.46999998093E+01 0. -1.
</event>
<event>
 5   0  0.3924441E-06  0.2503374E+04  0.7818609E-02  0.8401785E-01
        2   -1    0    0  501    0  0.00000000000E+00  0.00000000000E+00  0.23441475474E+04  0.23441475474E+04  0.25500000920E-02 0.  1.
       -2   -1    0    0    0  501  0.00000000000E+00  0.00000000000E+00 -0.66835385551E+03  0.66835385551E+03  0.25500000920E-02 0. -1.
    10030    2    1    2    0    0  0.00000000000E+00  0.00000000000E+00  0.16757936919E+04  0.30125014029E+04  0.25033737645E+04 0.  0.
        2    1    3    3  502    0  0.46547862888E+03  0.11553879758E+04  0.98590885357E+03  0.15885867921E+04  0.25500000920E-02 0.  1.
       -2    1    3    3    0  502 -0.46547862888E+03 -0.11553879758E+04  0.68988483834E+03  0.14239146108E+04  0.25500000920E-02 0. -1.
</event>
<event>
 5   0  0.3924441E-06  0.2494217E+04  0.7818609E-02  0.8405049E-01
        2   -1    0    0  501    0  0.00000000000E+00  0.00000000000E+00  0.24740157909E+04  0.24740157909E+04  0.25500000920E-02 0.  1.
       -2   -1    0    0    0  501  0.00000000000E+00  0.00000000000E+00 -0.62864564130E+03  0.62864564131E+03  0.25500000920E-02 0. -1.
    10030    2    1    2    0    0  0.00000000000E+00  0.00000000000E+00  0.18453701496E+04  0.31026614322E+04  0.24942167055E+04 0.  0.
        2    1    3    3  502    0  0.10138767026E+04  0.29076759727E+03  0.94937590198E+02  0.10590112888E+04  0.25500000920E-02 0. -1.
       -2    1    3    3    0  502 -0.10138767026E+04 -0.29076759727E+03  0.17504325594E+04  0.20436501435E+04  0.25500000920E-02 0.  1.
</event>
<event>
 5   0  0.3808293E-06  0.2501290E+04  0.7818609E-02  0.8402526E-01
        2   -1    0    0  501    0  0.00000000000E+00  0.00000000000E+00  0.11861532255E+04  0.11861532255E+04  0.25500000920E-02 0. -1.
       -2   -1    0    0    0  501  0.00000000000E+00  0.00000000000E+00 -0.13186433923E+04  0.13186433923E+04  0.25500000920E-02 0.  1.
    10030    2    1    2    0    0  0.00000000000E+00  0.00000000000E+00 -0.13249016682E+03  0.25047966178E+04  0.25012901576E+04 0.  0.
        1    1    3    3  502    0 -0.48391528582E+03  0.50725172770E+03  0.97088763275E+03  0.11975396088E+04  0.50400001928E-02 0. -1.
       -1    1    3    3    0  502  0.48391528582E+03 -0.50725172770E+03 -0.11033777996E+04  0.13072570091E+04  0.50400001928E-02 0.  1.
</event>
<event>
 5   0  0.1541852E-06  0.2478888E+04  0.7818609E-02  0.8410546E-01
        1   -1    0    0  501    0  0.00000000000E+00  0.00000000000E+00  0.19521523280E+04  0.19521523280E+04  0.50400001928E-02 0.  1.
       -1   -1    0    0    0  501  0.00000000000E+00  0.00000000000E+00 -0.78693719341E+03  0.78693719342E+03  0.50400001928E-02 0. -1.
    10030    2    1    2    0    0  0.00000000000E+00  0.00000000000E+00  0.11652151346E+04  0.27390895214E+04  0.24788878749E+04 0.  0.
        5    1    3    3  502    0 -0.98827183645E+03  0.74755696700E+03  0.61134823716E+03  0.13817711094E+04  0.46999998093E+01 0. -1.
       -5    1    3    3    0  502  0.98827183645E+03 -0.74755696700E+03  0.55386689744E+03  0.13573184121E+04  0.46999998093E+01 0.  1.
</event>
<event>
 5   0  0.1574896E-06  0.2500262E+04  0.7818609E-02  0.8402892E-01
        1   -1    0    0  501    0  0.00000000000E+00  0.00000000000E+00  0.97872486487E+03  0.97872486488E+03  0.50400001928E-02 0.  1.
       -1   -1    0    0    0  501  0.00000000000E+00  0.00000000000E+00 -0.15967993654E+04  0.15967993654E+04  0.50400001928E-02 0. -1.
    10030    2    1    2    0    0  0.00000000000E+00  0.00000000000E+00 -0.61807450054E+03  0.25755242303E+04  0.25002617808E+04 0.  0.
        3    1    3    3  502    0 -0.60753670837E+03  0.48320470696E+03  0.70037823310E+03  0.10455225107E+04  0.10100000352E+00 0.  1.
       -3    1    3    3    0  502  0.60753670837E+03 -0.48320470696E+03 -0.13184527336E+04  0.15300017196E+04  0.10100000352E+00 0. -1.
</event>
<event>
 5   0  0.3713394E-06  0.2506118E+04  0.7818609E-02  0.8400809E-01
        2   -1    0    0  501    0  0.00000000000E+00  0.00000000000E+00  0.16928026729E+04  0.16928026729E+04  0.25500000920E-02 0. -1.
       -2   -1    0    0    0  501  0.00000000000E+00  0.00000000000E+00 -0.92754887633E+03  0.92754887634E+03  0.25500000920E-02 0.  1.
    10030    2    1    2    0    0  0.00000000000E+00  0.00000000000E+00  0.76525379660E+03  0.26203515493E+04  0.25061182870E+04 0.  0.
        3    1    3    3  502    0  0.26308884890E+03 -0.11171601387E+04  0.90843569748E+03  0.14637342466E+04  0.10100000352E+00 0. -1.
       -3    1    3    3    0  502 -0.26308884890E+03  0.11171601387E+04 -0.14318190089E+03  0.11566173027E+04  0.10100000352E+00 0.  1.
</event>
<event>
 5   0  0.1553604E-06  0.2503684E+04  0.7818609E-02  0.8401674E-01
       -1   -1    0    0    0  501  0.00000000000E+00  0.00000000000E+00  0.11923311188E+04  0.11923311188E+04  0.50400001928E-02 0.  1.
        1   -1    0    0  501    0  0.00000000000E+00  0.00000000000E+00 -0.13143228064E+04  0.13143228064E+04  0.50400001928E-02 0. -1.
    10030    2    1    2    0    0  0.00000000000E+00  0.00000000000E+00 -0.12199168758E+03  0.25066539252E+04  0.25036836719E+04 0.  0.
        1    1    3    3  502    0  0.29919605659E+03  0.32278067293E+03 -0.12343086549E+04  0.13104287462E+04  0.50400001928E-02 0. -1.
       -1    1    3    3    0  502 -0.29919605659E+03 -0.32278067293E+03  0.11123169674E+04  0.11962251791E+04  0.50400001928E-02 0.  1.
</event>
<event>
 5   0  0.3924441E-06  0.2496183E+04  0.7818609E-02  0.8404347E-01
       -2   -1    0    0    0  501  0.00000000000E+00  0.00000000000E+00  0.11824948659E+04  0.11824948659E+04  0.25500000920E-02 0. -1.
        2   -1    0    0  501    0  0.00000000000E+00  0.00000000000E+00 -0.13173271417E+04  0.13173271417E+04  0.25500000920E-02 0.  1.
    10030    2    1    2    0    0  0.00000000000E+00  0.00000000000E+00 -0.13483227576E+03  0.24998220076E+04  0.24961831518E+04 0.  0.
        2    1    3    3  502    0 -0.32029908536E+02  0.10360451043E+03 -0.13126002193E+04  0.13170721869E+04  0.25500000920E-02 0.  1.
       -2    1    3    3    0  502  0.32029908536E+02 -0.10360451043E+03  0.11777679436E+04  0.11827498208E+04  0.25500000920E-02 0. -1.
</event>
<event>
 5   0  0.1519145E-06  0.2499454E+04  0.7818609E-02  0.8403180E-01
       -1   -1    0    0    0  501  0.00000000000E+00  0.00000000000E+00  0.11930801812E+04  0.11930801812E+04  0.50400001928E-02 0.  1.
        1   -1    0    0  501    0  0.00000000000E+00  0.00000000000E+00 -0.13090630848E+04  0.13090630849E+04  0.50400001928E-02 0. -1.
    10030    2    1    2    0    0  0.00000000000E+00  0.00000000000E+00 -0.11598290365E+03  0.25021432661E+04  0.24994537183E+04 0.  0.
        4    1    3    3  502    0  0.77480068038E+03  0.63243084766E+03  0.69216844009E+03  0.12162991547E+04  0.12699999809E+01 0.  1.
       -4    1    3    3    0  502 -0.77480068038E+03 -0.63243084766E+03 -0.80815134374E+03  0.12858441113E+04  0.12699999809E+01 0. -1.
</event>
<event>
 5   0  0.1553604E-06  0.2501101E+04  0.7818609E-02  0.8402593E-01
        1   -1    0    0  501    0  0.00000000000E+00  0.00000000000E+00  0.15908568200E+04  0.15908568200E+04  0.50400001928E-02 0. -1.
       -1   -1    0    0    0  501  0.00000000000E+00  0.00000000000E+00 -0.98304024754E+03  0.98304024756E+03  0.50400001928E-02 0.  1.
    10030    2    1    2    0    0  0.00000000000E+00  0.00000000000E+00  0.60781657250E+03  0.25738970676E+04  0.25011007834E+04 0.  0.
        1    1    3    3  502    0  0.57056422569E+03  0.11125139512E+04  0.33005354415E+03  0.12931226428E+04  0.50400001928E-02 0.  1.
       -1    1    3    3    0  502 -0.57056422569E+03 -0.11125139512E+04  0.27776302834E+03  0.12807744248E+04  0.50400001928E-02 0. -1.
</event>
<event>
 5   0  0.1501747E-06  0.2496543E+04  0.7818609E-02  0.8404218E-01
        1   -1    0    0  501    0  0.00000000000E+00  0.00000000000E+00  0.16987708216E+04  0.16987708216E+04  0.50400001928E-02 0. -1.
       -1   -1    0    0    0  501  0.00000000000E+00  0.00000000000E+00 -0.91724077047E+03  0.91724077048E+03  0.50400001928E-02 0.  1.
    10030    2    1    2    0    0  0.00000000000E+00  0.00000000000E+00  0.78153005113E+03  0.26160115921E+04  0.24965430958E+04 0.  0.
        2    1    3    3  502    0 -0.40970264694E+03 -0.14702477096E+03 -0.83513825789E+03  0.94176878903E+03  0.25500000920E-02 0.  1.
       -2    1    3    3    0  502  0.40970264694E+03  0.14702477096E+03  0.16166683090E+04  0.16742428031E+04  0.25500000920E-02 0. -1.
</event>
<event>
 5   0  0.1574896E-06  0.2503769E+04  0.7818609E-02  0.8401644E-01
        1   -1    0    0  501    0  0.00000000000E+00  0.00000000000E+00  0.11912195865E+04  0.11912195865E+04  0.50400001928E-02 0. -1.
       -1   -1    0    0    0  501  0.00000000000E+00  0.00000000000E+00 -0.13156388136E+04  0.13156388136E+04  0.50400001928E-02 0.  1.
    10030    2    1    2    0    0  0.00000000000E+00  0.00000000000E+00 -0.12441922712E+03  0.25068584002E+04  0.25037689379E+04 0.  0.
        3    1    3    3  502    0 -0.47058899124E+03 -0.47114093270E+03  0.99918662921E+03  0.12007504767E+04  0.10100000352E+00 0. -1.
       -3    1    3    3    0  502  0.47058899124E+03  0.47114093270E+03 -0.11236058563E+04  0.13061079235E+04  0.10100000352E+00 0.  1.
</event>
<event>
 5   0  0.3971759E-06  0.2503954E+04  0.7818609E-02  0.8401578E-01
        2   -1    0    0  501    0  0.00000000000E+00  0.00000000000E+00  0.19691628711E+04  0.19691628712E+04  0.25500000920E-02 0. -1.
       -2   -1    0    0    0  501  0.00000000000E+00  0.00000000000E+00 -0.79599618749E+03  0.79599618750E+03  0.25500000920E-02 0.  1.
    10030    2    1    2    0    0  0.00000000000E+00  0.00000000000E+00  0.11731666837E+04  0.27651590586E+04  0.25039537839E+04 0.  0.
        4    1    3    3  502    0 -0.62442339866E+03  0.92597047189E+03 -0.38228545705E+02  0.11174922506E+04  0.12699999809E+01 0.  1.
       -4    1    3    3    0  502  0.62442339866E+03 -0.92597047189E+03  0.12113952294E+04  0.16476668080E+04  0.12699999809E+01 0. -1.
</event>
<event>
 5   0  0.3971759E-06  0.2499346E+04  0.7818609E-02  0.8403219E-01
        2   -1    0    0  501    0  0.00000000000E+00  0.00000000000E+00  0.12819166830E+04  0.12819166830E+04  0.25500000920E-02 0.  1.
       -2   -1    0    0    0  501  0.00000000000E+00  0.00000000000E+00 -0.12182402386E+04  0.12182402386E+04  0.25500000920E-02 0. -1.
    10030    2    1    2    0    0  0.00000000000E+00  0.00000000000E+00  0.63676444400E+02  0.25001569217E+04  0.24993459031E+04 0.  0.
        4    1    3    3  502    0  0.12332687696E+04  0.60501197436E+02 -0.16075637988E+03  0.12451732729E+04  0.12699999809E+01 0. -1.
       -4    1    3    3    0  502 -0.12332687696E+04 -0.60501197436E+02  0.22443282428E+03  0.12549836487E+04  0.12699999809E+01 0.  1.
</event>
<event>
 5   0  0.1501747E-06  0.2498745E+04  0.7818609E-02  0.8403433E-01
       -1   -1    0    0    0  501  0.00000000000E+00  0.00000000000E+00  0.16452528424E+04  0.16452528424E+04  0.50400001928E-02 0.  1.
        1   -1    0    0  501    0  0.00000000000E+00  0.00000000000E+00 -0.94874916650E+03  0.94874916651E+03  0.50400001928E-02 0. -1.
    10030    2    1    2    0    0  0.00000000000E+00  0.00000000000E+00  0.69650367589E+03  0.25940020089E+04  0.24987454956E+04 0.  0.
        2    1    3    3  502    0 -0.17630141778E+03 -0.11939562722E+04  0.68354827345E+03  0.13870299246E+04  0.25500000920E-02 0.  1.
       -2    1    3    3    0  502  0.17630141778E+03  0.11939562722E+04  0.12955402436E+02  0.12069720843E+04  0.25500000920E-02 0. -1.
</event>
<event>
 5   0  0.3971759E-06  0.2482754E+04  0.7818609E-02  0.8409155E-01
       -2   -1    0    0    0  501  0.00000000000E+00  0.00000000000E+00  0.64515801276E+03  0.64515801277E+03  0.25500000920E-02 0.  1.
        2   -1    0    0  501    0  0.00000000000E+00  0.00000000000E+00 -0.23885890621E+04  0.23885890621E+04  0.25500000920E-02 0. -1.
    10030    2    1    2    0    0  0.00000000000E+00  0.00000000000E+00 -0.17434310494E+04  0.30337470749E+04  0.24827544161E+04 0.  0.
        4    1    3    3  502    0  0.10127014752E+04 -0.71416212462E+03 -0.96170736040E+03  0.15685899649E+04  0.12699999809E+01 0.  1.
       -4    1    3    3    0  502 -0.10127014752E+04  0.71416212462E+03 -0.78172368897E+03  0.14651571100E+04  0.12699999809E+01 0. -1.
</event>
<event>
 5   0  0.3808293E-06  0.2500806E+04  0.7818609E-02  0.8402698E-01
        2   -1    0    0  501    0  0.00000000000E+00  0.00000000000E+00  0.21788281443E+04  0.21788281443E+04  0.25500000920E-02 0. -1.
       -2   -1    0    0    0  501  0.00000000000E+00  0.00000000000E+00 -0.71759131139E+03  0.71759131139E+03  0.25500000920E-02 0.  1.
    10030    2    1    2    0    0  0.00000000000E+00  0.00000000000E+00  0.14612368329E+04  0.28964194557E+04  0.25008063862E+04 0.  0.
        1    1    3    3  502    0 -0.54462576459E+03 -0.38789634544E+03 -0.49314261394E+03  0.83082515367E+03  0.50400001928E-02 0.  1.
       -1    1    3    3    0  502  0.54462576459E+03  0.38789634544E+03  0.19543794468E+04  0.20655943020E+04  0.50400001928E-02 0. -1.
</event>
<event>
 5   0  0.3971759E-06  0.2503244E+04  0.7818609E-02  0.8401831E-01
        2   -1    0    0  501    0  0.00000000000E+00  0.00000000000E+00  0.11620418705E+04  0.11620418705E+04  0.25500000920E-02 0. -1.
       -2   -1    0    0    0  501  0.00000000000E+00  0.00000000000E+00 -0.13481079850E+04  0.13481079850E+04  0.25500000920E-02 0.  1.
    10030    2    1    2    0    0  0.00000000000E+00  0.00000000000E+00 -0.18606611449E+03  0.25101498555E+04  0.25032442346E+04 0.  0.
        4    1    3    3  502    0 -0.33375311133E+03 -0.10971792747E+03 -0.12976493239E+04  0.13443677115E+04  0.12699999809E+01 0.  1.
       -4    1    3    3    0  502  0.33375311133E+03  0.10971792747E+03  0.11115832094E+04  0.11657821440E+04  0.12699999809E+01 0. -1.
</event>
<event>
 5   0  0.1541852E-06  0.2501843E+04  0.7818609E-02  0.8402329E-01
       -1   -1    0    0    0  501  0.00000000000E+00  0.00000000000E+00  0.22628524518E+04  0.22628524518E+04  0.50400001928E-02 0. -1.
        1   -1    0    0  501    0  0.00000000000E+00  0.00000000000E+00 -0.69151843243E+03  0.69151843245E+03  0.50400001928E-02 0.  1.
    10030    2    1    2    0    0  0.00000000000E+00  0.00000000000E+00  0.15713340194E+04  0.29543708843E+04  0.25018426652E+04 0.  0.
        5    1    3    3  502    0 -0.98913806015E+02  0.41874906283E+03  0.21727072764E+04  0.22149071577E+04  0.46999998093E+01 0. -1.
       -5    1    3    3    0  502  0.98913806015E+02 -0.41874906283E+03 -0.60137325698E+03  0.73946372653E+03  0.46999998093E+01 0.  1.
</event>
<event>
 5   0  0.3814260E-06  0.2502785E+04  0.7818609E-02  0.8401994E-01
        2   -1    0    0  501    0  0.00000000000E+00  0.00000000000E+00  0.10343468135E+04  0.10343468135E+04  0.25500000920E-02 0. -1.
       -2   -1    0    0    0  501  0.00000000000E+00  0.00000000000E+00 -0.15139822369E+04  0.15139822369E+04  0.25500000920E-02 0.  1.
    10030    2    1    2    0    0  0.00000000000E+00  0.00000000000E+00 -0.47963542337E+03  0.25483290504E+04  0.25027846111E+04 0.  0.
        5    1    3    3  502    0  0.49374303007E+03 -0.11471988939E+04 -0.16020840098E+03  0.12591808066E+04  0.46999998093E+01 0. -1.
       -5    1    3    3    0  502 -0.49374303007E+03  0.11471988939E+04 -0.31942702239E+03  0.12891482438E+04  0.46999998093E+01 0.  1.
</event>
<event>
 5   0  0.1541852E-06  0.2503641E+04  0.7818609E-02  0.8401690E-01
        1   -1    0    0  501    0  0.00000000000E+00  0.00000000000E+00  0.15788354528E+04  0.15788354528E+04  0.50400001928E-02 0.  1.
       -1   -1    0    0    0  501  0.00000000000E+00  0.00000000000E+00 -0.99253804401E+03  0.99253804402E+03  0.50400001928E-02 0. -1.
    10030    2    1    2    0    0  0.00000000000E+00  0.00000000000E+00  0.58629740879E+03  0.25713734968E+04  0.25036407507E+04 0.  0.
        5    1    3    3  502    0 -0.71603800365E+03 -0.96808518151E+03 -0.58357060948E+02  0.12055401187E+04  0.46999998093E+01 0. -1.
       -5    1    3    3    0  502  0.71603800365E+03  0.96808518151E+03  0.64465446973E+03  0.13658333781E+04  0.46999998093E+01 0.  1.
</event>
<event>
 5   0  0.1574896E-06  0.2499029E+04  0.7818609E-02  0.8403332E-01
       -1   -1    0    0    0  501  0.00000000000E+00  0.00000000000E+00  0.10438559899E+04  0.10438559899E+04  0.50400001928E-02 0. -1.
        1   -1    0    0  501    0  0.00000000000E+00  0.00000000000E+00 -0.14956915174E+04  0.14956915174E+04  0.50400001928E-02 0.  1.
    10030    2    1    2    0    0  0.00000000000E+00  0.00000000000E+00 -0.45183552747E+03  0.25395475073E+04  0.24990290511E+04 0.  0.
        3    1    3    3  502    0 -0.13845079730E+03  0.58138942098E+03 -0.13410261519E+04  0.14681735022E+04  0.10100000352E+00 0.  1.
       -3    1    3    3    0  502  0.13845079730E+03 -0.58138942098E+03  0.88919062447E+03  0.10713740052E+04  0.10100000352E+00 0. -1.
</event>
<event>
 5   0  0.3814260E-06  0.2495120E+04  0.7818609E-02  0.8404726E-01
       -2   -1    0    0    0  501  0.00000000000E+00  0.00000000000E+00  0.11522038347E+04  0.11522038347E+04  0.25500000920E-02 0.  1.
        2   -1    0    0  501    0  0.00000000000E+00  0.00000000000E+00 -0.13508074451E+04  0.13508074451E+04  0.25500000920E-02 0. -1.
    10030    2    1    2    0    0  0.00000000000E+00  0.00000000000E+00 -0.19860361038E+03  0.25030112799E+04  0.24951196510E+04 0.  0.
        5    1    3    3  502    0  0.11581232825E+03  0.10702268345E+04  0.53323627260E+03  0.12013163551E+04  0.46999998093E+01 0.  1.
       -5    1    3    3    0  502 -0.11581232825E+03 -0.10702268345E+04 -0.73183988298E+03  0.13016949247E+04  0.46999998093E+01 0. -1.
</event>
<event>
 5   0  0.1553604E-06  0.2494838E+04  0.7818609E-02  0.8404827E-01
        1   -1    0    0  501    0  0.00000000000E+00  0.00000000000E+00  0.14743029006E+04  0.14743029006E+04  0.50400001928E-02 0.  1.
       -1   -1    0    0    0  501  0.00000000000E+00  0.00000000000E+00 -0.10554511032E+04  0.10554511032E+04  0.50400001928E-02 0. -1.
    10030    2    1    2    0    0  0.00000000000E+00  0.00000000000E+00  0.41885179737E+03  0.25297540038E+04  0.24948383698E+04 0.  0.
        1    1    3    3  502    0 -0.68200484817E+03  0.62290407835E+03  0.10595594066E+04  0.14056337503E+04  0.50400001928E-02 0.  1.
       -1    1    3    3    0  502  0.68200484817E+03 -0.62290407835E+03 -0.64070760926E+03  0.11241202535E+04  0.50400001928E-02 0. -1.
</event>
<event>
 5   0  0.1519145E-06  0.2501542E+04  0.7818609E-02  0.8402436E-01
        1   -1    0    0  501    0  0.00000000000E+00  0.00000000000E+00  0.20284974034E+04  0.20284974034E+04  0.50400001928E-02 0.  1.
       -1   -1    0    0    0  501  0.00000000000E+00  0.00000000000E+00 -0.77122531437E+03  0.77122531439E+03  0.50400001928E-02 0. -1.
    10030    2    1    2    0    0  0.00000000000E+00  0.00000000000E+00  0.12572720890E+04  0.27997227178E+04  0.25015423624E+04 0.  0.
        4    1    3    3  502    0 -0.77831408043E+03  0.71906370199E+03  0.13723782700E+04  0.17338538417E+04  0.12699999809E+01 0.  1.
       -4    1    3    3    0  502  0.77831408043E+03 -0.71906370199E+03 -0.11510618100E+03  0.10658688761E+04  0.12699999809E+01 0. -1.
</event>
<event>
 5   0  0.1541852E-06  0.2494867E+04  0.7818609E-02  0.8404817E-01
       -1   -1    0    0    0  501  0.00000000000E+00  0.00000000000E+00  0.74439154930E+03  0.74439154932E+03  0.50400001928E-02 0.  1.
        1   -1    0    0  501    0  0.00000000000E+00  0.00000000000E+00 -0.20904187495E+04  0.20904187495E+04  0.50400001928E-02 0. -1.
    10030    2    1    2    0    0  0.00000000000E+00  0.00000000000E+00 -0.13460272002E+04  0.28348102988E+04  0.24948667713E+04 0.  0.
        5    1    3    3  502    0  0.63635766605E+03 -0.80214790029E+03 -0.14826122974E+04  0.18018195380E+04  0.46999998093E+01 0. -1.
       -5    1    3    3    0  502 -0.63635766605E+03  0.80214790029E+03  0.13658509724E+03  0.10329907608E+04  0.46999998093E+01 0.  1.
</event>
<event>
 5   0  0.1553604E-06  0.2502288E+04  0.7818609E-02  0.8402171E-01
       -1   -1    0    0    0  501  0.00000000000E+00  0.00000000000E+00  0.12901163028E+04  0.12901163029E+04  0.50400001928E-02 0. -1.
        1   -1    0    0  501    0  0.00000000000E+00  0.00000000000E+00 -0.12133487138E+04  0.12133487138E+04  0.50400001928E-02 0.  1.
    10030    2    1    2    0    0  0.00000000000E+00  0.00000000000E+00  0.76767589002E+02  0.25034650167E+04  0.25022877187E+04 0.  0.
        1    1    3    3  502    0  0.47569234429E+03 -0.62447828073E+03  0.10130621636E+04  0.12816205667E+04  0.50400001928E-02 0. -1.
       -1    1    3    3    0  502 -0.47569234429E+03  0.62447828073E+03 -0.93629457464E+03  0.12218444500E+04  0.50400001928E-02 0.  1.
</event>
<event>
 5   0  0.1553604E-06  0.2501948E+04  0.7818609E-02  0.8402292E-01
       -1   -1    0    0    0  501  0.00000000000E+00  0.00000000000E+00  0.93911290133E+03  0.93911290134E+03  0.50400001928E-02 0.  1.
        1   -1    0    0  501    0  0.00000000000E+00  0.00000000000E+00 -0.16663980769E+04  0.16663980769E+04  0.50400001928E-02 0. -1.
    10030    2    1    2    0    0  0.00000000000E+00  0.00000000000E+00 -0.72728517561E+03  0.26055109783E+04  0.25019479873E+04 0.  0.
        1    1    3    3  502    0  0.21908342340E+03  0.11877673625E+04 -0.70293070864E+03  0.13974621408E+04  0.50400001928E-02 0. -1.
       -1    1    3    3    0  502 -0.21908342340E+03 -0.11877673625E+04 -0.24354466968E+02  0.12080488375E+04  0.50400001928E-02 0.  1.
</event>
<event>
 5   0  0.3971759E-06  0.2500390E+04  0.7818609E-02  0.8402846E-01
        2   -1    0    0  501    0  0.00000000000E+00  0.00000000000E+00  0.22496499249E+04  0.22496499249E+04  0.25500000920E-02 0.  1.
       -2   -1    0    0    0  501  0.00000000000E+00  0.00000000000E+00 -0.69476943324E+03  0.69476943325E+03  0.25500000920E-02 0. -1.
    10030    2    1    2    0    0  0.00000000000E+00  0.00000000000E+00  0.15548804917E+04  0.29444193582E+04  0.25003903722E+04 0.  0.
        4    1    3    3  502    0 -0.86895136782E+01 -0.83921317972E+03 -0.31373727900E+03  0.89598379550E+03  0.12699999809E+01 0. -1.
       -4    1    3    3    0  502  0.86895136782E+01  0.83921317972E+03  0.18686177707E+04  0.20484355627E+04  0.12699999809E+01 0.  1.
</event>
<event>
 5   0  0.1519145E-06  0.2503141E+04  0.7818609E-02  0.8401867E-01
        1   -1    0    0  501    0  0.00000000000E+00  0.00000000000E+00  0.11268773777E+04  0.11268773777E+04  0.50400001928E-02 0. -1.
       -1   -1    0    0    0  501  0.00000000000E+00  0.00000000000E+00 -0.13900613987E+04  0.13900613988E+04  0.50400001928E-02 0.  1.
    10030    2    1    2    0    0  0.00000000000E+00  0.00000000000E+00 -0.26318402105E+03  0.25169387765E+04  0.25031410219E+04 0.  0.
        4    1    3    3  502    0 -0.73177127648E+03  0.42085389812E+03 -0.10607091618E+04  0.13556226405E+04  0.12699999809E+01 0.  1.
       -4    1    3    3    0  502  0.73177127648E+03 -0.42085389812E+03  0.79752514073E+03  0.11613161360E+04  0.12699999809E+01 0. -1.
</event>
<event>
 5   0  0.1553604E-06  0.2503398E+04  0.7818609E-02  0.8401776E-01
       -1   -1    0    0    0  501  0.00000000000E+00  0.00000000000E+00  0.73328379415E+03  0.73328379416E+03  0.50400001928E-02 0. -1.
        1   -1    0    0  501    0  0.00000000000E+00  0.00000000000E+00 -0.21366219758E+04  0.21366219758E+04  0.50400001928E-02 0.  1.
    10030    2    1    2    0    0  0.00000000000E+00  0.00000000000E+00 -0.14033381817E+04  0.28699057700E+04  0.25033979061E+04 0.  0.
        1    1    3    3  502    0  0.14968018793E+02 -0.18139182392E+03 -0.21213707583E+04  0.21291643735E+04  0.50400001928E-02 0.  1.
       -1    1    3    3    0  502 -0.14968018793E+02  0.18139182392E+03  0.71803257660E+03  0.74074139648E+03  0.50400001928E-02 0. -1.
</event>
<event>
 5   0  0.1574896E-06  0.2501480E+04  0.7818609E-02  0.8402458E-01
       -1   -1    0    0    0  501  0.00000000000E+00  0.00000000000E+00  0.82227807800E+03  0.82227807801E+03  0.50400001928E-02 0. -1.
        1   -1    0    0  501    0  0.00000000000E+00  0.00000000000E+00 -0.19024596095E+04  0.19024596095E+04  0.50400001928E-02 0.  1.
    10030    2    1    2    0    0  0.00000000000E+00  0.00000000000E+00 -0.10801815315E+04  0.27247376876E+04  0.25014802268E+04 0.  0.
        3    1    3    3  502    0  0.45179831757E+03 -0.11829084306E+03  0.72373814359E+03  0.86134276220E+03  0.10100000352E+00 0. -1.
       -3    1    3    3    0  502 -0.45179831757E+03  0.11829084306E+03 -0.18039196751E+04  0.18633949253E+04  0.10100000352E+00 0.  1.
</event>
<event>
 5   0  0.1574896E-06  0.2503522E+04  0.7818609E-02  0.8401732E-01
        1   -1    0    0  501    0  0.00000000000E+00  0.00000000000E+00  0.93360381129E+03  0.93360381130E+03  0.50400001928E-02 0.  1.
       -1   -1    0    0    0  501  0.00000000000E+00  0.00000000000E+00 -0.16783409946E+04  0.16783409946E+04  0.50400001928E-02 0. -1.
    10030    2    1    2    0    0  0.00000000000E+00  0.00000000000E+00 -0.74473718333E+03  0.26119448059E+04  0.25035219586E+04 0.  0.
        3    1    3    3  502    0 -0.83524089082E+03  0.55322999885E+03  0.41060949036E+03  0.10827238527E+04  0.10100000352E+00 0.  1.
       -3    1    3    3    0  502  0.83524089082E+03 -0.55322999885E+03 -0.11553466737E+04  0.15292209533E+04  0.10100000352E+00 0. -1.
</event>
<event>
 5   0  0.3971759E-06  0.2501875E+04  0.7818609E-02  0.8402318E-01
       -2   -1    0    0    0  501  0.00000000000E+00  0.00000000000E+00  0.13233974078E+04  0.13233974078E+04  0.25500000920E-02 0. -1.
        2   -1    0    0  501    0  0.00000000000E+00  0.00000000000E+00 -0.11824452907E+04  0.11824452907E+04  0.25500000920E-02 0.  1.
    10030    2    1    2    0    0  0.00000000000E+00  0.00000000000E+00  0.14095211711E+03  0.25058426985E+04  0.25018753227E+04 0.  0.
        4    1    3    3  502    0  0.25068101965E+03  0.18036780185E+03  0.12846152815E+04  0.13212159369E+04  0.12699999809E+01 0. -1.
       -4    1    3    3    0  502 -0.25068101965E+03 -0.18036780185E+03 -0.11436631644E+04  0.11846267615E+04  0.12699999809E+01 0.  1.
</event>
<event>
 5   0  0.1501747E-06  0.2505992E+04  0.7818609E-02  0.8400854E-01
       -1   -1    0    0    0  501  0.00000000000E+00  0.00000000000E+00  0.13693626540E+04  0.13693626540E+04  0.50400001928E-02 0.  1.
        1   -1    0    0  501    0  0.00000000000E+00  0.00000000000E+00 -0.11465178741E+04  0.11465178741E+04  0.50400001928E-02 0. -1.
    10030    2    1    2    0    0  0.00000000000E+00  0.00000000000E+00  0.22284477985E+03  0.25158805281E+04  0.25059918268E+04 0.  0.
        2    1    3    3  502    0  0.16172526164E+03 -0.12114198388E+04 -0.16590245366E+03  0.12333761431E+04  0.25500000920E-02 0. -1.
       -2    1    3    3    0  502 -0.16172526164E+03  0.12114198388E+04  0.38874723351E+03  0.12825043851E+04  0.25500000920E-02 0.  1.
</event>
<event>
 5   0  0.1519145E-06  0.2504607E+04  0.7818609E-02  0.8401346E-01
        1   -1    0    0  501    0  0.00000000000E+00  0.00000000000E+00  0.22736750503E+04  0.22736750503E+04  0.50400001928E-02 0. -1.
       -1   -1    0    0    0  501  0.00000000000E+00  0.00000000000E+00 -0.68974873076E+03  0.68974873077E+03  0.50400001928E-02 0.  1.
    10030    2    1    2    0    0  0.00000000000E+00  0.00000000000E+00  0.15839263196E+04  0.29634237811E+04  0.25046073386E+04 0.  0.
        4    1    3    3  502    0 -0.17936660887E+03 -0.17388464527E+03 -0.65996669512E+03  0.70566699073E+03  0.12699999809E+01 0.  1.
       -4    1    3    3    0  502  0.17936660887E+03  0.17388464527E+03  0.22438930147E+04  0.22577567904E+04  0.12699999809E+01 0. -1.
</event>
<event>
 5   0  0.3971759E-06  0.2498970E+04  0.7818609E-02  0.8403353E-01
       -2   -1    0    0    0  501  0.00000000000E+00  0.00000000000E+00  0.62123484582E+03  0.62123484583E+03  0.25500000920E-02 0. -1.
        2   -1    0    0  501    0  0.00000000000E+00  0.00000000000E+00 -0.25130796798E+04  0.25130796798E+04  0.25500000920E-02 0.  1.
    10030    2    1    2    0    0  0.00000000000E+00  0.00000000000E+00 -0.18918448339E+04  0.31343145256E+04  0.24989699217E+04 0.  0.
        4    1    3    3  502    0 -0.53458320202E+03  0.58221380462E+03 -0.21596631207E+04  0.22997605358E+04  0.12699999809E+01 0.  1.
       -4    1    3    3    0  502  0.53458320202E+03 -0.58221380462E+03  0.26781828680E+03  0.83455398976E+03  0.12699999809E+01 0. -1.
</event>
<event>
 5   0  0.3814260E-06  0.2468841E+04  0.7818609E-02  0.8414171E-01
        2   -1    0    0  501    0  0.00000000000E+00  0.00000000000E+00  0.13210410695E+04  0.13210410695E+04  0.25500000920E-02 0.  1.
       -2   -1    0    0    0  501  0.00000000000E+00  0.00000000000E+00 -0.11534796333E+04  0.11534796333E+04  0.25500000920E-02 0. -1.
    10030    2    1    2    0    0  0.00000000000E+00  0.00000000000E+00  0.16756143620E+03  0.24745207027E+04  0.24688409980E+04 0.  0.
        5    1    3    3  502    0 -0.32901248147E+02  0.10372913863E+04 -0.58612503622E+03  0.11918978817E+04  0.46999998093E+01 0. -1.
       -5    1    3    3    0  502  0.32901248147E+02 -0.10372913863E+04  0.75368647242E+03  0.12826228210E+04  0.46999998093E+01 0.  1.
</event>
<event>
 5   0  0.1519145E-06  0.2511413E+04  0.7818609E-02  0.8398931E-01
        1   -1    0    0  501    0  0.00000000000E+00  0.00000000000E+00  0.12852263686E+04  0.12852263686E+04  0.50400001928E-02 0.  1.
       -1   -1    0    0    0  501  0.00000000000E+00  0.00000000000E+00 -0.12268641947E+04  0.12268641947E+04  0.50400001928E-02 0. -1.
    10030    2    1    2    0    0  0.00000000000E+00  0.00000000000E+00  0.58362173841E+02  0.25120905633E+04  0.25114125218E+04 0.  0.
        4    1    3    3  502    0  0.39439781061E+03 -0.65982141246E+03  0.10223654045E+04  0.12791194481E+04  0.12699999809E+01 0.  1.
       -4    1    3    3    0  502 -0.39439781061E+03  0.65982141246E+03 -0.96400323063E+03  0.12329711152E+04  0.12699999809E+01 0. -1.
</event>
<event>
 5   0  0.3971759E-06  0.2521700E+04  0.7818609E-02  0.8395295E-01
        2   -1    0    0  501    0  0.00000000000E+00  0.00000000000E+00  0.92784860643E+03  0.92784860644E+03  0.25500000920E-02 0. -1.
       -2   -1    0    0    0  501  0.00000000000E+00  0.00000000000E+00 -0.17133644763E+04  0.17133644763E+04  0.25500000920E-02 0.  1.
    10030    2    1    2    0    0  0.00000000000E+00  0.00000000000E+00 -0.78551586987E+03  0.26412130827E+04  0.25217000945E+04 0.  0.
        4    1    3    3  502    0 -0.13514381665E+02 -0.27785850767E+03 -0.16808195126E+04  0.17036853688E+04  0.12699999809E+01 0.  1.
       -4    1    3    3    0  502  0.13514381665E+02  0.27785850767E+03  0.89530364277E+03  0.93752771397E+03  0.12699999809E+01 0. -1.
</event>
<event>
 5   0  0.3713394E-06  0.2507865E+04  0.7818609E-02  0.8400189E-01
        2   -1    0    0  501    0  0.00000000000E+00  0.00000000000E+00  0.21888206604E+04  0.21888206604E+04  0.25500000920E-02 0.  1.
       -2   -1    0    0    0  501  0.00000000000E+00  0.00000000000E+00 -0.71835333073E+03  0.71835333073E+03  0.25500000920E-02 0. -1.
    10030    2    1    2    0    0  0.00000000000E+00  0.00000000000E+00  0.14704673297E+04  0.29071739912E+04  0.25078649180E+04 0.  0.
        3    1    3    3  502    0 -0.11100794526E+04 -0.33898754085E+03  0.18517343586E+03  0.11753629888E+04  0.10100000352E+00 0. -1.
       -3    1    3    3    0  502  0.11100794526E+04  0.33898754085E+03  0.12852938938E+04  0.17318110023E+04  0.10100000352E+00 0.  1.
</event>
<event>
 5   0  0.1541852E-06  0.2496349E+04  0.7818609E-02  0.8404287E-01
       -1   -1    0    0    0  501  0.00000000000E+00  0.00000000000E+00  0.64022404661E+03  0.64022404663E+03  0.50400001928E-02 0. -1.
        1   -1    0    0  501    0  0.00000000000E+00  0.00000000000E+00 -0.24334295808E+04  0.24334295808E+04  0.50400001928E-02 0.  1.
    10030    2    1    2    0    0  0.00000000000E+00  0.00000000000E+00 -0.17932055341E+04  0.30736536274E+04  0.24963494414E+04 0.  0.
        5    1    3    3  502    0  0.25455554898E+03  0.12178343669E+04 -0.10197223663E+04  0.16086562302E+04  0.46999998093E+01 0.  1.
       -5    1    3    3    0  502 -0.25455554898E+03 -0.12178343669E+04 -0.77348316782E+03  0.14649973971E+04  0.46999998093E+01 0. -1.
</event>
<event>
 5   0  0.3924441E-06  0.2428941E+04  0.7818609E-02  0.8428747E-01
       -2   -1    0    0    0  501  0.00000000000E+00  0.00000000000E+00  0.12849244613E+04  0.12849244613E+04  0.25500000920E-02 0. -1.
        2   -1    0    0  501    0  0.00000000000E+00  0.00000000000E+00 -0.11478799075E+04  0.11478799075E+04  0.25500000920E-02 0.  1.
    10030    2    1    2    0    0  0.00000000000E+00  0.00000000000E+00  0.13704455379E+03  0.24328043688E+04  0.24289413099E+04 0.  0.
        2    1    3    3  502    0 -0.11893212001E+03 -0.66232340491E+03  0.10811306118E+04  0.12734443614E+04  0.25500000920E-02 0. -1.
       -2    1    3    3    0  502  0.11893212001E+03  0.66232340491E+03 -0.94408605798E+03  0.11593600074E+04  0.25500000920E-02 0.  1.
</event>
<event>
 5   0  0.1287375E-06  0.2501464E+04  0.7818609E-02  0.8402464E-01
       -3   -1    0    0    0  501  0.00000000000E+00  0.00000000000E+00  0.12211059914E+04  0.12211059956E+04  0.10100000352E+00 0.  1.
        3   -1    0    0  501    0  0.00000000000E+00  0.00000000000E+00 -0.12810765796E+04  0.12810765835E+04  0.10100000352E+00 0. -1.
    10030    2    1    2    0    0  0.00000000000E+00  0.00000000000E+00 -0.59970588181E+02  0.25021825791E+04  0.25014638090E+04 0.  0.
        4    1    3    3  502    0  0.72545378766E+03 -0.88819754366E+02  0.98527262005E+03  0.12267582873E+04  0.12699999809E+01 0.  1.
       -4    1    3    3    0  502 -0.72545378766E+03  0.88819754366E+02 -0.10452432082E+04  0.12754242918E+04  0.12699999809E+01 0. -1.
</event>
<event>
 5   0  0.3924441E-06  0.2478203E+04  0.7818609E-02  0.8410792E-01
        2   -1    0    0  501    0  0.00000000000E+00  0.00000000000E+00  0.19694360514E+04  0.19694360514E+04  0.25500000920E-02 0. -1.
       -2   -1    0    0    0  501  0.00000000000E+00  0.00000000000E+00 -0.77959987879E+03  0.77959987879E+03  0.25500000920E-02 0.  1.
    10030    2    1    2    0    0  0.00000000000E+00  0.00000000000E+00  0.11898361726E+04  0.27490359302E+04  0.24782026608E+04 0.  0.
        2    1    3    3  502    0  0.93402037273E+03  0.80853746072E+03  0.48825790021E+03  0.13283533638E+04  0.25500000920E-02 0. -1.
       -2    1    3    3    0  502 -0.93402037273E+03 -0.80853746072E+03  0.70157827241E+03  0.14206825664E+04  0.25500000920E-02 0.  1.
</event>
<event>
 5   0  0.1574896E-06  0.2491614E+04  0.7818609E-02  0.8405979E-01
       -1   -1    0    0    0  501  0.00000000000E+00  0.00000000000E+00  0.62270878090E+03  0.62270878092E+03  0.50400001928E-02 0.  1.
        1   -1    0    0  501    0  0.00000000000E+00  0.00000000000E+00 -0.24923939252E+04  0.24923939252E+04  0.50400001928E-02 0. -1.
    10030    2    1    2    0    0  0.00000000000E+00  0.00000000000E+00 -0.18696851443E+04  0.31151027061E+04  0.24916144025E+04 0.  0.
        3    1    3    3  502    0 -0.44207793585E+03 -0.10936841318E+04 -0.14356512052E+04  0.18581367750E+04  0.10100000352E+00 0. -1.
       -3    1    3    3    0  502  0.44207793585E+03  0.10936841318E+04 -0.43403393913E+03  0.12569659311E+04  0.10100000352E+00 0.  1.
</event>
<event>
 5   0  0.3713394E-06  0.2501968E+04  0.7818609E-02  0.8402285E-01
       -2   -1    0    0    0  501  0.00000000000E+00  0.00000000000E+00  0.94670428325E+03  0.94670428325E+03  0.25500000920E-02 0. -1.
        2   -1    0    0  501    0  0.00000000000E+00  0.00000000000E+00 -0.16530615200E+04  0.16530615200E+04  0.25500000920E-02 0.  1.
    10030    2    1    2    0    0  0.00000000000E+00  0.00000000000E+00 -0.70635723673E+03  0.25997658032E+04  0.25019675629E+04 0.  0.
        3    1    3    3  502    0 -0.88861407240E+03  0.27897417486E+03 -0.12209879189E+04  0.15356669783E+04  0.10100000352E+00 0.  1.
       -3    1    3    3    0  502  0.88861407240E+03 -0.27897417486E+03  0.51463068221E+03  0.10640988249E+04  0.10100000352E+00 0. -1.
</event>
<event>
 5   0  0.1519145E-06  0.2508349E+04  0.7818609E-02  0.8400017E-01
        1   -1    0    0  501    0  0.00000000000E+00  0.00000000000E+00  0.12508788392E+04  0.12508788392E+04  0.50400001928E-02 0.  1.
       -1   -1    0    0    0  501  0.00000000000E+00  0.00000000000E+00 -0.12574783537E+04  0.12574783537E+04  0.50400001928E-02 0. -1.
    10030    2    1    2    0    0  0.00000000000E+00  0.00000000000E+00 -0.65995145760E+01  0.25083571929E+04  0.25083485112E+04 0.  0.
        4    1    3    3  502    0 -0.38988520256E+03  0.10298501616E+04 -0.60359311751E+03  0.12557579747E+04  0.12699999809E+01 0. -1.
       -4    1    3    3    0  502  0.38988520256E+03 -0.10298501616E+04  0.59699360294E+03  0.12525992182E+04  0.12699999809E+01 0.  1.
</event>
<event>
 5   0  0.1553604E-06  0.2494331E+04  0.7818609E-02  0.8405008E-01
        1   -1    0    0  501    0  0.00000000000E+00  0.00000000000E+00  0.11481002286E+04  0.11481002286E+04  0.50400001928E-02 0. -1.
       -1   -1    0    0    0  501  0.00000000000E+00  0.00000000000E+00 -0.13547782812E+04  0.13547782812E+04  0.50400001928E-02 0.  1.
    10030    2    1    2    0    0  0.00000000000E+00  0.00000000000E+00 -0.20667805257E+03  0.25028785098E+04  0.24943305751E+04 0.  0.
        1    1    3    3  502    0 -0.49518576511E+03  0.28370413204E+03  0.10093905526E+04  0.11595543386E+04  0.50400001928E-02 0. -1.
       -1    1    3    3    0  502  0.49518576511E+03 -0.28370413204E+03 -0.12160686052E+04  0.13433241712E+04  0.50400001928E-02 0.  1.
</event>
<event>
 5   0  0.3924441E-06  0.2501193E+04  0.7818609E-02  0.8402561E-01
        2   -1    0    0  501    0  0.00000000000E+00  0.00000000000E+00  0.13939266311E+04  0.13939266311E+04  0.25500000920E-02 0.  1.
       -2   -1    0    0    0  501  0.00000000000E+00  0.00000000000E+00 -0.11220039623E+04  0.11220039623E+04  0.25500000920E-02 0. -1.
    10030    2    1    2    0    0  0.00000000000E+00  0.00000000000E+00  0.27192266886E+03  0.25159305934E+04  0.25011926781E+04 0.  0.
        2    1    3    3  502    0  0.11717207618E+03  0.45271354823E+02 -0.11156421972E+04  0.11226915441E+04  0.25500000920E-02 0. -1.
       -2    1    3    3    0  502 -0.11717207618E+03 -0.45271354823E+02  0.13875648661E+04  0.13932390493E+04  0.25500000920E-02 0.  1.
</event>
<event>
 5   0  0.1574896E-06  0.2485011E+04  0.7818609E-02  0.8408345E-01
       -1   -1    0    0    0  501  0.00000000000E+00  0.00000000000E+00  0.86941462443E+03  0.86941462444E+03  0.50400001928E-02 0. -1.
        1   -1    0    0  501    0  0.00000000000E+00  0.00000000000E+00 -0.17756998871E+04  0.17756998871E+04  0.50400001928E-02 0.  1.
    10030    2    1    2    0    0  0.00000000000E+00  0.00000000000E+00 -0.90628526269E+03  0.26451145116E+04  0.24850106241E+04 0.  0.
        3    1    3    3  502    0 -0.44718184828E+03  0.92426385961E+03 -0.11979258870E+04  0.15777394362E+04  0.10100000352E+00 0.  1.
       -3    1    3    3    0  502  0.44718184828E+03 -0.92426385961E+03  0.29164062428E+03  0.10673750754E+04  0.10100000352E+00 0. -1.
</event>
<event>
 5   0  0.3971759E-06  0.2494229E+04  0.7818609E-02  0.8405044E-01
        2   -1    0    0  501    0  0.00000000000E+00  0.00000000000E+00  0.13221841309E+04  0.13221841309E+04  0.25500000920E-02 0.  1.
       -2   -1    0    0    0  501  0.00000000000E+00  0.00000000000E+00 -0.11763071863E+04  0.11763071863E+04  0.25500000920E-02 0. -1.
    10030    2    1    2    0    0  0.00000000000E+00  0.00000000000E+00  0.14587694466E+03  0.24984913172E+04  0.24942290952E+04 0.  0.
        4    1    3    3  502    0 -0.80122928871E+03 -0.87100299298E+03 -0.32102546801E+03  0.12262436752E+04  0.12699999809E+01 0. -1.
       -4    1    3    3    0  502  0.80122928871E+03  0.87100299298E+03  0.46690241267E+03  0.12722476421E+04  0.12699999809E+01 0.  1.
</event>
<event>
 5   0  0.3713394E-06  0.2511294E+04  0.7818609E-02  0.8398973E-01
        2   -1    0    0  501    0  0.00000000000E+00  0.00000000000E+00  0.12209398560E+04  0.12209398560E+04  0.25500000920E-02 0.  1.
       -2   -1    0    0    0  501  0.00000000000E+00  0.00000000000E+00 -0.12913411548E+04  0.12913411548E+04  0.25500000920E-02 0. -1.
    10030    2    1    2    0    0  0.00000000000E+00  0.00000000000E+00 -0.70401298868E+02  0.25122810108E+04  0.25112943942E+04 0.  0.
        3    1    3    3  502    0  0.59770560847E+03 -0.56165245632E+03 -0.98633408133E+03  0.12827939843E+04  0.10100000352E+00 0. -1.
       -3    1    3    3    0  502 -0.59770560847E+03  0.56165245632E+03  0.91593278246E+03  0.12294870265E+04  0.10100000352E+00 0.  1.
</event>
<event>
 5   0  0.1287375E-06  0.2498851E+04  0.7818609E-02  0.8403395E-01
        4   -1    0    0  501    0  0.00000000000E+00  0.00000000000E+00  0.16141128314E+04  0.16141133310E+04  0.12699999809E+01 0. -1.
       -4   -1    0    0    0  501  0.00000000000E+00  0.00000000000E+00 -0.96713310831E+03  0.96713394217E+03  0.12699999809E+01 0.  1.
    10030    2    1    2    0    0  0.00000000000E+00  0.00000000000E+00  0.64697972306E+03  0.25812472732E+04  0.24988506805E+04 0.  0.
        1    1    3    3  502    0  0.10395380537E+04 -0.69275369335E+03  0.30001075177E+03  0.12847386878E+04  0.50400001928E-02 0. -1.
       -1    1    3    3    0  502 -0.10395380537E+04  0.69275369335E+03  0.34696897130E+03  0.12965085853E+04  0.50400001928E-02 0.  1.
</event>
<event>
 5   0  0.1519145E-06  0.2492091E+04  0.7818609E-02  0.8405809E-01
        1   -1    0    0  501    0  0.00000000000E+00  0.00000000000E+00  0.16176717186E+04  0.16176717186E+04  0.50400001928E-02 0. -1.
       -1   -1    0    0    0  501  0.00000000000E+00  0.00000000000E+00 -0.95979276981E+03  0.95979276982E+03  0.50400001928E-02 0.  1.
    10030    2    1    2    0    0  0.00000000000E+00  0.00000000000E+00  0.65787894878E+03  0.25774644884E+04  0.24920911857E+04 0.  0.
        4    1    3    3  502    0  0.47195645328E+03  0.63862477724E+03  0.13220657403E+04  0.15422204559E+04  0.12699999809E+01 0. -1.
       -4    1    3    3    0  502 -0.47195645328E+03 -0.63862477724E+03 -0.66418679156E+03  0.10352440325E+04  0.12699999809E+01 0.  1.
</event>
<event>
 5   0  0.1574896E-06  0.2487218E+04  0.7818609E-02  0.8407554E-01
       -1   -1    0    0    0  501  0.00000000000E+00  0.00000000000E+00  0.13279016765E+04  0.13279016765E+04  0.50400001928E-02 0. -1.
        1   -1    0    0  501    0  0.00000000000E+00  0.00000000000E+00 -0.11646666804E+04  0.11646666804E+04  0.50400001928E-02 0.  1.
    10030    2    1    2    0    0  0.00000000000E+00  0.00000000000E+00  0.16323499611E+03  0.24925683569E+04  0.24872175919E+04 0.  0.
        3    1    3    3  502    0 -0.42436678008E+03  0.12621403884E+03  0.12462473976E+04  0.13225542460E+04  0.10100000352E+00 0. -1.
       -3    1    3    3    0  502  0.42436678008E+03 -0.12621403884E+03 -0.10830124014E+04  0.11700141108E+04  0.10100000352E+00 0.  1.
</event>
<event>
 5   0  0.1541852E-06  0.2492976E+04  0.7818609E-02  0.8405492E-01
       -1   -1    0    0    0  501  0.00000000000E+00  0.00000000000E+00  0.81505518733E+03  0.81505518735E+03  0.50400001928E-02 0.  1.
        1   -1    0    0  501    0  0.00000000000E+00  0.00000000000E+00 -0.19062904085E+04  0.19062904085E+04  0.50400001928E-02 0. -1.
    10030    2    1    2    0    0  0.00000000000E+00  0.00000000000E+00 -0.10912352212E+04  0.27213455959E+04  0.24929756405E+04 0.  0.
        5    1    3    3  502    0 -0.18333693552E+03 -0.10690736259E+04  0.12479069325E+03  0.10918450699E+04  0.46999998093E+01 0.  1.
       -5    1    3    3    0  502  0.18333693552E+03  0.10690736259E+04 -0.12160259144E+04  0.16295005260E+04  0.46999998093E+01 0. -1.
</event>
<event>
 5   0  0.3971759E-06  0.2484680E+04  0.7818609E-02  0.8408464E-01
        2   -1    0    0  501    0  0.00000000000E+00  0.00000000000E+00  0.13292281855E+04  0.13292281855E+04  0.25500000920E-02 0. -1.
       -2   -1    0    0    0  501  0.00000000000E+00  0.00000000000E+00 -0.11611318155E+04  0.11611318155E+04  0.25500000920E-02 0.  1.
    10030    2    1    2    0    0  0.00000000000E+00  0.00000000000E+00  0.16809637000E+03  0.24903600010E+04  0.24846803708E+04 0.  0.
        4    1    3    3  502    0  0.58960260877E+03  0.78938072635E+03 -0.67442090663E+03  0.11939842292E+04  0.12699999809E+01 0. -1.
       -4    1    3    3    0  502 -0.58960260877E+03 -0.78938072635E+03  0.84251727663E+03  0.12963757718E+04  0.12699999809E+01 0.  1.
</event>
<event>
 5   0  0.3808293E-06  0.2502389E+04  0.7818609E-02  0.8402135E-01
       -2   -1    0    0    0  501  0.00000000000E+00  0.00000000000E+00  0.19776164615E+04  0.19776164615E+04  0.25500000920E-02 0.  1.
        2   -1    0    0  501    0  0.00000000000E+00  0.00000000000E+00 -0.79160329417E+03  0.79160329417E+03  0.25500000920E-02 0. -1.
    10030    2    1    2    0    0  0.00000000000E+00  0.00000000000E+00  0.11860131673E+04  0.27692197557E+04  0.25023890229E+04 0.  0.
        1    1    3    3  502    0  0.19542174591E+03  0.17928412878E+03  0.19461559537E+04  0.19641424220E+04  0.50400001928E-02 0.  1.
       -1    1    3    3    0  502 -0.19542174591E+03 -0.17928412878E+03 -0.76014278635E+03  0.80507733373E+03  0.50400001928E-02 0. -1.
</event>
<event>
 5   0  0.3814260E-06  0.2501167E+04  0.7818609E-02  0.8402570E-01
        2   -1    0    0  501    0  0.00000000000E+00  0.00000000000E+00  0.14556512456E+04  0.14556512456E+04  0.25500000920E-02 0. -1.
       -2   -1    0    0    0  501  0.00000000000E+00  0.00000000000E+00 -0.10744046540E+04  0.10744046540E+04  0.25500000920E-02 0.  1.
    10030    2    1    2    0    0  0.00000000000E+00  0.00000000000E+00  0.38124659163E+03  0.25300558996E+04  0.25011665062E+04 0.  0.
        5    1    3    3  502    0  0.82157197766E+03  0.16545944201E+03 -0.74831072502E+03  0.11235427774E+04  0.46999998093E+01 0.  1.
       -5    1    3    3    0  502 -0.82157197766E+03 -0.16545944201E+03  0.11295573166E+04  0.14065131222E+04  0.46999998093E+01 0. -1.
</event>
<event>
 5   0  0.3971759E-06  0.2498789E+04  0.7818609E-02  0.8403417E-01
       -2   -1    0    0    0  501  0.00000000000E+00  0.00000000000E+00  0.24678668804E+04  0.24678668804E+04  0.25500000920E-02 0.  1.
        2   -1    0    0  501    0  0.00000000000E+00  0.00000000000E+00 -0.63252479945E+03  0.63252479945E+03  0.25500000920E-02 0. -1.
    10030    2    1    2    0    0  0.00000000000E+00  0.00000000000E+00  0.18353420809E+04  0.31003916798E+04  0.24987893097E+04 0.  0.
        4    1    3    3  502    0 -0.36968707390E+03 -0.34219610720E+03  0.23362746040E+04  0.23899680640E+04  0.12699999809E+01 0.  1.
       -4    1    3    3    0  502  0.36968707390E+03  0.34219610720E+03 -0.50093252310E+03  0.71042361587E+03  0.12699999809E+01 0. -1.
</event>
<event>
 5   0  0.3924441E-06  0.2500725E+04  0.7818609E-02  0.8402727E-01
        2   -1    0    0  501    0  0.00000000000E+00  0.00000000000E+00  0.22258846659E+04  0.22258846659E+04  0.25500000920E-02 0.  1.
       -2   -1    0    0    0  501  0.00000000000E+00  0.00000000000E+00 -0.70237513755E+03  0.70237513755E+03  0.25500000920E-02 0. -1.
    10030    2    1    2    0    0  0.00000000000E+00  0.00000000000E+00  0.15235095283E+04  0.29282598034E+04  0.25007247336E+04 0.  0.
        2    1    3    3  502    0 -0.93468944418E+03  0.57530345354E+03  0.60360119479E+02  0.10992096091E+04  0.25500000920E-02 0. -1.
       -2    1    3    3    0  502  0.93468944418E+03 -0.57530345354E+03  0.14631494088E+04  0.18290501943E+04  0.25500000920E-02 0.  1.
</event>
<event>
 5   0  0.3814260E-06  0.2498326E+04  0.7818609E-02  0.8403582E-01
       -2   -1    0    0    0  501  0.00000000000E+00  0.00000000000E+00  0.10782881757E+04  0.10782881757E+04  0.25500000920E-02 0. -1.
        2   -1    0    0  501    0  0.00000000000E+00  0.00000000000E+00 -0.14471166192E+04  0.14471166192E+04  0.25500000920E-02 0.  1.
    10030    2    1    2    0    0  0.00000000000E+00  0.00000000000E+00 -0.36882844346E+03  0.25254047949E+04  0.24983264314E+04 0.  0.
        5    1    3    3  502    0 -0.72798111768E+03  0.42701047978E+03  0.74648646450E+03  0.11267469056E+04  0.46999998093E+01 0. -1.
       -5    1    3    3    0  502  0.72798111768E+03 -0.42701047978E+03 -0.11153149080E+04  0.13986578894E+04  0.46999998093E+01 0.  1.
</event>
<event>
 5   0  0.3814260E-06  0.2495344E+04  0.7818609E-02  0.8404646E-01
        2   -1    0    0  501    0  0.00000000000E+00  0.00000000000E+00  0.16381061637E+04  0.16381061637E+04  0.25500000920E-02 0.  1.
       -2   -1    0    0    0  501  0.00000000000E+00  0.00000000000E+00 -0.95029605506E+03  0.95029605506E+03  0.25500000920E-02 0. -1.
    10030    2    1    2    0    0  0.00000000000E+00  0.00000000000E+00  0.68781010862E+03  0.25884022187E+04  0.24953443250E+04 0.  0.
        5    1    3    3  502    0  0.10461063776E+04 -0.60781792667E+03  0.27773135751E+02  0.12101961090E+04  0.46999998093E+01 0. -1.
       -5    1    3    3    0  502 -0.10461063776E+04  0.60781792667E+03  0.66003697287E+03  0.13782061097E+04  0.46999998093E+01 0.  1.
</event>
<event>
 5   0  0.1501747E-06  0.2493126E+04  0.7818609E-02  0.8405439E-01
        1   -1    0    0  501    0  0.00000000000E+00  0.00000000000E+00  0.11443243888E+04  0.11443243888E+04  0.50400001928E-02 0.  1.
       -1   -1    0    0    0  501  0.00000000000E+00  0.00000000000E+00 -0.13579356502E+04  0.13579356502E+04  0.50400001928E-02 0. -1.
    10030    2    1    2    0    0  0.00000000000E+00  0.00000000000E+00 -0.21361126144E+03  0.25022600390E+04  0.24931256550E+04 0.  0.
        2    1    3    3  502    0 -0.10236434784E+04  0.33856657089E+03 -0.73475405421E+03  0.13047363005E+04  0.25500000920E-02 0. -1.
       -2    1    3    3    0  502  0.10236434784E+04 -0.33856657089E+03  0.52114279277E+03  0.11975237385E+04  0.25500000920E-02 0.  1.
</event>
<event>
 5   0  0.1501747E-06  0.2502496E+04  0.7818609E-02  0.8402097E-01
        1   -1    0    0  501    0  0.00000000000E+00  0.00000000000E+00  0.20995451321E+04  0.20995451321E+04  0.50400001928E-02 0.  1.
       -1   -1    0    0    0  501  0.00000000000E+00  0.00000000000E+00 -0.74569562428E+03  0.74569562430E+03  0.50400001928E-02 0. -1.
    10030    2    1    2    0    0  0.00000000000E+00  0.00000000000E+00  0.13538495078E+04  0.28452407564E+04  0.25024960483E+04 0.  0.
        2    1    3    3  502    0 -0.92176728525E+02  0.11374055202E+02 -0.74177119054E+03  0.74756298567E+03  0.25500000920E-02 0. -1.
       -2    1    3    3    0  502  0.92176728525E+02 -0.11374055202E+02  0.20956206983E+04  0.20976777707E+04  0.25500000920E-02 0.  1.
</event>
<event>
 5   0  0.1501747E-06  0.2504112E+04  0.7818609E-02  0.8401522E-01
       -1   -1    0    0    0  501  0.00000000000E+00  0.00000000000E+00  0.96700726089E+03  0.96700726090E+03  0.50400001928E-02 0.  1.
        1   -1    0    0  501    0  0.00000000000E+00  0.00000000000E+00 -0.16211294122E+04  0.16211294123E+04  0.50400001928E-02 0. -1.
    10030    2    1    2    0    0  0.00000000000E+00  0.00000000000E+00 -0.65412215135E+03  0.25881366732E+04  0.25041117487E+04 0.  0.
        2    1    3    3  502    0  0.35099492478E+03 -0.22362148563E+03  0.89342661120E+03  0.98560393448E+03  0.25500000920E-02 0.  1.
       -2    1    3    3    0  502 -0.35099492478E+03  0.22362148563E+03 -0.15475487625E+04  0.16025327387E+04  0.25500000920E-02 0. -1.
</event>
<event>
 5   0  0.1541852E-06  0.2493847E+04  0.7818609E-02  0.8405181E-01
       -1   -1    0    0    0  501  0.00000000000E+00  0.00000000000E+00  0.16944522912E+04  0.16944522912E+04  0.50400001928E-02 0. -1.
        1   -1    0    0  501    0  0.00000000000E+00  0.00000000000E+00 -0.91759368708E+03  0.91759368709E+03  0.50400001928E-02 0.  1.
    10030    2    1    2    0    0  0.00000000000E+00  0.00000000000E+00  0.77685860415E+03  0.26120459783E+04  0.24938474095E+04 0.  0.
        5    1    3    3  502    0  0.44369861016E+03  0.56414913368E+03 -0.67953670539E+03  0.98839512628E+03  0.46999998093E+01 0.  1.
       -5    1    3    3    0  502 -0.44369861016E+03 -0.56414913368E+03  0.14563953095E+04  0.16236508520E+04  0.46999998093E+01 0. -1.
</event>
<event>
 5   0  0.3713394E-06  0.2501279E+04  0.7818609E-02  0.8402530E-01
        2   -1    0    0  501    0  0.00000000000E+00  0.00000000000E+00  0.26789926305E+04  0.26789926305E+04  0.25500000920E-02 0.  1.
       -2   -1    0    0    0  501  0.00000000000E+00  0.00000000000E+00 -0.58383831217E+03  0.58383831218E+03  0.25500000920E-02 0. -1.
    10030    2    1    2    0    0  0.00000000000E+00  0.00000000000E+00  0.20951543184E+04  0.32628309427E+04  0.25012785017E+04 0.  0.
        3    1    3    3  502    0  0.10759813385E+02  0.12418283400E+04  0.85477592964E+03  0.15076124501E+04  0.10100000352E+00 0. -1.
       -3    1    3    3    0  502 -0.10759813385E+02 -0.12418283400E+04  0.12403783887E+04  0.17552184926E+04  0.10100000352E+00 0.  1.
</event>
<event>
 5   0  0.1574896E-06  0.2496604E+04  0.7818609E-02  0.8404196E-01
       -1   -1    0    0    0  501  0.00000000000E+00  0.00000000000E+00  0.19273339124E+04  0.19273339124E+04  0.50400001928E-02 0. -1.
        1   -1    0    0  501    0  0.00000000000E+00  0.00000000000E+00 -0.80850442783E+03  0.80850442784E+03  0.50400001928E-02 0.  1.
    10030    2    1    2    0    0  0.00000000000E+00  0.00000000000E+00  0.11188294845E+04  0.27358383402E+04  0.24966040952E+04 0.  0.
        3    1    3    3  502    0 -0.21095583628E+02  0.46191009167E+02  0.19262016108E+04  0.19268708542E+04  0.10100000352E+00 0. -1.
       -3    1    3    3    0  502  0.21095583628E+02 -0.46191009167E+02 -0.80737212628E+03  0.80896748604E+03  0.10100000352E+00 0.  1.
</event>
<event>
 5   0  0.1501747E-06  0.2495045E+04  0.7818609E-02  0.8404753E-01
        1   -1    0    0  501    0  0.00000000000E+00  0.00000000000E+00  0.11749544807E+04  0.11749544807E+04  0.50400001928E-02 0. -1.
       -1   -1    0    0    0  501  0.00000000000E+00  0.00000000000E+00 -0.13245729922E+04  0.13245729922E+04  0.50400001928E-02 0.  1.
    10030    2    1    2    0    0  0.00000000000E+00  0.00000000000E+00 -0.14961851145E+03  0.24995274729E+04  0.24950454683E+04 0.  0.
        2    1    3    3  502    0 -0.86299668039E+03  0.46556877180E+03 -0.84742447406E+03  0.12960114933E+04  0.25500000920E-02 0.  1.
       -2    1    3    3    0  502  0.86299668039E+03 -0.46556877180E+03  0.69780596261E+03  0.12035159796E+04  0.25500000920E-02 0. -1.
</event>
<event>
 5   0  0.1541852E-06  0.2501348E+04  0.7818609E-02  0.8402506E-01
        1   -1    0    0  501    0  0.00000000000E+00  0.00000000000E+00  0.16085955559E+04  0.16085955559E+04  0.50400001928E-02 0. -1.
       -1   -1    0    0    0  501  0.00000000000E+00  0.00000000000E+00 -0.97239175023E+03  0.97239175024E+03  0.50400001928E-02 0.  1.
    10030    2    1    2    0    0  0.00000000000E+00  0.00000000000E+00  0.63620380571E+03  0.25809873062E+04  0.25013476752E+04 0.  0.
        5    1    3    3  502    0 -0.11228082065E+04 -0.51001034905E+03  0.53294779890E+03  0.13434523702E+04  0.46999998093E+01 0. -1.
       -5    1    3    3    0  502  0.11228082065E+04  0.51001034905E+03  0.10325600681E+03  0.12375349359E+04  0.46999998093E+01 0.  1.
</event>
<event>
 5   0  0.3924441E-06  0.2500762E+04  0.7818609E-02  0.8402714E-01
       -2   -1    0    0    0  501  0.00000000000E+00  0.00000000000E+00  0.13407640723E+04  0.13407640723E+04  0.25500000920E-02 0.  1.
        2   -1    0    0  501    0  0.00000000000E+00  0.00000000000E+00 -0.11660912511E+04  0.11660912511E+04  0.25500000920E-02 0. -1.
    10030    2    1    2    0    0  0.00000000000E+00  0.00000000000E+00  0.17467282114E+03  0.25068553234E+04  0.25007624873E+04 0.  0.
        2    1    3    3  502    0 -0.20880631759E+03 -0.78777378764E+03 -0.86327018514E+03  0.11871912362E+04  0.25500000920E-02 0. -1.
       -2    1    3    3    0  502  0.20880631759E+03  0.78777378764E+03  0.10379430063E+04  0.13196640872E+04  0.25500000920E-02 0.  1.
</event>
<event>
 5   0  0.3971759E-06  0.2500545E+04  0.7818609E-02  0.8402792E-01
        2   -1    0    0  501    0  0.00000000000E+00  0.00000000000E+00  0.15476005806E+04  0.15476005806E+04  0.25500000920E-02 0. -1.
       -2   -1    0    0    0  501  0.00000000000E+00  0.00000000000E+00 -0.10100673864E+04  0.10100673864E+04  0.25500000920E-02 0.  1.
    10030    2    1    2    0    0  0.00000000000E+00  0.00000000000E+00  0.53753319420E+03  0.25576679671E+04  0.25005446397E+04 0.  0.
        4    1    3    3  502    0  0.68437707456E+03  0.84139313389E+03 -0.36742686592E+03  0.11451281590E+04  0.12699999809E+01 0.  1.
       -4    1    3    3    0  502 -0.68437707456E+03 -0.84139313389E+03  0.90496006011E+03  0.14125398080E+04  0.12699999809E+01 0. -1.
</event>
<event>
 5   0  0.1574896E-06  0.2500021E+04  0.7818609E-02  0.8402978E-01
        1   -1    0    0  501    0  0.00000000000E+00  0.00000000000E+00  0.12205493382E+04  0.12205493382E+04  0.50400001928E-02 0.  1.
       -1   -1    0    0    0  501  0.00000000000E+00  0.00000000000E+00 -0.12801827061E+04  0.12801827061E+04  0.50400001928E-02 0. -1.
    10030    2    1    2    0    0  0.00000000000E+00  0.00000000000E+00 -0.59633367968E+02  0.25007320443E+04  0.25000209237E+04 0.  0.
        3    1    3    3  502    0  0.88663495326E+03 -0.40143845155E+03 -0.81441966333E+03  0.12690759508E+04  0.10100000352E+00 0. -1.
       -3    1    3    3    0  502 -0.88663495326E+03  0.40143845155E+03  0.75478629536E+03  0.12316560935E+04  0.10100000352E+00 0.  1.
</event>
<event>
 5   0  0.3924441E-06  0.2507358E+04  0.7818609E-02  0.8400369E-01
        2   -1    0    0  501    0  0.00000000000E+00  0.00000000000E+00  0.17100099866E+04  0.17100099866E+04  0.25500000920E-02 0.  1.
       -2   -1    0    0    0  501  0.00000000000E+00  0.00000000000E+00 -0.91912359850E+03  0.91912359850E+03  0.25500000920E-02 0. -1.
    10030    2    1    2    0    0  0.00000000000E+00  0.00000000000E+00  0.79088638808E+03  0.26291335851E+04  0.25073575990E+04 0.  0.
        2    1    3    3  502    0  0.10380284444E+04 -0.53609598692E+03 -0.81405552430E+02  0.11711228896E+04  0.25500000920E-02 0. -1.
       -2    1    3    3    0  502 -0.10380284444E+04  0.53609598692E+03  0.87229194051E+03  0.14580106955E+04  0.25500000920E-02 0.  1.
</event>
<event>
 5   0  0.1541852E-06  0.2512937E+04  0.7818609E-02  0.8398391E-01
       -1   -1    0    0    0  501  0.00000000000E+00  0.00000000000E+00  0.12736218512E+04  0.12736218512E+04  0.50400001928E-02 0.  1.
        1   -1    0    0  501    0  0.00000000000E+00  0.00000000000E+00 -0.12395459857E+04  0.12395459857E+04  0.50400001928E-02 0. -1.
    10030    2    1    2    0    0  0.00000000000E+00  0.00000000000E+00  0.34075865519E+02  0.25131678369E+04  0.25129368101E+04 0.  0.
        5    1    3    3  502    0 -0.84551133247E+03 -0.59059260288E+03 -0.70066425109E+03  0.12468526451E+04  0.46999998093E+01 0. -1.
       -5    1    3    3    0  502  0.84551133247E+03  0.59059260288E+03  0.73474011661E+03  0.12663151918E+04  0.46999998093E+01 0.  1.
</event>
<event>
 5   0  0.1519145E-06  0.2499343E+04  0.7818609E-02  0.8403220E-01
       -1   -1    0    0    0  501  0.00000000000E+00  0.00000000000E+00  0.12351975637E+04  0.12351975637E+04  0.50400001928E-02 0. -1.
        1   -1    0    0  501    0  0.00000000000E+00  0.00000000000E+00 -0.12643145844E+04  0.12643145844E+04  0.50400001928E-02 0.  1.
    10030    2    1    2    0    0  0.00000000000E+00  0.00000000000E+00 -0.29117020672E+02  0.24995121481E+04  0.24993425491E+04 0.  0.
        4    1    3    3  502    0  0.82568650554E+03  0.62074932425E+03  0.68875925418E+03  0.12415630681E+04  0.12699999809E+01 0. -1.
       -4    1    3    3    0  502 -0.82568650554E+03 -0.62074932425E+03 -0.71787627485E+03  0.12579490800E+04  0.12699999809E+01 0.  1.
</event>
<event>
 5   0  0.1501747E-06  0.2504094E+04  0.7818609E-02  0.8401529E-01
        1   -1    0    0  501    0  0.00000000000E+00  0.00000000000E+00  0.21640236636E+04  0.21640236636E+04  0.50400001928E-02 0.  1.
       -1   -1    0    0    0  501  0.00000000000E+00  0.00000000000E+00 -0.72440107407E+03  0.72440107409E+03  0.50400001928E-02 0. -1.
    10030    2    1    2    0    0  0.00000000000E+00  0.00000000000E+00  0.14396225895E+04  0.28884247377E+04  0.25040935016E+04 0.  0.
        2    1    3    3  502    0  0.99662244228E+02  0.12126679564E+04  0.37933903135E+03  0.12745172561E+04  0.25500000920E-02 0. -1.
       -2    1    3    3    0  502 -0.99662244228E+02 -0.12126679564E+04  0.10602835582E+04  0.16139074816E+04  0.25500000920E-02 0.  1.
</event>
<event>
 5   0  0.1541852E-06  0.2501873E+04  0.7818609E-02  0.8402319E-01
       -1   -1    0    0    0  501  0.00000000000E+00  0.00000000000E+00  0.13596838927E+04  0.13596838928E+04  0.50400001928E-02 0. -1.
        1   -1    0    0  501    0  0.00000000000E+00  0.00000000000E+00 -0.11508866147E+04  0.11508866147E+04  0.50400001928E-02 0.  1.
    10030    2    1    2    0    0  0.00000000000E+00  0.00000000000E+00  0.20879727808E+03  0.25105705074E+04  0.25018728924E+04 0.  0.
        5    1    3    3  502    0 -0.77340083353E+03 -0.30805600410E+03  0.10413321586E+04  0.13332074503E+04  0.46999998093E+01 0. -1.
       -5    1    3    3    0  502  0.77340083353E+03  0.30805600410E+03 -0.83253488055E+03  0.11773630571E+04  0.46999998093E+01 0.  1.
</event>
<event>
 5   0  0.1553604E-06  0.2500950E+04  0.7818609E-02  0.8402647E-01
       -1   -1    0    0    0  501  0.00000000000E+00  0.00000000000E+00  0.10533990125E+04  0.10533990125E+04  0.50400001928E-02 0. -1.
        1   -1    0    0  501    0  0.00000000000E+00  0.00000000000E+00 -0.14844214328E+04  0.14844214328E+04  0.50400001928E-02 0.  1.
    10030    2    1    2    0    0  0.00000000000E+00  0.00000000000E+00 -0.43102242029E+03  0.25378204453E+04  0.25009502765E+04 0.  0.
        1    1    3    3  502    0  0.92811536106E+03 -0.35313824050E+02  0.63411544027E+03  0.11246099685E+04  0.50400001928E-02 0.  1.
       -1    1    3    3    0  502 -0.92811536106E+03  0.35313824050E+02 -0.10651378606E+04  0.14132104768E+04  0.50400001928E-02 0. -1.
</event>
<event>
 5   0  0.3713394E-06  0.2496782E+04  0.7818609E-02  0.8404133E-01
       -2   -1    0    0    0  501  0.00000000000E+00  0.00000000000E+00  0.13739407812E+04  0.13739407812E+04  0.25500000920E-02 0. -1.
        2   -1    0    0  501    0  0.00000000000E+00  0.00000000000E+00 -0.11343139302E+04  0.11343139302E+04  0.25500000920E-02 0.  1.
    10030    2    1    2    0    0  0.00000000000E+00  0.00000000000E+00  0.23962685106E+03  0.25082547114E+04  0.24967820629E+04 0.  0.
        3    1    3    3  502    0  0.42814345792E+03 -0.10127099727E+04 -0.47416633830E+03  0.11973813244E+04  0.10100000352E+00 0.  1.
       -3    1    3    3    0  502 -0.42814345792E+03  0.10127099727E+04  0.71379318936E+03  0.13108733870E+04  0.10100000352E+00 0. -1.
</event>
<event>
 5   0  0.3713394E-06  0.2500780E+04  0.7818609E-02  0.8402708E-01
       -2   -1    0    0    0  501  0.00000000000E+00  0.00000000000E+00  0.14300949787E+04  0.14300949787E+04  0.25500000920E-02 0. -1.
        2   -1    0    0  501    0  0.00000000000E+00  0.00000000000E+00 -0.10932666044E+04  0.10932666044E+04  0.25500000920E-02 0.  1.
    10030    2    1    2    0    0  0.00000000000E+00  0.00000000000E+00  0.33682837434E+03  0.25233615831E+04  0.25007799434E+04 0.  0.
        3    1    3    3  502    0 -0.54837725373E+03  0.34904993630E+03  0.12461986301E+04  0.14055477602E+04  0.10100000352E+00 0. -1.
       -3    1    3    3    0  502  0.54837725373E+03 -0.34904993630E+03 -0.90937025576E+03  0.11178138229E+04  0.10100000352E+00 0.  1.
</event>
<event>
 5   0  0.1541852E-06  0.2511385E+04  0.7818609E-02  0.8398941E-01
       -1   -1    0    0    0  501  0.00000000000E+00  0.00000000000E+00  0.12449410090E+04  0.12449410090E+04  0.50400001928E-02 0. -1.
        1   -1    0    0  501    0  0.00000000000E+00  0.00000000000E+00 -0.12665372567E+04  0.12665372567E+04  0.50400001928E-02 0.  1.
    10030    2    1    2    0    0  0.00000000000E+00  0.00000000000E+00 -0.21596247664E+02  0.25114782658E+04  0.25113854108E+04 0.  0.
        5    1    3    3  502    0  0.10218394124E+04  0.27127788506E+03 -0.68831457878E+03  0.12615651093E+04  0.46999998093E+01 0.  1.
       -5    1    3    3    0  502 -0.10218394124E+04 -0.27127788506E+03  0.66671833111E+03  0.12499131565E+04  0.46999998093E+01 0. -1.
</event>
<event>
 5   0  0.1574896E-06  0.2497187E+04  0.7818609E-02  0.8403988E-01
        1   -1    0    0  501    0  0.00000000000E+00  0.00000000000E+00  0.14653919373E+04  0.14653919373E+04  0.50400001928E-02 0. -1.
       -1   -1    0    0    0  501  0.00000000000E+00  0.00000000000E+00 -0.10638694891E+04  0.10638694891E+04  0.50400001928E-02 0.  1.
    10030    2    1    2    0    0  0.00000000000E+00  0.00000000000E+00  0.40152244813E+03  0.25292614264E+04  0.24971870348E+04 0.  0.
        3    1    3    3  502    0 -0.58859246242E+03  0.43752746654E+03 -0.82271992405E+03  0.11021521920E+04  0.10100000352E+00 0.  1.
       -3    1    3    3    0  502  0.58859246242E+03 -0.43752746654E+03  0.12242423722E+04  0.14271092344E+04  0.10100000352E+00 0. -1.
</event>
<event>
 5   0  0.1574896E-06  0.2505881E+04  0.7818609E-02  0.8400893E-01
        1   -1    0    0  501    0  0.00000000000E+00  0.00000000000E+00  0.94776538982E+03  0.94776538983E+03  0.50400001928E-02 0.  1.
       -1   -1    0    0    0  501  0.00000000000E+00  0.00000000000E+00 -0.16563802585E+04  0.16563802585E+04  0.50400001928E-02 0. -1.
    10030    2    1    2    0    0  0.00000000000E+00  0.00000000000E+00 -0.70861486872E+03  0.26041456484E+04  0.25058809879E+04 0.  0.
        3    1    3    3  502    0  0.43447942150E+03  0.74870883883E+03 -0.12956552025E+04  0.15582232532E+04  0.10100000352E+00 0. -1.
       -3    1    3    3    0  502 -0.43447942150E+03 -0.74870883883E+03  0.58704033374E+03  0.10459223951E+04  0.10100000352E+00 0.  1.
</event>
<event>
 5   0  0.3924441E-06  0.2497639E+04  0.7818609E-02  0.8403827E-01
        2   -1    0    0  501    0  0.00000000000E+00  0.00000000000E+00  0.93970317047E+03  0.93970317047E+03  0.25500000920E-02 0.  1.
       -2   -1    0    0    0  501  0.00000000000E+00  0.00000000000E+00 -0.16596199110E+04  0.16596199110E+04  0.25500000920E-02 0. -1.
    10030    2    1    2    0    0  0.00000000000E+00  0.00000000000E+00 -0.71991674058E+03  0.25993230815E+04  0.24976389588E+04 0.  0.
        2    1    3    3  502    0 -0.21198745648E+03  0.19873759820E+03  0.90403125736E+03  0.94958297633E+03  0.25500000920E-02 0.  1.
       -2    1    3    3    0  502  0.21198745648E+03 -0.19873759820E+03 -0.16239479979E+04  0.16497401052E+04  0.25500000920E-02 0. -1.
</event>
<event>
 5   0  0.3924441E-06  0.2502006E+04  0.7818609E-02  0.8402271E-01
        2   -1    0    0  501    0  0.00000000000E+00  0.00000000000E+00  0.26694863654E+04  0.26694863654E+04  0.25500000920E-02 0. -1.
       -2   -1    0    0    0  501  0.00000000000E+00  0.00000000000E+00 -0.58625827053E+03  0.58625827054E+03  0.25500000920E-02 0.  1.
    10030    2    1    2    0    0  0.00000000000E+00  0.00000000000E+00  0.20832280949E+04  0.32557446360E+04  0.25020059631E+04 0.  0.
        2    1    3    3  502    0 -0.87923639321E+03  0.59232642257E+03  0.19058476128E+04  0.21808627534E+04  0.25500000920E-02 0. -1.
       -2    1    3    3    0  502  0.87923639321E+03 -0.59232642257E+03  0.17738048211E+03  0.10748818826E+04  0.25500000920E-02 0.  1.
</event>
<event>
 5   0  0.1519145E-06  0.2503832E+04  0.7818609E-02  0.8401622E-01
       -1   -1    0    0    0  501  0.00000000000E+00  0.00000000000E+00  0.10180877208E+04  0.10180877209E+04  0.50400001928E-02 0. -1.
        1   -1    0    0  501    0  0.00000000000E+00  0.00000000000E+00 -0.15394489347E+04  0.15394489347E+04  0.50400001928E-02 0.  1.
    10030    2    1    2    0    0  0.00000000000E+00  0.00000000000E+00 -0.52136121389E+03  0.25575366556E+04  0.25038323086E+04 0.  0.
        4    1    3    3  502    0 -0.10673997835E+04 -0.59134166035E+03 -0.54644028120E+03  0.13370212605E+04  0.12699999809E+01 0.  1.
       -4    1    3    3    0  502  0.10673997835E+04  0.59134166035E+03  0.25079067310E+02  0.12205153951E+04  0.12699999809E+01 0. -1.
</event>
<event>
 5   0  0.3713394E-06  0.2499380E+04  0.7818609E-02  0.8403207E-01
       -2   -1    0    0    0  501  0.00000000000E+00  0.00000000000E+00  0.11100440451E+04  0.11100440451E+04  0.25500000920E-02 0. -1.
        2   -1    0    0  501    0  0.00000000000E+00  0.00000000000E+00 -0.14069033128E+04  0.14069033128E+04  0.25500000920E-02 0.  1.
    10030    2    1    2    0    0  0.00000000000E+00  0.00000000000E+00 -0.29685926761E+03  0.25169473579E+04  0.24993796386E+04 0.  0.
        3    1    3    3  502    0  0.83053337512E+03  0.18220113277E+02  0.79173141282E+03  0.11475871644E+04  0.10100000352E+00 0. -1.
       -3    1    3    3    0  502 -0.83053337512E+03 -0.18220113277E+02 -0.10885906804E+04  0.13693601935E+04  0.10100000352E+00 0.  1.
</event>
<event>
 5   0  0.1287375E-06  0.2468400E+04  0.7818609E-02  0.8414330E-01
       -4   -1    0    0    0  501  0.00000000000E+00  0.00000000000E+00  0.15963519660E+04  0.15963524712E+04  0.12699999809E+01 0. -1.
        4   -1    0    0  501    0  0.00000000000E+00  0.00000000000E+00 -0.95420563391E+03  0.95420647906E+03  0.12699999809E+01 0.  1.
    10030    2    1    2    0    0  0.00000000000E+00  0.00000000000E+00  0.64214633213E+03  0.25505589503E+04  0.24684000986E+04 0.  0.
        4    1    3    3  502    0 -0.59557867253E+03  0.19556993710E+03  0.14196086730E+04  0.15518543594E+04  0.12699999809E+01 0. -1.
       -4    1    3    3    0  502  0.59557867253E+03 -0.19556993710E+03 -0.77746234086E+03  0.99870459087E+03  0.12699999809E+01 0.  1.
</event>
<event>
 5   0  0.1287375E-06  0.2504903E+04  0.7818609E-02  0.8401241E-01
       -4   -1    0    0    0  501  0.00000000000E+00  0.00000000000E+00  0.13111304576E+04  0.13111310727E+04  0.12699999809E+01 0.  1.
        4   -1    0    0  501    0  0.00000000000E+00  0.00000000000E+00 -0.11963973922E+04  0.11963980663E+04  0.12699999809E+01 0. -1.
    10030    2    1    2    0    0  0.00000000000E+00  0.00000000000E+00  0.11473306533E+03  0.25075291390E+04  0.25049029336E+04 0.  0.
        4    1    3    3  502    0 -0.47111674026E+03 -0.11098734808E+04 -0.28190314522E+03  0.12382411407E+04  0.12699999809E+01 0. -1.
       -4    1    3    3    0  502  0.47111674026E+03  0.11098734808E+04  0.39663621055E+03  0.12692879983E+04  0.12699999809E+01 0.  1.
</event>
<event>
 5   0  0.3924441E-06  0.2496149E+04  0.7818609E-02  0.8404359E-01
        2   -1    0    0  501    0  0.00000000000E+00  0.00000000000E+00  0.18990244055E+04  0.18990244055E+04  0.25500000920E-02 0. -1.
       -2   -1    0    0    0  501  0.00000000000E+00  0.00000000000E+00 -0.82025783782E+03  0.82025783782E+03  0.25500000920E-02 0.  1.
    10030    2    1    2    0    0  0.00000000000E+00  0.00000000000E+00  0.10787665677E+04  0.27192822433E+04  0.24961487559E+04 0.  0.
        2    1    3    3  502    0  0.91244992529E+03 -0.74192253605E+03  0.84080698914E+02  0.11790180150E+04  0.25500000920E-02 0.  1.
       -2    1    3    3    0  502 -0.91244992529E+03  0.74192253605E+03  0.99468586879E+03  0.15402642284E+04  0.25500000920E-02 0. -1.
</event>
<event>
 5   0  0.1541852E-06  0.2507349E+04  0.7818609E-02  0.8400372E-01
        1   -1    0    0  501    0  0.00000000000E+00  0.00000000000E+00  0.14948479017E+04  0.14948479017E+04  0.50400001928E-02 0.  1.
       -1   -1    0    0    0  501  0.00000000000E+00  0.00000000000E+00 -0.10514112532E+04  0.10514112532E+04  0.50400001928E-02 0. -1.
    10030    2    1    2    0    0  0.00000000000E+00  0.00000000000E+00  0.44343664843E+03  0.25462591549E+04  0.25073491226E+04 0.  0.
        5    1    3    3  502    0  0.88144853280E+03 -0.26244694229E+03  0.10869065634E+04  0.14238040178E+04  0.46999998093E+01 0.  1.
       -5    1    3    3    0  502 -0.88144853280E+03  0.26244694229E+03 -0.64346991494E+03  0.11224551372E+04  0.46999998093E+01 0. -1.
</event>
<event>
 5   0  0.3814260E-06  0.2502044E+04  0.7818609E-02  0.8402258E-01
        2   -1    0    0  501    0  0.00000000000E+00  0.00000000000E+00  0.23571301690E+04  0.23571301690E+04  0.25500000920E-02 0.  1.
       -2   -1    0    0    0  501  0.00000000000E+00  0.00000000000E+00 -0.66396695529E+03  0.66396695530E+03  0.25500000920E-02 0. -1.
    10030    2    1    2    0    0  0.00000000000E+00  0.00000000000E+00  0.16931632137E+04  0.30210971243E+04  0.25020443973E+04 0.  0.
        5    1    3    3  502    0 -0.30563606237E+03 -0.40997711976E+03  0.22251611361E+04  0.22831685906E+04  0.46999998093E+01 0.  1.
       -5    1    3    3    0  502  0.30563606237E+03  0.40997711976E+03 -0.53199792244E+03  0.73792853368E+03  0.46999998093E+01 0. -1.
</event>
<event>
 5   0  0.1574896E-06  0.2498282E+04  0.7818609E-02  0.8403598E-01
        1   -1    0    0  501    0  0.00000000000E+00  0.00000000000E+00  0.12207724852E+04  0.12207724852E+04  0.50400001928E-02 0.  1.
       -1   -1    0    0    0  501  0.00000000000E+00  0.00000000000E+00 -0.12781685966E+04  0.12781685967E+04  0.50400001928E-02 0. -1.
    10030    2    1    2    0    0  0.00000000000E+00  0.00000000000E+00 -0.57396111461E+02  0.24989410818E+04  0.24982818530E+04 0.  0.
        3    1    3    3  502    0  0.12245235459E+04  0.49967799100E+02 -0.27041932544E+03  0.12550224369E+04  0.10100000352E+00 0.  1.
       -3    1    3    3    0  502 -0.12245235459E+04 -0.49967799100E+02  0.21302321398E+03  0.12439186449E+04  0.10100000352E+00 0. -1.
</event>
<event>
 5   0  0.3971759E-06  0.2495347E+04  0.7818609E-02  0.8404645E-01
       -2   -1    0    0    0  501  0.00000000000E+00  0.00000000000E+00  0.10029030610E+04  0.10029030610E+04  0.25500000920E-02 0.  1.
        2   -1    0    0  501    0  0.00000000000E+00  0.00000000000E+00 -0.15521825860E+04  0.15521825860E+04  0.25500000920E-02 0. -1.
    10030    2    1    2    0    0  0.00000000000E+00  0.00000000000E+00 -0.54927952502E+03  0.25550856469E+04  0.24953466025E+04 0.  0.
        4    1    3    3  502    0 -0.62244379747E+03 -0.10796099192E+04 -0.21241321434E+03  0.12641656716E+04  0.12699999809E+01 0. -1.
       -4    1    3    3    0  502  0.62244379747E+03  0.10796099192E+04 -0.33686631068E+03  0.12909199754E+04  0.12699999809E+01 0.  1.
</event>
<event>
 5   0  0.1501747E-06  0.2501287E+04  0.7818609E-02  0.8402527E-01
       -1   -1    0    0    0  501  0.00000000000E+00  0.00000000000E+00  0.71594623565E+03  0.71594623566E+03  0.50400001928E-02 0. -1.
        1   -1    0    0  501    0  0.00000000000E+00  0.00000000000E+00 -0.21846738506E+04  0.21846738506E+04  0.50400001928E-02 0.  1.
    10030    2    1    2    0    0  0.00000000000E+00  0.00000000000E+00 -0.14687276150E+04  0.29006200863E+04  0.25012868844E+04 0.  0.
        2    1    3    3  502    0 -0.11895706703E+04 -0.74547969165E+02 -0.11736148463E+04  0.16727245998E+04  0.25500000920E-02 0.  1.
       -2    1    3    3    0  502  0.11895706703E+04  0.74547969165E+02 -0.29511276867E+03  0.12278954865E+04  0.25500000920E-02 0. -1.
</event>
<event>
 5   0  0.1553604E-06  0.2500622E+04  0.7818609E-02  0.8402764E-01
        1   -1    0    0  501    0  0.00000000000E+00  0.00000000000E+00  0.11233593228E+04  0.11233593228E+04  0.50400001928E-02 0. -1.
       -1   -1    0    0    0  501  0.00000000000E+00  0.00000000000E+00 -0.13916094932E+04  0.13916094932E+04  0.50400001928E-02 0.  1.
    10030    2    1    2    0    0  0.00000000000E+00  0.00000000000E+00 -0.26825017037E+03  0.25149688161E+04  0.25006219210E+04 0.  0.
        1    1    3    3  502    0  0.19300719078E+03 -0.72394045399E+03  0.87258529907E+03  0.11501072388E+04  0.50400001928E-02 0. -1.
       -1    1    3    3    0  502 -0.19300719078E+03  0.72394045399E+03 -0.11408354694E+04  0.13648615772E+04  0.50400001928E-02 0.  1.
</event>
<event>
 5   0  0.3814260E-06  0.2495034E+04  0.7818609E-02  0.8404757E-01
        2   -1    0    0  501    0  0.00000000000E+00  0.00000000000E+00  0.23366463409E+04  0.23366463409E+04  0.25500000920E-02 0.  1.
       -2   -1    0    0    0  501  0.00000000000E+00  0.00000000000E+00 -0.66603951009E+03  0.66603951010E+03  0.25500000920E-02 0. -1.
    10030    2    1    2    0    0  0.00000000000E+00  0.00000000000E+00  0.16706068308E+04  0.30026858510E+04  0.24950340953E+04 0.  0.
        5    1    3    3  502    0 -0.11673474450E+04 -0.35089046688E+02  0.13631093999E+04  0.17949987812E+04  0.46999998093E+01 0. -1.
       -5    1    3    3    0  502  0.11673474450E+04  0.35089046688E+02  0.30749743089E+03  0.12076870698E+04  0.46999998093E+01 0.  1.
</event>
<event>
 5   0  0.1541852E-06  0.2498846E+04  0.7818609E-02  0.8403397E-01
        1   -1    0    0  501    0  0.00000000000E+00  0.00000000000E+00  0.62462408103E+03  0.62462408105E+03  0.50400001928E-02 0. -1.
       -1   -1    0    0    0  501  0.00000000000E+00  0.00000000000E+00 -0.24991949132E+04  0.24991949132E+04  0.50400001928E-02 0.  1.
    10030    2    1    2    0    0  0.00000000000E+00  0.00000000000E+00 -0.18745708322E+04  0.31238189942E+04  0.24988455943E+04 0.  0.
        5    1    3    3  502    0 -0.32816302153E+03 -0.95608620156E+03 -0.19293459338E+02  0.10110322058E+04  0.46999998093E+01 0. -1.
       -5    1    3    3    0  502  0.32816302153E+03  0.95608620156E+03 -0.18552773728E+04  0.21127867885E+04  0.46999998093E+01 0.  1.
</event>
<event>
 5   0  0.3713394E-06  0.2501631E+04  0.7818609E-02  0.8402405E-01
       -2   -1    0    0    0  501  0.00000000000E+00  0.00000000000E+00  0.10454594066E+04  0.10454594066E+04  0.25500000920E-02 0.  1.
        2   -1    0    0  501    0  0.00000000000E+00  0.00000000000E+00 -0.14965085852E+04  0.14965085852E+04  0.25500000920E-02 0. -1.
    10030    2    1    2    0    0  0.00000000000E+00  0.00000000000E+00 -0.45104917861E+03  0.25419679917E+04  0.25016306501E+04 0.  0.
        3    1    3    3  502    0  0.53310957669E+03 -0.10692659552E+04 -0.60163266751E+03  0.13377209651E+04  0.10100000352E+00 0. -1.
       -3    1    3    3    0  502 -0.53310957669E+03  0.10692659552E+04  0.15058348890E+03  0.12042470266E+04  0.10100000352E+00 0.  1.
</event>
<event>
 5   0  0.3808293E-06  0.2497451E+04  0.7818609E-02  0.8403894E-01
        2   -1    0    0  501    0  0.00000000000E+00  0.00000000000E+00  0.21867159310E+04  0.21867159310E+04  0.25500000920E-02 0.  1.
       -2   -1    0    0    0  501  0.00000000000E+00  0.00000000000E+00 -0.71308529277E+03  0.71308529277E+03  0.25500000920E-02 0. -1.
    10030    2    1    2    0    0  0.00000000000E+00  0.00000000000E+00  0.14736306382E+04  0.28998012238E+04  0.24974506761E+04 0.  0.
        1    1    3    3  502    0 -0.30112519696E+03  0.67415992264E+03 -0.43247340271E+03  0.85568757711E+03  0.50400001928E-02 0. -1.
       -1    1    3    3    0  502  0.30112519696E+03 -0.67415992264E+03  0.19061040409E+04  0.20441136467E+04  0.50400001928E-02 0.  1.
</event>
<event>
 5   0  0.1501747E-06  0.2500746E+04  0.7818609E-02  0.8402720E-01
       -1   -1    0    0    0  501  0.00000000000E+00  0.00000000000E+00  0.12558253372E+04  0.12558253372E+04  0.50400001928E-02 0. -1.
        1   -1    0    0  501    0  0.00000000000E+00  0.00000000000E+00 -0.12449440447E+04  0.12449440447E+04  0.50400001928E-02 0.  1.
    10030    2    1    2    0    0  0.00000000000E+00  0.00000000000E+00  0.10881292547E+02  0.25007693819E+04  0.25007457086E+04 0.  0.
        2    1    3    3  502    0  0.22339137342E+03 -0.72500929921E+03  0.99937665474E+03  0.12547094834E+04  0.25500000920E-02 0. -1.
       -2    1    3    3    0  502 -0.22339137342E+03  0.72500929921E+03 -0.98849536220E+03  0.12460598985E+04  0.25500000920E-02 0.  1.
</event>
<event>
 5   0  0.1501747E-06  0.2497891E+04  0.7818609E-02  0.8403737E-01
        1   -1    0    0  501    0  0.00000000000E+00  0.00000000000E+00  0.91072013212E+03  0.91072013213E+03  0.50400001928E-02 0.  1.
       -1   -1    0    0    0  501  0.00000000000E+00  0.00000000000E+00 -0.17127819738E+04  0.17127819738E+04  0.50400001928E-02 0. -1.
    10030    2    1    2    0    0  0.00000000000E+00  0.00000000000E+00 -0.80206184172E+03  0.26235021060E+04  0.24978911310E+04 0.  0.
        2    1    3    3  502    0  0.43384274147E+03  0.11233017371E+04 -0.52945671179E+02  0.12053337965E+04  0.25500000920E-02 0.  1.
       -2    1    3    3    0  502 -0.43384274147E+03 -0.11233017371E+04 -0.74911617054E+03  0.14181683094E+04  0.25500000920E-02 0. -1.
</event>
<event>
 5   0  0.3713394E-06  0.2500524E+04  0.7818609E-02  0.8402799E-01
        2   -1    0    0  501    0  0.00000000000E+00  0.00000000000E+00  0.14259469239E+04  0.14259469239E+04  0.25500000920E-02 0.  1.
       -2   -1    0    0    0  501  0.00000000000E+00  0.00000000000E+00 -0.10962222008E+04  0.10962222008E+04  0.25500000920E-02 0. -1.
    10030    2    1    2    0    0  0.00000000000E+00  0.00000000000E+00  0.32972472314E+03  0.25221691247E+04  0.25005236853E+04 0.  0.
        3    1    3    3  502    0  0.49016221514E+03 -0.35543144017E+03  0.12682070978E+04  0.14053254993E+04  0.10100000352E+00 0.  1.
       -3    1    3    3    0  502 -0.49016221514E+03  0.35543144017E+03 -0.93848237468E+03  0.11168436254E+04  0.10100000352E+00 0. -1.
</event>
<event>
 5   0  0.3814260E-06  0.2495573E+04  0.7818609E-02  0.8404564E-01
       -2   -1    0    0    0  501  0.00000000000E+00  0.00000000000E+00  0.85592449587E+03  0.85592449588E+03  0.25500000920E-02 0.  1.
        2   -1    0    0  501    0  0.00000000000E+00  0.00000000000E+00 -0.18190519034E+04  0.18190519034E+04  0.25500000920E-02 0. -1.
    10030    2    1    2    0    0  0.00000000000E+00  0.00000000000E+00 -0.96312740751E+03  0.26749763993E+04  0.24955729469E+04 0.  0.
        5    1    3    3  502    0  0.10807413308E+04 -0.11177404656E+03  0.17610244565E+03  0.11006949727E+04  0.46999998093E+01 0.  1.
       -5    1    3    3    0  502 -0.10807413308E+04  0.11177404656E+03 -0.11392298532E+04  0.15742814265E+04  0.46999998093E+01 0. -1.
</event>
<event>
 5   0  0.1519145E-06  0.2504452E+04  0.7818609E-02  0.8401401E-01
       -1   -1    0    0    0  501  0.00000000000E+00  0.00000000000E+00  0.17028555040E+04  0.17028555040E+04  0.50400001928E-02 0. -1.
        1   -1    0    0  501    0  0.00000000000E+00  0.00000000000E+00 -0.92084743554E+03  0.92084743556E+03  0.50400001928E-02 0.  1.
    10030    2    1    2    0    0  0.00000000000E+00  0.00000000000E+00  0.78200806844E+03  0.26237029396E+04  0.25044521349E+04 0.  0.
        4    1    3    3  502    0  0.12390887524E+04 -0.34037901923E+02  0.20486720534E+03  0.12563724368E+04  0.12699999809E+01 0.  1.
       -4    1    3    3    0  502 -0.12390887524E+04  0.34037901923E+02  0.57714086311E+03  0.13673305028E+04  0.12699999809E+01 0. -1.
</event>
<event>
 5   0  0.1519145E-06  0.2500471E+04  0.7818609E-02  0.8402818E-01
       -1   -1    0    0    0  501  0.00000000000E+00  0.00000000000E+00  0.13934231806E+04  0.13934231806E+04  0.50400001928E-02 0. -1.
        1   -1    0    0  501    0  0.00000000000E+00  0.00000000000E+00 -0.11217617155E+04  0.11217617155E+04  0.50400001928E-02 0.  1.
    10030    2    1    2    0    0  0.00000000000E+00  0.00000000000E+00  0.27166146512E+03  0.25151848961E+04  0.25004709777E+04 0.  0.
        4    1    3    3  502    0 -0.75728960280E+03 -0.21608439040E+03  0.11125788090E+04  0.13630895882E+04  0.12699999809E+01 0. -1.
       -4    1    3    3    0  502  0.75728960280E+03  0.21608439040E+03 -0.84091734393E+03  0.11520953079E+04  0.12699999809E+01 0.  1.
</event>
<event>
 5   0  0.1553604E-06  0.2508930E+04  0.7818609E-02  0.8399811E-01
       -1   -1    0    0    0  501  0.00000000000E+00  0.00000000000E+00  0.11659906815E+04  0.11659906815E+04  0.50400001928E-02 0.  1.
        1   -1    0    0  501    0  0.00000000000E+00  0.00000000000E+00 -0.13496525675E+04  0.13496525675E+04  0.50400001928E-02 0. -1.
    10030    2    1    2    0    0  0.00000000000E+00  0.00000000000E+00 -0.18366188599E+03  0.25156432491E+04  0.25089299050E+04 0.  0.
        1    1    3    3  502    0  0.23886190010E+02 -0.12358097986E+04  0.12295219981E+03  0.12421407536E+04  0.50400001928E-02 0.  1.
       -1    1    3    3    0  502 -0.23886190010E+02  0.12358097986E+04 -0.30661408579E+03  0.12735024955E+04  0.50400001928E-02 0. -1.
</event>
<event>
 5   0  0.1553604E-06  0.2502040E+04  0.7818609E-02  0.8402259E-01
        1   -1    0    0  501    0  0.00000000000E+00  0.00000000000E+00  0.11689607223E+04  0.11689607223E+04  0.50400001928E-02 0. -1.
       -1   -1    0    0    0  501  0.00000000000E+00  0.00000000000E+00 -0.13388395375E+04  0.13388395375E+04  0.50400001928E-02 0.  1.
    10030    2    1    2    0    0  0.00000000000E+00  0.00000000000E+00 -0.16987881516E+03  0.25078002598E+04  0.25020398340E+04 0.  0.
        1    1    3    3  502    0 -0.40156457200E+03 -0.11829414409E+04 -0.18105498244E+02  0.12493727895E+04  0.50400001928E-02 0. -1.
       -1    1    3    3    0  502  0.40156457200E+03  0.11829414409E+04 -0.15177331692E+03  0.12584274703E+04  0.50400001928E-02 0.  1.
</event>
<event>
 5   0  0.1501747E-06  0.2496617E+04  0.7818609E-02  0.8404192E-01
        1   -1    0    0  501    0  0.00000000000E+00  0.00000000000E+00  0.19694201146E+04  0.19694201146E+04  0.50400001928E-02 0.  1.
       -1   -1    0    0    0  501  0.00000000000E+00  0.00000000000E+00 -0.79123482567E+03  0.79123482568E+03  0.50400001928E-02 0. -1.
    10030    2    1    2    0    0  0.00000000000E+00  0.00000000000E+00  0.11781852889E+04  0.27606549403E+04  0.24966167356E+04 0.  0.
        2    1    3    3  502    0 -0.11215400205E+04 -0.11641027307E+03 -0.31547077619E+01  0.11275696526E+04  0.25500000920E-02 0. -1.
       -2    1    3    3    0  502  0.11215400205E+04  0.11641027307E+03  0.11813399967E+04  0.16330852877E+04  0.25500000920E-02 0.  1.
</event>
<event>
 5   0  0.1541852E-06  0.2500546E+04  0.7818609E-02  0.8402791E-01
        1   -1    0    0  501    0  0.00000000000E+00  0.00000000000E+00  0.11442161149E+04  0.11442161149E+04  0.50400001928E-02 0. -1.
       -1   -1    0    0    0  501  0.00000000000E+00  0.00000000000E+00 -0.13661603361E+04  0.13661603361E+04  0.50400001928E-02 0.  1.
    10030    2    1    2    0    0  0.00000000000E+00  0.00000000000E+00 -0.22194422121E+03  0.25103764510E+04  0.25005460780E+04 0.  0.
        5    1    3    3  502    0 -0.66061611135E+03 -0.96595648417E+03  0.33084321830E+03  0.12161270086E+04  0.46999998093E+01 0.  1.
       -5    1    3    3    0  502  0.66061611135E+03  0.96595648417E+03 -0.55278743951E+03  0.12942494424E+04  0.46999998093E+01 0. -1.
</event>
<event>
 5   0  0.1501747E-06  0.2499907E+04  0.7818609E-02  0.8403019E-01
       -1   -1    0    0    0  501  0.00000000000E+00  0.00000000000E+00  0.11954852918E+04  0.11954852918E+04  0.50400001928E-02 0.  1.
        1   -1    0    0  501    0  0.00000000000E+00  0.00000000000E+00 -0.13069030067E+04  0.13069030067E+04  0.50400001928E-02 0. -1.
    10030    2    1    2    0    0  0.00000000000E+00  0.00000000000E+00 -0.11141771492E+03  0.25023882985E+04  0.24999066561E+04 0.  0.
        2    1    3    3  502    0 -0.41957241351E+03  0.11472177581E+04  0.20957068930E+03  0.12393826966E+04  0.25500000920E-02 0.  1.
       -2    1    3    3    0  502  0.41957241351E+03 -0.11472177581E+04 -0.32098840423E+03  0.12630056019E+04  0.25500000920E-02 0. -1.
</event>
<event>
 5   0  0.3808293E-06  0.2496272E+04  0.7818609E-02  0.8404315E-01
       -2   -1    0    0    0  501  0.00000000000E+00  0.00000000000E+00  0.13053091591E+04  0.13053091591E+04  0.25500000920E-02 0.  1.
        2   -1    0    0  501    0  0.00000000000E+00  0.00000000000E+00 -0.11934666549E+04  0.11934666549E+04  0.25500000920E-02 0. -1.
    10030    2    1    2    0    0  0.00000000000E+00  0.00000000000E+00  0.11184250420E+03  0.24987758139E+04  0.24962715843E+04 0.  0.
        1    1    3    3  502    0  0.26119122674E+02 -0.12474776638E+04  0.24902664385E+02  0.12479995485E+04  0.50400001928E-02 0.  1.
       -1    1    3    3    0  502 -0.26119122674E+02  0.12474776638E+04  0.86939839816E+02  0.12507762654E+04  0.50400001928E-02 0. -1.
</event>
<event>
 5   0  0.3808293E-06  0.2500116E+04  0.7818609E-02  0.8402944E-01
       -2   -1    0    0    0  501  0.00000000000E+00  0.00000000000E+00  0.66617294729E+03  0.66617294729E+03  0.25500000920E-02 0.  1.
        2   -1    0    0  501    0  0.00000000000E+00  0.00000000000E+00 -0.23457052838E+04  0.23457052838E+04  0.25500000920E-02 0. -1.
    10030    2    1    2    0    0  0.00000000000E+00  0.00000000000E+00 -0.16795323365E+04  0.30118782311E+04  0.25001163192E+04 0.  0.
        1    1    3    3  502    0 -0.54239382148E+03 -0.57789770438E+03 -0.20043324074E+04  0.21553434097E+04  0.50400001928E-02 0. -1.
       -1    1    3    3    0  502  0.54239382148E+03  0.57789770438E+03  0.32480007084E+03  0.85653482145E+03  0.50400001928E-02 0.  1.
</event>
<event>
 5   0  0.3924441E-06  0.2500032E+04  0.7818609E-02  0.8402974E-01
        2   -1    0    0  501    0  0.00000000000E+00  0.00000000000E+00  0.18939391645E+04  0.18939391645E+04  0.25500000920E-02 0. -1.
       -2   -1    0    0    0  501  0.00000000000E+00  0.00000000000E+00 -0.82502094684E+03  0.82502094685E+03  0.25500000920E-02 0.  1.
    10030    2    1    2    0    0  0.00000000000E+00  0.00000000000E+00  0.10689182176E+04  0.27189601113E+04  0.25000315860E+04 0.  0.
        2    1    3    3  502    0  0.92705955735E+02  0.86096611287E+03 -0.44597357113E+03  0.97403771380E+03  0.25500000920E-02 0.  1.
       -2    1    3    3    0  502 -0.92705955735E+02 -0.86096611287E+03  0.15148917888E+04  0.17449223975E+04  0.25500000920E-02 0. -1.
</event>
<event>
 5   0  0.1519145E-06  0.2492765E+04  0.7818609E-02  0.8405568E-01
        1   -1    0    0  501    0  0.00000000000E+00  0.00000000000E+00  0.18067184761E+04  0.18067184761E+04  0.50400001928E-02 0. -1.
       -1   -1    0    0    0  501  0.00000000000E+00  0.00000000000E+00 -0.85982895407E+03  0.85982895409E+03  0.50400001928E-02 0.  1.
    10030    2    1    2    0    0  0.00000000000E+00  0.00000000000E+00  0.94688952203E+03  0.26665474302E+04  0.24927646160E+04 0.  0.
        4    1    3    3  502    0 -0.98448874348E+03 -0.65525956258E+03  0.89443440228E+03  0.14827669046E+04  0.12699999809E+01 0. -1.
       -4    1    3    3    0  502  0.98448874348E+03  0.65525956258E+03  0.52455119750E+02  0.11837805256E+04  0.12699999809E+01 0.  1.
</event>
<event>
 5   0  0.1519145E-06  0.2499975E+04  0.7818609E-02  0.8402994E-01
       -1   -1    0    0    0  501  0.00000000000E+00  0.00000000000E+00  0.13919862024E+04  0.13919862024E+04  0.50400001928E-02 0.  1.
        1   -1    0    0  501    0  0.00000000000E+00  0.00000000000E+00 -0.11224746202E+04  0.11224746202E+04  0.50400001928E-02 0. -1.
    10030    2    1    2    0    0  0.00000000000E+00  0.00000000000E+00  0.26951158220E+03  0.25144608226E+04  0.24999753469E+04 0.  0.
        4    1    3    3  502    0  0.66287462552E+03 -0.18082601423E+03 -0.91550087800E+03  0.11446590266E+04  0.12699999809E+01 0. -1.
       -4    1    3    3    0  502 -0.66287462552E+03  0.18082601423E+03  0.11850124602E+04  0.13698017960E+04  0.12699999809E+01 0.  1.
</event>
<event>
 5   0  0.1553604E-06  0.2497488E+04  0.7818609E-02  0.8403881E-01
        1   -1    0    0  501    0  0.00000000000E+00  0.00000000000E+00  0.10513667307E+04  0.10513667308E+04  0.50400001928E-02 0.  1.
       -1   -1    0    0    0  501  0.00000000000E+00  0.00000000000E+00 -0.14831759908E+04  0.14831759908E+04  0.50400001928E-02 0. -1.
    10030    2    1    2    0    0  0.00000000000E+00  0.00000000000E+00 -0.43180926003E+03  0.25345427215E+04  0.24974882523E+04 0.  0.
        1    1    3    3  502    0  0.12599533419E+03 -0.64526521602E+03 -0.12933151576E+04  0.14508294593E+04  0.50400001928E-02 0. -1.
       -1    1    3    3    0  502 -0.12599533419E+03  0.64526521602E+03  0.86150589753E+03  0.10837132622E+04  0.50400001928E-02 0.  1.
</event>
<event>
 5   0  0.1501747E-06  0.2500306E+04  0.7818609E-02  0.8402877E-01
        1   -1    0    0  501    0  0.00000000000E+00  0.00000000000E+00  0.20492126950E+04  0.20492126950E+04  0.50400001928E-02 0. -1.
       -1   -1    0    0    0  501  0.00000000000E+00  0.00000000000E+00 -0.76267454689E+03  0.76267454691E+03  0.50400001928E-02 0.  1.
    10030    2    1    2    0    0  0.00000000000E+00  0.00000000000E+00  0.12865381481E+04  0.28118872419E+04  0.25003058722E+04 0.  0.
        2    1    3    3  502    0 -0.54977647957E+01  0.65977625766E+03  0.18374556083E+04  0.19523263170E+04  0.25500000920E-02 0. -1.
       -2    1    3    3    0  502  0.54977647957E+01 -0.65977625766E+03 -0.55091746023E+03  0.85956092488E+03  0.25500000920E-02 0.  1.
</event>
<event>
 5   0  0.1501747E-06  0.2503673E+04  0.7818609E-02  0.8401678E-01
        1   -1    0    0  501    0  0.00000000000E+00  0.00000000000E+00  0.11473734815E+04  0.11473734816E+04  0.50400001928E-02 0. -1.
       -1   -1    0    0    0  501  0.00000000000E+00  0.00000000000E+00 -0.13658099971E+04  0.13658099971E+04  0.50400001928E-02 0.  1.
    10030    2    1    2    0    0  0.00000000000E+00  0.00000000000E+00 -0.21843651554E+03  0.25131834786E+04  0.25036726395E+04 0.  0.
        2    1    3    3  502    0 -0.13256755153E+03  0.11011381780E+03  0.11354092054E+04  0.11484133717E+04  0.25500000920E-02 0. -1.
       -2    1    3    3    0  502  0.13256755153E+03 -0.11011381780E+03 -0.13538457210E+04  0.13647701069E+04  0.25500000920E-02 0.  1.
</event>
<event>
 5   0  0.3713394E-06  0.2501714E+04  0.7818609E-02  0.8402375E-01
        2   -1    0    0  501    0  0.00000000000E+00  0.00000000000E+00  0.27505426032E+04  0.27505426032E+04  0.25500000920E-02 0. -1.
       -2   -1    0    0    0  501  0.00000000000E+00  0.00000000000E+00 -0.56884888532E+03  0.56884888533E+03  0.25500000920E-02 0.  1.
    10030    2    1    2    0    0  0.00000000000E+00  0.00000000000E+00  0.21816937179E+04  0.33193914886E+04  0.25017138876E+04 0.  0.
        3    1    3    3  502    0  0.52161874047E+03  0.62127479757E+02  0.25970941213E+04  0.26496874946E+04  0.10100000352E+00 0. -1.
       -3    1    3    3    0  502 -0.52161874047E+03 -0.62127479757E+02 -0.41540040338E+03  0.66970399393E+03  0.10100000352E+00 0.  1.
</event>
<event>
 5   0  0.3808293E-06  0.2498730E+04  0.7818609E-02  0.8403438E-01
       -2   -1    0    0    0  501  0.00000000000E+00  0.00000000000E+00  0.14342532224E+04  0.14342532224E+04  0.25500000920E-02 0.  1.
        2   -1    0    0  501    0  0.00000000000E+00  0.00000000000E+00 -0.10883108163E+04  0.10883108163E+04  0.25500000920E-02 0. -1.
    10030    2    1    2    0    0  0.00000000000E+00  0.00000000000E+00  0.34594240605E+03  0.25225640387E+04  0.24987303138E+04 0.  0.
        1    1    3    3  502    0 -0.66085270912E+03 -0.73981143020E+03  0.93973270784E+03  0.13664350763E+04  0.50400001928E-02 0.  1.
       -1    1    3    3    0  502  0.66085270912E+03  0.73981143020E+03 -0.59379030179E+03  0.11561289625E+04  0.50400001928E-02 0. -1.
</event>
<event>
 5   0  0.3713394E-06  0.2495513E+04  0.7818609E-02  0.8404586E-01
       -2   -1    0    0    0  501  0.00000000000E+00  0.00000000000E+00  0.15221447241E+04  0.15221447241E+04  0.25500000920E-02 0.  1.
        2   -1    0    0  501    0  0.00000000000E+00  0.00000000000E+00 -0.10228308104E+04  0.10228308104E+04  0.25500000920E-02 0. -1.
    10030    2    1    2    0    0  0.00000000000E+00  0.00000000000E+00  0.49931391378E+03  0.25449755345E+04  0.24955131911E+04 0.  0.
        3    1    3    3  502    0  0.55245655448E+03  0.75286177539E+03 -0.59432533507E+03  0.11069018527E+04  0.10100000352E+00 0. -1.
       -3    1    3    3    0  502 -0.55245655448E+03 -0.75286177539E+03  0.10936392489E+04  0.14380736818E+04  0.10100000352E+00 0.  1.
</event>
<event>
 5   0  0.1553604E-06  0.2505720E+04  0.7818609E-02  0.8400951E-01
        1   -1    0    0  501    0  0.00000000000E+00  0.00000000000E+00  0.13191551784E+04  0.13191551784E+04  0.50400001928E-02 0.  1.
       -1   -1    0    0    0  501  0.00000000000E+00  0.00000000000E+00 -0.11898963023E+04  0.11898963023E+04  0.50400001928E-02 0. -1.
    10030    2    1    2    0    0  0.00000000000E+00  0.00000000000E+00  0.12925887610E+03  0.25090514807E+04  0.25057197520E+04 0.  0.
        1    1    3    3  502    0  0.92989417197E+03  0.73645200749E+03 -0.33913510924E+03  0.12337249907E+04  0.50400001928E-02 0. -1.
       -1    1    3    3    0  502 -0.92989417197E+03 -0.73645200749E+03  0.46839398534E+03  0.12753264899E+04  0.50400001928E-02 0.  1.
</event>
<event>
 5   0  0.3924441E-06  0.2503941E+04  0.7818609E-02  0.8401583E-01
        2   -1    0    0  501    0  0.00000000000E+00  0.00000000000E+00  0.11238606853E+04  0.11238606853E+04  0.25500000920E-02 0. -1.
       -2   -1    0    0    0  501  0.00000000000E+00  0.00000000000E+00 -0.13946833983E+04  0.13946833983E+04  0.25500000920E-02 0.  1.
    10030    2    1    2    0    0  0.00000000000E+00  0.00000000000E+00 -0.27082271304E+03  0.25185440836E+04  0.25039407659E+04 0.  0.
        2    1    3    3  502    0  0.71705840578E+03 -0.90268009991E+03 -0.62654768272E+03  0.13120846462E+04  0.25500000920E-02 0.  1.
       -2    1    3    3    0  502 -0.71705840578E+03  0.90268009991E+03  0.35572496968E+03  0.12064594374E+04  0.25500000920E-02 0. -1.
</event>
<event>
 5   0  0.3924441E-06  0.2500793E+04  0.7818609E-02  0.8402703E-01
       -2   -1    0    0    0  501  0.00000000000E+00  0.00000000000E+00  0.11301287402E+04  0.11301287402E+04  0.25500000920E-02 0.  1.
        2   -1    0    0  501    0  0.00000000000E+00  0.00000000000E+00 -0.13834635670E+04  0.13834635670E+04  0.25500000920E-02 0. -1.
    10030    2    1    2    0    0  0.00000000000E+00  0.00000000000E+00 -0.25333482682E+03  0.25135923073E+04  0.25007934246E+04 0.  0.
        2    1    3    3  502    0  0.40585224569E+03 -0.47643505772E+03  0.96136312439E+03  0.11471379457E+04  0.25500000920E-02 0.  1.
       -2    1    3    3    0  502 -0.40585224569E+03  0.47643505772E+03 -0.12146979512E+04  0.13664543616E+04  0.25500000920E-02 0. -1.
</event>
<event>
 5   0  0.1553604E-06  0.2496298E+04  0.7818609E-02  0.8404306E-01
        1   -1    0    0  501    0  0.00000000000E+00  0.00000000000E+00  0.21404600719E+04  0.21404600719E+04  0.50400001928E-02 0. -1.
       -1   -1    0    0    0  501  0.00000000000E+00  0.00000000000E+00 -0.72782287796E+03  0.72782287797E+03  0.50400001928E-02 0.  1.
    10030    2    1    2    0    0  0.00000000000E+00  0.00000000000E+00  0.14126371939E+04  0.28682829499E+04  0.24962979067E+04 0.  0.
        1    1    3    3  502    0 -0.63320470107E+03  0.86122827481E+03 -0.34072688462E+02  0.10694967428E+04  0.50400001928E-02 0.  1.
       -1    1    3    3    0  502  0.63320470107E+03 -0.86122827481E+03  0.14467098824E+04  0.17987862070E+04  0.50400001928E-02 0. -1.
</event>
<event>
 5   0  0.1519145E-06  0.2514535E+04  0.7818609E-02  0.8397826E-01
        1   -1    0    0  501    0  0.00000000000E+00  0.00000000000E+00  0.14312705674E+04  0.14312705674E+04  0.50400001928E-02 0.  1.
       -1   -1    0    0    0  501  0.00000000000E+00  0.00000000000E+00 -0.11044184318E+04  0.11044184319E+04  0.50400001928E-02 0. -1.
    10030    2    1    2    0    0  0.00000000000E+00  0.00000000000E+00  0.32685213552E+03  0.25356889992E+04  0.25145350231E+04 0.  0.
        4    1    3    3  502    0  0.71433230080E+03 -0.25411687566E+03 -0.84794396281E+03  0.11374781754E+04  0.12699999809E+01 0. -1.
       -4    1    3    3    0  502 -0.71433230080E+03  0.25411687566E+03  0.11747960983E+04  0.13982108239E+04  0.12699999809E+01 0.  1.
</event>
<event>
 5   0  0.1541852E-06  0.2504863E+04  0.7818609E-02  0.8401255E-01
       -1   -1    0    0    0  501  0.00000000000E+00  0.00000000000E+00  0.69595587656E+03  0.69595587658E+03  0.50400001928E-02 0. -1.
        1   -1    0    0  501    0  0.00000000000E+00  0.00000000000E+00 -0.22538558768E+04  0.22538558768E+04  0.50400001928E-02 0.  1.
    10030    2    1    2    0    0  0.00000000000E+00  0.00000000000E+00 -0.15579000002E+04  0.29498117533E+04  0.25048626648E+04 0.  0.
        5    1    3    3  502    0  0.67265030052E+03  0.43092916381E+03  0.35696573478E+03  0.87498856954E+03  0.46999998093E+01 0. -1.
       -5    1    3    3    0  502 -0.67265030052E+03 -0.43092916381E+03 -0.19148657350E+04  0.20748231838E+04  0.46999998093E+01 0.  1.
</event>
<event>
 5   0  0.3971759E-06  0.2506931E+04  0.7818609E-02  0.8400520E-01
        2   -1    0    0  501    0  0.00000000000E+00  0.00000000000E+00  0.13805246425E+04  0.13805246425E+04  0.25500000920E-02 0.  1.
       -2   -1    0    0    0  501  0.00000000000E+00  0.00000000000E+00 -0.11381008512E+04  0.11381008512E+04  0.25500000920E-02 0. -1.
    10030    2    1    2    0    0  0.00000000000E+00  0.00000000000E+00  0.24242379124E+03  0.25186254937E+04  0.25069314077E+04 0.  0.
        4    1    3    3  502    0 -0.12928107524E+03 -0.81066971217E+02 -0.11287336112E+04  0.11390024707E+04  0.12699999809E+01 0. -1.
       -4    1    3    3    0  502  0.12928107524E+03  0.81066971217E+02  0.13711574025E+04  0.13796230230E+04  0.12699999809E+01 0.  1.
</event>
<event>
 5   0  0.1541852E-06  0.2484764E+04  0.7818609E-02  0.8408434E-01
       -1   -1    0    0    0  501  0.00000000000E+00  0.00000000000E+00  0.16220266197E+04  0.16220266198E+04  0.50400001928E-02 0.  1.
        1   -1    0    0  501    0  0.00000000000E+00  0.00000000000E+00 -0.95159521790E+03  0.95159521791E+03  0.50400001928E-02 0. -1.
    10030    2    1    2    0    0  0.00000000000E+00  0.00000000000E+00  0.67043140185E+03  0.25736218377E+04  0.24847637913E+04 0.  0.
        5    1    3    3  502    0 -0.31568991108E+03  0.33372161868E+00  0.15797810981E+04  0.16110216136E+04  0.46999998093E+01 0.  1.
       -5    1    3    3    0  502  0.31568991108E+03 -0.33372161868E+00 -0.90934969629E+03  0.96260022411E+03  0.46999998093E+01 0. -1.
</event>
<event>
 5   0  0.3713394E-06  0.2499687E+04  0.7818609E-02  0.8403097E-01
       -2   -1    0    0    0  501  0.00000000000E+00  0.00000000000E+00  0.13619837496E+04  0.13619837496E+04  0.25500000920E-02 0. -1.
        2   -1    0    0  501    0  0.00000000000E+00  0.00000000000E+00 -0.11469365835E+04  0.11469365835E+04  0.25500000920E-02 0.  1.
    10030    2    1    2    0    0  0.00000000000E+00  0.00000000000E+00  0.21504716614E+03  0.25089203331E+04  0.24996871713E+04 0.  0.
        3    1    3    3  502    0 -0.98344439881E+03 -0.59999232162E+03  0.59403589943E+03  0.12961606118E+04  0.10100000352E+00 0. -1.
       -3    1    3    3    0  502  0.98344439881E+03  0.59999232162E+03 -0.37898873328E+03  0.12127597213E+04  0.10100000352E+00 0.  1.
</event>
<event>
 5   0  0.1541852E-06  0.2509424E+04  0.7818609E-02  0.8399636E-01
       -1   -1    0    0    0  501  0.00000000000E+00  0.00000000000E+00  0.10571721464E+04  0.10571721464E+04  0.50400001928E-02 0. -1.
        1   -1    0    0  501    0  0.00000000000E+00  0.00000000000E+00 -0.14891639801E+04  0.14891639801E+04  0.50400001928E-02 0.  1.
    10030    2    1    2    0    0  0.00000000000E+00  0.00000000000E+00 -0.43199183374E+03  0.25463361265E+04  0.25094243812E+04 0.  0.
        5    1    3    3  502    0 -0.58172027880E+03  0.11403705023E+03 -0.13380999518E+04  0.14635356171E+04  0.46999998093E+01 0.  1.
       -5    1    3    3    0  502  0.58172027880E+03 -0.11403705023E+03  0.90610811805E+03  0.10828005094E+04  0.46999998093E+01 0. -1.
</event>
<event>
 5   0  0.1574896E-06  0.2497747E+04  0.7818609E-02  0.8403789E-01
       -1   -1    0    0    0  501  0.00000000000E+00  0.00000000000E+00  0.12593204489E+04  0.12593204489E+04  0.50400001928E-02 0.  1.
        1   -1    0    0  501    0  0.00000000000E+00  0.00000000000E+00 -0.12385134282E+04  0.12385134282E+04  0.50400001928E-02 0. -1.
    10030    2    1    2    0    0  0.00000000000E+00  0.00000000000E+00  0.20807020712E+02  0.24978338771E+04  0.24977472141E+04 0.  0.
        3    1    3    3  502    0  0.10800098359E+04  0.16899477270E+01 -0.61672364154E+03  0.12436929532E+04  0.10100000352E+00 0. -1.
       -3    1    3    3    0  502 -0.10800098359E+04 -0.16899477270E+01  0.63753066225E+03  0.12541409239E+04  0.10100000352E+00 0.  1.
</event>
<event>
 5   0  0.1574896E-06  0.2500740E+04  0.7818609E-02  0.8402722E-01
        1   -1    0    0  501    0  0.00000000000E+00  0.00000000000E+00  0.12885313445E+04  0.12885313445E+04  0.50400001928E-02 0.  1.
       -1   -1    0    0    0  501  0.00000000000E+00  0.00000000000E+00 -0.12133389623E+04  0.12133389623E+04  0.50400001928E-02 0. -1.
    10030    2    1    2    0    0  0.00000000000E+00  0.00000000000E+00  0.75192382168E+02  0.25018703069E+04  0.25007401181E+04 0.  0.
        3    1    3    3  502    0 -0.22402185218E+03  0.12276281752E+04  0.11617178780E+03  0.12532967012E+04  0.10100000352E+00 0.  1.
       -3    1    3    3    0  502  0.22402185218E+03 -0.12276281752E+04 -0.40979405630E+02  0.12485736056E+04  0.10100000352E+00 0. -1.
</event>
<event>
 5   0  0.1541852E-06  0.2482251E+04  0.7818609E-02  0.8409336E-01
       -1   -1    0    0    0  501  0.00000000000E+00  0.00000000000E+00  0.12684962825E+04  0.12684962825E+04  0.50400001928E-02 0.  1.
        1   -1    0    0  501    0  0.00000000000E+00  0.00000000000E+00 -0.12143453936E+04  0.12143453936E+04  0.50400001928E-02 0. -1.
    10030    2    1    2    0    0  0.00000000000E+00  0.00000000000E+00  0.54150888891E+02  0.24828416761E+04  0.24822510892E+04 0.  0.
        5    1    3    3  502    0 -0.90956706662E+02 -0.10887241068E+04  0.61609348932E+03  0.12542673482E+04  0.46999998093E+01 0.  1.
       -5    1    3    3    0  502  0.90956706662E+02  0.10887241068E+04 -0.56194260043E+03  0.12285743279E+04  0.46999998093E+01 0. -1.
</event>
<event>
 5   0  0.3971759E-06  0.2503768E+04  0.7818609E-02  0.8401644E-01
       -2   -1    0    0    0  501  0.00000000000E+00  0.00000000000E+00  0.62631591794E+03  0.62631591794E+03  0.25500000920E-02 0.  1.
        2   -1    0    0  501    0  0.00000000000E+00  0.00000000000E+00 -0.25022736063E+04  0.25022736063E+04  0.25500000920E-02 0. -1.
    10030    2    1    2    0    0  0.00000000000E+00  0.00000000000E+00 -0.18759576883E+04  0.31285895242E+04  0.25037681927E+04 0.  0.
        4    1    3    3  502    0  0.89676338698E+03  0.70228302616E+03 -0.15870562512E+04  0.19534930710E+04  0.12699999809E+01 0. -1.
       -4    1    3    3    0  502 -0.89676338698E+03 -0.70228302616E+03 -0.28890143712E+03  0.11750964532E+04  0.12699999809E+01 0.  1.
</event>
<event>
 5   0  0.3713394E-06  0.2504542E+04  0.7818609E-02  0.8401369E-01
       -2   -1    0    0    0  501  0.00000000000E+00  0.00000000000E+00  0.75613827099E+03  0.75613827100E+03  0.25500000920E-02 0. -1.
        2   -1    0    0  501    0  0.00000000000E+00  0.00000000000E+00 -0.20739371000E+04  0.20739371000E+04  0.25500000920E-02 0.  1.
    10030    2    1    2    0    0  0.00000000000E+00  0.00000000000E+00 -0.13177988290E+04  0.28300753710E+04  0.25045424436E+04 0.  0.
        3    1    3    3  502    0 -0.10477261976E+04 -0.61111454631E+03 -0.10108142924E+04  0.15789036443E+04  0.10100000352E+00 0.  1.
       -3    1    3    3    0  502  0.10477261976E+04  0.61111454631E+03 -0.30698453662E+03  0.12511717268E+04  0.10100000352E+00 0. -1.
</event>
<event>
 5   0  0.3924441E-06  0.2496221E+04  0.7818609E-02  0.8404333E-01
        2   -1    0    0  501    0  0.00000000000E+00  0.00000000000E+00  0.17372664678E+04  0.17372664678E+04  0.25500000920E-02 0. -1.
       -2   -1    0    0    0  501  0.00000000000E+00  0.00000000000E+00 -0.89668466458E+03  0.89668466459E+03  0.25500000920E-02 0.  1.
    10030    2    1    2    0    0  0.00000000000E+00  0.00000000000E+00  0.84058180320E+03  0.26339511324E+04  0.24962213043E+04 0.  0.
        2    1    3    3  502    0 -0.59663685013E+03  0.88679474568E+03  0.11003673611E+04  0.15340106849E+04  0.25500000920E-02 0. -1.
       -2    1    3    3    0  502  0.59663685013E+03 -0.88679474568E+03 -0.25978555793E+03  0.10999404475E+04  0.25500000920E-02 0.  1.
</event>
<event>
 5   0  0.3808293E-06  0.2509186E+04  0.7818609E-02  0.8399720E-01
       -2   -1    0    0    0  501  0.00000000000E+00  0.00000000000E+00  0.10895821885E+04  0.10895821885E+04  0.25500000920E-02 0. -1.
        2   -1    0    0  501    0  0.00000000000E+00  0.00000000000E+00 -0.14445935553E+04  0.14445935553E+04  0.25500000920E-02 0.  1.
    10030    2    1    2    0    0  0.00000000000E+00  0.00000000000E+00 -0.35501136680E+03  0.25341757438E+04  0.25091858500E+04 0.  0.
        1    1    3    3  502    0  0.54882866479E+03  0.95929084075E+03 -0.77717970730E+03  0.13510958952E+04  0.50400001928E-02 0. -1.
       -1    1    3    3    0  502 -0.54882866479E+03 -0.95929084075E+03  0.42216834050E+03  0.11830798486E+04  0.50400001928E-02 0.  1.
</event>
<event>
 5   0  0.3814260E-06  0.2571617E+04  0.7818609E-02  0.8377907E-01
        2   -1    0    0  501    0  0.00000000000E+00  0.00000000000E+00  0.17332520089E+04  0.17332520089E+04  0.25500000920E-02 0. -1.
       -2   -1    0    0    0  501  0.00000000000E+00  0.00000000000E+00 -0.95387379964E+03  0.95387379964E+03  0.25500000920E-02 0.  1.
    10030    2    1    2    0    0  0.00000000000E+00  0.00000000000E+00  0.77937820929E+03  0.26871258086E+04  0.25716171406E+04 0.  0.
        5    1    3    3  502    0 -0.64447179582E+03 -0.99380769338E+03  0.91244410942E+03  0.14951835907E+04  0.46999998093E+01 0.  1.
       -5    1    3    3    0  502  0.64447179582E+03  0.99380769338E+03 -0.13306590013E+03  0.11919422179E+04  0.46999998093E+01 0. -1.
</event>
<event>
 5   0  0.3713394E-06  0.2502320E+04  0.7818609E-02  0.8402160E-01
        2   -1    0    0  501    0  0.00000000000E+00  0.00000000000E+00  0.13402380995E+04  0.13402380995E+04  0.25500000920E-02 0.  1.
       -2   -1    0    0    0  501  0.00000000000E+00  0.00000000000E+00 -0.11680021283E+04  0.11680021283E+04  0.25500000920E-02 0. -1.
    10030    2    1    2    0    0  0.00000000000E+00  0.00000000000E+00  0.17223597118E+03  0.25082402278E+04  0.25023196860E+04 0.  0.
        3    1    3    3  502    0  0.15393201294E+03 -0.11268446154E+04 -0.43658210377E+03  0.12182273168E+04  0.10100000352E+00 0. -1.
       -3    1    3    3    0  502 -0.15393201294E+03  0.11268446154E+04  0.60881807495E+03  0.12900129110E+04  0.10100000352E+00 0.  1.
</event>
<event>
 5   0  0.1553604E-06  0.2500123E+04  0.7818609E-02  0.8402942E-01
        1   -1    0    0  501    0  0.00000000000E+00  0.00000000000E+00  0.92311091055E+03  0.92311091056E+03  0.50400001928E-02 0.  1.
       -1   -1    0    0    0  501  0.00000000000E+00  0.00000000000E+00 -0.16928131398E+04  0.16928131398E+04  0.50400001928E-02 0. -1.
    10030    2    1    2    0    0  0.00000000000E+00  0.00000000000E+00 -0.76970222921E+03  0.26159240503E+04  0.25001234200E+04 0.  0.
        1    1    3    3  502    0 -0.59307421344E+03  0.10616547121E+04 -0.81948788826E+02  0.12188368859E+04  0.50400001928E-02 0.  1.
       -1    1    3    3    0  502  0.59307421344E+03 -0.10616547121E+04 -0.68775344039E+03  0.13970871645E+04  0.50400001928E-02 0. -1.
</event>
<event>
 5   0  0.1574896E-06  0.2497097E+04  0.7818609E-02  0.8404021E-01
        1   -1    0    0  501    0  0.00000000000E+00  0.00000000000E+00  0.19948615338E+04  0.19948615338E+04  0.50400001928E-02 0.  1.
       -1   -1    0    0    0  501  0.00000000000E+00  0.00000000000E+00 -0.78144412803E+03  0.78144412805E+03  0.50400001928E-02 0. -1.
    10030    2    1    2    0    0  0.00000000000E+00  0.00000000000E+00  0.12134174058E+04  0.27763056618E+04  0.24970965795E+04 0.  0.
        3    1    3    3  502    0 -0.10122105029E+04 -0.58831565067E+03  0.10890197695E+04  0.15989526183E+04  0.10100000352E+00 0.  1.
       -3    1    3    3    0  502  0.10122105029E+04  0.58831565067E+03  0.12439763630E+03  0.11773530436E+04  0.10100000352E+00 0. -1.
</event>
<event>
 5   0  0.1541852E-06  0.2501653E+04  0.7818609E-02  0.8402397E-01
        1   -1    0    0  501    0  0.00000000000E+00  0.00000000000E+00  0.26615552710E+04  0.26615552710E+04  0.50400001928E-02 0.  1.
       -1   -1    0    0    0  501  0.00000000000E+00  0.00000000000E+00 -0.58783948370E+03  0.58783948372E+03  0.50400001928E-02 0. -1.
    10030    2    1    2    0    0  0.00000000000E+00  0.00000000000E+00  0.20737157873E+04  0.32493947547E+04  0.25016532744E+04 0.  0.
        5    1    3    3  502    0  0.24000875147E+03 -0.10120865593E+04  0.13450000869E+03  0.10488258896E+04  0.46999998093E+01 0. -1.
       -5    1    3    3    0  502 -0.24000875147E+03  0.10120865593E+04  0.19392157786E+04  0.22005688652E+04  0.46999998093E+01 0.  1.
</event>
<event>
 5   0  0.1574896E-06  0.2482217E+04  0.7818609E-02  0.8409348E-01
        1   -1    0    0  501    0  0.00000000000E+00  0.00000000000E+00  0.21621852955E+04  0.21621852955E+04  0.50400001928E-02 0.  1.
       -1   -1    0    0    0  501  0.00000000000E+00  0.00000000000E+00 -0.71240415277E+03  0.71240415278E+03  0.50400001928E-02 0. -1.
    10030    2    1    2    0    0  0.00000000000E+00  0.00000000000E+00  0.14497811427E+04  0.28745894483E+04  0.24822165768E+04 0.  0.
        3    1    3    3  502    0 -0.17478140308E+03  0.36649400526E+03 -0.63330974985E+03  0.75229491837E+03  0.10100000352E+00 0. -1.
       -3    1    3    3    0  502  0.17478140308E+03 -0.36649400526E+03  0.20830908926E+04  0.21222945299E+04  0.10100000352E+00 0.  1.
</event>
<event>
 5   0  0.3924441E-06  0.2511548E+04  0.7818609E-02  0.8398883E-01
        2   -1    0    0  501    0  0.00000000000E+00  0.00000000000E+00  0.28124327734E+04  0.28124327734E+04  0.25500000920E-02 0.  1.
       -2   -1    0    0    0  501  0.00000000000E+00  0.00000000000E+00 -0.56071338937E+03  0.56071338937E+03  0.25500000920E-02 0. -1.
    10030    2    1    2    0    0  0.00000000000E+00  0.00000000000E+00  0.22517193840E+04  0.33731461627E+04  0.25115482976E+04 0.  0.
        2    1    3    3  502    0 -0.10302852348E+04  0.70529352240E+03  0.94545945358E+03  0.15661482038E+04  0.25500000920E-02 0. -1.
       -2    1    3    3    0  502  0.10302852348E+04 -0.70529352240E+03  0.13062599304E+04  0.18069979590E+04  0.25500000920E-02 0.  1.
</event>
<event>
 5   0  0.3713394E-06  0.2498519E+04  0.7818609E-02  0.8403513E-01
       -2   -1    0    0    0  501  0.00000000000E+00  0.00000000000E+00  0.10392615011E+04  0.10392615011E+04  0.25500000920E-02 0.  1.
        2   -1    0    0  501    0  0.00000000000E+00  0.00000000000E+00 -0.15016905801E+04  0.15016905801E+04  0.25500000920E-02 0. -1.
    10030    2    1    2    0    0  0.00000000000E+00  0.00000000000E+00 -0.46242907902E+03  0.25409520812E+04  0.24985189265E+04 0.  0.
        3    1    3    3  502    0 -0.86624769606E+03 -0.11215976709E+03  0.67708554959E+03  0.11051740750E+04  0.10100000352E+00 0.  1.
       -3    1    3    3    0  502  0.86624769606E+03  0.11215976709E+03 -0.11395146286E+04  0.14357780063E+04  0.10100000352E+00 0. -1.
</event>
<event>
 5   0  0.1574896E-06  0.2502534E+04  0.7818609E-02  0.8402083E-01
       -1   -1    0    0    0  501  0.00000000000E+00  0.00000000000E+00  0.15748692335E+04  0.15748692335E+04  0.50400001928E-02 0.  1.
        1   -1    0    0  501    0  0.00000000000E+00  0.00000000000E+00 -0.99415801688E+03  0.99415801689E+03  0.50400001928E-02 0. -1.
    10030    2    1    2    0    0  0.00000000000E+00  0.00000000000E+00  0.58071121662E+03  0.25690272504E+04  0.25025338152E+04 0.  0.
        3    1    3    3  502    0 -0.43505196155E+02 -0.35894282794E+03  0.15200722592E+04  0.15624827485E+04  0.10100000352E+00 0.  1.
       -3    1    3    3    0  502  0.43505196155E+02  0.35894282794E+03 -0.93936104259E+03  0.10065445019E+04  0.10100000352E+00 0. -1.
</event>
<event>
 5   0  0.1501747E-06  0.2453833E+04  0.7818609E-02  0.8419620E-01
       -1   -1    0    0    0  501  0.00000000000E+00  0.00000000000E+00  0.10588348112E+04  0.10588348112E+04  0.50400001928E-02 0. -1.
        1   -1    0    0  501    0  0.00000000000E+00  0.00000000000E+00 -0.14216797652E+04  0.14216797652E+04  0.50400001928E-02 0.  1.
    10030    2    1    2    0    0  0.00000000000E+00  0.00000000000E+00 -0.36284495406E+03  0.24805145764E+04  0.24538329411E+04 0.  0.
        2    1    3    3  502    0  0.84825961162E+02  0.11432530194E+04 -0.62332695491E+03  0.13048982347E+04  0.25500000920E-02 0.  1.
       -2    1    3    3    0  502 -0.84825961162E+02 -0.11432530194E+04  0.26048200085E+03  0.11756163417E+04  0.25500000920E-02 0. -1.
</event>
<event>
 5   0  0.3924441E-06  0.2499480E+04  0.7818609E-02  0.8403171E-01
       -2   -1    0    0    0  501  0.00000000000E+00  0.00000000000E+00  0.11242132272E+04  0.11242132272E+04  0.25500000920E-02 0.  1.
        2   -1    0    0  501    0  0.00000000000E+00  0.00000000000E+00 -0.13892826357E+04  0.13892826357E+04  0.25500000920E-02 0. -1.
    10030    2    1    2    0    0  0.00000000000E+00  0.00000000000E+00 -0.26506940853E+03  0.25134958630E+04  0.24994798783E+04 0.  0.
        2    1    3    3  502    0  0.12214198763E+04  0.15119491034E+03  0.85762061339E+02  0.12337266903E+04  0.25500000920E-02 0.  1.
       -2    1    3    3    0  502 -0.12214198763E+04 -0.15119491034E+03 -0.35083146987E+03  0.12797691727E+04  0.25500000920E-02 0. -1.
</event>
<event>
 5   0  0.1519145E-06  0.2494662E+04  0.7818609E-02  0.8404890E-01
       -1   -1    0    0    0  501  0.00000000000E+00  0.00000000000E+00  0.91427932179E+03  0.91427932180E+03  0.50400001928E-02 0. -1.
        1   -1    0    0  501    0  0.00000000000E+00  0.00000000000E+00 -0.17017057636E+04  0.17017057637E+04  0.50400001928E-02 0.  1.
    10030    2    1    2    0    0  0.00000000000E+00  0.00000000000E+00 -0.78742644186E+03  0.26159850855E+04  0.24946618140E+04 0.  0.
        4    1    3    3  502    0  0.20688974786E+03 -0.22372585772E+02 -0.16833737909E+04  0.16961877352E+04  0.12699999809E+01 0.  1.
       -4    1    3    3    0  502 -0.20688974786E+03  0.22372585772E+02  0.89594734903E+03  0.91979735024E+03  0.12699999809E+01 0. -1.
</event>
<event>
 5   0  0.3808293E-06  0.2526303E+04  0.7818609E-02  0.8393674E-01
        2   -1    0    0  501    0  0.00000000000E+00  0.00000000000E+00  0.14759829293E+04  0.14759829293E+04  0.25500000920E-02 0. -1.
       -2   -1    0    0    0  501  0.00000000000E+00  0.00000000000E+00 -0.10810096220E+04  0.10810096220E+04  0.25500000920E-02 0.  1.
    10030    2    1    2    0    0  0.00000000000E+00  0.00000000000E+00  0.39497330731E+03  0.25569925513E+04  0.25263030289E+04 0.  0.
        1    1    3    3  502    0  0.68394387328E+03 -0.39111593140E+03 -0.80182734418E+03  0.11241343263E+04  0.50400001928E-02 0.  1.
       -1    1    3    3    0  502 -0.68394387328E+03  0.39111593140E+03  0.11968006515E+04  0.14328582250E+04  0.50400001928E-02 0. -1.
</event>
<event>
 5   0  0.1519145E-06  0.2503823E+04  0.7818609E-02  0.8401625E-01
       -1   -1    0    0    0  501  0.00000000000E+00  0.00000000000E+00  0.11910684046E+04  0.11910684046E+04  0.50400001928E-02 0.  1.
        1   -1    0    0  501    0  0.00000000000E+00  0.00000000000E+00 -0.13158624417E+04  0.13158624417E+04  0.50400001928E-02 0. -1.
    10030    2    1    2    0    0  0.00000000000E+00  0.00000000000E+00 -0.12479403706E+03  0.25069308463E+04  0.25038228205E+04 0.  0.
        4    1    3    3  502    0 -0.53977073964E+03 -0.99940967877E+03  0.46466729621E+03  0.12272283677E+04  0.12699999809E+01 0.  1.
       -4    1    3    3    0  502  0.53977073964E+03  0.99940967877E+03 -0.58946133327E+03  0.12797024786E+04  0.12699999809E+01 0. -1.
</event>
<event>
 5   0  0.1574896E-06  0.2500124E+04  0.7818609E-02  0.8402941E-01
       -1   -1    0    0    0  501  0.00000000000E+00  0.00000000000E+00  0.18862707204E+04  0.18862707204E+04  0.50400001928E-02 0. -1.
        1   -1    0    0  501    0  0.00000000000E+00  0.00000000000E+00 -0.82843602665E+03  0.82843602666E+03  0.50400001928E-02 0.  1.
    10030    2    1    2    0    0  0.00000000000E+00  0.00000000000E+00  0.10578346938E+04  0.27147067471E+04  0.25001236936E+04 0.  0.
        3    1    3    3  502    0  0.77806925467E+03 -0.31732036224E+03 -0.47602932640E+03  0.96575768553E+03  0.10100000352E+00 0.  1.
       -3    1    3    3    0  502 -0.77806925467E+03  0.31732036224E+03  0.15338640202E+04  0.17489490616E+04  0.10100000352E+00 0. -1.
</event>
<event>
 5   0  0.1501747E-06  0.2502608E+04  0.7818609E-02  0.8402057E-01
       -1   -1    0    0    0  501  0.00000000000E+00  0.00000000000E+00  0.72983996970E+03  0.72983996971E+03  0.50400001928E-02 0.  1.
        1   -1    0    0  501    0  0.00000000000E+00  0.00000000000E+00 -0.21453487570E+04  0.21453487570E+04  0.50400001928E-02 0. -1.
    10030    2    1    2    0    0  0.00000000000E+00  0.00000000000E+00 -0.14155087873E+04  0.28751887267E+04  0.25026076575E+04 0.  0.
        2    1    3    3  502    0 -0.10854792942E+04 -0.43934086599E+03 -0.12144021483E+04  0.16870264587E+04  0.25500000920E-02 0. -1.
       -2    1    3    3    0  502  0.10854792942E+04  0.43934086599E+03 -0.20110663899E+03  0.11881622679E+04  0.25500000920E-02 0.  1.
</event>
<event>
 5   0  0.3808293E-06  0.2505163E+04  0.7818609E-02  0.8401149E-01
       -2   -1    0    0    0  501  0.00000000000E+00  0.00000000000E+00  0.77233971583E+03  0.77233971583E+03  0.25500000920E-02 0.  1.
        2   -1    0    0  501    0  0.00000000000E+00  0.00000000000E+00 -0.20314377466E+04  0.20314377466E+04  0.25500000920E-02 0. -1.
    10030    2    1    2    0    0  0.00000000000E+00  0.00000000000E+00 -0.12590980308E+04  0.28037774624E+04  0.25051627108E+04 0.  0.
        1    1    3    3  502    0  0.16306512515E+03 -0.56215342525E+03  0.60986217079E+03  0.84530383647E+03  0.50400001928E-02 0.  1.
       -1    1    3    3    0  502 -0.16306512515E+03  0.56215342525E+03 -0.18689602016E+04  0.19584736260E+04  0.50400001928E-02 0. -1.
</event>
<event>
 5   0  0.3814260E-06  0.2495964E+04  0.7818609E-02  0.8404425E-01
        2   -1    0    0  501    0  0.00000000000E+00  0.00000000000E+00  0.14218828532E+04  0.14218828532E+04  0.25500000920E-02 0.  1.
       -2   -1    0    0    0  501  0.00000000000E+00  0.00000000000E+00 -0.10953495674E+04  0.10953495674E+04  0.25500000920E-02 0. -1.
    10030    2    1    2    0    0  0.00000000000E+00  0.00000000000E+00  0.32653328576E+03  0.25172324206E+04  0.24959637563E+04 0.  0.
        5    1    3    3  502    0 -0.83591400936E+03  0.78870047090E+03 -0.32733100630E+03  0.11949762933E+04  0.46999998093E+01 0. -1.
       -5    1    3    3    0  502  0.83591400936E+03 -0.78870047090E+03  0.65386429206E+03  0.13222561273E+04  0.46999998093E+01 0.  1.
</event>
<event>
 5   0  0.1541852E-06  0.2503006E+04  0.7818609E-02  0.8401916E-01
        1   -1    0    0  501    0  0.00000000000E+00  0.00000000000E+00  0.22945913865E+04  0.22945913865E+04  0.50400001928E-02 0. -1.
       -1   -1    0    0    0  501  0.00000000000E+00  0.00000000000E+00 -0.68258748153E+03  0.68258748155E+03  0.50400001928E-02 0.  1.
    10030    2    1    2    0    0  0.00000000000E+00  0.00000000000E+00  0.16120039050E+04  0.29771788681E+04  0.25030056777E+04 0.  0.
        5    1    3    3  502    0 -0.68454870403E+03 -0.44753368756E+03 -0.32073505565E+03  0.87851374241E+03  0.46999998093E+01 0.  1.
       -5    1    3    3    0  502  0.68454870403E+03  0.44753368756E+03  0.19327389606E+04  0.20986651256E+04  0.46999998093E+01 0. -1.
</event>
<event>
 5   0  0.3971759E-06  0.2501742E+04  0.7818609E-02  0.8402365E-01
        2   -1    0    0  501    0  0.00000000000E+00  0.00000000000E+00  0.20784701531E+04  0.20784701531E+04  0.25500000920E-02 0. -1.
       -2   -1    0    0    0  501  0.00000000000E+00  0.00000000000E+00 -0.75280284008E+03  0.75280284008E+03  0.25500000920E-02 0.  1.
    10030    2    1    2    0    0  0.00000000000E+00  0.00000000000E+00  0.13256673130E+04  0.28312729932E+04  0.25017419805E+04 0.  0.
        4    1    3    3  502    0  0.79533470005E+03  0.87920569099E+03  0.11142706001E+04  0.16270096851E+04  0.12699999809E+01 0. -1.
       -4    1    3    3    0  502 -0.79533470005E+03 -0.87920569099E+03  0.21139671294E+03  0.12042633081E+04  0.12699999809E+01 0.  1.
</event>
<event>
 5   0  0.1553604E-06  0.2518776E+04  0.7818609E-02  0.8396327E-01
       -1   -1    0    0    0  501  0.00000000000E+00  0.00000000000E+00  0.97076849303E+03  0.97076849304E+03  0.50400001928E-02 0. -1.
        1   -1    0    0  501    0  0.00000000000E+00  0.00000000000E+00 -0.16338166509E+04  0.16338166509E+04  0.50400001928E-02 0.  1.
    10030    2    1    2    0    0  0.00000000000E+00  0.00000000000E+00 -0.66304815789E+03  0.26045851440E+04  0.25187756773E+04 0.  0.
        1    1    3    3  502    0 -0.60084357198E+03 -0.10235940280E+04 -0.76693912381E+03  0.14131359990E+04  0.50400001928E-02 0.  1.
       -1    1    3    3    0  502  0.60084357198E+03  0.10235940280E+04  0.10389096593E+03  0.11914491449E+04  0.50400001928E-02 0. -1.
</event>
<event>
 5   0  0.1541852E-06  0.2510907E+04  0.7818609E-02  0.8399110E-01
        1   -1    0    0  501    0  0.00000000000E+00  0.00000000000E+00  0.12845643594E+04  0.12845643594E+04  0.50400001928E-02 0. -1.
       -1   -1    0    0    0  501  0.00000000000E+00  0.00000000000E+00 -0.12270026236E+04  0.12270026236E+04  0.50400001928E-02 0.  1.
    10030    2    1    2    0    0  0.00000000000E+00  0.00000000000E+00  0.57561735759E+02  0.25115669831E+04  0.25109072777E+04 0.  0.
        5    1    3    3  502    0  0.92963411836E+03  0.59934408946E+03 -0.56526810360E+03  0.12421686884E+04  0.46999998093E+01 0.  1.
       -5    1    3    3    0  502 -0.92963411836E+03 -0.59934408946E+03  0.62282983936E+03  0.12693982946E+04  0.46999998093E+01 0. -1.
</event>
<event>
 5   0  0.1501747E-06  0.2504564E+04  0.7818609E-02  0.8401361E-01
        1   -1    0    0  501    0  0.00000000000E+00  0.00000000000E+00  0.13952602768E+04  0.13952602768E+04  0.50400001928E-02 0.  1.
       -1   -1    0    0    0  501  0.00000000000E+00  0.00000000000E+00 -0.11239554047E+04  0.11239554047E+04  0.50400001928E-02 0. -1.
    10030    2    1    2    0    0  0.00000000000E+00  0.00000000000E+00  0.27130487210E+03  0.25192156815E+04  0.25045640971E+04 0.  0.
        2    1    3    3  502    0 -0.63645690686E+03 -0.71029538633E+03 -0.68064509180E+03  0.11716973462E+04  0.25500000920E-02 0. -1.
       -2    1    3    3    0  502  0.63645690686E+03  0.71029538633E+03  0.95194996390E+03  0.13475183353E+04  0.25500000920E-02 0.  1.
</event>
<event>
 5   0  0.1501747E-06  0.2500920E+04  0.7818609E-02  0.8402658E-01
       -1   -1    0    0    0  501  0.00000000000E+00  0.00000000000E+00  0.24548071480E+04  0.24548071480E+04  0.50400001928E-02 0.  1.
        1   -1    0    0  501    0  0.00000000000E+00  0.00000000000E+00 -0.63697470898E+03  0.63697470900E+03  0.50400001928E-02 0. -1.
    10030    2    1    2    0    0  0.00000000000E+00  0.00000000000E+00  0.18178324390E+04  0.30917818570E+04  0.25009198857E+04 0.  0.
        2    1    3    3  502    0 -0.68487402357E+03  0.66527156938E+03 -0.89327651299E+02  0.95896721450E+03  0.25500000920E-02 0. -1.
       -2    1    3    3    0  502  0.68487402357E+03 -0.66527156938E+03  0.19071600903E+04  0.21328146425E+04  0.25500000920E-02 0.  1.
</event>
<event>
 5   0  0.1541852E-06  0.2504718E+04  0.7818609E-02  0.8401307E-01
       -1   -1    0    0    0  501  0.00000000000E+00  0.00000000000E+00  0.13537182953E+04  0.13537182953E+04  0.50400001928E-02 0.  1.
        1   -1    0    0  501    0  0.00000000000E+00  0.00000000000E+00 -0.11585887929E+04  0.11585887929E+04  0.50400001928E-02 0. -1.
    10030    2    1    2    0    0  0.00000000000E+00  0.00000000000E+00  0.19512950242E+03  0.25123070882E+04  0.25047178249E+04 0.  0.
        5    1    3    3  502    0  0.23962399957E+03 -0.30915373184E+03 -0.10957395924E+04  0.11634702555E+04  0.46999998093E+01 0. -1.
       -5    1    3    3    0  502 -0.23962399957E+03  0.30915373184E+03  0.12908690948E+04  0.13488368326E+04  0.46999998093E+01 0.  1.
</event>
<event>
 5   0  0.1541852E-06  0.2503713E+04  0.7818609E-02  0.8401664E-01
        1   -1    0    0  501    0  0.00000000000E+00  0.00000000000E+00  0.18638260401E+04  0.18638260401E+04  0.50400001928E-02 0. -1.
       -1   -1    0    0    0  501  0.00000000000E+00  0.00000000000E+00 -0.84082163168E+03  0.84082163169E+03  0.50400001928E-02 0.  1.
    10030    2    1    2    0    0  0.00000000000E+00  0.00000000000E+00  0.10230044085E+04  0.27046476718E+04  0.25037134439E+04 0.  0.
        5    1    3    3  502    0  0.71073125876E+03 -0.36639020440E+02  0.16240289262E+04  0.17731253152E+04  0.46999998093E+01 0. -1.
       -5    1    3    3    0  502 -0.71073125876E+03  0.36639020440E+02 -0.60102451778E+03  0.93152235667E+03  0.46999998093E+01 0.  1.
</event>
<event>
 5   0  0.1501747E-06  0.2497568E+04  0.7818609E-02  0.8403852E-01
        1   -1    0    0  501    0  0.00000000000E+00  0.00000000000E+00  0.20148530072E+04  0.20148530072E+04  0.50400001928E-02 0.  1.
       -1   -1    0    0    0  501  0.00000000000E+00  0.00000000000E+00 -0.77398291621E+03  0.77398291623E+03  0.50400001928E-02 0. -1.
    10030    2    1    2    0    0  0.00000000000E+00  0.00000000000E+00  0.12408700910E+04  0.27888359234E+04  0.24975682623E+04 0.  0.
        2    1    3    3  502    0  0.11819887684E+04 -0.66743530549E+02  0.10641560061E+04  0.15918480307E+04  0.25500000920E-02 0.  1.
       -2    1    3    3    0  502 -0.11819887684E+04  0.66743530549E+02  0.17671408489E+03  0.11969878927E+04  0.25500000920E-02 0. -1.
</event>
<event>
 5   0  0.1501747E-06  0.2445479E+04  0.7818609E-02  0.8422671E-01
       -1   -1    0    0    0  501  0.00000000000E+00  0.00000000000E+00  0.11454885157E+04  0.11454885157E+04  0.50400001928E-02 0. -1.
        1   -1    0    0  501    0  0.00000000000E+00  0.00000000000E+00 -0.13051999248E+04  0.13051999248E+04  0.50400001928E-02 0.  1.
    10030    2    1    2    0    0  0.00000000000E+00  0.00000000000E+00 -0.15971140904E+03  0.24506884405E+04  0.24454787053E+04 0.  0.
        2    1    3    3  502    0  0.11788389555E+04 -0.97034599179E+01  0.24539092309E+03  0.12041478918E+04  0.25500000920E-02 0. -1.
       -2    1    3    3    0  502 -0.11788389555E+04  0.97034599179E+01 -0.40510233213E+03  0.12465405487E+04  0.25500000920E-02 0.  1.
</event>
<event>
 5   0  0.1501747E-06  0.2500118E+04  0.7818609E-02  0.8402943E-01
        1   -1    0    0  501    0  0.00000000000E+00  0.00000000000E+00  0.20930266324E+04  0.20930266324E+04  0.50400001928E-02 0.  1.
       -1   -1    0    0    0  501  0.00000000000E+00  0.00000000000E+00 -0.74659732568E+03  0.74659732570E+03  0.50400001928E-02 0. -1.
    10030    2    1    2    0    0  0.00000000000E+00  0.00000000000E+00  0.13464293067E+04  0.28396239581E+04  0.25001184663E+04 0.  0.
        2    1    3    3  502    0  0.35363028025E+03  0.41295622158E+03  0.19517095046E+04  0.20260200410E+04  0.25500000920E-02 0.  1.
       -2    1    3    3    0  502 -0.35363028025E+03 -0.41295622158E+03 -0.60528019787E+03  0.81360391714E+03  0.25500000920E-02 0. -1.
</event>
<event>
 5   0  0.3808293E-06  0.2492877E+04  0.7818609E-02  0.8405528E-01
       -2   -1    0    0    0  501  0.00000000000E+00  0.00000000000E+00  0.16284838035E+04  0.16284838035E+04  0.25500000920E-02 0.  1.
        2   -1    0    0  501    0  0.00000000000E+00  0.00000000000E+00 -0.95402161738E+03  0.95402161738E+03  0.25500000920E-02 0. -1.
    10030    2    1    2    0    0  0.00000000000E+00  0.00000000000E+00  0.67446218607E+03  0.25825054208E+04  0.24928768538E+04 0.  0.
        1    1    3    3  502    0  0.10573098695E+04  0.64788548180E+03  0.46806101132E+03  0.13254210153E+04  0.50400001928E-02 0.  1.
       -1    1    3    3    0  502 -0.10573098695E+04 -0.64788548180E+03  0.20640117475E+03  0.12570844055E+04  0.50400001928E-02 0. -1.
</event>
<event>
 5   0  0.1541852E-06  0.2495583E+04  0.7818609E-02  0.8404561E-01
       -1   -1    0    0    0  501  0.00000000000E+00  0.00000000000E+00  0.10283766181E+04  0.10283766181E+04  0.50400001928E-02 0.  1.
        1   -1    0    0  501    0  0.00000000000E+00  0.00000000000E+00 -0.15140210380E+04  0.15140210380E+04  0.50400001928E-02 0. -1.
    10030    2    1    2    0    0  0.00000000000E+00  0.00000000000E+00 -0.48564441990E+03  0.25423976561E+04  0.24955831662E+04 0.  0.
        5    1    3    3  502    0 -0.69906865933E+03 -0.17397831726E+03 -0.12807552447E+04  0.14694630081E+04  0.46999998093E+01 0. -1.
       -5    1    3    3    0  502  0.69906865933E+03  0.17397831726E+03  0.79511082477E+03  0.10729346481E+04  0.46999998093E+01 0.  1.
</event>
<event>
 5   0  0.1501747E-06  0.2500257E+04  0.7818609E-02  0.8402894E-01
       -1   -1    0    0    0  501  0.00000000000E+00  0.00000000000E+00  0.13654853065E+04  0.13654853065E+04  0.50400001928E-02 0. -1.
        1   -1    0    0  501    0  0.00000000000E+00  0.00000000000E+00 -0.11445174648E+04  0.11445174648E+04  0.50400001928E-02 0.  1.
    10030    2    1    2    0    0  0.00000000000E+00  0.00000000000E+00  0.22096784170E+03  0.25100027712E+04  0.25002574117E+04 0.  0.
        2    1    3    3  502    0 -0.41567736282E+03 -0.33730008402E+03 -0.10236374312E+04  0.11551591264E+04  0.25500000920E-02 0.  1.
       -2    1    3    3    0  502  0.41567736282E+03  0.33730008402E+03  0.12446052729E+04  0.13548436449E+04  0.25500000920E-02 0. -1.
</event>
<event>
 5   0  0.1553604E-06  0.2495091E+04  0.7818609E-02  0.8404737E-01
        1   -1    0    0  501    0  0.00000000000E+00  0.00000000000E+00  0.20467184345E+04  0.20467184345E+04  0.50400001928E-02 0.  1.
       -1   -1    0    0    0  501  0.00000000000E+00  0.00000000000E+00 -0.76042175956E+03  0.76042175958E+03  0.50400001928E-02 0. -1.
    10030    2    1    2    0    0  0.00000000000E+00  0.00000000000E+00  0.12862966749E+04  0.28071401941E+04  0.24950905661E+04 0.  0.
        1    1    3    3  502    0 -0.64055397715E+03  0.10637515820E+04  0.77858868424E+03  0.14656320019E+04  0.50400001928E-02 0. -1.
       -1    1    3    3    0  502  0.64055397715E+03 -0.10637515820E+04  0.50770799068E+03  0.13415081921E+04  0.50400001928E-02 0.  1.
</event>
<event>
 5   0  0.3814260E-06  0.2499597E+04  0.7818609E-02  0.8403129E-01
        2   -1    0    0  501    0  0.00000000000E+00  0.00000000000E+00  0.19474658122E+04  0.19474658122E+04  0.25500000920E-02 0. -1.
       -2   -1    0    0    0  501  0.00000000000E+00  0.00000000000E+00 -0.80206604873E+03  0.80206604874E+03  0.25500000920E-02 0.  1.
    10030    2    1    2    0    0  0.00000000000E+00  0.00000000000E+00  0.11453997635E+04  0.27495318610E+04  0.24995969348E+04 0.  0.
        5    1    3    3  502    0  0.12319721390E+04  0.16781906851E+03  0.43331968571E+03  0.13167029395E+04  0.46999998093E+01 0. -1.
       -5    1    3    3    0  502 -0.12319721390E+04 -0.16781906851E+03  0.71208007778E+03  0.14328289214E+04  0.46999998093E+01 0.  1.
</event>
<event>
 5   0  0.3814260E-06  0.2500098E+04  0.7818609E-02  0.8402951E-01
       -2   -1    0    0    0  501  0.00000000000E+00  0.00000000000E+00  0.16254959810E+04  0.16254959810E+04  0.25500000920E-02 0. -1.
        2   -1    0    0  501    0  0.00000000000E+00  0.00000000000E+00 -0.96132006894E+03  0.96132006894E+03  0.25500000920E-02 0.  1.
    10030    2    1    2    0    0  0.00000000000E+00  0.00000000000E+00  0.66417591208E+03  0.25868160500E+04  0.25000975249E+04 0.  0.
        5    1    3    3  502    0 -0.81417079686E+03  0.27777956380E+03 -0.60632395358E+03  0.10524668162E+04  0.46999998093E+01 0.  1.
       -5    1    3    3    0  502  0.81417079686E+03 -0.27777956380E+03  0.12704998657E+04  0.15343492338E+04  0.46999998093E+01 0. -1.
</event>
<event>
 5   0  0.3971759E-06  0.2497698E+04  0.7818609E-02  0.8403806E-01
       -2   -1    0    0    0  501  0.00000000000E+00  0.00000000000E+00  0.92816618498E+03  0.92816618498E+03  0.25500000920E-02 0. -1.
        2   -1    0    0  501    0  0.00000000000E+00  0.00000000000E+00 -0.16803285728E+04  0.16803285728E+04  0.25500000920E-02 0.  1.
    10030    2    1    2    0    0  0.00000000000E+00  0.00000000000E+00 -0.75216238783E+03  0.26084947578E+04  0.24976982692E+04 0.  0.
        4    1    3    3  502    0 -0.33714007873E+03 -0.79941423373E+03 -0.13142020176E+04  0.15747555701E+04  0.12699999809E+01 0.  1.
       -4    1    3    3    0  502  0.33714007873E+03  0.79941423373E+03  0.56203962975E+03  0.10337391877E+04  0.12699999809E+01 0. -1.
</event>
<event>
 5   0  0.1541852E-06  0.2498930E+04  0.7818609E-02  0.8403367E-01
       -1   -1    0    0    0  501  0.00000000000E+00  0.00000000000E+00  0.78312548637E+03  0.78312548639E+03  0.50400001928E-02 0.  1.
        1   -1    0    0  501    0  0.00000000000E+00  0.00000000000E+00 -0.19935029329E+04  0.19935029329E+04  0.50400001928E-02 0. -1.
    10030    2    1    2    0    0  0.00000000000E+00  0.00000000000E+00 -0.12103774465E+04  0.27766284193E+04  0.24989301342E+04 0.  0.
        5    1    3    3  502    0 -0.15090076705E+03 -0.11757160251E+04 -0.10441353830E+04  0.15796581912E+04  0.46999998093E+01 0. -1.
       -5    1    3    3    0  502  0.15090076705E+03  0.11757160251E+04 -0.16624206350E+03  0.11969702280E+04  0.46999998093E+01 0.  1.
</event>
<event>
 5   0  0.3924441E-06  0.2499551E+04  0.7818609E-02  0.8403145E-01
       -2   -1    0    0    0  501  0.00000000000E+00  0.00000000000E+00  0.14763706782E+04  0.14763706782E+04  0.25500000920E-02 0. -1.
        2   -1    0    0  501    0  0.00000000000E+00  0.00000000000E+00 -0.10579586400E+04  0.10579586400E+04  0.25500000920E-02 0.  1.
    10030    2    1    2    0    0  0.00000000000E+00  0.00000000000E+00  0.41841203815E+03  0.25343293182E+04  0.24995512516E+04 0.  0.
        2    1    3    3  502    0 -0.67322295145E+02 -0.12226904071E+04 -0.44140552254E+02  0.12253377132E+04  0.25500000920E-02 0. -1.
       -2    1    3    3    0  502  0.67322295145E+02  0.12226904071E+04  0.46255259040E+03  0.13089916050E+04  0.25500000920E-02 0.  1.
</event>
<event>
 5   0  0.1501747E-06  0.2501654E+04  0.7818609E-02  0.8402397E-01
        1   -1    0    0  501    0  0.00000000000E+00  0.00000000000E+00  0.18473128585E+04  0.18473128585E+04  0.50400001928E-02 0.  1.
       -1   -1    0    0    0  501  0.00000000000E+00  0.00000000000E+00 -0.84694254732E+03  0.84694254733E+03  0.50400001928E-02 0. -1.
    10030    2    1    2    0    0  0.00000000000E+00  0.00000000000E+00  0.10003703112E+04  0.26942554058E+04  0.25016537395E+04 0.  0.
        2    1    3    3  502    0  0.13062663510E+03 -0.70072571883E+03 -0.60680523517E+03  0.93610493229E+03  0.25500000920E-02 0. -1.
       -2    1    3    3    0  502 -0.13062663510E+03  0.70072571883E+03  0.16071755463E+04  0.17581504735E+04  0.25500000920E-02 0.  1.
</event>
<event>
 5   0  0.3924441E-06  0.2499494E+04  0.7818609E-02  0.8403166E-01
       -2   -1    0    0    0  501  0.00000000000E+00  0.00000000000E+00  0.90848125332E+03  0.90848125332E+03  0.25500000920E-02 0.  1.
        2   -1    0    0  501    0  0.00000000000E+00  0.00000000000E+00 -0.17192071049E+04  0.17192071049E+04  0.25500000920E-02 0. -1.
    10030    2    1    2    0    0  0.00000000000E+00  0.00000000000E+00 -0.81072585159E+03  0.26276883582E+04  0.24994938891E+04 0.  0.
        2    1    3    3  502    0  0.74293873690E+03 -0.99078743909E+03 -0.22866609184E+03  0.12593275578E+04  0.25500000920E-02 0. -1.
       -2    1    3    3    0  502 -0.74293873690E+03  0.99078743909E+03 -0.58205975975E+03  0.13683608004E+04  0.25500000920E-02 0.  1.
</event>
<event>
 5   0  0.1541852E-06  0.2496344E+04  0.7818609E-02  0.8404289E-01
       -1   -1    0    0    0  501  0.00000000000E+00  0.00000000000E+00  0.73157488908E+03  0.73157488910E+03  0.50400001928E-02 0. -1.
        1   -1    0    0  501    0  0.00000000000E+00  0.00000000000E+00 -0.21295605492E+04  0.21295605492E+04  0.50400001928E-02 0.  1.
    10030    2    1    2    0    0  0.00000000000E+00  0.00000000000E+00 -0.13979856601E+04  0.28611354383E+04  0.24963437444E+04 0.  0.
        5    1    3    3  502    0  0.77672910529E+03  0.61926203530E+03 -0.15651500118E+04  0.18537826789E+04  0.46999998093E+01 0.  1.
       -5    1    3    3    0  502 -0.77672910529E+03 -0.61926203530E+03  0.16716435164E+03  0.10073527594E+04  0.46999998093E+01 0. -1.
</event>
<event>
 5   0  0.3971759E-06  0.2506595E+04  0.7818609E-02  0.8400640E-01
        2   -1    0    0  501    0  0.00000000000E+00  0.00000000000E+00  0.91465998119E+03  0.91465998119E+03  0.25500000920E-02 0.  1.
       -2   -1    0    0    0  501  0.00000000000E+00  0.00000000000E+00 -0.17173099099E+04  0.17173099099E+04  0.25500000920E-02 0. -1.
    10030    2    1    2    0    0  0.00000000000E+00  0.00000000000E+00 -0.80264992873E+03  0.26319698911E+04  0.25065950211E+04 0.  0.
        4    1    3    3  502    0  0.10294258461E+03  0.88165964342E+03 -0.13303578054E+04  0.15993043506E+04  0.12699999809E+01 0. -1.
       -4    1    3    3    0  502 -0.10294258461E+03 -0.88165964342E+03  0.52770787666E+03  0.10326655405E+04  0.12699999809E+01 0.  1.
</event>
<event>
 5   0  0.1553604E-06  0.2501448E+04  0.7818609E-02  0.8402470E-01
       -1   -1    0    0    0  501  0.00000000000E+00  0.00000000000E+00  0.19154447426E+04  0.19154447427E+04  0.50400001928E-02 0. -1.
        1   -1    0    0  501    0  0.00000000000E+00  0.00000000000E+00 -0.81668244631E+03  0.81668244632E+03  0.50400001928E-02 0.  1.
    10030    2    1    2    0    0  0.00000000000E+00  0.00000000000E+00  0.10987622963E+04  0.27321271890E+04  0.25014476594E+04 0.  0.
        1    1    3    3  502    0  0.11690084280E+04  0.15362001248E+03  0.10051521068E+04  0.15493581157E+04  0.50400001928E-02 0. -1.
       -1    1    3    3    0  502 -0.11690084280E+04 -0.15362001248E+03  0.93610189574E+02  0.11827690732E+04  0.50400001928E-02 0.  1.
</event>
<event>
 5   0  0.1541852E-06  0.2506514E+04  0.7818609E-02  0.8400669E-01
       -1   -1    0    0    0  501  0.00000000000E+00  0.00000000000E+00  0.74634239060E+03  0.74634239061E+03  0.50400001928E-02 0.  1.
        1   -1    0    0  501    0  0.00000000000E+00  0.00000000000E+00 -0.21044670553E+04  0.21044670553E+04  0.50400001928E-02 0. -1.
    10030    2    1    2    0    0  0.00000000000E+00  0.00000000000E+00 -0.13581246647E+04  0.28508094459E+04  0.25065138922E+04 0.  0.
        5    1    3    3  502    0  0.10822071643E+04  0.29720556748E+03 -0.44656460362E+02  0.11231739781E+04  0.46999998093E+01 0.  1.
       -5    1    3    3    0  502 -0.10822071643E+04 -0.29720556748E+03 -0.13134682043E+04  0.17276354677E+04  0.46999998093E+01 0. -1.
</event>
<event>
 5   0  0.1553604E-06  0.2489237E+04  0.7818609E-02  0.8406830E-01
       -1   -1    0    0    0  501  0.00000000000E+00  0.00000000000E+00  0.13917929548E+04  0.13917929548E+04  0.50400001928E-02 0.  1.
        1   -1    0    0  501    0  0.00000000000E+00  0.00000000000E+00 -0.11130073017E+04  0.11130073017E+04  0.50400001928E-02 0. -1.
    10030    2    1    2    0    0  0.00000000000E+00  0.00000000000E+00  0.27878565303E+03  0.25048002565E+04  0.24892374103E+04 0.  0.
        1    1    3    3  502    0  0.33528695168E+03  0.10568504261E+04  0.70837080359E+03  0.13157276916E+04  0.50400001928E-02 0.  1.
       -1    1    3    3    0  502 -0.33528695168E+03 -0.10568504261E+04 -0.42958515057E+03  0.11890725649E+04  0.50400001928E-02 0. -1.
</event>
<event>
 5   0  0.3924441E-06  0.2504140E+04  0.7818609E-02  0.8401512E-01
       -2   -1    0    0    0  501  0.00000000000E+00  0.00000000000E+00  0.10649421507E+04  0.10649421507E+04  0.25500000920E-02 0.  1.
        2   -1    0    0  501    0  0.00000000000E+00  0.00000000000E+00 -0.14720792256E+04  0.14720792256E+04  0.25500000920E-02 0. -1.
    10030    2    1    2    0    0  0.00000000000E+00  0.00000000000E+00 -0.40713707484E+03  0.25370213763E+04  0.25041399454E+04 0.  0.
        2    1    3    3  502    0  0.34061526086E+03  0.73117727701E+03  0.76662802028E+03  0.11128151184E+04  0.25500000920E-02 0.  1.
       -2    1    3    3    0  502 -0.34061526086E+03 -0.73117727701E+03 -0.11737650951E+04  0.14242062578E+04  0.25500000920E-02 0. -1.
</event>
<event>
 5   0  0.3713394E-06  0.2501462E+04  0.7818609E-02  0.8402465E-01
       -2   -1    0    0    0  501  0.00000000000E+00  0.00000000000E+00  0.69868131154E+03  0.69868131154E+03  0.25500000920E-02 0. -1.
        2   -1    0    0  501    0  0.00000000000E+00  0.00000000000E+00 -0.22389714392E+04  0.22389714392E+04  0.25500000920E-02 0.  1.
    10030    2    1    2    0    0  0.00000000000E+00  0.00000000000E+00 -0.15402901277E+04  0.29376527507E+04  0.25014615741E+04 0.  0.
        3    1    3    3  502    0  0.31256751794E+03 -0.71579728925E+03  0.37705913591E+03  0.86731644441E+03  0.10100000352E+00 0. -1.
       -3    1    3    3    0  502 -0.31256751794E+03  0.71579728925E+03 -0.19173492636E+04  0.20703363063E+04  0.10100000352E+00 0.  1.
</event>
<event>
 5   0  0.1541852E-06  0.2504759E+04  0.7818609E-02  0.8401292E-01
       -1   -1    0    0    0  501  0.00000000000E+00  0.00000000000E+00  0.91372972491E+03  0.91372972492E+03  0.50400001928E-02 0.  1.
        1   -1    0    0  501    0  0.00000000000E+00  0.00000000000E+00 -0.17165411108E+04  0.17165411108E+04  0.50400001928E-02 0. -1.
    10030    2    1    2    0    0  0.00000000000E+00  0.00000000000E+00 -0.80281138586E+03  0.26302708357E+04  0.25047591796E+04 0.  0.
        5    1    3    3  502    0  0.39521174837E+03  0.10379563095E+04 -0.10090977860E+04  0.15006152265E+04  0.46999998093E+01 0.  1.
       -5    1    3    3    0  502 -0.39521174837E+03 -0.10379563095E+04  0.20628640015E+03  0.11296556092E+04  0.46999998093E+01 0. -1.
</event>
<event>
 5   0  0.3814260E-06  0.2516436E+04  0.7818609E-02  0.8397154E-01
       -2   -1    0    0    0  501  0.00000000000E+00  0.00000000000E+00  0.93862883401E+03  0.93862883401E+03  0.25500000920E-02 0.  1.
        2   -1    0    0  501    0  0.00000000000E+00  0.00000000000E+00 -0.16866221543E+04  0.16866221543E+04  0.25500000920E-02 0. -1.
    10030    2    1    2    0    0  0.00000000000E+00  0.00000000000E+00 -0.74799332033E+03  0.26252509883E+04  0.25164357223E+04 0.  0.
        5    1    3    3  502    0  0.71859335622E+03  0.34580328138E+03  0.64129460774E+03  0.10233460729E+04  0.46999998093E+01 0.  1.
       -5    1    3    3    0  502 -0.71859335622E+03 -0.34580328138E+03 -0.13892879281E+04  0.16019049154E+04  0.46999998093E+01 0. -1.
</event>
<event>
 5   0  0.3814260E-06  0.2508159E+04  0.7818609E-02  0.8400085E-01
        2   -1    0    0  501    0  0.00000000000E+00  0.00000000000E+00  0.17364721166E+04  0.17364721166E+04  0.25500000920E-02 0. -1.
       -2   -1    0    0    0  501  0.00000000000E+00  0.00000000000E+00 -0.90569584594E+03  0.90569584594E+03  0.25500000920E-02 0.  1.
    10030    2    1    2    0    0  0.00000000000E+00  0.00000000000E+00  0.83077627066E+03  0.26421679625E+04  0.25081591517E+04 0.  0.
        5    1    3    3  502    0  0.17871798638E+03  0.29138105490E+03 -0.85566502528E+03  0.92142702549E+03  0.46999998093E+01 0.  1.
       -5    1    3    3    0  502 -0.17871798638E+03 -0.29138105490E+03  0.16864412959E+04  0.17207409371E+04  0.46999998093E+01 0. -1.
</event>
<event>
 5   0  0.3814260E-06  0.2500502E+04  0.7818609E-02  0.8402807E-01
        2   -1    0    0  501    0  0.00000000000E+00  0.00000000000E+00  0.15974036054E+04  0.15974036054E+04  0.25500000920E-02 0.  1.
       -2   -1    0    0    0  501  0.00000000000E+00  0.00000000000E+00 -0.97854289887E+03  0.97854289887E+03  0.25500000920E-02 0. -1.
    10030    2    1    2    0    0  0.00000000000E+00  0.00000000000E+00  0.61886070653E+03  0.25759465043E+04  0.25005023133E+04 0.  0.
        5    1    3    3  502    0 -0.56699593756E+03  0.62127523921E+03 -0.64348593434E+03  0.10590389765E+04  0.46999998093E+01 0. -1.
       -5    1    3    3    0  502  0.56699593756E+03 -0.62127523921E+03  0.12623466409E+04  0.15169075278E+04  0.46999998093E+01 0.  1.
</event>
<event>
 5   0  0.1553604E-06  0.2515493E+04  0.7818609E-02  0.8397487E-01
        1   -1    0    0  501    0  0.00000000000E+00  0.00000000000E+00  0.22556223891E+04  0.22556223892E+04  0.50400001928E-02 0. -1.
       -1   -1    0    0    0  501  0.00000000000E+00  0.00000000000E+00 -0.70132575540E+03  0.70132575541E+03  0.50400001928E-02 0.  1.
    10030    2    1    2    0    0  0.00000000000E+00  0.00000000000E+00  0.15542966337E+04  0.29569481446E+04  0.25154928551E+04 0.  0.
        1    1    3    3  502    0 -0.45791046916E+03  0.87244464170E+03  0.16960546144E+04  0.19614899708E+04  0.50400001928E-02 0. -1.
       -1    1    3    3    0  502  0.45791046916E+03 -0.87244464170E+03 -0.14175798063E+03  0.99545817376E+03  0.50400001928E-02 0.  1.
</event>
<event>
 5   0  0.3971759E-06  0.2499384E+04  0.7818609E-02  0.8403205E-01
       -2   -1    0    0    0  501  0.00000000000E+00  0.00000000000E+00  0.10443621506E+04  0.10443621506E+04  0.25500000920E-02 0. -1.
        2   -1    0    0  501    0  0.00000000000E+00  0.00000000000E+00 -0.14953916272E+04  0.14953916272E+04  0.25500000920E-02 0.  1.
    10030    2    1    2    0    0  0.00000000000E+00  0.00000000000E+00 -0.45102947656E+03  0.25397537778E+04  0.24993842568E+04 0.  0.
        4    1    3    3  502    0  0.94784679090E+03 -0.73638024161E+03  0.12804096723E+03  0.12070896824E+04  0.12699999809E+01 0. -1.
       -4    1    3    3    0  502 -0.94784679090E+03  0.73638024161E+03 -0.57907044379E+03  0.13326640953E+04  0.12699999809E+01 0.  1.
</event>
<event>
 5   0  0.1553604E-06  0.2501482E+04  0.7818609E-02  0.8402458E-01
       -1   -1    0    0    0  501  0.00000000000E+00  0.00000000000E+00  0.72381027868E+03  0.72381027869E+03  0.50400001928E-02 0.  1.
        1   -1    0    0  501    0  0.00000000000E+00  0.00000000000E+00 -0.21612751036E+04  0.21612751036E+04  0.50400001928E-02 0. -1.
    10030    2    1    2    0    0  0.00000000000E+00  0.00000000000E+00 -0.14374648249E+04  0.28850853823E+04  0.25014820687E+04 0.  0.
        1    1    3    3  502    0  0.24897861760E+03  0.10327029814E+03  0.68991315860E+03  0.74069917844E+03  0.50400001928E-02 0.  1.
       -1    1    3    3    0  502 -0.24897861760E+03 -0.10327029814E+03 -0.21273779835E+04  0.21443862038E+04  0.50400001928E-02 0. -1.
</event>
<event>
 5   0  0.1574896E-06  0.2503433E+04  0.7818609E-02  0.8401763E-01
        1   -1    0    0  501    0  0.00000000000E+00  0.00000000000E+00  0.24318812784E+04  0.24318812784E+04  0.50400001928E-02 0. -1.
       -1   -1    0    0    0  501  0.00000000000E+00  0.00000000000E+00 -0.64427260334E+03  0.64427260336E+03  0.50400001928E-02 0.  1.
    10030    2    1    2    0    0  0.00000000000E+00  0.00000000000E+00  0.17876086750E+04  0.30761538817E+04  0.25034332284E+04 0.  0.
        3    1    3    3  502    0  0.67534079857E+03  0.52145643588E+03 -0.23157595161E+03  0.88409809427E+03  0.10100000352E+00 0.  1.
       -3    1    3    3    0  502 -0.67534079857E+03 -0.52145643588E+03  0.20191846266E+04  0.21920557875E+04  0.10100000352E+00 0. -1.
</event>
<event>
 5   0  0.1519145E-06  0.2500372E+04  0.7818609E-02  0.8402853E-01
       -1   -1    0    0    0  501  0.00000000000E+00  0.00000000000E+00  0.17696842496E+04  0.17696842496E+04  0.50400001928E-02 0. -1.
        1   -1    0    0  501    0  0.00000000000E+00  0.00000000000E+00 -0.88318888265E+03  0.88318888267E+03  0.50400001928E-02 0.  1.
    10030    2    1    2    0    0  0.00000000000E+00  0.00000000000E+00  0.88649536697E+03  0.26528731323E+04  0.25003723364E+04 0.  0.
        4    1    3    3  502    0  0.26108330141E+03 -0.80299176223E+03 -0.53493996313E+03  0.99956122251E+03  0.12699999809E+01 0.  1.
       -4    1    3    3    0  502 -0.26108330141E+03  0.80299176223E+03  0.14214353301E+04  0.16533119098E+04  0.12699999809E+01 0. -1.
</event>
<event>
 5   0  0.3971759E-06  0.2498621E+04  0.7818609E-02  0.8403477E-01
        2   -1    0    0  501    0  0.00000000000E+00  0.00000000000E+00  0.11414447368E+04  0.11414447368E+04  0.25500000920E-02 0. -1.
       -2   -1    0    0    0  501  0.00000000000E+00  0.00000000000E+00 -0.13673696302E+04  0.13673696302E+04  0.25500000920E-02 0.  1.
    10030    2    1    2    0    0  0.00000000000E+00  0.00000000000E+00 -0.22592489345E+03  0.25088143670E+04  0.24986211138E+04 0.  0.
        4    1    3    3  502    0  0.12001739868E+04  0.14230428780E+03  0.20472544449E+03  0.12257986089E+04  0.12699999809E+01 0. -1.
       -4    1    3    3    0  502 -0.12001739868E+04 -0.14230428780E+03 -0.43065033794E+03  0.12830157581E+04  0.12699999809E+01 0.  1.
</event>
<event>
 5   0  0.1519145E-06  0.2425955E+04  0.7818609E-02  0.8429850E-01
        1   -1    0    0  501    0  0.00000000000E+00  0.00000000000E+00  0.14869021759E+04  0.14869021759E+04  0.50400001928E-02 0.  1.
       -1   -1    0    0    0  501  0.00000000000E+00  0.00000000000E+00 -0.98951653577E+03  0.98951653578E+03  0.50400001928E-02 0. -1.
    10030    2    1    2    0    0  0.00000000000E+00  0.00000000000E+00  0.49738564017E+03  0.24764187117E+04  0.24259548967E+04 0.  0.
        4    1    3    3  502    0 -0.10902500826E+04  0.52280739718E+03  0.15003953723E+03  0.12183949658E+04  0.12699999809E+01 0. -1.
       -4    1    3    3    0  502  0.10902500826E+04 -0.52280739718E+03  0.34734610294E+03  0.12580237459E+04  0.12699999809E+01 0.  1.
</event>
<event>
 5   0  0.1574896E-06  0.2505313E+04  0.7818609E-02  0.8401095E-01
        1   -1    0    0  501    0  0.00000000000E+00  0.00000000000E+00  0.16627675381E+04  0.16627675381E+04  0.50400001928E-02 0.  1.
       -1   -1    0    0    0  501  0.00000000000E+00  0.00000000000E+00 -0.94369682132E+03  0.94369682134E+03  0.50400001928E-02 0. -1.
    10030    2    1    2    0    0  0.00000000000E+00  0.00000000000E+00  0.71907071678E+03  0.26064643594E+04  0.25053131065E+04 0.  0.
        3    1    3    3  502    0  0.68799604891E+03 -0.59488905186E+03  0.12556579110E+04  0.15504542390E+04  0.10100000352E+00 0.  1.
       -3    1    3    3    0  502 -0.68799604891E+03  0.59488905186E+03 -0.53658719426E+03  0.10560101205E+04  0.10100000352E+00 0. -1.
</event>
<event>
 5   0  0.3808293E-06  0.2501274E+04  0.7818609E-02  0.8402532E-01
        2   -1    0    0  501    0  0.00000000000E+00  0.00000000000E+00  0.13531940178E+04  0.13531940178E+04  0.25500000920E-02 0. -1.
       -2   -1    0    0    0  501  0.00000000000E+00  0.00000000000E+00 -0.11558525183E+04  0.11558525183E+04  0.25500000920E-02 0.  1.
    10030    2    1    2    0    0  0.00000000000E+00  0.00000000000E+00  0.19734149955E+03  0.25090465361E+04  0.25012738460E+04 0.  0.
        1    1    3    3  502    0 -0.73005574869E+03 -0.99790043714E+03 -0.89812145936E+02  0.12396987135E+04  0.50400001928E-02 0. -1.
       -1    1    3    3    0  502  0.73005574869E+03  0.99790043714E+03  0.28715364549E+03  0.12693478226E+04  0.50400001928E-02 0.  1.
</event>
<event>
 5   0  0.3814260E-06  0.2497117E+04  0.7818609E-02  0.8404013E-01
        2   -1    0    0  501    0  0.00000000000E+00  0.00000000000E+00  0.14910109548E+04  0.14910109548E+04  0.25500000920E-02 0.  1.
       -2   -1    0    0    0  501  0.00000000000E+00  0.00000000000E+00 -0.10455307823E+04  0.10455307823E+04  0.25500000920E-02 0. -1.
    10030    2    1    2    0    0  0.00000000000E+00  0.00000000000E+00  0.44548017243E+03  0.25365417371E+04  0.24971166172E+04 0.  0.
        5    1    3    3  502    0 -0.40100648846E+01  0.10174005391E+04  0.95787596620E+03  0.13973791161E+04  0.46999998093E+01 0. -1.
       -5    1    3    3    0  502  0.40100648846E+01 -0.10174005391E+04 -0.51239579377E+03  0.11391626210E+04  0.46999998093E+01 0.  1.
</event>
<event>
 5   0  0.1519145E-06  0.2488327E+04  0.7818609E-02  0.8407156E-01
        1   -1    0    0  501    0  0.00000000000E+00  0.00000000000E+00  0.12961578298E+04  0.12961578298E+04  0.50400001928E-02 0. -1.
       -1   -1    0    0    0  501  0.00000000000E+00  0.00000000000E+00 -0.11942553313E+04  0.11942553314E+04  0.50400001928E-02 0.  1.
    10030    2    1    2    0    0  0.00000000000E+00  0.00000000000E+00  0.10190249846E+03  0.24904131612E+04  0.24883274692E+04 0.  0.
        4    1    3    3  502    0  0.31233508961E+03 -0.84667151200E+03 -0.80623375354E+03  0.12101323629E+04  0.12699999809E+01 0.  1.
       -4    1    3    3    0  502 -0.31233508961E+03  0.84667151200E+03  0.90813625199E+03  0.12802807983E+04  0.12699999809E+01 0. -1.
</event>
<event>
 5   0  0.3808293E-06  0.2498110E+04  0.7818609E-02  0.8403659E-01
        2   -1    0    0  501    0  0.00000000000E+00  0.00000000000E+00  0.14881969885E+04  0.14881969885E+04  0.25500000920E-02 0.  1.
       -2   -1    0    0    0  501  0.00000000000E+00  0.00000000000E+00 -0.10483414961E+04  0.10483414961E+04  0.25500000920E-02 0. -1.
    10030    2    1    2    0    0  0.00000000000E+00  0.00000000000E+00  0.43985549234E+03  0.25365384846E+04  0.24981102117E+04 0.  0.
        1    1    3    3  502    0  0.21112225312E+03 -0.41880514367E+03 -0.95553679341E+03  0.10644345530E+04  0.50400001928E-02 0. -1.
       -1    1    3    3    0  502 -0.21112225312E+03  0.41880514367E+03  0.13953922858E+04  0.14721039315E+04  0.50400001928E-02 0.  1.
</event>
<event>
 5   0  0.3924441E-06  0.2508069E+04  0.7818609E-02  0.8400117E-01
        2   -1    0    0  501    0  0.00000000000E+00  0.00000000000E+00  0.19157920821E+04  0.19157920821E+04  0.25500000920E-02 0.  1.
       -2   -1    0    0    0  501  0.00000000000E+00  0.00000000000E+00 -0.82086278144E+03  0.82086278144E+03  0.25500000920E-02 0. -1.
    10030    2    1    2    0    0  0.00000000000E+00  0.00000000000E+00  0.10949293007E+04  0.27366548636E+04  0.25080689123E+04 0.  0.
        2    1    3    3  502    0  0.51755250875E+03 -0.56809111503E+03  0.16287478889E+04  0.18009463623E+04  0.25500000920E-02 0.  1.
       -2    1    3    3    0  502 -0.51755250875E+03  0.56809111503E+03 -0.53381858818E+03  0.93570850129E+03  0.25500000920E-02 0. -1.
</event>
<event>
 5   0  0.1553604E-06  0.2500691E+04  0.7818609E-02  0.8402740E-01
       -1   -1    0    0    0  501  0.00000000000E+00  0.00000000000E+00  0.93008728856E+03  0.93008728858E+03  0.50400001928E-02 0.  1.
        1   -1    0    0  501    0  0.00000000000E+00  0.00000000000E+00 -0.16808779996E+04  0.16808779996E+04  0.50400001928E-02 0. -1.
    10030    2    1    2    0    0  0.00000000000E+00  0.00000000000E+00 -0.75079071108E+03  0.26109652882E+04  0.25006905135E+04 0.  0.
        1    1    3    3  502    0 -0.34129370046E+03  0.10822462784E+04 -0.92354652853E+03  0.14631051184E+04  0.50400001928E-02 0. -1.
       -1    1    3    3    0  502  0.34129370046E+03 -0.10822462784E+04  0.17275581746E+03  0.11478601698E+04  0.50400001928E-02 0.  1.
</event>
<event>
 5   0  0.3924441E-06  0.2500050E+04  0.7818609E-02  0.8402968E-01
       -2   -1    0    0    0  501  0.00000000000E+00  0.00000000000E+00  0.75070495772E+03  0.75070495772E+03  0.25500000920E-02 0.  1.
        2   -1    0    0  501    0  0.00000000000E+00  0.00000000000E+00 -0.20814598754E+04  0.20814598754E+04  0.25500000920E-02 0. -1.
    10030    2    1    2    0    0  0.00000000000E+00  0.00000000000E+00 -0.13307549177E+04  0.28321648331E+04  0.25000497977E+04 0.  0.
        2    1    3    3  502    0 -0.23419179347E+03 -0.85700635277E+01 -0.20563518204E+04  0.20696623037E+04  0.25500000920E-02 0. -1.
       -2    1    3    3    0  502  0.23419179347E+03  0.85700635277E+01  0.72559690272E+03  0.76250252942E+03  0.25500000920E-02 0.  1.
</event>
<event>
 5   0  0.1501747E-06  0.2497906E+04  0.7818609E-02  0.8403732E-01
        1   -1    0    0  501    0  0.00000000000E+00  0.00000000000E+00  0.14626551061E+04  0.14626551061E+04  0.50400001928E-02 0. -1.
       -1   -1    0    0    0  501  0.00000000000E+00  0.00000000000E+00 -0.10664741361E+04  0.10664741361E+04  0.50400001928E-02 0.  1.
    10030    2    1    2    0    0  0.00000000000E+00  0.00000000000E+00  0.39618097001E+03  0.25291292422E+04  0.24979061958E+04 0.  0.
        2    1    3    3  502    0  0.24212028087E+03  0.10773588194E+04  0.78895982003E+03  0.13571226377E+04  0.25500000920E-02 0. -1.
       -2    1    3    3    0  502 -0.24212028087E+03 -0.10773588194E+04 -0.39277885002E+03  0.11720066045E+04  0.25500000920E-02 0.  1.
</event>
<event>
 5   0  0.1519145E-06  0.2500411E+04  0.7818609E-02  0.8402839E-01
        1   -1    0    0  501    0  0.00000000000E+00  0.00000000000E+00  0.12627766959E+04  0.12627766960E+04  0.50400001928E-02 0.  1.
       -1   -1    0    0    0  501  0.00000000000E+00  0.00000000000E+00 -0.12377596686E+04  0.12377596686E+04  0.50400001928E-02 0. -1.
    10030    2    1    2    0    0  0.00000000000E+00  0.00000000000E+00  0.25017027339E+02  0.25005363646E+04  0.25004112180E+04 0.  0.
        4    1    3    3  502    0  0.36603762426E+03 -0.10021669431E+04 -0.63920679260E+03  0.12437479893E+04  0.12699999809E+01 0. -1.
       -4    1    3    3    0  502 -0.36603762426E+03  0.10021669431E+04  0.66422381994E+03  0.12567883753E+04  0.12699999809E+01 0.  1.
</event>
<event>
 5   0  0.3808293E-06  0.2521510E+04  0.7818609E-02  0.8395362E-01
       -2   -1    0    0    0  501  0.00000000000E+00  0.00000000000E+00  0.16493681290E+04  0.16493681290E+04  0.25500000920E-02 0.  1.
        2   -1    0    0  501    0  0.00000000000E+00  0.00000000000E+00 -0.96370420408E+03  0.96370420408E+03  0.25500000920E-02 0. -1.
    10030    2    1    2    0    0  0.00000000000E+00  0.00000000000E+00  0.68566392490E+03  0.26130723331E+04  0.25215098651E+04 0.  0.
        1    1    3    3  502    0  0.48065807021E+03 -0.10704118300E+03 -0.85992160681E+03  0.99093650917E+03  0.50400001928E-02 0. -1.
       -1    1    3    3    0  502 -0.48065807021E+03  0.10704118300E+03  0.15455855317E+04  0.16221358239E+04  0.50400001928E-02 0.  1.
</event>
<event>
 5   0  0.3924441E-06  0.2499429E+04  0.7818609E-02  0.8403189E-01
       -2   -1    0    0    0  501  0.00000000000E+00  0.00000000000E+00  0.93479749369E+03  0.93479749369E+03  0.25500000920E-02 0. -1.
        2   -1    0    0  501    0  0.00000000000E+00  0.00000000000E+00 -0.16707217483E+04  0.16707217483E+04  0.25500000920E-02 0.  1.
    10030    2    1    2    0    0  0.00000000000E+00  0.00000000000E+00 -0.73592425460E+03  0.26055192420E+04  0.24994291372E+04 0.  0.
        2    1    3    3  502    0  0.62557376438E+03 -0.31436196169E+03 -0.14470926292E+04  0.16075581032E+04  0.25500000920E-02 0.  1.
       -2    1    3    3    0  502 -0.62557376438E+03  0.31436196169E+03  0.71116837456E+03  0.99796113883E+03  0.25500000920E-02 0. -1.
</event>
<event>
 5   0  0.1553604E-06  0.2524102E+04  0.7818609E-02  0.8394449E-01
       -1   -1    0    0    0  501  0.00000000000E+00  0.00000000000E+00  0.10086229704E+04  0.10086229704E+04  0.50400001928E-02 0. -1.
        1   -1    0    0  501    0  0.00000000000E+00  0.00000000000E+00 -0.15791562285E+04  0.15791562285E+04  0.50400001928E-02 0.  1.
    10030    2    1    2    0    0  0.00000000000E+00  0.00000000000E+00 -0.57053325806E+03  0.25877791989E+04  0.25241024115E+04 0.  0.
        1    1    3    3  502    0  0.66212064944E+03 -0.10740895020E+04 -0.25811777794E+03  0.12879040337E+04  0.50400001928E-02 0. -1.
       -1    1    3    3    0  502 -0.66212064944E+03  0.10740895020E+04 -0.31241548012E+03  0.12998751652E+04  0.50400001928E-02 0.  1.
</event>
<event>
 5   0  0.1501747E-06  0.2500365E+04  0.7818609E-02  0.8402856E-01
        1   -1    0    0  501    0  0.00000000000E+00  0.00000000000E+00  0.11835034783E+04  0.11835034783E+04  0.50400001928E-02 0. -1.
       -1   -1    0    0    0  501  0.00000000000E+00  0.00000000000E+00 -0.13206178505E+04  0.13206178505E+04  0.50400001928E-02 0.  1.
    10030    2    1    2    0    0  0.00000000000E+00  0.00000000000E+00 -0.13711437223E+03  0.25041213288E+04  0.25003646291E+04 0.  0.
        2    1    3    3  502    0  0.35227676695E+03  0.90291287404E+03  0.72231608659E+03  0.12087560166E+04  0.25500000920E-02 0. -1.
       -2    1    3    3    0  502 -0.35227676695E+03 -0.90291287404E+03 -0.85943045882E+03  0.12953653123E+04  0.25500000920E-02 0.  1.
</event>
<event>
 5   0  0.3808293E-06  0.2503981E+04  0.7818609E-02  0.8401569E-01
       -2   -1    0    0    0  501  0.00000000000E+00  0.00000000000E+00  0.11989038219E+04  0.11989038219E+04  0.25500000920E-02 0.  1.
        2   -1    0    0  501    0  0.00000000000E+00  0.00000000000E+00 -0.13074274431E+04  0.13074274431E+04  0.25500000920E-02 0. -1.
    10030    2    1    2    0    0  0.00000000000E+00  0.00000000000E+00 -0.10852362128E+03  0.25063312650E+04  0.25039806376E+04 0.  0.
        1    1    3    3  502    0  0.23095396052E+03 -0.10676924005E+04 -0.66653283603E+03  0.12796768403E+04  0.50400001928E-02 0.  1.
       -1    1    3    3    0  502 -0.23095396052E+03  0.10676924005E+04  0.55800921475E+03  0.12266544247E+04  0.50400001928E-02 0. -1.
</event>
<event>
 5   0  0.1501747E-06  0.2503072E+04  0.7818609E-02  0.8401892E-01
        1   -1    0    0  501    0  0.00000000000E+00  0.00000000000E+00  0.17666532605E+04  0.17666532605E+04  0.50400001928E-02 0.  1.
       -1   -1    0    0    0  501  0.00000000000E+00  0.00000000000E+00 -0.88661586859E+03  0.88661586861E+03  0.50400001928E-02 0. -1.
    10030    2    1    2    0    0  0.00000000000E+00  0.00000000000E+00  0.88003739192E+03  0.26532691291E+04  0.25030723642E+04 0.  0.
        2    1    3    3  502    0  0.11619502092E+04  0.29780356726E+03  0.61480309063E+02  0.12010807973E+04  0.25500000920E-02 0.  1.
       -2    1    3    3    0  502 -0.11619502092E+04 -0.29780356726E+03  0.81855708286E+03  0.14521883318E+04  0.25500000920E-02 0. -1.
</event>
<event>
 5   0  0.1574896E-06  0.2495478E+04  0.7818609E-02  0.8404598E-01
       -1   -1    0    0    0  501  0.00000000000E+00  0.00000000000E+00  0.48186973710E+03  0.48186973712E+03  0.50400001928E-02 0.  1.
        1   -1    0    0  501    0  0.00000000000E+00  0.00000000000E+00 -0.32308576047E+04  0.32308576047E+04  0.50400001928E-02 0. -1.
    10030    2    1    2    0    0  0.00000000000E+00  0.00000000000E+00 -0.27489878676E+04  0.37127273418E+04  0.24954779139E+04 0.  0.
        3    1    3    3  502    0 -0.30144265860E+03 -0.81291537089E+03 -0.39501985906E+02  0.86790523316E+03  0.10100000352E+00 0.  1.
       -3    1    3    3    0  502  0.30144265860E+03  0.81291537089E+03 -0.27094858817E+04  0.28448221087E+04  0.10100000352E+00 0. -1.
</event>
<event>
 5   0  0.3808293E-06  0.2498902E+04  0.7818609E-02  0.8403377E-01
        2   -1    0    0  501    0  0.00000000000E+00  0.00000000000E+00  0.13094432769E+04  0.13094432769E+04  0.25500000920E-02 0. -1.
       -2   -1    0    0    0  501  0.00000000000E+00  0.00000000000E+00 -0.11922068761E+04  0.11922068761E+04  0.25500000920E-02 0.  1.
    10030    2    1    2    0    0  0.00000000000E+00  0.00000000000E+00  0.11723640075E+03  0.25016501530E+04  0.24989015816E+04 0.  0.
        1    1    3    3  502    0 -0.26111289373E+03  0.41122578739E+03  0.12104664998E+04  0.13048048661E+04  0.50400001928E-02 0. -1.
       -1    1    3    3    0  502  0.26111289373E+03 -0.41122578739E+03 -0.10932300990E+04  0.11968452870E+04  0.50400001928E-02 0.  1.
</event>
<event>
 5   0  0.3971759E-06  0.2499424E+04  0.7818609E-02  0.8403191E-01
        2   -1    0    0  501    0  0.00000000000E+00  0.00000000000E+00  0.14739806691E+04  0.14739806691E+04  0.25500000920E-02 0.  1.
       -2   -1    0    0    0  501  0.00000000000E+00  0.00000000000E+00 -0.10595661898E+04  0.10595661898E+04  0.25500000920E-02 0. -1.
    10030    2    1    2    0    0  0.00000000000E+00  0.00000000000E+00  0.41441447930E+03  0.25335468590E+04  0.24994239989E+04 0.  0.
        4    1    3    3  502    0  0.33941736620E+03  0.19736204211E+03 -0.99542298004E+03  0.10700581509E+04  0.12699999809E+01 0. -1.
       -4    1    3    3    0  502 -0.33941736620E+03 -0.19736204211E+03  0.14098374593E+04  0.14634887081E+04  0.12699999809E+01 0.  1.
</event>
<event>
 5   0  0.3971759E-06  0.2510129E+04  0.7818609E-02  0.8399386E-01
        2   -1    0    0  501    0  0.00000000000E+00  0.00000000000E+00  0.12661162382E+04  0.12661162382E+04  0.25500000920E-02 0. -1.
       -2   -1    0    0    0  501  0.00000000000E+00  0.00000000000E+00 -0.12441088234E+04  0.12441088234E+04  0.25500000920E-02 0.  1.
    10030    2    1    2    0    0  0.00000000000E+00  0.00000000000E+00  0.22007414848E+02  0.25102250616E+04  0.25101285890E+04 0.  0.
        4    1    3    3  502    0 -0.11936472252E+03 -0.12391937317E+04  0.17018183527E+03  0.12565080627E+04  0.12699999809E+01 0.  1.
       -4    1    3    3    0  502  0.11936472252E+03  0.12391937317E+04 -0.14817442043E+03  0.12537169989E+04  0.12699999809E+01 0. -1.
</event>
<event>
 5   0  0.3713394E-06  0.2503854E+04  0.7818609E-02  0.8401614E-01
       -2   -1    0    0    0  501  0.00000000000E+00  0.00000000000E+00  0.12108083024E+04  0.12108083024E+04  0.25500000920E-02 0.  1.
        2   -1    0    0  501    0  0.00000000000E+00  0.00000000000E+00 -0.12944422324E+04  0.12944422324E+04  0.25500000920E-02 0. -1.
    10030    2    1    2    0    0  0.00000000000E+00  0.00000000000E+00 -0.83633929953E+02  0.25052505348E+04  0.25038541507E+04 0.  0.
        3    1    3    3  502    0 -0.46274839172E+03 -0.99927025180E+03  0.55403533029E+03  0.12327336564E+04  0.10100000352E+00 0.  1.
       -3    1    3    3    0  502  0.46274839172E+03  0.99927025180E+03 -0.63766926025E+03  0.12725168784E+04  0.10100000352E+00 0. -1.
</event>
<event>
 5   0  0.1553604E-06  0.2504476E+04  0.7818609E-02  0.8401393E-01
       -1   -1    0    0    0  501  0.00000000000E+00  0.00000000000E+00  0.15394624558E+04  0.15394624558E+04  0.50400001928E-02 0.  1.
        1   -1    0    0  501    0  0.00000000000E+00  0.00000000000E+00 -0.10186024723E+04  0.10186024723E+04  0.50400001928E-02 0. -1.
    10030    2    1    2    0    0  0.00000000000E+00  0.00000000000E+00  0.52085998352E+03  0.25580649282E+04  0.25044762036E+04 0.  0.
        1    1    3    3  502    0  0.93236086385E+03 -0.53286479086E+03 -0.39744700536E+03  0.11450789439E+04  0.50400001928E-02 0. -1.
       -1    1    3    3    0  502 -0.93236086385E+03  0.53286479086E+03  0.91830698888E+03  0.14129859842E+04  0.50400001928E-02 0.  1.
</event>
<event>
 5   0  0.3924441E-06  0.2494414E+04  0.7818609E-02  0.8404978E-01
       -2   -1    0    0    0  501  0.00000000000E+00  0.00000000000E+00  0.65752712800E+03  0.65752712800E+03  0.25500000920E-02 0.  1.
        2   -1    0    0  501    0  0.00000000000E+00  0.00000000000E+00 -0.23657205551E+04  0.23657205551E+04  0.25500000920E-02 0. -1.
    10030    2    1    2    0    0  0.00000000000E+00  0.00000000000E+00 -0.17081934271E+04  0.30232476831E+04  0.24944141134E+04 0.  0.
        2    1    3    3  502    0  0.15009097114E+03 -0.95962686208E+03 -0.18023437233E+04  0.20474017464E+04  0.25500000920E-02 0. -1.
       -2    1    3    3    0  502 -0.15009097114E+03  0.95962686208E+03  0.94150296170E+02  0.97584593678E+03  0.25500000920E-02 0.  1.
</event>
<event>
 5   0  0.3808293E-06  0.2498183E+04  0.7818609E-02  0.8403633E-01
       -2   -1    0    0    0  501  0.00000000000E+00  0.00000000000E+00  0.66489721768E+03  0.66489721769E+03  0.25500000920E-02 0. -1.
        2   -1    0    0  501    0  0.00000000000E+00  0.00000000000E+00 -0.23465717242E+04  0.23465717242E+04  0.25500000920E-02 0.  1.
    10030    2    1    2    0    0  0.00000000000E+00  0.00000000000E+00 -0.16816745065E+04  0.30114689419E+04  0.24981825478E+04 0.  0.
        1    1    3    3  502    0  0.50284020153E+02  0.10773898156E+04 -0.16003098665E+04  0.19298416946E+04  0.50400001928E-02 0.  1.
       -1    1    3    3    0  502 -0.50284020153E+02 -0.10773898156E+04 -0.81364640054E+02  0.10816272473E+04  0.50400001928E-02 0. -1.
</event>
<event>
 5   0  0.1501747E-06  0.2503146E+04  0.7818609E-02  0.8401866E-01
       -1   -1    0    0    0  501  0.00000000000E+00  0.00000000000E+00  0.11356708768E+04  0.11356708768E+04  0.50400001928E-02 0. -1.
        1   -1    0    0  501    0  0.00000000000E+00  0.00000000000E+00 -0.13793039753E+04  0.13793039753E+04  0.50400001928E-02 0.  1.
    10030    2    1    2    0    0  0.00000000000E+00  0.00000000000E+00 -0.24363309849E+03  0.25149748520E+04  0.25031463041E+04 0.  0.
        2    1    3    3  502    0  0.11528503478E+04  0.48317990890E+03 -0.59002272604E+02  0.12514024201E+04  0.25500000920E-02 0.  1.
       -2    1    3    3    0  502 -0.11528503478E+04 -0.48317990890E+03 -0.18463082588E+03  0.12635724319E+04  0.25500000920E-02 0. -1.
</event>
<event>
 5   0  0.1501747E-06  0.2503163E+04  0.7818609E-02  0.8401860E-01
       -1   -1    0    0    0  501  0.00000000000E+00  0.00000000000E+00  0.71942440884E+03  0.71942440886E+03  0.50400001928E-02 0. -1.
        1   -1    0    0  501    0  0.00000000000E+00  0.00000000000E+00 -0.21773738125E+04  0.21773738125E+04  0.50400001928E-02 0.  1.
    10030    2    1    2    0    0  0.00000000000E+00  0.00000000000E+00 -0.14579494036E+04  0.28967982213E+04  0.25031626938E+04 0.  0.
        2    1    3    3  502    0  0.31012973998E+03  0.11967985767E+04 -0.95441260004E+03  0.15618612934E+04  0.25500000920E-02 0.  1.
       -2    1    3    3    0  502 -0.31012973998E+03 -0.11967985767E+04 -0.50353680357E+03  0.13349369279E+04  0.25500000920E-02 0. -1.
</event>
<event>
 5   0  0.3808293E-06  0.2495223E+04  0.7818609E-02  0.8404689E-01
        2   -1    0    0  501    0  0.00000000000E+00  0.00000000000E+00  0.95349154544E+03  0.95349154545E+03  0.25500000920E-02 0.  1.
       -2   -1    0    0    0  501  0.00000000000E+00  0.00000000000E+00 -0.16324571841E+04  0.16324571841E+04  0.25500000920E-02 0. -1.
    10030    2    1    2    0    0  0.00000000000E+00  0.00000000000E+00 -0.67896563861E+03  0.25859487295E+04  0.24952227342E+04 0.  0.
        1    1    3    3  502    0 -0.81852083184E+03  0.35571713279E+03  0.56400850251E+03  0.10557540536E+04  0.50400001928E-02 0.  1.
       -1    1    3    3    0  502  0.81852083184E+03 -0.35571713279E+03 -0.12429741411E+04  0.15301946759E+04  0.50400001928E-02 0. -1.
</event>
<event>
 5   0  0.3971759E-06  0.2495719E+04  0.7818609E-02  0.8404512E-01
        2   -1    0    0  501    0  0.00000000000E+00  0.00000000000E+00  0.18721842835E+04  0.18721842835E+04  0.25500000920E-02 0. -1.
       -2   -1    0    0    0  501  0.00000000000E+00  0.00000000000E+00 -0.83173098304E+03  0.83173098305E+03  0.25500000920E-02 0.  1.
    10030    2    1    2    0    0  0.00000000000E+00  0.00000000000E+00  0.10404533005E+04  0.27039152666E+04  0.24957192747E+04 0.  0.
        4    1    3    3  502    0 -0.20447256105E+03 -0.75145231336E+03  0.15765831668E+04  0.17584384272E+04  0.12699999809E+01 0. -1.
       -4    1    3    3    0  502  0.20447256105E+03  0.75145231336E+03 -0.53612986627E+03  0.94547683942E+03  0.12699999809E+01 0.  1.
</event>
<event>
 5   0  0.3971759E-06  0.2514446E+04  0.7818609E-02  0.8397857E-01
        2   -1    0    0  501    0  0.00000000000E+00  0.00000000000E+00  0.17349158485E+04  0.17349158485E+04  0.25500000920E-02 0. -1.
       -2   -1    0    0    0  501  0.00000000000E+00  0.00000000000E+00 -0.91105874696E+03  0.91105874697E+03  0.25500000920E-02 0.  1.
    10030    2    1    2    0    0  0.00000000000E+00  0.00000000000E+00  0.82385710157E+03  0.26459745955E+04  0.25144464672E+04 0.  0.
        4    1    3    3  502    0  0.75763738598E+02 -0.92273884860E+03 -0.48310432524E+03  0.10443076792E+04  0.12699999809E+01 0.  1.
       -4    1    3    3    0  502 -0.75763738598E+02  0.92273884860E+03  0.13069614268E+04  0.16016669163E+04  0.12699999809E+01 0. -1.
</event>
<event>
 5   0  0.1574896E-06  0.2537726E+04  0.7818609E-02  0.8389667E-01
       -1   -1    0    0    0  501  0.00000000000E+00  0.00000000000E+00  0.90647077549E+03  0.90647077551E+03  0.50400001928E-02 0.  1.
        1   -1    0    0  501    0  0.00000000000E+00  0.00000000000E+00 -0.17761334551E+04  0.17761334551E+04  0.50400001928E-02 0. -1.
    10030    2    1    2    0    0  0.00000000000E+00  0.00000000000E+00 -0.86966267964E+03  0.26826042307E+04  0.25377258091E+04 0.  0.
        3    1    3    3  502    0 -0.78306319019E+03  0.49441677534E+03  0.48208499154E+03  0.10440506965E+04  0.10100000352E+00 0.  1.
       -3    1    3    3    0  502  0.78306319019E+03 -0.49441677534E+03 -0.13517476712E+04  0.16385535342E+04  0.10100000352E+00 0. -1.
</event>
<event>
 5   0  0.1541852E-06  0.2501430E+04  0.7818609E-02  0.8402476E-01
        1   -1    0    0  501    0  0.00000000000E+00  0.00000000000E+00  0.16617640300E+04  0.16617640300E+04  0.50400001928E-02 0.  1.
       -1   -1    0    0    0  501  0.00000000000E+00  0.00000000000E+00 -0.94134195184E+03  0.94134195185E+03  0.50400001928E-02 0. -1.
    10030    2    1    2    0    0  0.00000000000E+00  0.00000000000E+00  0.72042207819E+03  0.26031059819E+04  0.25014301474E+04 0.  0.
        5    1    3    3  502    0 -0.84906595781E+03 -0.58734266215E+03  0.10948678597E+04  0.15048727932E+04  0.46999998093E+01 0.  1.
       -5    1    3    3    0  502  0.84906595781E+03  0.58734266215E+03 -0.37444578149E+03  0.10982331887E+04  0.46999998093E+01 0. -1.
</event>
<event>
 5   0  0.3924441E-06  0.2499514E+04  0.7818609E-02  0.8403159E-01
        2   -1    0    0  501    0  0.00000000000E+00  0.00000000000E+00  0.18377555339E+04  0.18377555339E+04  0.25500000920E-02 0.  1.
       -2   -1    0    0    0  501  0.00000000000E+00  0.00000000000E+00 -0.84989161415E+03  0.84989161415E+03  0.25500000920E-02 0. -1.
    10030    2    1    2    0    0  0.00000000000E+00  0.00000000000E+00  0.98786391971E+03  0.26876471480E+04  0.24995143665E+04 0.  0.
        2    1    3    3  502    0 -0.43426891339E+03  0.56218789579E+03 -0.61168606680E+03  0.93744576570E+03  0.25500000920E-02 0. -1.
       -2    1    3    3    0  502  0.43426891339E+03 -0.56218789579E+03  0.15995499865E+04  0.17502013823E+04  0.25500000920E-02 0.  1.
</event>
<event>
 5   0  0.1501747E-06  0.2504038E+04  0.7818609E-02  0.8401548E-01
        1   -1    0    0  501    0  0.00000000000E+00  0.00000000000E+00  0.10054432986E+04  0.10054432986E+04  0.50400001928E-02 0. -1.
       -1   -1    0    0    0  501  0.00000000000E+00  0.00000000000E+00 -0.15590653344E+04  0.15590653344E+04  0.50400001928E-02 0.  1.
    10030    2    1    2    0    0  0.00000000000E+00  0.00000000000E+00 -0.55362203577E+03  0.25645086330E+04  0.25040381727E+04 0.  0.
        2    1    3    3  502    0  0.10088027357E+02 -0.61155092577E+03  0.84202472838E+03  0.10407218391E+04  0.25500000920E-02 0. -1.
       -2    1    3    3    0  502 -0.10088027357E+02  0.61155092577E+03 -0.13956467641E+04  0.15237867939E+04  0.25500000920E-02 0.  1.
</event>
<event>
 5   0  0.1501747E-06  0.2512054E+04  0.7818609E-02  0.8398704E-01
       -1   -1    0    0    0  501  0.00000000000E+00  0.00000000000E+00  0.12510192008E+04  0.12510192008E+04  0.50400001928E-02 0. -1.
        1   -1    0    0  501    0  0.00000000000E+00  0.00000000000E+00 -0.12610550639E+04  0.12610550639E+04  0.50400001928E-02 0.  1.
    10030    2    1    2    0    0  0.00000000000E+00  0.00000000000E+00 -0.10035863085E+02  0.25120742647E+04  0.25120542177E+04 0.  0.
        2    1    3    3  502    0 -0.29053687005E+03 -0.16804118211E+03 -0.12153806739E+04  0.12608725924E+04  0.25500000920E-02 0.  1.
       -2    1    3    3    0  502  0.29053687005E+03  0.16804118211E+03  0.12053448108E+04  0.12512016723E+04  0.25500000920E-02 0. -1.
</event>
<event>
 5   0  0.1553604E-06  0.2504505E+04  0.7818609E-02  0.8401382E-01
        1   -1    0    0  501    0  0.00000000000E+00  0.00000000000E+00  0.24477002127E+04  0.24477002127E+04  0.50400001928E-02 0.  1.
       -1   -1    0    0    0  501  0.00000000000E+00  0.00000000000E+00 -0.64065710554E+03  0.64065710556E+03  0.50400001928E-02 0. -1.
    10030    2    1    2    0    0  0.00000000000E+00  0.00000000000E+00  0.18070431072E+04  0.30883573183E+04  0.25045051675E+04 0.  0.
        1    1    3    3  502    0  0.34710079074E+03  0.86018058946E+03  0.19409176422E+04  0.21511743070E+04  0.50400001928E-02 0.  1.
       -1    1    3    3    0  502 -0.34710079074E+03 -0.86018058946E+03 -0.13387453501E+03  0.93718301125E+03  0.50400001928E-02 0. -1.
</event>
<event>
 5   0  0.3924441E-06  0.2504743E+04  0.7818609E-02  0.8401298E-01
        2   -1    0    0  501    0  0.00000000000E+00  0.00000000000E+00  0.20838485335E+04  0.20838485335E+04  0.25500000920E-02 0.  1.
       -2   -1    0    0    0  501  0.00000000000E+00  0.00000000000E+00 -0.75266258427E+03  0.75266258428E+03  0.25500000920E-02 0. -1.
    10030    2    1    2    0    0  0.00000000000E+00  0.00000000000E+00  0.13311859492E+04  0.28365111178E+04  0.25047433581E+04 0.  0.
        2    1    3    3  502    0 -0.36403922661E+03  0.11547924289E+04  0.30326957123E+03  0.12482157446E+04  0.25500000920E-02 0.  1.
       -2    1    3    3    0  502  0.36403922661E+03 -0.11547924289E+04  0.10279163780E+04  0.15882953732E+04  0.25500000920E-02 0. -1.
</event>
<event>
 5   0  0.3971759E-06  0.2499577E+04  0.7818609E-02  0.8403136E-01
       -2   -1    0    0    0  501  0.00000000000E+00  0.00000000000E+00  0.16744574813E+04  0.16744574813E+04  0.25500000920E-02 0. -1.
        2   -1    0    0  501    0  0.00000000000E+00  0.00000000000E+00 -0.93282258242E+03  0.93282258242E+03  0.25500000920E-02 0.  1.
    10030    2    1    2    0    0  0.00000000000E+00  0.00000000000E+00  0.74163489889E+03  0.26072800637E+04  0.24995773658E+04 0.  0.
        4    1    3    3  502    0 -0.23597328802E+03  0.29664720858E+03 -0.87141591384E+03  0.95028956998E+03  0.12699999809E+01 0.  1.
       -4    1    3    3    0  502  0.23597328802E+03 -0.29664720858E+03  0.16130508127E+04  0.16569904938E+04  0.12699999809E+01 0. -1.
</event>
<event>
 5   0  0.1553604E-06  0.2508035E+04  0.7818609E-02  0.8400129E-01
       -1   -1    0    0    0  501  0.00000000000E+00  0.00000000000E+00  0.15068235013E+04  0.15068235013E+04  0.50400001928E-02 0. -1.
        1   -1    0    0  501    0  0.00000000000E+00  0.00000000000E+00 -0.10436257626E+04  0.10436257626E+04  0.50400001928E-02 0.  1.
    10030    2    1    2    0    0  0.00000000000E+00  0.00000000000E+00  0.46319773869E+03  0.25504492640E+04  0.25080349485E+04 0.  0.
        1    1    3    3  502    0 -0.69167661063E+03  0.88931125973E+03  0.79161037953E+03  0.13769306603E+04  0.50400001928E-02 0. -1.
       -1    1    3    3    0  502  0.69167661063E+03 -0.88931125973E+03 -0.32841264084E+03  0.11735186036E+04  0.50400001928E-02 0.  1.
</event>
<event>
 5   0  0.3808293E-06  0.2498362E+04  0.7818609E-02  0.8403569E-01
        2   -1    0    0  501    0  0.00000000000E+00  0.00000000000E+00  0.13802962421E+04  0.13802962421E+04  0.25500000920E-02 0. -1.
       -2   -1    0    0    0  501  0.00000000000E+00  0.00000000000E+00 -0.11305209011E+04  0.11305209011E+04  0.25500000920E-02 0.  1.
    10030    2    1    2    0    0  0.00000000000E+00  0.00000000000E+00  0.24977534105E+03  0.25108171432E+04  0.24983624648E+04 0.  0.
        1    1    3    3  502    0  0.49224420701E+03 -0.29354502119E+03 -0.99059182896E+03  0.11444410035E+04  0.50400001928E-02 0.  1.
       -1    1    3    3    0  502 -0.49224420701E+03  0.29354502119E+03  0.12403671700E+04  0.13663761397E+04  0.50400001928E-02 0. -1.
</event>
<event>
 5   0  0.1501747E-06  0.2502554E+04  0.7818609E-02  0.8402076E-01
       -1   -1    0    0    0  501  0.00000000000E+00  0.00000000000E+00  0.13951433271E+04  0.13951433271E+04  0.50400001928E-02 0.  1.
        1   -1    0    0  501    0  0.00000000000E+00  0.00000000000E+00 -0.11222458661E+04  0.11222458661E+04  0.50400001928E-02 0. -1.
    10030    2    1    2    0    0  0.00000000000E+00  0.00000000000E+00  0.27289746102E+03  0.25173891933E+04  0.25025537609E+04 0.  0.
        2    1    3    3  502    0 -0.11586075160E+04  0.28122447889E+03  0.51848328881E+03  0.13001090356E+04  0.25500000920E-02 0.  1.
       -2    1    3    3    0  502  0.11586075160E+04 -0.28122447889E+03 -0.24558582779E+03  0.12172801577E+04  0.25500000920E-02 0. -1.
</event>
<event>
 5   0  0.1553604E-06  0.2500407E+04  0.7818609E-02  0.8402841E-01
        1   -1    0    0  501    0  0.00000000000E+00  0.00000000000E+00  0.13144163652E+04  0.13144163652E+04  0.50400001928E-02 0. -1.
       -1   -1    0    0    0  501  0.00000000000E+00  0.00000000000E+00 -0.11891272500E+04  0.11891272500E+04  0.50400001928E-02 0.  1.
    10030    2    1    2    0    0  0.00000000000E+00  0.00000000000E+00  0.12528911527E+03  0.25035436152E+04  0.25004066211E+04 0.  0.
        1    1    3    3  502    0  0.33298726091E+03  0.86848815251E+03  0.89907045440E+03  0.12936304994E+04  0.50400001928E-02 0. -1.
       -1    1    3    3    0  502 -0.33298726091E+03 -0.86848815251E+03 -0.77378133913E+03  0.12099131158E+04  0.50400001928E-02 0.  1.
</event>
<event>
 5   0  0.1574896E-06  0.2501855E+04  0.7818609E-02  0.8402325E-01
        1   -1    0    0  501    0  0.00000000000E+00  0.00000000000E+00  0.16407280720E+04  0.16407280720E+04  0.50400001928E-02 0. -1.
       -1   -1    0    0    0  501  0.00000000000E+00  0.00000000000E+00 -0.95373458872E+03  0.95373458873E+03  0.50400001928E-02 0.  1.
    10030    2    1    2    0    0  0.00000000000E+00  0.00000000000E+00  0.68699348330E+03  0.25944626608E+04  0.25018546025E+04 0.  0.
        3    1    3    3  502    0  0.84609560032E+03  0.42916530430E+03 -0.50201044033E+03  0.10733476211E+04  0.10100000352E+00 0.  1.
       -3    1    3    3    0  502 -0.84609560032E+03 -0.42916530430E+03  0.11890039236E+04  0.15211150397E+04  0.10100000352E+00 0. -1.
</event>
<event>
 5   0  0.1553604E-06  0.2502339E+04  0.7818609E-02  0.8402153E-01
        1   -1    0    0  501    0  0.00000000000E+00  0.00000000000E+00  0.15876082442E+04  0.15876082442E+04  0.50400001928E-02 0. -1.
       -1   -1    0    0    0  501  0.00000000000E+00  0.00000000000E+00 -0.98602709613E+03  0.98602709614E+03  0.50400001928E-02 0.  1.
    10030    2    1    2    0    0  0.00000000000E+00  0.00000000000E+00  0.60158114805E+03  0.25736353403E+04  0.25023387035E+04 0.  0.
        1    1    3    3  502    0  0.69813573081E+03  0.80096839091E+03  0.98028129886E+03  0.14456470132E+04  0.50400001928E-02 0.  1.
       -1    1    3    3    0  502 -0.69813573081E+03 -0.80096839091E+03 -0.37870015081E+03  0.11279883271E+04  0.50400001928E-02 0. -1.
</event>
<event>
 5   0  0.1553604E-06  0.2501242E+04  0.7818609E-02  0.8402543E-01
       -1   -1    0    0    0  501  0.00000000000E+00  0.00000000000E+00  0.10220055619E+04  0.10220055619E+04  0.50400001928E-02 0.  1.
        1   -1    0    0  501    0  0.00000000000E+00  0.00000000000E+00 -0.15303755902E+04  0.15303755902E+04  0.50400001928E-02 0. -1.
    10030    2    1    2    0    0  0.00000000000E+00  0.00000000000E+00 -0.50837002832E+03  0.25523811521E+04  0.25012415837E+04 0.  0.
        1    1    3    3  502    0  0.79899391032E+03  0.79176568456E+03 -0.81195747998E+03  0.13872848004E+04  0.50400001928E-02 0. -1.
       -1    1    3    3    0  502 -0.79899391032E+03 -0.79176568456E+03  0.30358745166E+03  0.11650963517E+04  0.50400001928E-02 0.  1.
</event>
<event>
 5   0  0.1501747E-06  0.2486948E+04  0.7818609E-02  0.8407650E-01
        1   -1    0    0  501    0  0.00000000000E+00  0.00000000000E+00  0.18942429114E+04  0.18942429114E+04  0.50400001928E-02 0.  1.
       -1   -1    0    0    0  501  0.00000000000E+00  0.00000000000E+00 -0.81627734235E+03  0.81627734236E+03  0.50400001928E-02 0. -1.
    10030    2    1    2    0    0  0.00000000000E+00  0.00000000000E+00  0.10779655691E+04  0.27105202538E+04  0.24869479846E+04 0.  0.
        2    1    3    3  502    0 -0.85697992294E+03  0.81429325098E+03  0.95932120517E+03  0.15224274241E+04  0.25500000920E-02 0.  1.
       -2    1    3    3    0  502  0.85697992294E+03 -0.81429325098E+03  0.11864436392E+03  0.11880928297E+04  0.25500000920E-02 0. -1.
</event>
<event>
 5   0  0.1553604E-06  0.2494681E+04  0.7818609E-02  0.8404883E-01
       -1   -1    0    0    0  501  0.00000000000E+00  0.00000000000E+00  0.12624681966E+04  0.12624681966E+04  0.50400001928E-02 0.  1.
        1   -1    0    0  501    0  0.00000000000E+00  0.00000000000E+00 -0.12323937122E+04  0.12323937122E+04  0.50400001928E-02 0. -1.
    10030    2    1    2    0    0  0.00000000000E+00  0.00000000000E+00  0.30074484406E+02  0.24948619088E+04  0.24946806347E+04 0.  0.
        1    1    3    3  502    0  0.51453033296E+03 -0.10942296677E+04  0.32129116806E+03  0.12511227134E+04  0.50400001928E-02 0.  1.
       -1    1    3    3    0  502 -0.51453033296E+03  0.10942296677E+04 -0.29121668365E+03  0.12437391954E+04  0.50400001928E-02 0. -1.
</event>
<event>
 5   0  0.3924441E-06  0.2500685E+04  0.7818609E-02  0.8402741E-01
        2   -1    0    0  501    0  0.00000000000E+00  0.00000000000E+00  0.13789387276E+04  0.13789387276E+04  0.25500000920E-02 0. -1.
       -2   -1    0    0    0  501  0.00000000000E+00  0.00000000000E+00 -0.11337392080E+04  0.11337392080E+04  0.25500000920E-02 0.  1.
    10030    2    1    2    0    0  0.00000000000E+00  0.00000000000E+00  0.24519951957E+03  0.25126779356E+04  0.25006854268E+04 0.  0.
        2    1    3    3  502    0  0.29841067625E+03 -0.31542924767E+03  0.13007467463E+04  0.13713083680E+04  0.25500000920E-02 0. -1.
       -2    1    3    3    0  502 -0.29841067625E+03  0.31542924767E+03 -0.10555472268E+04  0.11413695676E+04  0.25500000920E-02 0.  1.
</event>
<event>
 5   0  0.1501747E-06  0.2502043E+04  0.7818609E-02  0.8402258E-01
        1   -1    0    0  501    0  0.00000000000E+00  0.00000000000E+00  0.12827886679E+04  0.12827886680E+04  0.50400001928E-02 0. -1.
       -1   -1    0    0    0  501  0.00000000000E+00  0.00000000000E+00 -0.12200410965E+04  0.12200410965E+04  0.50400001928E-02 0.  1.
    10030    2    1    2    0    0  0.00000000000E+00  0.00000000000E+00  0.62747571419E+02  0.25028297645E+04  0.25020430796E+04 0.  0.
        2    1    3    3  502    0 -0.10822556480E+04  0.48736184477E+03  0.42679041689E+03  0.12613282346E+04  0.25500000920E-02 0. -1.
       -2    1    3    3    0  502  0.10822556480E+04 -0.48736184477E+03 -0.36404284547E+03  0.12415015299E+04  0.25500000920E-02 0.  1.
</event>
<event>
 5   0  0.1541852E-06  0.2500338E+04  0.7818609E-02  0.8402865E-01
        1   -1    0    0  501    0  0.00000000000E+00  0.00000000000E+00  0.12827524781E+04  0.12827524781E+04  0.50400001928E-02 0.  1.
       -1   -1    0    0    0  501  0.00000000000E+00  0.00000000000E+00 -0.12184133028E+04  0.12184133028E+04  0.50400001928E-02 0. -1.
    10030    2    1    2    0    0  0.00000000000E+00  0.00000000000E+00  0.64339175342E+02  0.25011657809E+04  0.25003381239E+04 0.  0.
        5    1    3    3  502    0 -0.10076395866E+04 -0.63189597295E+03 -0.35301700744E+03  0.12406744757E+04  0.46999998093E+01 0.  1.
       -5    1    3    3    0  502  0.10076395866E+04  0.63189597295E+03  0.41735618278E+03  0.12604913052E+04  0.46999998093E+01 0. -1.
</event>
<event>
 5   0  0.3808293E-06  0.2497594E+04  0.7818609E-02  0.8403843E-01
        2   -1    0    0  501    0  0.00000000000E+00  0.00000000000E+00  0.11663300325E+04  0.11663300325E+04  0.25500000920E-02 0. -1.
       -2   -1    0    0    0  501  0.00000000000E+00  0.00000000000E+00 -0.13370950286E+04  0.13370950286E+04  0.25500000920E-02 0.  1.
    10030    2    1    2    0    0  0.00000000000E+00  0.00000000000E+00 -0.17076499608E+03  0.25034250611E+04  0.24975941129E+04 0.  0.
        1    1    3    3  502    0  0.63996741151E+03 -0.22368793429E+03  0.96582690614E+03  0.11800068612E+04  0.50400001928E-02 0. -1.
       -1    1    3    3    0  502 -0.63996741151E+03  0.22368793429E+03 -0.11365919022E+04  0.13234181999E+04  0.50400001928E-02 0.  1.
</event>
<event>
 5   0  0.3808293E-06  0.2500186E+04  0.7818609E-02  0.8402919E-01
        2   -1    0    0  501    0  0.00000000000E+00  0.00000000000E+00  0.17006708258E+04  0.17006708258E+04  0.25500000920E-02 0. -1.
       -2   -1    0    0    0  501  0.00000000000E+00  0.00000000000E+00 -0.91889211124E+03  0.91889211124E+03  0.25500000920E-02 0.  1.
    10030    2    1    2    0    0  0.00000000000E+00  0.00000000000E+00  0.78177871459E+03  0.26195629371E+04  0.25001863976E+04 0.  0.
        1    1    3    3  502    0  0.94505303965E+03 -0.80369433406E+03  0.55213070299E+03  0.13579021112E+04  0.50400001928E-02 0. -1.
       -1    1    3    3    0  502 -0.94505303965E+03  0.80369433406E+03  0.22964801160E+03  0.12616608259E+04  0.50400001928E-02 0.  1.
</event>
<event>
 5   0  0.3924441E-06  0.2502776E+04  0.7818609E-02  0.8401997E-01
       -2   -1    0    0    0  501  0.00000000000E+00  0.00000000000E+00  0.20057184393E+04  0.20057184393E+04  0.25500000920E-02 0. -1.
        2   -1    0    0  501    0  0.00000000000E+00  0.00000000000E+00 -0.78075387661E+03  0.78075387661E+03  0.25500000920E-02 0.  1.
    10030    2    1    2    0    0  0.00000000000E+00  0.00000000000E+00  0.12249645627E+04  0.27864723159E+04  0.25027764158E+04 0.  0.
        2    1    3    3  502    0  0.11742304799E+04 -0.23321256837E+03  0.10181570098E+04  0.15715753302E+04  0.25500000920E-02 0. -1.
       -2    1    3    3    0  502 -0.11742304799E+04  0.23321256837E+03  0.20680755290E+03  0.12148969857E+04  0.25500000920E-02 0.  1.
</event>
<event>
 5   0  0.3814260E-06  0.2498736E+04  0.7818609E-02  0.8403436E-01
       -2   -1    0    0    0  501  0.00000000000E+00  0.00000000000E+00  0.18153114446E+04  0.18153114446E+04  0.25500000920E-02 0. -1.
        2   -1    0    0  501    0  0.00000000000E+00  0.00000000000E+00 -0.85986337638E+03  0.85986337639E+03  0.25500000920E-02 0.  1.
    10030    2    1    2    0    0  0.00000000000E+00  0.00000000000E+00  0.95544806823E+03  0.26751748210E+04  0.24987355426E+04 0.  0.
        5    1    3    3  502    0  0.12361992549E+04 -0.14955264368E+03  0.36884150052E+03  0.12986996318E+04  0.46999998093E+01 0. -1.
       -5    1    3    3    0  502 -0.12361992549E+04  0.14955264368E+03  0.58660656770E+03  0.13764751892E+04  0.46999998093E+01 0.  1.
</event>
<event>
 5   0  0.1519145E-06  0.2503838E+04  0.7818609E-02  0.8401619E-01
        1   -1    0    0  501    0  0.00000000000E+00  0.00000000000E+00  0.11645801881E+04  0.11645801881E+04  0.50400001928E-02 0.  1.
       -1   -1    0    0    0  501  0.00000000000E+00  0.00000000000E+00 -0.13458081921E+04  0.13458081921E+04  0.50400001928E-02 0. -1.
    10030    2    1    2    0    0  0.00000000000E+00  0.00000000000E+00 -0.18122800401E+03  0.25103883802E+04  0.25038382995E+04 0.  0.
        4    1    3    3  502    0 -0.16811409447E+03  0.38818591922E+02 -0.13338298499E+04  0.13449434609E+04  0.12699999809E+01 0. -1.
       -4    1    3    3    0  502  0.16811409447E+03 -0.38818591922E+02  0.11526018458E+04  0.11654449192E+04  0.12699999809E+01 0.  1.
</event>
<event>
 5   0  0.3808293E-06  0.2495444E+04  0.7818609E-02  0.8404610E-01
       -2   -1    0    0    0  501  0.00000000000E+00  0.00000000000E+00  0.11848465914E+04  0.11848465914E+04  0.25500000920E-02 0.  1.
        2   -1    0    0  501    0  0.00000000000E+00  0.00000000000E+00 -0.13139339687E+04  0.13139339687E+04  0.25500000920E-02 0. -1.
    10030    2    1    2    0    0  0.00000000000E+00  0.00000000000E+00 -0.12908737725E+03  0.24987805601E+04  0.24954439959E+04 0.  0.
        1    1    3    3  502    0  0.80655132163E+03  0.62525101496E+03  0.65429241206E+03  0.12122550996E+04  0.50400001928E-02 0. -1.
       -1    1    3    3    0  502 -0.80655132163E+03 -0.62525101496E+03 -0.78337978931E+03  0.12865254605E+04  0.50400001928E-02 0.  1.
</event>
<event>
 5   0  0.1553604E-06  0.2501146E+04  0.7818609E-02  0.8402577E-01
       -1   -1    0    0    0  501  0.00000000000E+00  0.00000000000E+00  0.54644374669E+03  0.54644374671E+03  0.50400001928E-02 0.  1.
        1   -1    0    0  501    0  0.00000000000E+00  0.00000000000E+00 -0.28620195081E+04  0.28620195081E+04  0.50400001928E-02 0. -1.
    10030    2    1    2    0    0  0.00000000000E+00  0.00000000000E+00 -0.23155757614E+04  0.34084632548E+04  0.25011458679E+04 0.  0.
        1    1    3    3  502    0  0.10781019223E+04  0.63193489866E+03 -0.12229613601E+04  0.17485079237E+04  0.50400001928E-02 0.  1.
       -1    1    3    3    0  502 -0.10781019223E+04 -0.63193489866E+03 -0.10926144013E+04  0.16599553311E+04  0.50400001928E-02 0. -1.
</event>
<event>
 5   0  0.1501747E-06  0.2499686E+04  0.7818609E-02  0.8403097E-01
        1   -1    0    0  501    0  0.00000000000E+00  0.00000000000E+00  0.93602799039E+03  0.93602799040E+03  0.50400001928E-02 0.  1.
       -1   -1    0    0    0  501  0.00000000000E+00  0.00000000000E+00 -0.16688690437E+04  0.16688690437E+04  0.50400001928E-02 0. -1.
    10030    2    1    2    0    0  0.00000000000E+00  0.00000000000E+00 -0.73284105328E+03  0.26048970341E+04  0.24996864901E+04 0.  0.
        2    1    3    3  502    0  0.90920497968E+03 -0.85758637382E+03 -0.36666166566E+03  0.13025163572E+04  0.25500000920E-02 0.  1.
       -2    1    3    3    0  502 -0.90920497968E+03  0.85758637382E+03 -0.36617938761E+03  0.13023806769E+04  0.25500000920E-02 0. -1.
</event>
<event>
 5   0  0.1553604E-06  0.2502581E+04  0.7818609E-02  0.8402067E-01
        1   -1    0    0  501    0  0.00000000000E+00  0.00000000000E+00  0.72692582367E+03  0.72692582369E+03  0.50400001928E-02 0.  1.
       -1   -1    0    0    0  501  0.00000000000E+00  0.00000000000E+00 -0.21539031154E+04  0.21539031155E+04  0.50400001928E-02 0. -1.
    10030    2    1    2    0    0  0.00000000000E+00  0.00000000000E+00 -0.14269772918E+04  0.28808289391E+04  0.25025809049E+04 0.  0.
        1    1    3    3  502    0 -0.67143190233E+02  0.31122412559E+03 -0.21064951510E+04  0.21304202603E+04  0.50400001928E-02 0. -1.
       -1    1    3    3    0  502  0.67143190233E+02 -0.31122412559E+03  0.67951785919E+03  0.75040867887E+03  0.50400001928E-02 0.  1.
</event>
<event>
 5   0  0.1541852E-06  0.2504222E+04  0.7818609E-02  0.8401483E-01
       -1   -1    0    0    0  501  0.00000000000E+00  0.00000000000E+00  0.73192588265E+03  0.73192588267E+03  0.50400001928E-02 0.  1.
        1   -1    0    0  501    0  0.00000000000E+00  0.00000000000E+00 -0.21419962785E+04  0.21419962785E+04  0.50400001928E-02 0. -1.
    10030    2    1    2    0    0  0.00000000000E+00  0.00000000000E+00 -0.14100703958E+04  0.28739221611E+04  0.25042224476E+04 0.  0.
        5    1    3    3  502    0  0.95895081152E+03 -0.70285726941E+03 -0.11556397676E+04  0.16580471533E+04  0.46999998093E+01 0.  1.
       -5    1    3    3    0  502 -0.95895081152E+03  0.70285726941E+03 -0.25443062816E+03  0.12158750078E+04  0.46999998093E+01 0. -1.
</event>
<event>
 5   0  0.1501747E-06  0.2503402E+04  0.7818609E-02  0.8401775E-01
        1   -1    0    0  501    0  0.00000000000E+00  0.00000000000E+00  0.66469540899E+03  0.66469540901E+03  0.50400001928E-02 0.  1.
       -1   -1    0    0    0  501  0.00000000000E+00  0.00000000000E+00 -0.23571027512E+04  0.23571027512E+04  0.50400001928E-02 0. -1.
    10030    2    1    2    0    0  0.00000000000E+00  0.00000000000E+00 -0.16924073422E+04  0.30217981602E+04  0.25034019871E+04 0.  0.
        2    1    3    3  502    0  0.10770872258E+04  0.48531040992E+03 -0.34688769364E+03  0.12312490236E+04  0.25500000920E-02 0.  1.
       -2    1    3    3    0  502 -0.10770872258E+04 -0.48531040992E+03 -0.13455196486E+04  0.17905491367E+04  0.25500000920E-02 0. -1.
</event>
<event>
 5   0  0.3808293E-06  0.2497357E+04  0.7818609E-02  0.8403928E-01
       -2   -1    0    0    0  501  0.00000000000E+00  0.00000000000E+00  0.11326702080E+04  0.11326702080E+04  0.25500000920E-02 0. -1.
        2   -1    0    0  501    0  0.00000000000E+00  0.00000000000E+00 -0.13765685581E+04  0.13765685581E+04  0.25500000920E-02 0.  1.
    10030    2    1    2    0    0  0.00000000000E+00  0.00000000000E+00 -0.24389835011E+03  0.25092387660E+04  0.24973571590E+04 0.  0.
        1    1    3    3  502    0  0.35100973846E+03  0.27154203403E+03 -0.12946590479E+04  0.13686069425E+04  0.50400001928E-02 0.  1.
       -1    1    3    3    0  502 -0.35100973846E+03 -0.27154203403E+03  0.10507606978E+04  0.11406318235E+04  0.50400001928E-02 0. -1.
</event>
<event>
 5   0  0.3713394E-06  0.2498292E+04  0.7818609E-02  0.8403594E-01
       -2   -1    0    0    0  501  0.00000000000E+00  0.00000000000E+00  0.70525598106E+03  0.70525598107E+03  0.25500000920E-02 0. -1.
        2   -1    0    0  501    0  0.00000000000E+00  0.00000000000E+00 -0.22124806156E+04  0.22124806156E+04  0.25500000920E-02 0.  1.
    10030    2    1    2    0    0  0.00000000000E+00  0.00000000000E+00 -0.15072246346E+04  0.29177365967E+04  0.24982915660E+04 0.  0.
        3    1    3    3  502    0 -0.11332975822E+04 -0.28324467194E+03 -0.23686204354E+03  0.11919289374E+04  0.10100000352E+00 0. -1.
       -3    1    3    3    0  502  0.11332975822E+04  0.28324467194E+03 -0.12703625910E+04  0.17258076593E+04  0.10100000352E+00 0.  1.
</event>
<event>
 5   0  0.1553604E-06  0.2471372E+04  0.7818609E-02  0.8413256E-01
       -1   -1    0    0    0  501  0.00000000000E+00  0.00000000000E+00  0.82851009584E+03  0.82851009585E+03  0.50400001928E-02 0.  1.
        1   -1    0    0  501    0  0.00000000000E+00  0.00000000000E+00 -0.18429702921E+04  0.18429702921E+04  0.50400001928E-02 0. -1.
    10030    2    1    2    0    0  0.00000000000E+00  0.00000000000E+00 -0.10144601962E+04  0.26714803879E+04  0.24713716785E+04 0.  0.
        1    1    3    3  502    0  0.18468714867E+03 -0.20353524249E+03 -0.18095120563E+04  0.18302649589E+04  0.50400001928E-02 0. -1.
       -1    1    3    3    0  502 -0.18468714867E+03  0.20353524249E+03  0.79505186007E+03  0.84121542903E+03  0.50400001928E-02 0.  1.
</event>
<event>
 5   0  0.1501747E-06  0.2495176E+04  0.7818609E-02  0.8404706E-01
       -1   -1    0    0    0  501  0.00000000000E+00  0.00000000000E+00  0.83023983289E+03  0.83023983291E+03  0.50400001928E-02 0. -1.
        1   -1    0    0  501    0  0.00000000000E+00  0.00000000000E+00 -0.18747296915E+04  0.18747296915E+04  0.50400001928E-02 0.  1.
    10030    2    1    2    0    0  0.00000000000E+00  0.00000000000E+00 -0.10444898586E+04  0.27049695244E+04  0.24951755576E+04 0.  0.
        2    1    3    3  502    0  0.10579892072E+04 -0.65741998814E+03 -0.44610375363E+03  0.13230838077E+04  0.25500000920E-02 0. -1.
       -2    1    3    3    0  502 -0.10579892072E+04  0.65741998814E+03 -0.59838610499E+03  0.13818857167E+04  0.25500000920E-02 0.  1.
</event>
<event>
 5   0  0.1553604E-06  0.2499853E+04  0.7818609E-02  0.8403038E-01
        1   -1    0    0  501    0  0.00000000000E+00  0.00000000000E+00  0.93075449681E+03  0.93075449683E+03  0.50400001928E-02 0. -1.
       -1   -1    0    0    0  501  0.00000000000E+00  0.00000000000E+00 -0.16785484352E+04  0.16785484352E+04  0.50400001928E-02 0.  1.
    10030    2    1    2    0    0  0.00000000000E+00  0.00000000000E+00 -0.74779393835E+03  0.26093029320E+04  0.24998531990E+04 0.  0.
        1    1    3    3  502    0 -0.77424008947E+03  0.98103711739E+03 -0.39566583512E+03  0.13108901537E+04  0.50400001928E-02 0. -1.
       -1    1    3    3    0  502  0.77424008947E+03 -0.98103711739E+03 -0.35212810323E+03  0.12984127783E+04  0.50400001928E-02 0.  1.
</event>
<event>
 5   0  0.1519145E-06  0.2499847E+04  0.7818609E-02  0.8403040E-01
        1   -1    0    0  501    0  0.00000000000E+00  0.00000000000E+00  0.10875446817E+04  0.10875446817E+04  0.50400001928E-02 0.  1.
       -1   -1    0    0    0  501  0.00000000000E+00  0.00000000000E+00 -0.14365464895E+04  0.14365464895E+04  0.50400001928E-02 0. -1.
    10030    2    1    2    0    0  0.00000000000E+00  0.00000000000E+00 -0.34900180782E+03  0.25240911712E+04  0.24998467911E+04 0.  0.
        4    1    3    3  502    0 -0.13401460491E+03 -0.54847900854E+03  0.95144529333E+03  0.11063629134E+04  0.12699999809E+01 0.  1.
       -4    1    3    3    0  502  0.13401460491E+03  0.54847900854E+03 -0.13004471011E+04  0.14177282578E+04  0.12699999809E+01 0. -1.
</event>
<event>
 5   0  0.1574896E-06  0.2509534E+04  0.7818609E-02  0.8399597E-01
        1   -1    0    0  501    0  0.00000000000E+00  0.00000000000E+00  0.18215029688E+04  0.18215029688E+04  0.50400001928E-02 0. -1.
       -1   -1    0    0    0  501  0.00000000000E+00  0.00000000000E+00 -0.86436338912E+03  0.86436338913E+03  0.50400001928E-02 0.  1.
    10030    2    1    2    0    0  0.00000000000E+00  0.00000000000E+00  0.95713957972E+03  0.26858663580E+04  0.25095342034E+04 0.  0.
        3    1    3    3  502    0 -0.46632557594E+02 -0.12145375779E+04  0.14495542260E+03  0.12240458359E+04  0.10100000352E+00 0.  1.
       -3    1    3    3    0  502  0.46632557594E+02  0.12145375779E+04  0.81218415711E+03  0.14618205221E+04  0.10100000352E+00 0. -1.
</event>
<event>
 5   0  0.3808293E-06  0.2503951E+04  0.7818609E-02  0.8401579E-01
       -2   -1    0    0    0  501  0.00000000000E+00  0.00000000000E+00  0.88676500925E+03  0.88676500926E+03  0.25500000920E-02 0. -1.
        2   -1    0    0  501    0  0.00000000000E+00  0.00000000000E+00 -0.17675971053E+04  0.17675971053E+04  0.25500000920E-02 0.  1.
    10030    2    1    2    0    0  0.00000000000E+00  0.00000000000E+00 -0.88083209601E+03  0.26543621145E+04  0.25039514879E+04 0.  0.
        1    1    3    3  502    0  0.84773619898E+03  0.51549246945E+03 -0.12498635585E+04  0.15957907332E+04  0.50400001928E-02 0.  1.
       -1    1    3    3    0  502 -0.84773619898E+03 -0.51549246945E+03  0.36903146250E+03  0.10585713814E+04  0.50400001928E-02 0. -1.
</event>
<event>
 5   0  0.1541852E-06  0.2497662E+04  0.7818609E-02  0.8403819E-01
        1   -1    0    0  501    0  0.00000000000E+00  0.00000000000E+00  0.20263574566E+04  0.20263574566E+04  0.50400001928E-02 0.  1.
       -1   -1    0    0    0  501  0.00000000000E+00  0.00000000000E+00 -0.76964616725E+03  0.76964616726E+03  0.50400001928E-02 0. -1.
    10030    2    1    2    0    0  0.00000000000E+00  0.00000000000E+00  0.12567112893E+04  0.27960036239E+04  0.24976615063E+04 0.  0.
        5    1    3    3  502    0 -0.29394686487E+03 -0.71351421077E+03 -0.47078602989E+03  0.90397392898E+03  0.46999998093E+01 0. -1.
       -5    1    3    3    0  502  0.29394686487E+03  0.71351421077E+03  0.17274973192E+04  0.18920296949E+04  0.46999998093E+01 0.  1.
</event>
<event>
 5   0  0.3924441E-06  0.2497399E+04  0.7818609E-02  0.8403913E-01
        2   -1    0    0  501    0  0.00000000000E+00  0.00000000000E+00  0.13897148345E+04  0.13897148345E+04  0.25500000920E-02 0. -1.
       -2   -1    0    0    0  501  0.00000000000E+00  0.00000000000E+00 -0.11219926487E+04  0.11219926487E+04  0.25500000920E-02 0.  1.
    10030    2    1    2    0    0  0.00000000000E+00  0.00000000000E+00  0.26772218582E+03  0.25117074832E+04  0.24973985089E+04 0.  0.
        2    1    3    3  502    0 -0.98564437436E+03 -0.21258892005E+03 -0.60694658771E+03  0.11768912617E+04  0.25500000920E-02 0.  1.
       -2    1    3    3    0  502  0.98564437436E+03  0.21258892005E+03  0.87466877353E+03  0.13348162214E+04  0.25500000920E-02 0. -1.
</event>
<event>
 5   0  0.1519145E-06  0.2507083E+04  0.7818609E-02  0.8400467E-01
        1   -1    0    0  501    0  0.00000000000E+00  0.00000000000E+00  0.12221204106E+04  0.12221204106E+04  0.50400001928E-02 0.  1.
       -1   -1    0    0    0  501  0.00000000000E+00  0.00000000000E+00 -0.12857700964E+04  0.12857700964E+04  0.50400001928E-02 0. -1.
    10030    2    1    2    0    0  0.00000000000E+00  0.00000000000E+00 -0.63649685830E+02  0.25078905070E+04  0.25070826697E+04 0.  0.
        4    1    3    3  502    0 -0.12114352169E+04  0.31363740555E+03 -0.10547300835E+03  0.12558144271E+04  0.12699999809E+01 0.  1.
       -4    1    3    3    0  502  0.12114352169E+04 -0.31363740555E+03  0.41823322522E+02  0.12520760800E+04  0.12699999809E+01 0. -1.
</event>
<event>
 5   0  0.3713394E-06  0.2498665E+04  0.7818609E-02  0.8403461E-01
        2   -1    0    0  501    0  0.00000000000E+00  0.00000000000E+00  0.61388971925E+03  0.61388971925E+03  0.25500000920E-02 0. -1.
       -2   -1    0    0    0  501  0.00000000000E+00  0.00000000000E+00 -0.25425268285E+04  0.25425268285E+04  0.25500000920E-02 0.  1.
    10030    2    1    2    0    0  0.00000000000E+00  0.00000000000E+00 -0.19286371092E+04  0.31564165477E+04  0.24986645080E+04 0.  0.
        3    1    3    3  502    0  0.86849923044E+03 -0.95570062799E+01 -0.20987408916E+04  0.22713642574E+04  0.10100000352E+00 0.  1.
       -3    1    3    3    0  502 -0.86849923044E+03  0.95570062799E+01  0.17010378234E+03  0.88505229033E+03  0.10100000352E+00 0. -1.
</event>
<event>
 5   0  0.1553604E-06  0.2492410E+04  0.7818609E-02  0.8405694E-01
        1   -1    0    0  501    0  0.00000000000E+00  0.00000000000E+00  0.48011883998E+03  0.48011884001E+03  0.50400001928E-02 0.  1.
       -1   -1    0    0    0  501  0.00000000000E+00  0.00000000000E+00 -0.32346721744E+04  0.32346721744E+04  0.50400001928E-02 0. -1.
    10030    2    1    2    0    0  0.00000000000E+00  0.00000000000E+00 -0.27545533344E+04  0.37147910144E+04  0.24924101205E+04 0.  0.
        1    1    3    3  502    0 -0.94184277007E+03 -0.78981483522E+03 -0.10712756908E+04  0.16304928344E+04  0.50400001928E-02 0.  1.
       -1    1    3    3    0  502  0.94184277007E+03  0.78981483522E+03 -0.16832776437E+04  0.20842981800E+04  0.50400001928E-02 0. -1.
</event>
<event>
 5   0  0.3713394E-06  0.2488182E+04  0.7818609E-02  0.8407208E-01
        2   -1    0    0  501    0  0.00000000000E+00  0.00000000000E+00  0.21741980229E+04  0.21741980229E+04  0.25500000920E-02 0. -1.
       -2   -1    0    0    0  501  0.00000000000E+00  0.00000000000E+00 -0.71187731513E+03  0.71187731514E+03  0.25500000920E-02 0.  1.
    10030    2    1    2    0    0  0.00000000000E+00  0.00000000000E+00  0.14623207077E+04  0.28860753380E+04  0.24881818672E+04 0.  0.
        3    1    3    3  502    0 -0.96387336153E+03  0.45989354325E+02 -0.17964519990E+03  0.98154943117E+03  0.10100000352E+00 0.  1.
       -3    1    3    3    0  502  0.96387336153E+03 -0.45989354325E+02  0.16419659076E+04  0.19045259068E+04  0.10100000352E+00 0. -1.
</event>
<event>
 5   0  0.1574896E-06  0.2499909E+04  0.7818609E-02  0.8403018E-01
        1   -1    0    0  501    0  0.00000000000E+00  0.00000000000E+00  0.15954630919E+04  0.15954630919E+04  0.50400001928E-02 0. -1.
       -1   -1    0    0    0  501  0.00000000000E+00  0.00000000000E+00 -0.97926823050E+03  0.97926823051E+03  0.50400001928E-02 0.  1.
    10030    2    1    2    0    0  0.00000000000E+00  0.00000000000E+00  0.61619486137E+03  0.25747313224E+04  0.24999090534E+04 0.  0.
        3    1    3    3  502    0 -0.11835141034E+04 -0.25016596623E+03  0.63231714433E+03  0.13649592026E+04  0.10100000352E+00 0. -1.
       -3    1    3    3    0  502  0.11835141034E+04  0.25016596623E+03 -0.16122282958E+02  0.12097721198E+04  0.10100000352E+00 0.  1.
</event>
<event>
 5   0  0.1541852E-06  0.2505515E+04  0.7818609E-02  0.8401023E-01
       -1   -1    0    0    0  501  0.00000000000E+00  0.00000000000E+00  0.10024944035E+04  0.10024944035E+04  0.50400001928E-02 0. -1.
        1   -1    0    0  501    0  0.00000000000E+00  0.00000000000E+00 -0.15654969660E+04  0.15654969661E+04  0.50400001928E-02 0.  1.
    10030    2    1    2    0    0  0.00000000000E+00  0.00000000000E+00 -0.56300256256E+03  0.25679913696E+04  0.25055154736E+04 0.  0.
        5    1    3    3  502    0 -0.12456900702E+04 -0.12706816046E+03 -0.32106151173E+03  0.12926688102E+04  0.46999998093E+01 0. -1.
       -5    1    3    3    0  502  0.12456900702E+04  0.12706816046E+03 -0.24194105083E+03  0.12753225594E+04  0.46999998093E+01 0.  1.
</event>
<event>
 5   0  0.1574896E-06  0.2502185E+04  0.7818609E-02  0.8402208E-01
        1   -1    0    0  501    0  0.00000000000E+00  0.00000000000E+00  0.16722017925E+04  0.16722017925E+04  0.50400001928E-02 0. -1.
       -1   -1    0    0    0  501  0.00000000000E+00  0.00000000000E+00 -0.93603083491E+03  0.93603083492E+03  0.50400001928E-02 0.  1.
    10030    2    1    2    0    0  0.00000000000E+00  0.00000000000E+00  0.73617095760E+03  0.26082326274E+04  0.25021849972E+04 0.  0.
        3    1    3    3  502    0 -0.75372313085E+03  0.99016923784E+03  0.23338506860E+03  0.12660972625E+04  0.10100000352E+00 0.  1.
       -3    1    3    3    0  502  0.75372313085E+03 -0.99016923784E+03  0.50278588900E+03  0.13421353650E+04  0.10100000352E+00 0. -1.
</event>
<event>
 5   0  0.3814260E-06  0.2494606E+04  0.7818609E-02  0.8404910E-01
        2   -1    0    0  501    0  0.00000000000E+00  0.00000000000E+00  0.27261017952E+04  0.27261017952E+04  0.25500000920E-02 0.  1.
       -2   -1    0    0    0  501  0.00000000000E+00  0.00000000000E+00 -0.57069214454E+03  0.57069214454E+03  0.25500000920E-02 0. -1.
    10030    2    1    2    0    0  0.00000000000E+00  0.00000000000E+00  0.21554096507E+04  0.32967939398E+04  0.24946060849E+04 0.  0.
        5    1    3    3  502    0  0.82937524046E+03 -0.51926692900E+03  0.55523265082E+02  0.98010527802E+03  0.46999998093E+01 0. -1.
       -5    1    3    3    0  502 -0.82937524046E+03  0.51926692900E+03  0.20998863856E+04  0.23166886618E+04  0.46999998093E+01 0.  1.
</event>
<event>
 5   0  0.3808293E-06  0.2499373E+04  0.7818609E-02  0.8403209E-01
        2   -1    0    0  501    0  0.00000000000E+00  0.00000000000E+00  0.15670688715E+04  0.15670688715E+04  0.25500000920E-02 0.  1.
       -2   -1    0    0    0  501  0.00000000000E+00  0.00000000000E+00 -0.99658416857E+03  0.99658416857E+03  0.25500000920E-02 0. -1.
    10030    2    1    2    0    0  0.00000000000E+00  0.00000000000E+00  0.57048470296E+03  0.25636530401E+04  0.24993727440E+04 0.  0.
        1    1    3    3  502    0 -0.60904989353E+03 -0.12004562374E+03  0.13977396190E+04  0.15293883637E+04  0.50400001928E-02 0.  1.
       -1    1    3    3    0  502  0.60904989353E+03  0.12004562374E+03 -0.82725491605E+03  0.10342646763E+04  0.50400001928E-02 0. -1.
</event>
<event>
 5   0  0.3808293E-06  0.2497776E+04  0.7818609E-02  0.8403778E-01
        2   -1    0    0  501    0  0.00000000000E+00  0.00000000000E+00  0.80637772075E+03  0.80637772075E+03  0.25500000920E-02 0.  1.
       -2   -1    0    0    0  501  0.00000000000E+00  0.00000000000E+00 -0.19342319325E+04  0.19342319325E+04  0.25500000920E-02 0. -1.
    10030    2    1    2    0    0  0.00000000000E+00  0.00000000000E+00 -0.11278542117E+04  0.27406096532E+04  0.24977762407E+04 0.  0.
        1    1    3    3  502    0  0.39474896117E+03  0.11384764475E+04 -0.20373442491E+03  0.12220732710E+04  0.50400001928E-02 0.  1.
       -1    1    3    3    0  502 -0.39474896117E+03 -0.11384764475E+04 -0.92411978681E+03  0.15185363822E+04  0.50400001928E-02 0. -1.
</event>
<event>
 5   0  0.1501747E-06  0.2501708E+04  0.7818609E-02  0.8402377E-01
       -1   -1    0    0    0  501  0.00000000000E+00  0.00000000000E+00  0.91469320072E+03  0.91469320073E+03  0.50400001928E-02 0.  1.
        1   -1    0    0  501    0  0.00000000000E+00  0.00000000000E+00 -0.17105573685E+04  0.17105573685E+04  0.50400001928E-02 0. -1.
    10030    2    1    2    0    0  0.00000000000E+00  0.00000000000E+00 -0.79586416781E+03  0.26252505693E+04  0.25017075724E+04 0.  0.
        2    1    3    3  502    0  0.11775938296E+04  0.24261998224E+03 -0.75999753207E+03  0.14223881088E+04  0.25500000920E-02 0. -1.
       -2    1    3    3    0  502 -0.11775938296E+04 -0.24261998224E+03 -0.35866635747E+02  0.12028624605E+04  0.25500000920E-02 0.  1.
</event>
<event>
 5   0  0.1501747E-06  0.2499678E+04  0.7818609E-02  0.8403100E-01
       -1   -1    0    0    0  501  0.00000000000E+00  0.00000000000E+00  0.76731711587E+03  0.76731711589E+03  0.50400001928E-02 0.  1.
        1   -1    0    0  501    0  0.00000000000E+00  0.00000000000E+00 -0.20357912103E+04  0.20357912103E+04  0.50400001928E-02 0. -1.
    10030    2    1    2    0    0  0.00000000000E+00  0.00000000000E+00 -0.12684740944E+04  0.28031083262E+04  0.24996779313E+04 0.  0.
        2    1    3    3  502    0  0.89779930726E+03  0.47308854010E+03 -0.14523438804E+04  0.17717672279E+04  0.25500000920E-02 0. -1.
       -2    1    3    3    0  502 -0.89779930726E+03 -0.47308854010E+03  0.18386978596E+03  0.10313410983E+04  0.25500000920E-02 0.  1.
</event>
<event>
 5   0  0.3924441E-06  0.2503685E+04  0.7818609E-02  0.8401674E-01
       -2   -1    0    0    0  501  0.00000000000E+00  0.00000000000E+00  0.90928049142E+03  0.90928049142E+03  0.25500000920E-02 0.  1.
        2   -1    0    0  501    0  0.00000000000E+00  0.00000000000E+00 -0.17234606318E+04  0.17234606318E+04  0.25500000920E-02 0. -1.
    10030    2    1    2    0    0  0.00000000000E+00  0.00000000000E+00 -0.81418014043E+03  0.26327411233E+04  0.25036845890E+04 0.  0.
        2    1    3    3  502    0 -0.12148965848E+03  0.29818710781E+03 -0.16791720133E+04  0.17097642933E+04  0.25500000920E-02 0. -1.
       -2    1    3    3    0  502  0.12148965848E+03 -0.29818710781E+03  0.86499187291E+03  0.92297682993E+03  0.25500000920E-02 0.  1.
</event>
<event>
 5   0  0.1541852E-06  0.2500377E+04  0.7818609E-02  0.8402851E-01
       -1   -1    0    0    0  501  0.00000000000E+00  0.00000000000E+00  0.28048353768E+04  0.28048353768E+04  0.50400001928E-02 0.  1.
        1   -1    0    0  501    0  0.00000000000E+00  0.00000000000E+00 -0.55724154311E+03  0.55724154314E+03  0.50400001928E-02 0. -1.
    10030    2    1    2    0    0  0.00000000000E+00  0.00000000000E+00  0.22475938337E+04  0.33620769199E+04  0.25003766065E+04 0.  0.
        5    1    3    3  502    0  0.11185014114E+04  0.50155893420E+03  0.14540993882E+04  0.19018501236E+04  0.46999998093E+01 0.  1.
       -5    1    3    3    0  502 -0.11185014114E+04 -0.50155893420E+03  0.79349444546E+03  0.14602267963E+04  0.46999998093E+01 0. -1.
</event>
<event>
 5   0  0.1519145E-06  0.2504866E+04  0.7818609E-02  0.8401254E-01
       -1   -1    0    0    0  501  0.00000000000E+00  0.00000000000E+00  0.76930779396E+03  0.76930779397E+03  0.50400001928E-02 0.  1.
        1   -1    0    0  501    0  0.00000000000E+00  0.00000000000E+00 -0.20389599802E+04  0.20389599802E+04  0.50400001928E-02 0. -1.
    10030    2    1    2    0    0  0.00000000000E+00  0.00000000000E+00 -0.12696521863E+04  0.28082677742E+04  0.25048655089E+04 0.  0.
        4    1    3    3  502    0 -0.47388266006E+03 -0.98712187779E+03  0.46769895678E+02  0.10959760094E+04  0.12699999809E+01 0.  1.
       -4    1    3    3    0  502  0.47388266006E+03  0.98712187779E+03 -0.13164220819E+04  0.17122917648E+04  0.12699999809E+01 0. -1.
</event>
<event>
 5   0  0.1574896E-06  0.2499723E+04  0.7818609E-02  0.8403084E-01
       -1   -1    0    0    0  501  0.00000000000E+00  0.00000000000E+00  0.11260583054E+04  0.11260583054E+04  0.50400001928E-02 0. -1.
        1   -1    0    0  501    0  0.00000000000E+00  0.00000000000E+00 -0.13872758310E+04  0.13872758310E+04  0.50400001928E-02 0.  1.
    10030    2    1    2    0    0  0.00000000000E+00  0.00000000000E+00 -0.26121752557E+03  0.25133341364E+04  0.24997227617E+04 0.  0.
        3    1    3    3  502    0  0.22502603161E+03 -0.92804991996E+03 -0.94137425676E+03  0.13409320901E+04  0.10100000352E+00 0.  1.
       -3    1    3    3    0  502 -0.22502603161E+03  0.92804991996E+03  0.68015673119E+03  0.11724020462E+04  0.10100000352E+00 0. -1.
</event>
<event>
 5   0  0.1541852E-06  0.2549137E+04  0.7818609E-02  0.8385687E-01
        1   -1    0    0  501    0  0.00000000000E+00  0.00000000000E+00  0.14419634799E+04  0.14419634799E+04  0.50400001928E-02 0. -1.
       -1   -1    0    0    0  501  0.00000000000E+00  0.00000000000E+00 -0.11266058136E+04  0.11266058136E+04  0.50400001928E-02 0.  1.
    10030    2    1    2    0    0  0.00000000000E+00  0.00000000000E+00  0.31535766626E+03  0.25685692935E+04  0.25491366691E+04 0.  0.
        5    1    3    3  502    0  0.59143180677E+03  0.33732168832E+03  0.12433547873E+04  0.14175791761E+04  0.46999998093E+01 0. -1.
       -5    1    3    3    0  502 -0.59143180677E+03 -0.33732168832E+03 -0.92799712107E+03  0.11509901173E+04  0.46999998093E+01 0.  1.
</event>
<event>
 5   0  0.3924441E-06  0.2501531E+04  0.7818609E-02  0.8402440E-01
        2   -1    0    0  501    0  0.00000000000E+00  0.00000000000E+00  0.10784692303E+04  0.10784692303E+04  0.25500000920E-02 0. -1.
       -2   -1    0    0    0  501  0.00000000000E+00  0.00000000000E+00 -0.14505883084E+04  0.14505883084E+04  0.25500000920E-02 0.  1.
    10030    2    1    2    0    0  0.00000000000E+00  0.00000000000E+00 -0.37211907807E+03  0.25290575388E+04  0.25015314162E+04 0.  0.
        2    1    3    3  502    0  0.92452851158E+03 -0.35039371723E+01 -0.10377361741E+04  0.13898422980E+04  0.25500000920E-02 0.  1.
       -2    1    3    3    0  502 -0.92452851158E+03  0.35039371723E+01  0.66561709600E+03  0.11392152408E+04  0.25500000920E-02 0. -1.
</event>
<event>
 5   0  0.3924441E-06  0.2497799E+04  0.7818609E-02  0.8403770E-01
        2   -1    0    0  501    0  0.00000000000E+00  0.00000000000E+00  0.17472716714E+04  0.17472716714E+04  0.25500000920E-02 0.  1.
       -2   -1    0    0    0  501  0.00000000000E+00  0.00000000000E+00 -0.89267711836E+03  0.89267711836E+03  0.25500000920E-02 0. -1.
    10030    2    1    2    0    0  0.00000000000E+00  0.00000000000E+00  0.85459455304E+03  0.26399487898E+04  0.24977985833E+04 0.  0.
        2    1    3    3  502    0  0.10040794741E+04  0.41901838124E+03 -0.22078558281E+03  0.11101793854E+04  0.25500000920E-02 0. -1.
       -2    1    3    3    0  502 -0.10040794741E+04 -0.41901838124E+03  0.10753801358E+04  0.15297694044E+04  0.25500000920E-02 0.  1.
</event>
<event>
 5   0  0.1519145E-06  0.2490014E+04  0.7818609E-02  0.8406552E-01
       -1   -1    0    0    0  501  0.00000000000E+00  0.00000000000E+00  0.70416280681E+03  0.70416280683E+03  0.50400001928E-02 0.  1.
        1   -1    0    0  501    0  0.00000000000E+00  0.00000000000E+00 -0.22012552847E+04  0.22012552847E+04  0.50400001928E-02 0. -1.
    10030    2    1    2    0    0  0.00000000000E+00  0.00000000000E+00 -0.14970924779E+04  0.29054180915E+04  0.24900137348E+04 0.  0.
        4    1    3    3  502    0  0.97920625776E+03  0.48502843723E+03 -0.52405377689E+02  0.10940043038E+04  0.12699999809E+01 0.  1.
       -4    1    3    3    0  502 -0.97920625776E+03 -0.48502843723E+03 -0.14446871002E+04  0.18114137878E+04  0.12699999809E+01 0. -1.
</event>
<event>
 5   0  0.1553604E-06  0.2503987E+04  0.7818609E-02  0.8401566E-01
        1   -1    0    0  501    0  0.00000000000E+00  0.00000000000E+00  0.12332724027E+04  0.12332724027E+04  0.50400001928E-02 0. -1.
       -1   -1    0    0    0  501  0.00000000000E+00  0.00000000000E+00 -0.12709989416E+04  0.12709989416E+04  0.50400001928E-02 0.  1.
    10030    2    1    2    0    0  0.00000000000E+00  0.00000000000E+00 -0.37726538950E+02  0.25042713443E+04  0.25039871553E+04 0.  0.
        1    1    3    3  502    0  0.34643189951E+02 -0.11803052399E+04  0.39731772229E+03  0.12458659568E+04  0.50400001928E-02 0. -1.
       -1    1    3    3    0  502 -0.34643189951E+02  0.11803052399E+04 -0.43504426124E+03  0.12584053875E+04  0.50400001928E-02 0.  1.
</event>
<event>
 5   0  0.1553604E-06  0.2496310E+04  0.7818609E-02  0.8404301E-01
        1   -1    0    0  501    0  0.00000000000E+00  0.00000000000E+00  0.14902451630E+04  0.14902451630E+04  0.50400001928E-02 0. -1.
       -1   -1    0    0    0  501  0.00000000000E+00  0.00000000000E+00 -0.10453925167E+04  0.10453925167E+04  0.50400001928E-02 0.  1.
    10030    2    1    2    0    0  0.00000000000E+00  0.00000000000E+00  0.44485264626E+03  0.25356376797E+04  0.24963101903E+04 0.  0.
        1    1    3    3  502    0 -0.97986985230E+03  0.50959834531E+03 -0.36815921051E+03  0.11642064273E+04  0.50400001928E-02 0.  1.
       -1    1    3    3    0  502  0.97986985230E+03 -0.50959834531E+03  0.81301185678E+03  0.13714312525E+04  0.50400001928E-02 0. -1.
</event>
<event>
 5   0  0.1541852E-06  0.2501399E+04  0.7818609E-02  0.8402487E-01
        1   -1    0    0  501    0  0.00000000000E+00  0.00000000000E+00  0.12671949875E+04  0.12671949875E+04  0.50400001928E-02 0. -1.
       -1   -1    0    0    0  501  0.00000000000E+00  0.00000000000E+00 -0.12344191828E+04  0.12344191828E+04  0.50400001928E-02 0.  1.
    10030    2    1    2    0    0  0.00000000000E+00  0.00000000000E+00  0.32775804678E+02  0.25016141703E+04  0.25013994491E+04 0.  0.
        5    1    3    3  502    0  0.59596523847E+02 -0.11893208052E+04 -0.36599552713E+03  0.12457971501E+04  0.46999998093E+01 0. -1.
       -5    1    3    3    0  502 -0.59596523847E+02  0.11893208052E+04  0.39877133181E+03  0.12558170202E+04  0.46999998093E+01 0.  1.
</event>
<event>
 5   0  0.3808293E-06  0.2505865E+04  0.7818609E-02  0.8400899E-01
        2   -1    0    0  501    0  0.00000000000E+00  0.00000000000E+00  0.19451576116E+04  0.19451576116E+04  0.25500000920E-02 0.  1.
       -2   -1    0    0    0  501  0.00000000000E+00  0.00000000000E+00 -0.80705000808E+03  0.80705000808E+03  0.25500000920E-02 0. -1.
    10030    2    1    2    0    0  0.00000000000E+00  0.00000000000E+00  0.11381076036E+04  0.27522076197E+04  0.25058646940E+04 0.  0.
        1    1    3    3  502    0  0.32403205588E+03 -0.12018573826E+04  0.72585230450E+03  0.14409439647E+04  0.50400001928E-02 0. -1.
       -1    1    3    3    0  502 -0.32403205588E+03  0.12018573826E+04  0.41225529905E+03  0.13112636550E+04  0.50400001928E-02 0.  1.
</event>
<event>
 5   0  0.3713394E-06  0.2501074E+04  0.7818609E-02  0.8402603E-01
        2   -1    0    0  501    0  0.00000000000E+00  0.00000000000E+00  0.18992617028E+04  0.18992617028E+04  0.25500000920E-02 0.  1.
       -2   -1    0    0    0  501  0.00000000000E+00  0.00000000000E+00 -0.82339526059E+03  0.82339526059E+03  0.25500000920E-02 0. -1.
    10030    2    1    2    0    0  0.00000000000E+00  0.00000000000E+00  0.10758664422E+04  0.27226569633E+04  0.25010742369E+04 0.  0.
        3    1    3    3  502    0  0.61226924359E+03  0.10357771591E+04  0.16695523534E+03  0.12147353666E+04  0.10100000352E+00 0.  1.
       -3    1    3    3    0  502 -0.61226924359E+03 -0.10357771591E+04  0.90891120683E+03  0.15079215968E+04  0.10100000352E+00 0. -1.
</event>
<event>
 5   0  0.3808293E-06  0.2502722E+04  0.7818609E-02  0.8402017E-01
       -2   -1    0    0    0  501  0.00000000000E+00  0.00000000000E+00  0.99584294139E+03  0.99584294139E+03  0.25500000920E-02 0. -1.
        2   -1    0    0  501    0  0.00000000000E+00  0.00000000000E+00 -0.15724407318E+04  0.15724407318E+04  0.25500000920E-02 0.  1.
    10030    2    1    2    0    0  0.00000000000E+00  0.00000000000E+00 -0.57659779039E+03  0.25682836732E+04  0.25027217212E+04 0.  0.
        1    1    3    3  502    0  0.65104864718E+03  0.10265042960E+04 -0.59328572380E+03  0.13526135297E+04  0.50400001928E-02 0.  1.
       -1    1    3    3    0  502 -0.65104864718E+03 -0.10265042960E+04  0.16687933410E+02  0.12156701435E+04  0.50400001928E-02 0. -1.
</event>
<event>
 5   0  0.3713394E-06  0.2499182E+04  0.7818609E-02  0.8403277E-01
       -2   -1    0    0    0  501  0.00000000000E+00  0.00000000000E+00  0.11414914632E+04  0.11414914632E+04  0.25500000920E-02 0. -1.
        2   -1    0    0  501    0  0.00000000000E+00  0.00000000000E+00 -0.13679274606E+04  0.13679274606E+04  0.25500000920E-02 0.  1.
    10030    2    1    2    0    0  0.00000000000E+00  0.00000000000E+00 -0.22643599744E+03  0.25094189238E+04  0.24991818810E+04 0.  0.
        3    1    3    3  502    0  0.99704962789E+03 -0.72508020337E+03 -0.31808375163E+03  0.12731954073E+04  0.10100000352E+00 0. -1.
       -3    1    3    3    0  502 -0.99704962789E+03  0.72508020337E+03  0.91647754189E+02  0.12362235165E+04  0.10100000352E+00 0.  1.
</event>
<event>
 5   0  0.3814260E-06  0.2484428E+04  0.7818609E-02  0.8408554E-01
        2   -1    0    0  501    0  0.00000000000E+00  0.00000000000E+00  0.12296671501E+04  0.12296671501E+04  0.25500000920E-02 0. -1.
       -2   -1    0    0    0  501  0.00000000000E+00  0.00000000000E+00 -0.12548889713E+04  0.12548889713E+04  0.25500000920E-02 0.  1.
    10030    2    1    2    0    0  0.00000000000E+00  0.00000000000E+00 -0.25221821187E+02  0.24845561214E+04  0.24844280992E+04 0.  0.
        5    1    3    3  502    0  0.33333725062E+03  0.11962433163E+04 -0.43626386678E+02  0.12425929124E+04  0.46999998093E+01 0.  1.
       -5    1    3    3    0  502 -0.33333725062E+03 -0.11962433163E+04  0.18404565491E+02  0.12419632090E+04  0.46999998093E+01 0. -1.
</event>
<event>
 5   0  0.1501747E-06  0.2493965E+04  0.7818609E-02  0.8405139E-01
        1   -1    0    0  501    0  0.00000000000E+00  0.00000000000E+00  0.30853161124E+04  0.30853161124E+04  0.50400001928E-02 0. -1.
       -1   -1    0    0    0  501  0.00000000000E+00  0.00000000000E+00 -0.50398900860E+03  0.50398900862E+03  0.50400001928E-02 0.  1.
    10030    2    1    2    0    0  0.00000000000E+00  0.00000000000E+00  0.25813271038E+04  0.35893051210E+04  0.24939650429E+04 0.  0.
        2    1    3    3  502    0 -0.10526202425E+04  0.29546046698E+03  0.42755469884E+03  0.11739289940E+04  0.25500000920E-02 0. -1.
       -2    1    3    3    0  502  0.10526202425E+04 -0.29546046698E+03  0.21537724050E+04  0.24153761270E+04  0.25500000920E-02 0.  1.
</event>
<event>
 5   0  0.1574896E-06  0.2477673E+04  0.7818609E-02  0.8410983E-01
        1   -1    0    0  501    0  0.00000000000E+00  0.00000000000E+00  0.10214337888E+04  0.10214337888E+04  0.50400001928E-02 0.  1.
       -1   -1    0    0    0  501  0.00000000000E+00  0.00000000000E+00 -0.15025112703E+04  0.15025112703E+04  0.50400001928E-02 0. -1.
    10030    2    1    2    0    0  0.00000000000E+00  0.00000000000E+00 -0.48107748149E+03  0.25239450591E+04  0.24776729240E+04 0.  0.
        3    1    3    3  502    0  0.11790845484E+04  0.35448966230E+03 -0.38025884658E+03  0.12886039320E+04  0.10100000352E+00 0. -1.
       -3    1    3    3    0  502 -0.11790845484E+04 -0.35448966230E+03 -0.10081863491E+03  0.12353411271E+04  0.10100000352E+00 0.  1.
</event>
<event>
 5   0  0.3808293E-06  0.2502451E+04  0.7818609E-02  0.8402113E-01
        2   -1    0    0  501    0  0.00000000000E+00  0.00000000000E+00  0.11442110130E+04  0.11442110130E+04  0.25500000920E-02 0. -1.
       -2   -1    0    0    0  501  0.00000000000E+00  0.00000000000E+00 -0.13682489784E+04  0.13682489784E+04  0.25500000920E-02 0.  1.
    10030    2    1    2    0    0  0.00000000000E+00  0.00000000000E+00 -0.22403796535E+03  0.25124599914E+04  0.25024512380E+04 0.  0.
        1    1    3    3  502    0  0.17628530480E+03 -0.10154343508E+04 -0.82435093229E+03  0.13197491766E+04  0.50400001928E-02 0.  1.
       -1    1    3    3    0  502 -0.17628530480E+03  0.10154343508E+04  0.60031296694E+03  0.11927108148E+04  0.50400001928E-02 0. -1.
</event>
<event>
 5   0  0.1574896E-06  0.2485871E+04  0.7818609E-02  0.8408036E-01
       -1   -1    0    0    0  501  0.00000000000E+00  0.00000000000E+00  0.95059539842E+03  0.95059539844E+03  0.50400001928E-02 0.  1.
        1   -1    0    0  501    0  0.00000000000E+00  0.00000000000E+00 -0.16251800477E+04  0.16251800477E+04  0.50400001928E-02 0. -1.
    10030    2    1    2    0    0  0.00000000000E+00  0.00000000000E+00 -0.67458464927E+03  0.25757754461E+04  0.24858710143E+04 0.  0.
        3    1    3    3  502    0 -0.10489159695E+04  0.59729511643E+03 -0.64449855267E+03  0.13683437294E+04  0.10100000352E+00 0. -1.
       -3    1    3    3    0  502  0.10489159695E+04 -0.59729511643E+03 -0.30086096606E+02  0.12074317167E+04  0.10100000352E+00 0.  1.
</event>
<event>
 5   0  0.1501747E-06  0.2486373E+04  0.7818609E-02  0.8407856E-01
        1   -1    0    0  501    0  0.00000000000E+00  0.00000000000E+00  0.12984575927E+04  0.12984575927E+04  0.50400001928E-02 0. -1.
       -1   -1    0    0    0  501  0.00000000000E+00  0.00000000000E+00 -0.11902679982E+04  0.11902679983E+04  0.50400001928E-02 0.  1.
    10030    2    1    2    0    0  0.00000000000E+00  0.00000000000E+00  0.10818959443E+03  0.24887255909E+04  0.24863728760E+04 0.  0.
        2    1    3    3  502    0  0.39339877082E+02  0.31892155246E+03  0.12561699513E+04  0.12966192692E+04  0.25500000920E-02 0. -1.
       -2    1    3    3    0  502 -0.39339877082E+02 -0.31892155246E+03 -0.11479803569E+04  0.11921063218E+04  0.25500000920E-02 0.  1.
</event>
<event>
 5   0  0.1519145E-06  0.2511319E+04  0.7818609E-02  0.8398964E-01
        1   -1    0    0  501    0  0.00000000000E+00  0.00000000000E+00  0.17952036588E+04  0.17952036588E+04  0.50400001928E-02 0. -1.
       -1   -1    0    0    0  501  0.00000000000E+00  0.00000000000E+00 -0.87827401762E+03  0.87827401763E+03  0.50400001928E-02 0.  1.
    10030    2    1    2    0    0  0.00000000000E+00  0.00000000000E+00  0.91692964121E+03  0.26734776765E+04  0.25113189602E+04 0.  0.
        4    1    3    3  502    0 -0.83611023698E+03  0.44322240406E+03 -0.42014676226E+03  0.10353991224E+04  0.12699999809E+01 0.  1.
       -4    1    3    3    0  502  0.83611023698E+03 -0.44322240406E+03  0.13370764035E+04  0.16380785541E+04  0.12699999809E+01 0. -1.
</event>
<event>
 5   0  0.3971759E-06  0.2512356E+04  0.7818609E-02  0.8398597E-01
       -2   -1    0    0    0  501  0.00000000000E+00  0.00000000000E+00  0.10029052551E+04  0.10029052551E+04  0.25500000920E-02 0.  1.
        2   -1    0    0  501    0  0.00000000000E+00  0.00000000000E+00 -0.15734118272E+04  0.15734118272E+04  0.25500000920E-02 0. -1.
    10030    2    1    2    0    0  0.00000000000E+00  0.00000000000E+00 -0.57050657213E+03  0.25763170823E+04  0.25123558585E+04 0.  0.
        4    1    3    3  502    0  0.13397954243E+02 -0.59239901918E+03 -0.14210918135E+04  0.15396816744E+04  0.12699999809E+01 0. -1.
       -4    1    3    3    0  502 -0.13397954243E+02  0.59239901918E+03  0.85058524138E+03  0.10366354079E+04  0.12699999809E+01 0.  1.
</event>
<event>
 5   0  0.1541852E-06  0.2487655E+04  0.7818609E-02  0.8407397E-01
       -1   -1    0    0    0  501  0.00000000000E+00  0.00000000000E+00  0.13048038416E+04  0.13048038416E+04  0.50400001928E-02 0.  1.
        1   -1    0    0  501    0  0.00000000000E+00  0.00000000000E+00 -0.11857004373E+04  0.11857004373E+04  0.50400001928E-02 0. -1.
    10030    2    1    2    0    0  0.00000000000E+00  0.00000000000E+00  0.11910340428E+03  0.24905042790E+04  0.24876547073E+04 0.  0.
        5    1    3    3  502    0 -0.39051416671E+03  0.93659056550E+02 -0.11190015351E+04  0.11888901794E+04  0.46999998093E+01 0. -1.
       -5    1    3    3    0  502  0.39051416671E+03 -0.93659056550E+02  0.12381049394E+04  0.13016140995E+04  0.46999998093E+01 0.  1.
</event>
<event>
 5   0  0.1541852E-06  0.2499434E+04  0.7818609E-02  0.8403187E-01
        1   -1    0    0  501    0  0.00000000000E+00  0.00000000000E+00  0.21524143913E+04  0.21524143913E+04  0.50400001928E-02 0.  1.
       -1   -1    0    0    0  501  0.00000000000E+00  0.00000000000E+00 -0.72560042881E+03  0.72560042883E+03  0.50400001928E-02 0. -1.
    10030    2    1    2    0    0  0.00000000000E+00  0.00000000000E+00  0.14268139625E+04  0.28780148201E+04  0.24994341802E+04 0.  0.
        5    1    3    3  502    0  0.58329407763E+03 -0.11024411363E+04  0.62301667177E+03  0.13941952170E+04  0.46999998093E+01 0.  1.
       -5    1    3    3    0  502 -0.58329407763E+03  0.11024411363E+04  0.80379729072E+03  0.14838196031E+04  0.46999998093E+01 0. -1.
</event>
<event>
 5   0  0.1541852E-06  0.2487965E+04  0.7818609E-02  0.8407286E-01
       -1   -1    0    0    0  501  0.00000000000E+00  0.00000000000E+00  0.17302481341E+04  0.17302481341E+04  0.50400001928E-02 0. -1.
        1   -1    0    0  501    0  0.00000000000E+00  0.00000000000E+00 -0.89437591447E+03  0.89437591448E+03  0.50400001928E-02 0.  1.
    10030    2    1    2    0    0  0.00000000000E+00  0.00000000000E+00  0.83587221960E+03  0.26246240486E+04  0.24879648367E+04 0.  0.
        5    1    3    3  502    0  0.50463545818E+03  0.38506681997E+03 -0.71065789719E+03  0.95288516535E+03  0.46999998093E+01 0.  1.
       -5    1    3    3    0  502 -0.50463545818E+03 -0.38506681997E+03  0.15465301168E+04  0.16717388832E+04  0.46999998093E+01 0. -1.
</event>
<event>
 5   0  0.3814260E-06  0.2502873E+04  0.7818609E-02  0.8401963E-01
       -2   -1    0    0    0  501  0.00000000000E+00  0.00000000000E+00  0.13160958419E+04  0.13160958419E+04  0.25500000920E-02 0.  1.
        2   -1    0    0  501    0  0.00000000000E+00  0.00000000000E+00 -0.11899533867E+04  0.11899533867E+04  0.25500000920E-02 0. -1.
    10030    2    1    2    0    0  0.00000000000E+00  0.00000000000E+00  0.12614245514E+03  0.25060492286E+04  0.25028725132E+04 0.  0.
        5    1    3    3  502    0 -0.90636235224E+03 -0.68533034597E+03 -0.46190351705E+03  0.12265999127E+04  0.46999998093E+01 0. -1.
       -5    1    3    3    0  502  0.90636235224E+03  0.68533034597E+03  0.58804597219E+03  0.12794493159E+04  0.46999998093E+01 0.  1.
</event>
<event>
 5   0  0.3713394E-06  0.2503782E+04  0.7818609E-02  0.8401639E-01
        2   -1    0    0  501    0  0.00000000000E+00  0.00000000000E+00  0.95607441071E+03  0.95607441072E+03  0.25500000920E-02 0.  1.
       -2   -1    0    0    0  501  0.00000000000E+00  0.00000000000E+00 -0.16392355262E+04  0.16392355262E+04  0.25500000920E-02 0. -1.
    10030    2    1    2    0    0  0.00000000000E+00  0.00000000000E+00 -0.68316111548E+03  0.25953099369E+04  0.25037820510E+04 0.  0.
        3    1    3    3  502    0  0.31801116481E+03 -0.97119342827E+03 -0.10911210778E+04  0.14949558498E+04  0.10100000352E+00 0. -1.
       -3    1    3    3    0  502 -0.31801116481E+03  0.97119342827E+03  0.40795996233E+03  0.11003540872E+04  0.10100000352E+00 0.  1.
</event>
<event>
 5   0  0.1501747E-06  0.2503051E+04  0.7818609E-02  0.8401899E-01
       -1   -1    0    0    0  501  0.00000000000E+00  0.00000000000E+00  0.61287275716E+03  0.61287275718E+03  0.50400001928E-02 0. -1.
        1   -1    0    0  501    0  0.00000000000E+00  0.00000000000E+00 -0.25556958283E+04  0.25556958283E+04  0.50400001928E-02 0.  1.
    10030    2    1    2    0    0  0.00000000000E+00  0.00000000000E+00 -0.19428230712E+04  0.31685685855E+04  0.25030512171E+04 0.  0.
        2    1    3    3  502    0 -0.49458870889E+03 -0.74173761028E+03  0.14049428773E+03  0.90251388818E+03  0.25500000920E-02 0. -1.
       -2    1    3    3    0  502  0.49458870889E+03  0.74173761028E+03 -0.20833173589E+04  0.22660546973E+04  0.25500000920E-02 0.  1.
</event>
<event>
 5   0  0.1501747E-06  0.2497863E+04  0.7818609E-02  0.8403747E-01
        1   -1    0    0  501    0  0.00000000000E+00  0.00000000000E+00  0.14578824824E+04  0.14578824824E+04  0.50400001928E-02 0. -1.
       -1   -1    0    0    0  501  0.00000000000E+00  0.00000000000E+00 -0.10699281728E+04  0.10699281728E+04  0.50400001928E-02 0.  1.
    10030    2    1    2    0    0  0.00000000000E+00  0.00000000000E+00  0.38795430963E+03  0.25278106552E+04  0.24978627188E+04 0.  0.
        2    1    3    3  502    0  0.50773169999E+03 -0.11330595328E+04  0.57399231669E+02  0.12429441081E+04  0.25500000920E-02 0.  1.
       -2    1    3    3    0  502 -0.50773169999E+03  0.11330595328E+04  0.33055507796E+03  0.12848665470E+04  0.25500000920E-02 0. -1.
</event>
<event>
 5   0  0.3808293E-06  0.2489217E+04  0.7818609E-02  0.8406837E-01
       -2   -1    0    0    0  501  0.00000000000E+00  0.00000000000E+00  0.10921586499E+04  0.10921586499E+04  0.25500000920E-02 0. -1.
        2   -1    0    0  501    0  0.00000000000E+00  0.00000000000E+00 -0.14183379469E+04  0.14183379469E+04  0.25500000920E-02 0.  1.
    10030    2    1    2    0    0  0.00000000000E+00  0.00000000000E+00 -0.32617929703E+03  0.25104965969E+04  0.24892167903E+04 0.  0.
        1    1    3    3  502    0 -0.79987857876E+02 -0.14022930739E+02 -0.14156631415E+04  0.14179904196E+04  0.50400001928E-02 0.  1.
       -1    1    3    3    0  502  0.79987857876E+02  0.14022930739E+02  0.10894838444E+04  0.10925061772E+04  0.50400001928E-02 0. -1.
</event>
<event>
 5   0  0.3808293E-06  0.2500945E+04  0.7818609E-02  0.8402649E-01
        2   -1    0    0  501    0  0.00000000000E+00  0.00000000000E+00  0.29010171210E+04  0.29010171210E+04  0.25500000920E-02 0. -1.
       -2   -1    0    0    0  501  0.00000000000E+00  0.00000000000E+00 -0.53901147046E+03  0.53901147047E+03  0.25500000920E-02 0.  1.
    10030    2    1    2    0    0  0.00000000000E+00  0.00000000000E+00  0.23620056505E+04  0.34400285914E+04  0.25009450248E+04 0.  0.
        1    1    3    3  502    0 -0.13701031971E+03  0.70415812841E+03 -0.22783287809E+03  0.75267411134E+03  0.50400001928E-02 0.  1.
       -1    1    3    3    0  502  0.13701031971E+03 -0.70415812841E+03  0.25898385286E+04  0.26873544801E+04  0.50400001928E-02 0. -1.
</event>
<event>
 5   0  0.3713394E-06  0.2499753E+04  0.7818609E-02  0.8403074E-01
       -2   -1    0    0    0  501  0.00000000000E+00  0.00000000000E+00  0.89383165840E+03  0.89383165840E+03  0.25500000920E-02 0. -1.
        2   -1    0    0  501    0  0.00000000000E+00  0.00000000000E+00 -0.17477466659E+04  0.17477466659E+04  0.25500000920E-02 0.  1.
    10030    2    1    2    0    0  0.00000000000E+00  0.00000000000E+00 -0.85391500747E+03  0.26415783243E+04  0.24997530285E+04 0.  0.
        3    1    3    3  502    0 -0.42432293867E+03  0.11162404007E+04 -0.81687537593E+03  0.14468337771E+04  0.10100000352E+00 0.  1.
       -3    1    3    3    0  502  0.42432293867E+03 -0.11162404007E+04 -0.37039631541E+02  0.11947445472E+04  0.10100000352E+00 0. -1.
</event>
<event>
 5   0  0.1519145E-06  0.2500819E+04  0.7818609E-02  0.8402694E-01
        1   -1    0    0  501    0  0.00000000000E+00  0.00000000000E+00  0.14821249268E+04  0.14821249268E+04  0.50400001928E-02 0.  1.
       -1   -1    0    0    0  501  0.00000000000E+00  0.00000000000E+00 -0.10549203212E+04  0.10549203212E+04  0.50400001928E-02 0. -1.
    10030    2    1    2    0    0  0.00000000000E+00  0.00000000000E+00  0.42720460564E+03  0.25370452480E+04  0.25008188289E+04 0.  0.
        4    1    3    3  502    0  0.10422045074E+04  0.67193265588E+03  0.50530651562E+02  0.12410635314E+04  0.12699999809E+01 0. -1.
       -4    1    3    3    0  502 -0.10422045074E+04 -0.67193265588E+03  0.37667395408E+03  0.12959817166E+04  0.12699999809E+01 0.  1.
</event>
<event>
 5   0  0.1519145E-06  0.2499098E+04  0.7818609E-02  0.8403307E-01
       -1   -1    0    0    0  501  0.00000000000E+00  0.00000000000E+00  0.12202921853E+04  0.12202921853E+04  0.50400001928E-02 0.  1.
        1   -1    0    0  501    0  0.00000000000E+00  0.00000000000E+00 -0.12795069772E+04  0.12795069772E+04  0.50400001928E-02 0. -1.
    10030    2    1    2    0    0  0.00000000000E+00  0.00000000000E+00 -0.59214791894E+02  0.24997991624E+04  0.24990977294E+04 0.  0.
        4    1    3    3  502    0 -0.12466275746E+04 -0.85287558700E+02 -0.25547336797E+02  0.12498034073E+04  0.12699999809E+01 0. -1.
       -4    1    3    3    0  502  0.12466275746E+04  0.85287558700E+02 -0.33667455096E+02  0.12499957552E+04  0.12699999809E+01 0.  1.
</event>
<event>
 5   0  0.1553604E-06  0.2501452E+04  0.7818609E-02  0.8402469E-01
       -1   -1    0    0    0  501  0.00000000000E+00  0.00000000000E+00  0.11229667529E+04  0.11229667529E+04  0.50400001928E-02 0.  1.
        1   -1    0    0  501    0  0.00000000000E+00  0.00000000000E+00 -0.13930199183E+04  0.13930199183E+04  0.50400001928E-02 0. -1.
    10030    2    1    2    0    0  0.00000000000E+00  0.00000000000E+00 -0.27005316541E+03  0.25159866712E+04  0.25014516220E+04 0.  0.
        1    1    3    3  502    0 -0.10497355193E+04 -0.43263629859E+03  0.39261311845E+03  0.12013591836E+04  0.50400001928E-02 0. -1.
       -1    1    3    3    0  502  0.10497355193E+04  0.43263629859E+03 -0.66266628386E+03  0.13146274876E+04  0.50400001928E-02 0.  1.
</event>
<event>
 5   0  0.3814260E-06  0.2468473E+04  0.7818609E-02  0.8414304E-01
       -2   -1    0    0    0  501  0.00000000000E+00  0.00000000000E+00  0.11393362241E+04  0.11393362241E+04  0.25500000920E-02 0.  1.
        2   -1    0    0  501    0  0.00000000000E+00  0.00000000000E+00 -0.13370410568E+04  0.13370410568E+04  0.25500000920E-02 0. -1.
    10030    2    1    2    0    0  0.00000000000E+00  0.00000000000E+00 -0.19770483276E+03  0.24763772809E+04  0.24684726526E+04 0.  0.
        5    1    3    3  502    0  0.68843195189E+03  0.10214084609E+04 -0.20477837866E+02  0.12319315031E+04  0.46999998093E+01 0. -1.
       -5    1    3    3    0  502 -0.68843195189E+03 -0.10214084609E+04 -0.17722699489E+03  0.12444457779E+04  0.46999998093E+01 0.  1.
</event>
<event>
 5   0  0.1574896E-06  0.2496778E+04  0.7818609E-02  0.8404134E-01
       -1   -1    0    0    0  501  0.00000000000E+00  0.00000000000E+00  0.10392674281E+04  0.10392674281E+04  0.50400001928E-02 0. -1.
        1   -1    0    0  501    0  0.00000000000E+00  0.00000000000E+00 -0.14995900686E+04  0.14995900686E+04  0.50400001928E-02 0.  1.
    10030    2    1    2    0    0  0.00000000000E+00  0.00000000000E+00 -0.46032264052E+03  0.25388574966E+04  0.24967780147E+04 0.  0.
        3    1    3    3  502    0  0.59437589927E+02  0.11810908593E+04 -0.63686034406E+03  0.13431677308E+04  0.10100000352E+00 0.  1.
       -3    1    3    3    0  502 -0.59437589927E+02 -0.11810908593E+04  0.17653770354E+03  0.11956897658E+04  0.10100000352E+00 0. -1.
</event>
<event>
 5   0  0.1287375E-06  0.2521427E+04  0.7818609E-02  0.8395392E-01
       -4   -1    0    0    0  501  0.00000000000E+00  0.00000000000E+00  0.20192925056E+04  0.20192929050E+04  0.12699999809E+01 0. -1.
        4   -1    0    0  501    0  0.00000000000E+00  0.00000000000E+00 -0.78710558369E+03  0.78710660826E+03  0.12699999809E+01 0.  1.
    10030    2    1    2    0    0  0.00000000000E+00  0.00000000000E+00  0.12321869219E+04  0.28063995132E+04  0.25214269011E+04 0.  0.
        2    1    3    3  502    0 -0.60579928872E+03 -0.32175281612E+03 -0.56122787789E+03  0.88628121035E+03  0.25500000920E-02 0.  1.
       -2    1    3    3    0  502  0.60579928872E+03  0.32175281612E+03  0.17934147998E+04  0.19201183029E+04  0.25500000920E-02 0. -1.
</event>
<event>
 5   0  0.3808293E-06  0.2498439E+04  0.7818609E-02  0.8403542E-01
        2   -1    0    0  501    0  0.00000000000E+00  0.00000000000E+00  0.12360421437E+04  0.12360421437E+04  0.25500000920E-02 0. -1.
       -2   -1    0    0    0  501  0.00000000000E+00  0.00000000000E+00 -0.12625374317E+04  0.12625374317E+04  0.25500000920E-02 0.  1.
    10030    2    1    2    0    0  0.00000000000E+00  0.00000000000E+00 -0.26495288066E+02  0.24985795754E+04  0.24984390916E+04 0.  0.
        1    1    3    3  502    0 -0.28262380365E+03 -0.11926829905E+04 -0.25446763971E+03  0.12518477183E+04  0.50400001928E-02 0.  1.
       -1    1    3    3    0  502  0.28262380365E+03  0.11926829905E+04  0.22797235164E+03  0.12467318570E+04  0.50400001928E-02 0. -1.
</event>
<event>
 5   0  0.3808293E-06  0.2501262E+04  0.7818609E-02  0.8402536E-01
       -2   -1    0    0    0  501  0.00000000000E+00  0.00000000000E+00  0.81142028342E+03  0.81142028343E+03  0.25500000920E-02 0. -1.
        2   -1    0    0  501    0  0.00000000000E+00  0.00000000000E+00 -0.19275797698E+04  0.19275797698E+04  0.25500000920E-02 0.  1.
    10030    2    1    2    0    0  0.00000000000E+00  0.00000000000E+00 -0.11161594864E+04  0.27390000532E+04  0.25012615402E+04 0.  0.
        1    1    3    3  502    0  0.90202632948E+03  0.82157447087E+03 -0.85885164803E+03  0.14920664407E+04  0.50400001928E-02 0.  1.
       -1    1    3    3    0  502 -0.90202632948E+03 -0.82157447087E+03 -0.25730783836E+03  0.12469336125E+04  0.50400001928E-02 0. -1.
</event>
<event>
 5   0  0.3814260E-06  0.2498281E+04  0.7818609E-02  0.8403598E-01
       -2   -1    0    0    0  501  0.00000000000E+00  0.00000000000E+00  0.12069194442E+04  0.12069194442E+04  0.25500000920E-02 0.  1.
        2   -1    0    0  501    0  0.00000000000E+00  0.00000000000E+00 -0.12928388067E+04  0.12928388067E+04  0.25500000920E-02 0. -1.
    10030    2    1    2    0    0  0.00000000000E+00  0.00000000000E+00 -0.85919362457E+02  0.24997582509E+04  0.24982812444E+04 0.  0.
        5    1    3    3  502    0  0.73047584642E+03  0.93193411277E+03 -0.44098129554E+03  0.12635595537E+04  0.46999998093E+01 0. -1.
       -5    1    3    3    0  502 -0.73047584642E+03 -0.93193411277E+03  0.35506193308E+03  0.12361986972E+04  0.46999998093E+01 0.  1.
</event>
<event>
 5   0  0.1519145E-06  0.2498975E+04  0.7818609E-02  0.8403351E-01
        1   -1    0    0  501    0  0.00000000000E+00  0.00000000000E+00  0.16073328113E+04  0.16073328113E+04  0.50400001928E-02 0.  1.
       -1   -1    0    0    0  501  0.00000000000E+00  0.00000000000E+00 -0.97131047309E+03  0.97131047310E+03  0.50400001928E-02 0. -1.
    10030    2    1    2    0    0  0.00000000000E+00  0.00000000000E+00  0.63602233819E+03  0.25786432844E+04  0.24989751446E+04 0.  0.
        4    1    3    3  502    0  0.36864120179E+03  0.10222702806E+04  0.95434317634E+03  0.14462729249E+04  0.12699999809E+01 0.  1.
       -4    1    3    3    0  502 -0.36864120179E+03 -0.10222702806E+04 -0.31832083815E+03  0.11323703595E+04  0.12699999809E+01 0. -1.
</event>
<event>
 5   0  0.3808293E-06  0.2505378E+04  0.7818609E-02  0.8401072E-01
       -2   -1    0    0    0  501  0.00000000000E+00  0.00000000000E+00  0.10107352189E+04  0.10107352189E+04  0.25500000920E-02 0. -1.
        2   -1    0    0  501    0  0.00000000000E+00  0.00000000000E+00 -0.15525624825E+04  0.15525624825E+04  0.25500000920E-02 0.  1.
    10030    2    1    2    0    0  0.00000000000E+00  0.00000000000E+00 -0.54182726362E+03  0.25632977014E+04  0.25053778802E+04 0.  0.
        1    1    3    3  502    0  0.52581623377E+03  0.33980437856E+03  0.83919547478E+03  0.10469951157E+04  0.50400001928E-02 0. -1.
       -1    1    3    3    0  502 -0.52581623377E+03 -0.33980437856E+03 -0.13810227384E+04  0.15163025857E+04  0.50400001928E-02 0.  1.
</event>
<event>
 5   0  0.1519145E-06  0.2500246E+04  0.7818609E-02  0.8402898E-01
       -1   -1    0    0    0  501  0.00000000000E+00  0.00000000000E+00  0.78705319397E+03  0.78705319399E+03  0.50400001928E-02 0.  1.
        1   -1    0    0  501    0  0.00000000000E+00  0.00000000000E+00 -0.19856447092E+04  0.19856447092E+04  0.50400001928E-02 0. -1.
    10030    2    1    2    0    0  0.00000000000E+00  0.00000000000E+00 -0.11985915152E+04  0.27726979032E+04  0.25002463963E+04 0.  0.
        4    1    3    3  502    0 -0.10647334035E+04  0.61032932586E+03 -0.86323825209E+03  0.15004469332E+04  0.12699999809E+01 0.  1.
       -4    1    3    3    0  502  0.10647334035E+04 -0.61032932586E+03 -0.33535326316E+03  0.12722509700E+04  0.12699999809E+01 0. -1.
</event>
<event>
 5   0  0.1501747E-06  0.2499094E+04  0.7818609E-02  0.8403308E-01
        1   -1    0    0  501    0  0.00000000000E+00  0.00000000000E+00  0.20400111947E+04  0.20400111947E+04  0.50400001928E-02 0.  1.
       -1   -1    0    0    0  501  0.00000000000E+00  0.00000000000E+00 -0.76537220864E+03  0.76537220865E+03  0.50400001928E-02 0. -1.
    10030    2    1    2    0    0  0.00000000000E+00  0.00000000000E+00  0.12746389860E+04  0.28053834033E+04  0.24990941349E+04 0.  0.
        2    1    3    3  502    0  0.90174899010E+03  0.30265381457E+02 -0.33309502448E+03  0.96177935609E+03  0.25500000920E-02 0. -1.
       -2    1    3    3    0  502 -0.90174899010E+03 -0.30265381457E+02  0.16077340105E+04  0.18436040473E+04  0.25500000920E-02 0.  1.
</event>
<event>
 5   0  0.1501747E-06  0.2499668E+04  0.7818609E-02  0.8403104E-01
       -1   -1    0    0    0  501  0.00000000000E+00  0.00000000000E+00  0.10599032295E+04  0.10599032295E+04  0.50400001928E-02 0. -1.
        1   -1    0    0  501    0  0.00000000000E+00  0.00000000000E+00 -0.14737993072E+04  0.14737993072E+04  0.50400001928E-02 0.  1.
    10030    2    1    2    0    0  0.00000000000E+00  0.00000000000E+00 -0.41389607770E+03  0.25337025367E+04  0.24996676942E+04 0.  0.
        2    1    3    3  502    0 -0.55424591640E+03 -0.10858016483E+04 -0.48625553642E+03  0.13124778863E+04  0.25500000920E-02 0. -1.
       -2    1    3    3    0  502  0.55424591640E+03  0.10858016483E+04  0.72359458720E+02  0.12212246504E+04  0.25500000920E-02 0.  1.
</event>
<event>
 5   0  0.1553604E-06  0.2499319E+04  0.7818609E-02  0.8403228E-01
       -1   -1    0    0    0  501  0.00000000000E+00  0.00000000000E+00  0.87818625704E+03  0.87818625705E+03  0.50400001928E-02 0. -1.
        1   -1    0    0  501    0  0.00000000000E+00  0.00000000000E+00 -0.17782661421E+04  0.17782661421E+04  0.50400001928E-02 0.  1.
    10030    2    1    2    0    0  0.00000000000E+00  0.00000000000E+00 -0.90007988503E+03  0.26564523991E+04  0.24993190171E+04 0.  0.
        1    1    3    3  502    0  0.86361819429E+03 -0.82137704021E+03 -0.50717000632E+02  0.11929244913E+04  0.50400001928E-02 0. -1.
       -1    1    3    3    0  502 -0.86361819429E+03  0.82137704021E+03 -0.84936288440E+03  0.14635279079E+04  0.50400001928E-02 0.  1.
</event>
<event>
 5   0  0.1519145E-06  0.2501277E+04  0.7818609E-02  0.8402531E-01
       -1   -1    0    0    0  501  0.00000000000E+00  0.00000000000E+00  0.77426751645E+03  0.77426751647E+03  0.50400001928E-02 0.  1.
        1   -1    0    0  501    0  0.00000000000E+00  0.00000000000E+00 -0.20200986817E+04  0.20200986817E+04  0.50400001928E-02 0. -1.
    10030    2    1    2    0    0  0.00000000000E+00  0.00000000000E+00 -0.12458311653E+04  0.27943661982E+04  0.25012771053E+04 0.  0.
        4    1    3    3  502    0  0.81458612338E+03  0.89219326458E+03 -0.26171034391E+03  0.12361445267E+04  0.12699999809E+01 0.  1.
       -4    1    3    3    0  502 -0.81458612338E+03 -0.89219326458E+03 -0.98412082138E+03  0.15582216716E+04  0.12699999809E+01 0. -1.
</event>
<event>
 5   0  0.3971759E-06  0.2510788E+04  0.7818609E-02  0.8399152E-01
       -2   -1    0    0    0  501  0.00000000000E+00  0.00000000000E+00  0.73706712471E+03  0.73706712472E+03  0.25500000920E-02 0.  1.
        2   -1    0    0  501    0  0.00000000000E+00  0.00000000000E+00 -0.21382234514E+04  0.21382234514E+04  0.25500000920E-02 0. -1.
    10030    2    1    2    0    0  0.00000000000E+00  0.00000000000E+00 -0.14011563266E+04  0.28752905761E+04  0.25107880924E+04 0.  0.
        4    1    3    3  502    0 -0.56286969538E+02  0.10256108991E+04  0.12598614029E+03  0.10348526753E+04  0.12699999809E+01 0.  1.
       -4    1    3    3    0  502  0.56286969538E+02 -0.10256108991E+04 -0.15271424669E+04  0.18404379007E+04  0.12699999809E+01 0. -1.
</event>
<event>
 5   0  0.3971759E-06  0.2499522E+04  0.7818609E-02  0.8403156E-01
        2   -1    0    0  501    0  0.00000000000E+00  0.00000000000E+00  0.15982841744E+04  0.15982841744E+04  0.25500000920E-02 0.  1.
       -2   -1    0    0    0  501  0.00000000000E+00  0.00000000000E+00 -0.97723693485E+03  0.97723693485E+03  0.25500000920E-02 0. -1.
    10030    2    1    2    0    0  0.00000000000E+00  0.00000000000E+00  0.62104723951E+03  0.25755211092E+04  0.24995218163E+04 0.  0.
        4    1    3    3  502    0 -0.25859373604E+03  0.70768971381E+02 -0.94725580344E+03  0.98446642283E+03  0.12699999809E+01 0. -1.
       -4    1    3    3    0  502  0.25859373604E+03 -0.70768971381E+02  0.15683030430E+04  0.15910546864E+04  0.12699999809E+01 0.  1.
</event>
<event>
 5   0  0.1541852E-06  0.2497134E+04  0.7818609E-02  0.8404007E-01
       -1   -1    0    0    0  501  0.00000000000E+00  0.00000000000E+00  0.11425582956E+04  0.11425582957E+04  0.50400001928E-02 0. -1.
        1   -1    0    0  501    0  0.00000000000E+00  0.00000000000E+00 -0.13644112096E+04  0.13644112097E+04  0.50400001928E-02 0.  1.
    10030    2    1    2    0    0  0.00000000000E+00  0.00000000000E+00 -0.22185291401E+03  0.25069695053E+04  0.24971338340E+04 0.  0.
        5    1    3    3  502    0 -0.39947192860E+03  0.93746640792E+03 -0.83520839786E+03  0.13175796923E+04  0.46999998093E+01 0.  1.
       -5    1    3    3    0  502  0.39947192860E+03 -0.93746640792E+03  0.61335548385E+03  0.11893898130E+04  0.46999998093E+01 0. -1.
</event>
<event>
 5   0  0.3924441E-06  0.2493033E+04  0.7818609E-02  0.8405472E-01
        2   -1    0    0  501    0  0.00000000000E+00  0.00000000000E+00  0.12993911488E+04  0.12993911488E+04  0.25500000920E-02 0.  1.
       -2   -1    0    0    0  501  0.00000000000E+00  0.00000000000E+00 -0.11957931429E+04  0.11957931429E+04  0.25500000920E-02 0. -1.
    10030    2    1    2    0    0  0.00000000000E+00  0.00000000000E+00  0.10359800585E+03  0.24951842917E+04  0.24930327120E+04 0.  0.
        2    1    3    3  502    0 -0.82097207217E+03  0.44207177126E+03 -0.77618785246E+03  0.12132148106E+04  0.25500000920E-02 0. -1.
       -2    1    3    3    0  502  0.82097207217E+03 -0.44207177126E+03  0.87978585831E+03  0.12819694812E+04  0.25500000920E-02 0.  1.
</event>
<event>
 5   0  0.1541852E-06  0.2500985E+04  0.7818609E-02  0.8402635E-01
       -1   -1    0    0    0  501  0.00000000000E+00  0.00000000000E+00  0.12745161840E+04  0.12745161840E+04  0.50400001928E-02 0.  1.
        1   -1    0    0  501    0  0.00000000000E+00  0.00000000000E+00 -0.12269215846E+04  0.12269215846E+04  0.50400001928E-02 0. -1.
    10030    2    1    2    0    0  0.00000000000E+00  0.00000000000E+00  0.47594599395E+02  0.25014377686E+04  0.25009849388E+04 0.  0.
        5    1    3    3  502    0 -0.67125904593E+03 -0.73448230252E+02 -0.10288788823E+04  0.12306897227E+04  0.46999998093E+01 0. -1.
       -5    1    3    3    0  502  0.67125904593E+03  0.73448230252E+02  0.10764734817E+04  0.12707480458E+04  0.46999998093E+01 0.  1.
</event>
<event>
 5   0  0.3808293E-06  0.2495937E+04  0.7818609E-02  0.8404435E-01
        2   -1    0    0  501    0  0.00000000000E+00  0.00000000000E+00  0.11686254225E+04  0.11686254225E+04  0.25500000920E-02 0.  1.
       -2   -1    0    0    0  501  0.00000000000E+00  0.00000000000E+00 -0.13326982515E+04  0.13326982515E+04  0.25500000920E-02 0. -1.
    10030    2    1    2    0    0  0.00000000000E+00  0.00000000000E+00 -0.16407282905E+03  0.25013236740E+04  0.24959367437E+04 0.  0.
        1    1    3    3  502    0 -0.47054958693E+03 -0.87814546909E+02  0.10729686109E+04  0.11748999738E+04  0.50400001928E-02 0.  1.
       -1    1    3    3    0  502  0.47054958693E+03  0.87814546909E+02 -0.12370414399E+04  0.13264237002E+04  0.50400001928E-02 0. -1.
</event>
<event>
 5   0  0.3971759E-06  0.2479587E+04  0.7818609E-02  0.8410294E-01
       -2   -1    0    0    0  501  0.00000000000E+00  0.00000000000E+00  0.55078161422E+03  0.55078161423E+03  0.25500000920E-02 0.  1.
        2   -1    0    0  501    0  0.00000000000E+00  0.00000000000E+00 -0.27907385044E+04  0.27907385044E+04  0.25500000920E-02 0. -1.
    10030    2    1    2    0    0  0.00000000000E+00  0.00000000000E+00 -0.22399568901E+04  0.33415201186E+04  0.24795866255E+04 0.  0.
        4    1    3    3  502    0 -0.67038697814E+03  0.48131036941E+03  0.12684101843E+03  0.83496624424E+03  0.12699999809E+01 0.  1.
       -4    1    3    3    0  502  0.67038697814E+03 -0.48131036941E+03 -0.23667979086E+04  0.25065538744E+04  0.12699999809E+01 0. -1.
</event>
<event>
 5   0  0.1541852E-06  0.2498713E+04  0.7818609E-02  0.8403444E-01
       -1   -1    0    0    0  501  0.00000000000E+00  0.00000000000E+00  0.13728832675E+04  0.13728832675E+04  0.50400001928E-02 0. -1.
        1   -1    0    0  501    0  0.00000000000E+00  0.00000000000E+00 -0.11369438808E+04  0.11369438808E+04  0.50400001928E-02 0.  1.
    10030    2    1    2    0    0  0.00000000000E+00  0.00000000000E+00  0.23593938666E+03  0.25098271483E+04  0.24987126526E+04 0.  0.
        5    1    3    3  502    0  0.34534119053E+03 -0.50752443413E+03  0.12109400941E+04  0.13576596004E+04  0.46999998093E+01 0. -1.
       -5    1    3    3    0  502 -0.34534119053E+03  0.50752443413E+03 -0.97500070740E+03  0.11521675479E+04  0.46999998093E+01 0.  1.
</event>
<event>
 5   0  0.3971759E-06  0.2502834E+04  0.7818609E-02  0.8401976E-01
       -2   -1    0    0    0  501  0.00000000000E+00  0.00000000000E+00  0.95484853569E+03  0.95484853569E+03  0.25500000920E-02 0.  1.
        2   -1    0    0  501    0  0.00000000000E+00  0.00000000000E+00 -0.16400977647E+04  0.16400977647E+04  0.25500000920E-02 0. -1.
    10030    2    1    2    0    0  0.00000000000E+00  0.00000000000E+00 -0.68524922896E+03  0.25949463003E+04  0.25028343525E+04 0.  0.
        4    1    3    3  502    0 -0.15883781100E+03  0.48296972636E+03  0.84294239578E+03  0.98439966593E+03  0.12699999809E+01 0.  1.
       -4    1    3    3    0  502  0.15883781100E+03 -0.48296972636E+03 -0.15281916247E+04  0.16105466344E+04  0.12699999809E+01 0. -1.
</event>
<event>
 5   0  0.3814260E-06  0.2506324E+04  0.7818609E-02  0.8400736E-01
        2   -1    0    0  501    0  0.00000000000E+00  0.00000000000E+00  0.93737248055E+03  0.93737248056E+03  0.25500000920E-02 0.  1.
       -2   -1    0    0    0  501  0.00000000000E+00  0.00000000000E+00 -0.16753378768E+04  0.16753378768E+04  0.25500000920E-02 0. -1.
    10030    2    1    2    0    0  0.00000000000E+00  0.00000000000E+00 -0.73796539625E+03  0.26127103574E+04  0.25063244972E+04 0.  0.
        5    1    3    3  502    0  0.89834235667E+03 -0.85650499402E+03 -0.54885762910E+03  0.13571612217E+04  0.46999998093E+01 0.  1.
       -5    1    3    3    0  502 -0.89834235667E+03  0.85650499402E+03 -0.18910776715E+03  0.12555491357E+04  0.46999998093E+01 0. -1.
</event>
<event>
 5   0  0.3808293E-06  0.2499829E+04  0.7818609E-02  0.8403046E-01
       -2   -1    0    0    0  501  0.00000000000E+00  0.00000000000E+00  0.16775526017E+04  0.16775526017E+04  0.25500000920E-02 0.  1.
        2   -1    0    0  501    0  0.00000000000E+00  0.00000000000E+00 -0.93128897394E+03  0.93128897395E+03  0.25500000920E-02 0. -1.
    10030    2    1    2    0    0  0.00000000000E+00  0.00000000000E+00  0.74626362773E+03  0.26088415756E+04  0.24998289871E+04 0.  0.
        1    1    3    3  502    0 -0.25274610093E+03  0.95661327380E+03 -0.42391194373E+03  0.10764250476E+04  0.50400001928E-02 0. -1.
       -1    1    3    3    0  502  0.25274610093E+03 -0.95661327380E+03  0.11701755715E+04  0.15324165280E+04  0.50400001928E-02 0.  1.
</event>
<event>
 5   0  0.1519145E-06  0.2499317E+04  0.7818609E-02  0.8403229E-01
       -1   -1    0    0    0  501  0.00000000000E+00  0.00000000000E+00  0.84413120358E+03  0.84413120360E+03  0.50400001928E-02 0. -1.
        1   -1    0    0  501    0  0.00000000000E+00  0.00000000000E+00 -0.18500040995E+04  0.18500040995E+04  0.50400001928E-02 0.  1.
    10030    2    1    2    0    0  0.00000000000E+00  0.00000000000E+00 -0.10058728959E+04  0.26941353031E+04  0.24993168564E+04 0.  0.
        4    1    3    3  502    0 -0.97928033300E+03 -0.18130101608E+03 -0.13166160281E+04  0.16508602022E+04  0.12699999809E+01 0.  1.
       -4    1    3    3    0  502  0.97928033300E+03  0.18130101608E+03  0.31074313215E+03  0.10432751009E+04  0.12699999809E+01 0. -1.
</event>
<event>
 5   0  0.3808293E-06  0.2498507E+04  0.7818609E-02  0.8403518E-01
       -2   -1    0    0    0  501  0.00000000000E+00  0.00000000000E+00  0.82399297303E+03  0.82399297303E+03  0.25500000920E-02 0. -1.
        2   -1    0    0  501    0  0.00000000000E+00  0.00000000000E+00 -0.18939897228E+04  0.18939897228E+04  0.25500000920E-02 0.  1.
    10030    2    1    2    0    0  0.00000000000E+00  0.00000000000E+00 -0.10699967497E+04  0.27179826958E+04  0.24985069322E+04 0.  0.
        1    1    3    3  502    0 -0.53513690820E+02 -0.66551124436E+03  0.61362414320E+03  0.90680952831E+03  0.50400001928E-02 0. -1.
       -1    1    3    3    0  502  0.53513690820E+02  0.66551124436E+03 -0.16836208929E+04  0.18111731675E+04  0.50400001928E-02 0.  1.
</event>
<event>
 5   0  0.1501747E-06  0.2497717E+04  0.7818609E-02  0.8403799E-01
        1   -1    0    0  501    0  0.00000000000E+00  0.00000000000E+00  0.19056487305E+04  0.19056487305E+04  0.50400001928E-02 0.  1.
       -1   -1    0    0    0  501  0.00000000000E+00  0.00000000000E+00 -0.81843415428E+03  0.81843415429E+03  0.50400001928E-02 0. -1.
    10030    2    1    2    0    0  0.00000000000E+00  0.00000000000E+00  0.10872145762E+04  0.27240828848E+04  0.24977173636E+04 0.  0.
        2    1    3    3  502    0  0.22730896078E+03  0.50858931326E+03  0.17626336516E+04  0.18485696749E+04  0.25500000920E-02 0.  1.
       -2    1    3    3    0  502 -0.22730896078E+03 -0.50858931326E+03 -0.67541907542E+03  0.87551320987E+03  0.25500000920E-02 0. -1.
</event>
<event>
 5   0  0.3713394E-06  0.2501225E+04  0.7818609E-02  0.8402549E-01
        2   -1    0    0  501    0  0.00000000000E+00  0.00000000000E+00  0.19269292956E+04  0.19269292956E+04  0.25500000920E-02 0. -1.
       -2   -1    0    0    0  501  0.00000000000E+00  0.00000000000E+00 -0.81167056792E+03  0.81167056792E+03  0.25500000920E-02 0.  1.
    10030    2    1    2    0    0  0.00000000000E+00  0.00000000000E+00  0.11152587277E+04  0.27385998635E+04  0.25012251364E+04 0.  0.
        3    1    3    3  502    0 -0.46631913012E+03 -0.68174615558E+02 -0.71072557902E+03  0.85277908523E+03  0.10100000352E+00 0.  1.
       -3    1    3    3    0  502  0.46631913012E+03  0.68174615558E+02  0.18259843067E+04  0.18858207783E+04  0.10100000352E+00 0. -1.
</event>
<event>
 5   0  0.1519145E-06  0.2500410E+04  0.7818609E-02  0.8402839E-01
        1   -1    0    0  501    0  0.00000000000E+00  0.00000000000E+00  0.15037027522E+04  0.15037027523E+04  0.50400001928E-02 0.  1.
       -1   -1    0    0    0  501  0.00000000000E+00  0.00000000000E+00 -0.10394426781E+04  0.10394426781E+04  0.50400001928E-02 0. -1.
    10030    2    1    2    0    0  0.00000000000E+00  0.00000000000E+00  0.46426007418E+03  0.25431454303E+04  0.25004102190E+04 0.  0.
        4    1    3    3  502    0  0.23724564911E+03  0.98309476170E+03 -0.51544962393E+03  0.11350994389E+04  0.12699999809E+01 0.  1.
       -4    1    3    3    0  502 -0.23724564911E+03 -0.98309476170E+03  0.97970969811E+03  0.14080459914E+04  0.12699999809E+01 0. -1.
</event>
<event>
 5   0  0.1553604E-06  0.2496898E+04  0.7818609E-02  0.8404091E-01
        1   -1    0    0  501    0  0.00000000000E+00  0.00000000000E+00  0.14204214867E+04  0.14204214867E+04  0.50400001928E-02 0.  1.
       -1   -1    0    0    0  501  0.00000000000E+00  0.00000000000E+00 -0.10972974120E+04  0.10972974120E+04  0.50400001928E-02 0. -1.
    10030    2    1    2    0    0  0.00000000000E+00  0.00000000000E+00  0.32312407471E+03  0.25177188987E+04  0.24968979325E+04 0.  0.
        1    1    3    3  502    0  0.10629459186E+03 -0.60603682659E+03 -0.93379538002E+03  0.11182812648E+04  0.50400001928E-02 0. -1.
       -1    1    3    3    0  502 -0.10629459186E+03  0.60603682659E+03  0.12569194547E+04  0.13994376339E+04  0.50400001928E-02 0.  1.
</event>
<event>
 5   0  0.3713394E-06  0.2502706E+04  0.7818609E-02  0.8402022E-01
       -2   -1    0    0    0  501  0.00000000000E+00  0.00000000000E+00  0.77320876011E+03  0.77320876011E+03  0.25500000920E-02 0. -1.
        2   -1    0    0  501    0  0.00000000000E+00  0.00000000000E+00 -0.20251762753E+04  0.20251762753E+04  0.25500000920E-02 0.  1.
    10030    2    1    2    0    0  0.00000000000E+00  0.00000000000E+00 -0.12519675152E+04  0.27983850354E+04  0.25027057652E+04 0.  0.
        3    1    3    3  502    0  0.34512162396E+02 -0.73455677540E+03  0.50611646733E+03  0.89270299335E+03  0.10100000352E+00 0. -1.
       -3    1    3    3    0  502 -0.34512162396E+02  0.73455677540E+03 -0.17580839825E+04  0.19056820421E+04  0.10100000352E+00 0.  1.
</event>
<event>
 5   0  0.3971759E-06  0.2473443E+04  0.7818609E-02  0.8412508E-01
       -2   -1    0    0    0  501  0.00000000000E+00  0.00000000000E+00  0.16524808895E+04  0.16524808895E+04  0.25500000920E-02 0.  1.
        2   -1    0    0  501    0  0.00000000000E+00  0.00000000000E+00 -0.92556598910E+03  0.92556598910E+03  0.25500000920E-02 0. -1.
    10030    2    1    2    0    0  0.00000000000E+00  0.00000000000E+00  0.72691490040E+03  0.25780468786E+04  0.24734430327E+04 0.  0.
        4    1    3    3  502    0  0.61650549446E+02 -0.11834026446E+04 -0.53955286523E+01  0.11850203940E+04  0.12699999809E+01 0. -1.
       -4    1    3    3    0  502 -0.61650549446E+02  0.11834026446E+04  0.73231042905E+03  0.13930264846E+04  0.12699999809E+01 0.  1.
</event>
<event>
 5   0  0.1541852E-06  0.2495561E+04  0.7818609E-02  0.8404568E-01
        1   -1    0    0  501    0  0.00000000000E+00  0.00000000000E+00  0.21170634077E+04  0.21170634077E+04  0.50400001928E-02 0.  1.
       -1   -1    0    0    0  501  0.00000000000E+00  0.00000000000E+00 -0.73543226655E+03  0.73543226656E+03  0.50400001928E-02 0. -1.
    10030    2    1    2    0    0  0.00000000000E+00  0.00000000000E+00  0.13816311411E+04  0.28524956742E+04  0.24955614521E+04 0.  0.
        5    1    3    3  502    0 -0.81881148335E+03  0.66961253449E+03  0.14473767890E+04  0.17926948572E+04  0.46999998093E+01 0. -1.
       -5    1    3    3    0  502  0.81881148335E+03 -0.66961253449E+03 -0.65745647900E+02  0.10598008170E+04  0.46999998093E+01 0.  1.
</event>
<event>
 5   0  0.3808293E-06  0.2497992E+04  0.7818609E-02  0.8403701E-01
        2   -1    0    0  501    0  0.00000000000E+00  0.00000000000E+00  0.16973040018E+04  0.16973040018E+04  0.25500000920E-02 0.  1.
       -2   -1    0    0    0  501  0.00000000000E+00  0.00000000000E+00 -0.91909946416E+03  0.91909946417E+03  0.25500000920E-02 0. -1.
    10030    2    1    2    0    0  0.00000000000E+00  0.00000000000E+00  0.77820453762E+03  0.26164034660E+04  0.24979921526E+04 0.  0.
        1    1    3    3  502    0  0.72666512398E+03  0.52139284419E+03 -0.52406131377E+03  0.10365968170E+04  0.50400001928E-02 0. -1.
       -1    1    3    3    0  502 -0.72666512398E+03 -0.52139284419E+03  0.13022658514E+04  0.15798066490E+04  0.50400001928E-02 0.  1.
</event>
<event>
 5   0  0.3713394E-06  0.2499345E+04  0.7818609E-02  0.8403219E-01
       -2   -1    0    0    0  501  0.00000000000E+00  0.00000000000E+00  0.64142543019E+03  0.64142543020E+03  0.25500000920E-02 0.  1.
        2   -1    0    0  501    0  0.00000000000E+00  0.00000000000E+00 -0.24347035123E+04  0.24347035123E+04  0.25500000920E-02 0. -1.
    10030    2    1    2    0    0  0.00000000000E+00  0.00000000000E+00 -0.17932780821E+04  0.30761289425E+04  0.24993445123E+04 0.  0.
        3    1    3    3  502    0  0.27393319142E+03  0.65436071368E+03 -0.21628739525E+04  0.22762361656E+04  0.10100000352E+00 0. -1.
       -3    1    3    3    0  502 -0.27393319142E+03 -0.65436071368E+03  0.36959587037E+03  0.79989277692E+03  0.10100000352E+00 0.  1.
</event>
<event>
 5   0  0.1553604E-06  0.2498183E+04  0.7818609E-02  0.8403633E-01
        1   -1    0    0  501    0  0.00000000000E+00  0.00000000000E+00  0.28802811930E+04  0.28802811930E+04  0.50400001928E-02 0. -1.
       -1   -1    0    0    0  501  0.00000000000E+00  0.00000000000E+00 -0.54169337484E+03  0.54169337487E+03  0.50400001928E-02 0.  1.
    10030    2    1    2    0    0  0.00000000000E+00  0.00000000000E+00  0.23385878181E+04  0.34219745678E+04  0.24981827315E+04 0.  0.
        1    1    3    3  502    0 -0.71816027690E+03 -0.48098913209E+03 -0.65888511416E+02  0.86685986438E+03  0.50400001928E-02 0.  1.
       -1    1    3    3    0  502  0.71816027690E+03  0.48098913209E+03  0.24044763295E+04  0.25551147034E+04  0.50400001928E-02 0. -1.
</event>
<event>
 5   0  0.1553604E-06  0.2495715E+04  0.7818609E-02  0.8404514E-01
        1   -1    0    0  501    0  0.00000000000E+00  0.00000000000E+00  0.15769978154E+04  0.15769978155E+04  0.50400001928E-02 0. -1.
       -1   -1    0    0    0  501  0.00000000000E+00  0.00000000000E+00 -0.98741295326E+03  0.98741295328E+03  0.50400001928E-02 0.  1.
    10030    2    1    2    0    0  0.00000000000E+00  0.00000000000E+00  0.58958486218E+03  0.25644107687E+04  0.24957147836E+04 0.  0.
        1    1    3    3  502    0 -0.90723081968E+03  0.65769376206E+03 -0.26942973608E+03  0.11524848058E+04  0.50400001928E-02 0.  1.
       -1    1    3    3    0  502  0.90723081968E+03 -0.65769376206E+03  0.85901459826E+03  0.14119259630E+04  0.50400001928E-02 0. -1.
</event>
<event>
 5   0  0.1574896E-06  0.2567204E+04  0.7818609E-02  0.8379427E-01
        1   -1    0    0  501    0  0.00000000000E+00  0.00000000000E+00  0.20247916687E+04  0.20247916687E+04  0.50400001928E-02 0.  1.
       -1   -1    0    0    0  501  0.00000000000E+00  0.00000000000E+00 -0.81373035572E+03  0.81373035573E+03  0.50400001928E-02 0. -1.
    10030    2    1    2    0    0  0.00000000000E+00  0.00000000000E+00  0.12110613130E+04  0.28385220244E+04  0.25672042730E+04 0.  0.
        3    1    3    3  502    0 -0.66638639228E+03 -0.98762652634E+03  0.77390519752E+02  0.11939289267E+04  0.10100000352E+00 0. -1.
       -3    1    3    3    0  502  0.66638639228E+03  0.98762652634E+03  0.11336707932E+04  0.16445930977E+04  0.10100000352E+00 0.  1.
</event>
<event>
 5   0  0.1541852E-06  0.2497292E+04  0.7818609E-02  0.8403951E-01
        1   -1    0    0  501    0  0.00000000000E+00  0.00000000000E+00  0.17132816021E+04  0.17132816021E+04  0.50400001928E-02 0. -1.
       -1   -1    0    0    0  501  0.00000000000E+00  0.00000000000E+00 -0.91001801776E+03  0.91001801777E+03  0.50400001928E-02 0.  1.
    10030    2    1    2    0    0  0.00000000000E+00  0.00000000000E+00  0.80326358432E+03  0.26232996199E+04  0.24972922355E+04 0.  0.
        5    1    3    3  502    0  0.11266761179E+04 -0.45659966186E+03  0.70098956216E+03  0.14033142136E+04  0.46999998093E+01 0. -1.
       -5    1    3    3    0  502 -0.11266761179E+04  0.45659966186E+03  0.10227402216E+03  0.12199854062E+04  0.46999998093E+01 0.  1.
</event>
<event>
 5   0  0.1541852E-06  0.2502475E+04  0.7818609E-02  0.8402104E-01
        1   -1    0    0  501    0  0.00000000000E+00  0.00000000000E+00  0.15411001763E+04  0.15411001763E+04  0.50400001928E-02 0.  1.
       -1   -1    0    0    0  501  0.00000000000E+00  0.00000000000E+00 -0.10158946731E+04  0.10158946731E+04  0.50400001928E-02 0. -1.
    10030    2    1    2    0    0  0.00000000000E+00  0.00000000000E+00  0.52520550313E+03  0.25569948494E+04  0.25024751426E+04 0.  0.
        5    1    3    3  502    0 -0.10982009017E+04 -0.37606381024E+03  0.73979354435E+03  0.13765121823E+04  0.46999998093E+01 0.  1.
       -5    1    3    3    0  502  0.10982009017E+04  0.37606381024E+03 -0.21458804122E+03  0.11804826671E+04  0.46999998093E+01 0. -1.
</event>
<event>
 5   0  0.3971759E-06  0.2483208E+04  0.7818609E-02  0.8408992E-01
       -2   -1    0    0    0  501  0.00000000000E+00  0.00000000000E+00  0.10879608354E+04  0.10879608354E+04  0.25500000920E-02 0. -1.
        2   -1    0    0  501    0  0.00000000000E+00  0.00000000000E+00 -0.14169447198E+04  0.14169447198E+04  0.25500000920E-02 0.  1.
    10030    2    1    2    0    0  0.00000000000E+00  0.00000000000E+00 -0.32898388434E+03  0.25049055552E+04  0.24832078939E+04 0.  0.
        4    1    3    3  502    0 -0.11214030257E+04 -0.17700148400E+03  0.34259770452E+03  0.11858537311E+04  0.12699999809E+01 0.  1.
       -4    1    3    3    0  502  0.11214030257E+04  0.17700148400E+03 -0.67158158886E+03  0.13190518242E+04  0.12699999809E+01 0. -1.
</event>
<event>
 5   0  0.3808293E-06  0.2498446E+04  0.7818609E-02  0.8403539E-01
        2   -1    0    0  501    0  0.00000000000E+00  0.00000000000E+00  0.13212854271E+04  0.13212854271E+04  0.25500000920E-02 0. -1.
       -2   -1    0    0    0  501  0.00000000000E+00  0.00000000000E+00 -0.11810908218E+04  0.11810908218E+04  0.25500000920E-02 0.  1.
    10030    2    1    2    0    0  0.00000000000E+00  0.00000000000E+00  0.14019460529E+03  0.25023762489E+04  0.24984459897E+04 0.  0.
        1    1    3    3  502    0  0.12443129402E+04 -0.54373121085E+02 -0.26423175634E+02  0.12457806041E+04  0.50400001928E-02 0. -1.
       -1    1    3    3    0  502 -0.12443129402E+04  0.54373121085E+02  0.16661778092E+03  0.12565956447E+04  0.50400001928E-02 0.  1.
</event>
<event>
 5   0  0.1501747E-06  0.2501530E+04  0.7818609E-02  0.8402441E-01
        1   -1    0    0  501    0  0.00000000000E+00  0.00000000000E+00  0.20608820994E+04  0.20608820994E+04  0.50400001928E-02 0. -1.
       -1   -1    0    0    0  501  0.00000000000E+00  0.00000000000E+00 -0.75909893667E+03  0.75909893668E+03  0.50400001928E-02 0.  1.
    10030    2    1    2    0    0  0.00000000000E+00  0.00000000000E+00  0.13017831627E+04  0.28199810361E+04  0.25015302599E+04 0.  0.
        2    1    3    3  502    0  0.10127529996E+04 -0.73262269953E+03  0.70141626556E+03  0.14333141441E+04  0.25500000920E-02 0.  1.
       -2    1    3    3    0  502 -0.10127529996E+04  0.73262269953E+03  0.60036689716E+03  0.13866668920E+04  0.25500000920E-02 0. -1.
</event>
<event>
 5   0  0.3814260E-06  0.2497423E+04  0.7818609E-02  0.8403904E-01
        2   -1    0    0  501    0  0.00000000000E+00  0.00000000000E+00  0.18594972515E+04  0.18594972515E+04  0.25500000920E-02 0. -1.
       -2   -1    0    0    0  501  0.00000000000E+00  0.00000000000E+00 -0.83854939369E+03  0.83854939369E+03  0.25500000920E-02 0.  1.
    10030    2    1    2    0    0  0.00000000000E+00  0.00000000000E+00  0.10209478578E+04  0.26980466452E+04  0.24974229060E+04 0.  0.
        5    1    3    3  502    0  0.79607276050E+02 -0.11610281353E+04  0.99953709829E+03  0.15340860961E+04  0.46999998093E+01 0. -1.
       -5    1    3    3    0  502 -0.79607276050E+02  0.11610281353E+04  0.21410759507E+02  0.11639605491E+04  0.46999998093E+01 0.  1.
</event>
<event>
 5   0  0.1501747E-06  0.2499847E+04  0.7818609E-02  0.8403040E-01
       -1   -1    0    0    0  501  0.00000000000E+00  0.00000000000E+00  0.18460992468E+04  0.18460992468E+04  0.50400001928E-02 0.  1.
        1   -1    0    0  501    0  0.00000000000E+00  0.00000000000E+00 -0.84627546129E+03  0.84627546130E+03  0.50400001928E-02 0. -1.
    10030    2    1    2    0    0  0.00000000000E+00  0.00000000000E+00  0.99982378553E+03  0.26923747081E+04  0.24998467887E+04 0.  0.
        2    1    3    3  502    0  0.20122543724E+03 -0.35665237611E+03  0.17718014912E+04  0.18185084872E+04  0.25500000920E-02 0.  1.
       -2    1    3    3    0  502 -0.20122543724E+03  0.35665237611E+03 -0.77197770566E+03  0.87386622089E+03  0.25500000920E-02 0. -1.
</event>
<event>
 5   0  0.3924441E-06  0.2484418E+04  0.7818609E-02  0.8408558E-01
        2   -1    0    0  501    0  0.00000000000E+00  0.00000000000E+00  0.14287534420E+04  0.14287534420E+04  0.25500000920E-02 0.  1.
       -2   -1    0    0    0  501  0.00000000000E+00  0.00000000000E+00 -0.10800208844E+04  0.10800208844E+04  0.25500000920E-02 0. -1.
    10030    2    1    2    0    0  0.00000000000E+00  0.00000000000E+00  0.34873255756E+03  0.25087743264E+04  0.24844182869E+04 0.  0.
        2    1    3    3  502    0 -0.11356853045E+04  0.22612632350E+03  0.62840669833E+03  0.13175011209E+04  0.25500000920E-02 0.  1.
       -2    1    3    3    0  502  0.11356853045E+04 -0.22612632350E+03 -0.27967414078E+03  0.11912732055E+04  0.25500000920E-02 0. -1.
</event>
<event>
 5   0  0.3713394E-06  0.2500553E+04  0.7818609E-02  0.8402789E-01
       -2   -1    0    0    0  501  0.00000000000E+00  0.00000000000E+00  0.78273795279E+03  0.78273795280E+03  0.25500000920E-02 0. -1.
        2   -1    0    0  501    0  0.00000000000E+00  0.00000000000E+00 -0.19970814302E+04  0.19970814302E+04  0.25500000920E-02 0.  1.
    10030    2    1    2    0    0  0.00000000000E+00  0.00000000000E+00 -0.12143434774E+04  0.27798193830E+04  0.25005530830E+04 0.  0.
        3    1    3    3  502    0 -0.53107593336E+03 -0.97349614691E+03 -0.12491186797E+04  0.16703394509E+04  0.10100000352E+00 0.  1.
       -3    1    3    3    0  502  0.53107593336E+03  0.97349614691E+03  0.34775202204E+02  0.11094799322E+04  0.10100000352E+00 0. -1.
</event>
<event>
 5   0  0.3808293E-06  0.2501055E+04  0.7818609E-02  0.8402610E-01
       -2   -1    0    0    0  501  0.00000000000E+00  0.00000000000E+00  0.10983037363E+04  0.10983037363E+04  0.25500000920E-02 0.  1.
        2   -1    0    0  501    0  0.00000000000E+00  0.00000000000E+00 -0.14238491996E+04  0.14238491996E+04  0.25500000920E-02 0. -1.
    10030    2    1    2    0    0  0.00000000000E+00  0.00000000000E+00 -0.32554546323E+03  0.25221529359E+04  0.25010548941E+04 0.  0.
        1    1    3    3  502    0 -0.13468929868E+03 -0.62722015716E+03  0.91972203138E+03  0.11213540689E+04  0.50400001928E-02 0.  1.
       -1    1    3    3    0  502  0.13468929868E+03  0.62722015716E+03 -0.12452674946E+04  0.14007988670E+04  0.50400001928E-02 0. -1.
</event>
<event>
 5   0  0.3971759E-06  0.2498735E+04  0.7818609E-02  0.8403436E-01
        2   -1    0    0  501    0  0.00000000000E+00  0.00000000000E+00  0.29681229661E+04  0.29681229661E+04  0.25500000920E-02 0.  1.
       -2   -1    0    0    0  501  0.00000000000E+00  0.00000000000E+00 -0.52589431296E+03  0.52589431296E+03  0.25500000920E-02 0. -1.
    10030    2    1    2    0    0  0.00000000000E+00  0.00000000000E+00  0.24422286531E+04  0.34940172791E+04  0.24987348703E+04 0.  0.
        4    1    3    3  502    0 -0.58057926526E+03  0.17228668548E+03  0.27491608086E+04  0.28150740221E+04  0.12699999809E+01 0.  1.
       -4    1    3    3    0  502  0.58057926526E+03 -0.17228668548E+03 -0.30693215547E+03  0.67894325698E+03  0.12699999809E+01 0. -1.
</event>
<event>
 5   0  0.1541852E-06  0.2500250E+04  0.7818609E-02  0.8402896E-01
        1   -1    0    0  501    0  0.00000000000E+00  0.00000000000E+00  0.19754659601E+04  0.19754659601E+04  0.50400001928E-02 0.  1.
       -1   -1    0    0    0  501  0.00000000000E+00  0.00000000000E+00 -0.79111095965E+03  0.79111095967E+03  0.50400001928E-02 0. -1.
    10030    2    1    2    0    0  0.00000000000E+00  0.00000000000E+00  0.11843550004E+04  0.27665769198E+04  0.25002502047E+04 0.  0.
        5    1    3    3  502    0  0.81799644680E+01  0.44695083958E+03  0.18839934094E+04  0.19363071093E+04  0.46999998093E+01 0.  1.
       -5    1    3    3    0  502 -0.81799644680E+01 -0.44695083958E+03 -0.69963840898E+03  0.83026981045E+03  0.46999998093E+01 0. -1.
</event>
<event>
 5   0  0.1519145E-06  0.2493311E+04  0.7818609E-02  0.8405372E-01
        1   -1    0    0  501    0  0.00000000000E+00  0.00000000000E+00  0.13445890900E+04  0.13445890900E+04  0.50400001928E-02 0.  1.
       -1   -1    0    0    0  501  0.00000000000E+00  0.00000000000E+00 -0.11558547652E+04  0.11558547652E+04  0.50400001928E-02 0. -1.
    10030    2    1    2    0    0  0.00000000000E+00  0.00000000000E+00  0.18873432485E+03  0.25004438552E+04  0.24933108165E+04 0.  0.
        4    1    3    3  502    0  0.58982438902E+03  0.58560775396E+03  0.10261748652E+04  0.13205550796E+04  0.12699999809E+01 0.  1.
       -4    1    3    3    0  502 -0.58982438902E+03 -0.58560775396E+03 -0.83744054031E+03  0.11798887756E+04  0.12699999809E+01 0. -1.
</event>
<event>
 5   0  0.1541852E-06  0.2465393E+04  0.7818609E-02  0.8415419E-01
        1   -1    0    0  501    0  0.00000000000E+00  0.00000000000E+00  0.10579750358E+04  0.10579750358E+04  0.50400001928E-02 0. -1.
       -1   -1    0    0    0  501  0.00000000000E+00  0.00000000000E+00 -0.14362726553E+04  0.14362726553E+04  0.50400001928E-02 0.  1.
    10030    2    1    2    0    0  0.00000000000E+00  0.00000000000E+00 -0.37829761952E+03  0.24942476911E+04  0.24653929617E+04 0.  0.
        5    1    3    3  502    0 -0.89760080046E+03  0.57979160175E+03 -0.81089253460E+03  0.13414224879E+04  0.46999998093E+01 0.  1.
       -5    1    3    3    0  502  0.89760080046E+03 -0.57979160175E+03  0.43259491508E+03  0.11528252031E+04  0.46999998093E+01 0. -1.
</event>
<event>
 5   0  0.3713394E-06  0.2507897E+04  0.7818609E-02  0.8400178E-01
        2   -1    0    0  501    0  0.00000000000E+00  0.00000000000E+00  0.94071530922E+03  0.94071530922E+03  0.25500000920E-02 0. -1.
       -2   -1    0    0    0  501  0.00000000000E+00  0.00000000000E+00 -0.16714803405E+04  0.16714803405E+04  0.25500000920E-02 0.  1.
    10030    2    1    2    0    0  0.00000000000E+00  0.00000000000E+00 -0.73076503129E+03  0.26121956497E+04  0.25078972430E+04 0.  0.
        3    1    3    3  502    0  0.72145614682E+03  0.99763508155E+03 -0.61321131662E+03  0.13754282449E+04  0.10100000352E+00 0. -1.
       -3    1    3    3    0  502 -0.72145614682E+03 -0.99763508155E+03 -0.11755371466E+03  0.12367674049E+04  0.10100000352E+00 0.  1.
</event>
<event>
 5   0  0.3924441E-06  0.2497227E+04  0.7818609E-02  0.8403974E-01
        2   -1    0    0  501    0  0.00000000000E+00  0.00000000000E+00  0.11981053395E+04  0.11981053396E+04  0.25500000920E-02 0.  1.
       -2   -1    0    0    0  501  0.00000000000E+00  0.00000000000E+00 -0.13012511686E+04  0.13012511686E+04  0.25500000920E-02 0. -1.
    10030    2    1    2    0    0  0.00000000000E+00  0.00000000000E+00 -0.10314582908E+03  0.24993565082E+04  0.24972272409E+04 0.  0.
        2    1    3    3  502    0 -0.15257886807E+02 -0.24175152735E+03  0.11743630669E+04  0.11990851583E+04  0.25500000920E-02 0.  1.
       -2    1    3    3    0  502  0.15257886807E+02  0.24175152735E+03 -0.12775088959E+04  0.13002713499E+04  0.25500000920E-02 0. -1.
</event>
<event>
 5   0  0.3814260E-06  0.2485926E+04  0.7818609E-02  0.8408017E-01
        2   -1    0    0  501    0  0.00000000000E+00  0.00000000000E+00  0.19064103778E+04  0.19064103778E+04  0.25500000920E-02 0.  1.
       -2   -1    0    0    0  501  0.00000000000E+00  0.00000000000E+00 -0.81040095378E+03  0.81040095378E+03  0.25500000920E-02 0. -1.
    10030    2    1    2    0    0  0.00000000000E+00  0.00000000000E+00  0.10960094240E+04  0.27168113316E+04  0.24859258142E+04 0.  0.
        5    1    3    3  502    0 -0.11835542078E+04  0.12620992926E+03  0.93931756970E+03  0.15162681477E+04  0.46999998093E+01 0.  1.
       -5    1    3    3    0  502  0.11835542078E+04 -0.12620992926E+03  0.15669185433E+03  0.12005431839E+04  0.46999998093E+01 0. -1.
</event>
<event>
 5   0  0.1519145E-06  0.2516098E+04  0.7818609E-02  0.8397273E-01
       -1   -1    0    0    0  501  0.00000000000E+00  0.00000000000E+00  0.14708857872E+04  0.14708857872E+04  0.50400001928E-02 0. -1.
        1   -1    0    0  501    0  0.00000000000E+00  0.00000000000E+00 -0.10760099143E+04  0.10760099144E+04  0.50400001928E-02 0.  1.
    10030    2    1    2    0    0  0.00000000000E+00  0.00000000000E+00  0.39487587290E+03  0.25468957016E+04  0.25160983208E+04 0.  0.
        4    1    3    3  502    0 -0.21258706563E+03  0.11025010789E+04  0.77181994063E+03  0.13625012012E+04  0.12699999809E+01 0. -1.
       -4    1    3    3    0  502  0.21258706563E+03 -0.11025010789E+04 -0.37694406773E+03  0.11843945004E+04  0.12699999809E+01 0.  1.
</event>
<event>
 5   0  0.1553604E-06  0.2500381E+04  0.7818609E-02  0.8402850E-01
       -1   -1    0    0    0  501  0.00000000000E+00  0.00000000000E+00  0.10657702490E+04  0.10657702490E+04  0.50400001928E-02 0.  1.
        1   -1    0    0  501    0  0.00000000000E+00  0.00000000000E+00 -0.14665232996E+04  0.14665232996E+04  0.50400001928E-02 0. -1.
    10030    2    1    2    0    0  0.00000000000E+00  0.00000000000E+00 -0.40075305060E+03  0.25322935486E+04  0.25003814926E+04 0.  0.
        1    1    3    3  502    0  0.40467915115E+03 -0.64057557616E+03 -0.12074899562E+04  0.14255294730E+04  0.50400001928E-02 0. -1.
       -1    1    3    3    0  502 -0.40467915115E+03  0.64057557616E+03  0.80673690558E+03  0.11067640756E+04  0.50400001928E-02 0.  1.
</event>
<event>
 5   0  0.3924441E-06  0.2501096E+04  0.7818609E-02  0.8402595E-01
       -2   -1    0    0    0  501  0.00000000000E+00  0.00000000000E+00  0.73625917316E+03  0.73625917316E+03  0.25500000920E-02 0.  1.
        2   -1    0    0  501    0  0.00000000000E+00  0.00000000000E+00 -0.21240751885E+04  0.21240751885E+04  0.25500000920E-02 0. -1.
    10030    2    1    2    0    0  0.00000000000E+00  0.00000000000E+00 -0.13878160153E+04  0.28603343616E+04  0.25010956335E+04 0.  0.
        2    1    3    3  502    0 -0.37838819964E+03  0.25088204301E+03  0.63868176900E+03  0.78360310821E+03  0.25500000920E-02 0.  1.
       -2    1    3    3    0  502  0.37838819964E+03 -0.25088204301E+03 -0.20264977843E+04  0.20767312534E+04  0.25500000920E-02 0. -1.
</event>
<event>
 5   0  0.1519145E-06  0.2503714E+04  0.7818609E-02  0.8401664E-01
       -1   -1    0    0    0  501  0.00000000000E+00  0.00000000000E+00  0.90391219556E+03  0.90391219557E+03  0.50400001928E-02 0. -1.
        1   -1    0    0  501    0  0.00000000000E+00  0.00000000000E+00 -0.17337370297E+04  0.17337370297E+04  0.50400001928E-02 0.  1.
    10030    2    1    2    0    0  0.00000000000E+00  0.00000000000E+00 -0.82982483410E+03  0.26376492252E+04  0.25037140771E+04 0.  0.
        4    1    3    3  502    0 -0.45374780442E+03 -0.47912995930E+03  0.70580572195E+03  0.96623802344E+03  0.12699999809E+01 0. -1.
       -4    1    3    3    0  502  0.45374780442E+03  0.47912995930E+03 -0.15356305560E+04  0.16714112018E+04  0.12699999809E+01 0.  1.
</event>
<event>
 5   0  0.3971759E-06  0.2506321E+04  0.7818609E-02  0.8400737E-01
       -2   -1    0    0    0  501  0.00000000000E+00  0.00000000000E+00  0.17097051926E+04  0.17097051926E+04  0.25500000920E-02 0.  1.
        2   -1    0    0  501    0  0.00000000000E+00  0.00000000000E+00 -0.91852747324E+03  0.91852747324E+03  0.25500000920E-02 0. -1.
    10030    2    1    2    0    0  0.00000000000E+00  0.00000000000E+00  0.79117771936E+03  0.26282326658E+04  0.25063209615E+04 0.  0.
        4    1    3    3  502    0 -0.43563657157E+03 -0.11528899359E+04  0.15767160705E+03  0.12424960263E+04  0.12699999809E+01 0. -1.
       -4    1    3    3    0  502  0.43563657157E+03  0.11528899359E+04  0.63350611231E+03  0.13857366395E+04  0.12699999809E+01 0.  1.
</event>
<event>
 5   0  0.1541852E-06  0.2501899E+04  0.7818609E-02  0.8402309E-01
        1   -1    0    0  501    0  0.00000000000E+00  0.00000000000E+00  0.19610110168E+04  0.19610110168E+04  0.50400001928E-02 0. -1.
       -1   -1    0    0    0  501  0.00000000000E+00  0.00000000000E+00 -0.79799353142E+03  0.79799353144E+03  0.50400001928E-02 0.  1.
    10030    2    1    2    0    0  0.00000000000E+00  0.00000000000E+00  0.11630174854E+04  0.27590045482E+04  0.25018985643E+04 0.  0.
        5    1    3    3  502    0  0.41396761888E+03  0.86149095707E+03  0.14714854589E+04  0.17546587715E+04  0.46999998093E+01 0. -1.
       -5    1    3    3    0  502 -0.41396761888E+03 -0.86149095707E+03 -0.30846797352E+03  0.10043457768E+04  0.46999998093E+01 0.  1.
</event>
<event>
 5   0  0.3814260E-06  0.2502404E+04  0.7818609E-02  0.8402130E-01
       -2   -1    0    0    0  501  0.00000000000E+00  0.00000000000E+00  0.87334223110E+03  0.87334223111E+03  0.25500000920E-02 0. -1.
        2   -1    0    0  501    0  0.00000000000E+00  0.00000000000E+00 -0.17925466135E+04  0.17925466135E+04  0.25500000920E-02 0.  1.
    10030    2    1    2    0    0  0.00000000000E+00  0.00000000000E+00 -0.91920438244E+03  0.26658888447E+04  0.25024041711E+04 0.  0.
        5    1    3    3  502    0 -0.46227491480E+03 -0.90554048314E+03 -0.12364783045E+04  0.16008130281E+04  0.46999998093E+01 0.  1.
       -5    1    3    3    0  502  0.46227491480E+03  0.90554048314E+03  0.31727392202E+03  0.10650758166E+04  0.46999998093E+01 0. -1.
</event>
<event>
 5   0  0.3808293E-06  0.2491753E+04  0.7818609E-02  0.8405930E-01
       -2   -1    0    0    0  501  0.00000000000E+00  0.00000000000E+00  0.74809891400E+03  0.74809891401E+03  0.25500000920E-02 0. -1.
        2   -1    0    0  501    0  0.00000000000E+00  0.00000000000E+00 -0.20748699627E+04  0.20748699627E+04  0.25500000920E-02 0.  1.
    10030    2    1    2    0    0  0.00000000000E+00  0.00000000000E+00 -0.13267710486E+04  0.28229688767E+04  0.24917527692E+04 0.  0.
        1    1    3    3  502    0 -0.11650436438E+04 -0.43951061999E+03 -0.61651352032E+03  0.13894550003E+04  0.50400001928E-02 0. -1.
       -1    1    3    3    0  502  0.11650436438E+04  0.43951061999E+03 -0.71025752833E+03  0.14335138764E+04  0.50400001928E-02 0.  1.
</event>
<event>
 5   0  0.1574896E-06  0.2499723E+04  0.7818609E-02  0.8403084E-01
        1   -1    0    0  501    0  0.00000000000E+00  0.00000000000E+00  0.99818277782E+03  0.99818277783E+03  0.50400001928E-02 0. -1.
       -1   -1    0    0    0  501  0.00000000000E+00  0.00000000000E+00 -0.15649972347E+04  0.15649972347E+04  0.50400001928E-02 0.  1.
    10030    2    1    2    0    0  0.00000000000E+00  0.00000000000E+00 -0.56681445686E+03  0.25631800125E+04  0.24997226142E+04 0.  0.
        3    1    3    3  502    0  0.11616418608E+04  0.13139679127E+03  0.16994358185E+03  0.11813372764E+04  0.10100000352E+00 0.  1.
       -3    1    3    3    0  502 -0.11616418608E+04 -0.13139679127E+03 -0.73675803871E+03  0.13818427361E+04  0.10100000352E+00 0. -1.
</event>
<event>
 5   0  0.1519145E-06  0.2498283E+04  0.7818609E-02  0.8403597E-01
        1   -1    0    0  501    0  0.00000000000E+00  0.00000000000E+00  0.11160135954E+04  0.11160135954E+04  0.50400001928E-02 0. -1.
       -1   -1    0    0    0  501  0.00000000000E+00  0.00000000000E+00 -0.13981505194E+04  0.13981505194E+04  0.50400001928E-02 0.  1.
    10030    2    1    2    0    0  0.00000000000E+00  0.00000000000E+00 -0.28213692406E+03  0.25141641148E+04  0.24982834011E+04 0.  0.
        4    1    3    3  502    0 -0.70524275333E+03 -0.93315929471E+03  0.30012426720E+03  0.12075718608E+04  0.12699999809E+01 0. -1.
       -4    1    3    3    0  502  0.70524275333E+03  0.93315929471E+03 -0.58226119126E+03  0.13065922540E+04  0.12699999809E+01 0.  1.
</event>
<event>
 5   0  0.1519145E-06  0.2508022E+04  0.7818609E-02  0.8400133E-01
        1   -1    0    0  501    0  0.00000000000E+00  0.00000000000E+00  0.14070202303E+04  0.14070202304E+04  0.50400001928E-02 0. -1.
       -1   -1    0    0    0  501  0.00000000000E+00  0.00000000000E+00 -0.11176407327E+04  0.11176407327E+04  0.50400001928E-02 0.  1.
    10030    2    1    2    0    0  0.00000000000E+00  0.00000000000E+00  0.28937949764E+03  0.25246609631E+04  0.25080216277E+04 0.  0.
        4    1    3    3  502    0  0.25590107909E+03 -0.35809045448E+03  0.13267149498E+04  0.13978155482E+04  0.12699999809E+01 0. -1.
       -4    1    3    3    0  502 -0.25590107909E+03  0.35809045448E+03 -0.10373354521E+04  0.11268454149E+04  0.12699999809E+01 0.  1.
</event>
<event>
 5   0  0.1519145E-06  0.2513037E+04  0.7818609E-02  0.8398356E-01
       -1   -1    0    0    0  501  0.00000000000E+00  0.00000000000E+00  0.16158617873E+04  0.16158617873E+04  0.50400001928E-02 0.  1.
        1   -1    0    0  501    0  0.00000000000E+00  0.00000000000E+00 -0.97708742518E+03  0.97708742519E+03  0.50400001928E-02 0. -1.
    10030    2    1    2    0    0  0.00000000000E+00  0.00000000000E+00  0.63877436213E+03  0.25929492125E+04  0.25130365960E+04 0.  0.
        4    1    3    3  502    0  0.78120618734E+03  0.91157542158E+02 -0.69169383641E+03  0.10473942815E+04  0.12699999809E+01 0. -1.
       -4    1    3    3    0  502 -0.78120618734E+03 -0.91157542158E+02  0.13304681985E+04  0.15455549310E+04  0.12699999809E+01 0.  1.
</event>
<event>
 5   0  0.1574896E-06  0.2497264E+04  0.7818609E-02  0.8403961E-01
       -1   -1    0    0    0  501  0.00000000000E+00  0.00000000000E+00  0.15526408707E+04  0.15526408707E+04  0.50400001928E-02 0.  1.
        1   -1    0    0  501    0  0.00000000000E+00  0.00000000000E+00 -0.10041487151E+04  0.10041487151E+04  0.50400001928E-02 0. -1.
    10030    2    1    2    0    0  0.00000000000E+00  0.00000000000E+00  0.54849215563E+03  0.25567895858E+04  0.24972643716E+04 0.  0.
        3    1    3    3  502    0 -0.65614708710E+03  0.18871876976E+02  0.13617303183E+04  0.15116860182E+04  0.10100000352E+00 0.  1.
       -3    1    3    3    0  502  0.65614708710E+03 -0.18871876976E+02 -0.81323816268E+03  0.10451035676E+04  0.10100000352E+00 0. -1.
</event>
<event>
 5   0  0.3814260E-06  0.2500826E+04  0.7818609E-02  0.8402691E-01
        2   -1    0    0  501    0  0.00000000000E+00  0.00000000000E+00  0.16178508503E+04  0.16178508503E+04  0.25500000920E-02 0. -1.
       -2   -1    0    0    0  501  0.00000000000E+00  0.00000000000E+00 -0.96642606559E+03  0.96642606560E+03  0.25500000920E-02 0.  1.
    10030    2    1    2    0    0  0.00000000000E+00  0.00000000000E+00  0.65142478475E+03  0.25842769159E+04  0.25008264490E+04 0.  0.
        5    1    3    3  502    0 -0.63158250736E+03  0.55679913408E+03 -0.62957543964E+03  0.10513367983E+04  0.46999998093E+01 0.  1.
       -5    1    3    3    0  502  0.63158250736E+03 -0.55679913408E+03  0.12810002244E+04  0.15329401176E+04  0.46999998093E+01 0. -1.
</event>
<event>
 5   0  0.3924441E-06  0.2503370E+04  0.7818609E-02  0.8401786E-01
       -2   -1    0    0    0  501  0.00000000000E+00  0.00000000000E+00  0.84232502845E+03  0.84232502845E+03  0.25500000920E-02 0.  1.
        2   -1    0    0  501    0  0.00000000000E+00  0.00000000000E+00 -0.18599887025E+04  0.18599887025E+04  0.25500000920E-02 0. -1.
    10030    2    1    2    0    0  0.00000000000E+00  0.00000000000E+00 -0.10176636740E+04  0.27023137309E+04  0.25033697583E+04 0.  0.
        2    1    3    3  502    0  0.81903447646E+03  0.61352798066E+03  0.26919681730E+03  0.10581592428E+04  0.25500000920E-02 0.  1.
       -2    1    3    3    0  502 -0.81903447646E+03 -0.61352798066E+03 -0.12868604913E+04  0.16441544881E+04  0.25500000920E-02 0. -1.
</event>
<event>
 5   0  0.1501747E-06  0.2497671E+04  0.7818609E-02  0.8403816E-01
        1   -1    0    0  501    0  0.00000000000E+00  0.00000000000E+00  0.12761750813E+04  0.12761750813E+04  0.50400001928E-02 0.  1.
       -1   -1    0    0    0  501  0.00000000000E+00  0.00000000000E+00 -0.12220814073E+04  0.12220814073E+04  0.50400001928E-02 0. -1.
    10030    2    1    2    0    0  0.00000000000E+00  0.00000000000E+00  0.54093673961E+02  0.24982564886E+04  0.24976707864E+04 0.  0.
        2    1    3    3  502    0 -0.88487218969E+03  0.64690200985E+03 -0.57151544812E+03  0.12361678324E+04  0.25500000920E-02 0.  1.
       -2    1    3    3    0  502  0.88487218969E+03 -0.64690200985E+03  0.62560912208E+03  0.12620886562E+04  0.25500000920E-02 0. -1.
</event>
<event>
 5   0  0.1553604E-06  0.2501309E+04  0.7818609E-02  0.8402519E-01
        1   -1    0    0  501    0  0.00000000000E+00  0.00000000000E+00  0.23232453899E+04  0.23232453899E+04  0.50400001928E-02 0. -1.
       -1   -1    0    0    0  501  0.00000000000E+00  0.00000000000E+00 -0.67325512776E+03  0.67325512778E+03  0.50400001928E-02 0.  1.
    10030    2    1    2    0    0  0.00000000000E+00  0.00000000000E+00  0.16499902621E+04  0.29965005177E+04  0.25013091547E+04 0.  0.
        1    1    3    3  502    0 -0.41115336787E+03  0.93172290406E+03 -0.44655790753E+02  0.10193864829E+04  0.50400001928E-02 0. -1.
       -1    1    3    3    0  502  0.41115336787E+03 -0.93172290406E+03  0.16946460529E+04  0.19771140348E+04  0.50400001928E-02 0.  1.
</event>
<event>
 5   0  0.1574896E-06  0.2500198E+04  0.7818609E-02  0.8402915E-01
        1   -1    0    0  501    0  0.00000000000E+00  0.00000000000E+00  0.10374995725E+04  0.10374995725E+04  0.50400001928E-02 0.  1.
       -1   -1    0    0    0  501  0.00000000000E+00  0.00000000000E+00 -0.15062628066E+04  0.15062628066E+04  0.50400001928E-02 0. -1.
    10030    2    1    2    0    0  0.00000000000E+00  0.00000000000E+00 -0.46876323404E+03  0.25437623791E+04  0.25001976066E+04 0.  0.
        3    1    3    3  502    0  0.46047834298E+03 -0.10590302909E+04  0.25266785526E+03  0.11821279612E+04  0.10100000352E+00 0. -1.
       -3    1    3    3    0  502 -0.46047834298E+03  0.10590302909E+04 -0.72143108930E+03  0.13616344179E+04  0.10100000352E+00 0.  1.
</event>
<event>
 5   0  0.1553604E-06  0.2499770E+04  0.7818609E-02  0.8403068E-01
       -1   -1    0    0    0  501  0.00000000000E+00  0.00000000000E+00  0.69750485443E+03  0.69750485444E+03  0.50400001928E-02 0.  1.
        1   -1    0    0  501    0  0.00000000000E+00  0.00000000000E+00 -0.22397150380E+04  0.22397150380E+04  0.50400001928E-02 0. -1.
    10030    2    1    2    0    0  0.00000000000E+00  0.00000000000E+00 -0.15422101836E+04  0.29372198924E+04  0.24997696786E+04 0.  0.
        1    1    3    3  502    0  0.69072361737E+02  0.80382763779E+02  0.69221564194E+03  0.70028199666E+03  0.50400001928E-02 0.  1.
       -1    1    3    3    0  502 -0.69072361737E+02 -0.80382763779E+02 -0.22344258255E+04  0.22369378958E+04  0.50400001928E-02 0. -1.
</event>
<event>
 5   0  0.1519145E-06  0.2495272E+04  0.7818609E-02  0.8404672E-01
        1   -1    0    0  501    0  0.00000000000E+00  0.00000000000E+00  0.87265195400E+03  0.87265195401E+03  0.50400001928E-02 0.  1.
       -1   -1    0    0    0  501  0.00000000000E+00  0.00000000000E+00 -0.17837532025E+04  0.17837532025E+04  0.50400001928E-02 0. -1.
    10030    2    1    2    0    0  0.00000000000E+00  0.00000000000E+00 -0.91110124850E+03  0.26564051565E+04  0.24952721035E+04 0.  0.
        4    1    3    3  502    0 -0.48820579446E+03 -0.11176286182E+04 -0.17559467621E+03  0.12321825065E+04  0.12699999809E+01 0.  1.
       -4    1    3    3    0  502  0.48820579446E+03  0.11176286182E+04 -0.73550657229E+03  0.14242226500E+04  0.12699999809E+01 0. -1.
</event>
<event>
 5   0  0.1519145E-06  0.2487336E+04  0.7818609E-02  0.8407511E-01
        1   -1    0    0  501    0  0.00000000000E+00  0.00000000000E+00  0.14089686983E+04  0.14089686983E+04  0.50400001928E-02 0.  1.
       -1   -1    0    0    0  501  0.00000000000E+00  0.00000000000E+00 -0.10977600516E+04  0.10977600516E+04  0.50400001928E-02 0. -1.
    10030    2    1    2    0    0  0.00000000000E+00  0.00000000000E+00  0.31120864669E+03  0.25067287498E+04  0.24873355631E+04 0.  0.
        4    1    3    3  502    0  0.75795010239E+03  0.98139316832E+03  0.59535177334E+02  0.12414374566E+04  0.12699999809E+01 0.  1.
       -4    1    3    3    0  502 -0.75795010239E+03 -0.98139316832E+03  0.25167346936E+03  0.12652912932E+04  0.12699999809E+01 0. -1.
</event>
<event>
 5   0  0.1574896E-06  0.2498102E+04  0.7818609E-02  0.8403662E-01
       -1   -1    0    0    0  501  0.00000000000E+00  0.00000000000E+00  0.92880699204E+03  0.92880699205E+03  0.50400001928E-02 0. -1.
        1   -1    0    0  501    0  0.00000000000E+00  0.00000000000E+00 -0.16797122674E+04  0.16797122674E+04  0.50400001928E-02 0.  1.
    10030    2    1    2    0    0  0.00000000000E+00  0.00000000000E+00 -0.75090527536E+03  0.26085192595E+04  0.24981020785E+04 0.  0.
        3    1    3    3  502    0  0.90664651607E+02 -0.12832646110E+03  0.91844641555E+03  0.93178945481E+03  0.10100000352E+00 0. -1.
       -3    1    3    3    0  502 -0.90664651607E+02  0.12832646110E+03 -0.16693516909E+04  0.16767298046E+04  0.10100000352E+00 0.  1.
</event>
<event>
 5   0  0.3924441E-06  0.2499377E+04  0.7818609E-02  0.8403208E-01
        2   -1    0    0  501    0  0.00000000000E+00  0.00000000000E+00  0.13728598676E+04  0.13728598676E+04  0.25500000920E-02 0. -1.
       -2   -1    0    0    0  501  0.00000000000E+00  0.00000000000E+00 -0.11375677979E+04  0.11375677979E+04  0.25500000920E-02 0.  1.
    10030    2    1    2    0    0  0.00000000000E+00  0.00000000000E+00  0.23529206975E+03  0.25104276655E+04  0.24993768635E+04 0.  0.
        2    1    3    3  502    0  0.99956518844E+03 -0.72665928335E+03 -0.69070737851E+02  0.12377136369E+04  0.25500000920E-02 0.  1.
       -2    1    3    3    0  502 -0.99956518844E+03  0.72665928335E+03  0.30436280760E+03  0.12727140286E+04  0.25500000920E-02 0. -1.
</event>
<event>
 5   0  0.1541852E-06  0.2498852E+04  0.7818609E-02  0.8403395E-01
        1   -1    0    0  501    0  0.00000000000E+00  0.00000000000E+00  0.10847573926E+04  0.10847573926E+04  0.50400001928E-02 0. -1.
       -1   -1    0    0    0  501  0.00000000000E+00  0.00000000000E+00 -0.14390915955E+04  0.14390915955E+04  0.50400001928E-02 0.  1.
    10030    2    1    2    0    0  0.00000000000E+00  0.00000000000E+00 -0.35433420282E+03  0.25238489881E+04  0.24988519339E+04 0.  0.
        5    1    3    3  502    0  0.26895423913E+03 -0.10215575770E+04 -0.85101946850E+03  0.13565295764E+04  0.46999998093E+01 0.  1.
       -5    1    3    3    0  502 -0.26895423913E+03  0.10215575770E+04  0.49668526568E+03  0.11673194117E+04  0.46999998093E+01 0. -1.
</event>
<event>
 5   0  0.3808293E-06  0.2500800E+04  0.7818609E-02  0.8402700E-01
       -2   -1    0    0    0  501  0.00000000000E+00  0.00000000000E+00  0.68922233421E+03  0.68922233421E+03  0.25500000920E-02 0. -1.
        2   -1    0    0  501    0  0.00000000000E+00  0.00000000000E+00 -0.22684996690E+04  0.22684996690E+04  0.25500000920E-02 0.  1.
    10030    2    1    2    0    0  0.00000000000E+00  0.00000000000E+00 -0.15792773348E+04  0.29577220032E+04  0.25008003815E+04 0.  0.
        1    1    3    3  502    0 -0.15474556910E+03 -0.98960802561E+03 -0.16748799556E+04  0.19515360876E+04  0.50400001928E-02 0.  1.
       -1    1    3    3    0  502  0.15474556910E+03  0.98960802561E+03  0.95602620883E+02  0.10061859155E+04  0.50400001928E-02 0. -1.
</event>
<event>
 5   0  0.1574896E-06  0.2507717E+04  0.7818609E-02  0.8400241E-01
        1   -1    0    0  501    0  0.00000000000E+00  0.00000000000E+00  0.11528947239E+04  0.11528947239E+04  0.50400001928E-02 0. -1.
       -1   -1    0    0    0  501  0.00000000000E+00  0.00000000000E+00 -0.13636642099E+04  0.13636642099E+04  0.50400001928E-02 0.  1.
    10030    2    1    2    0    0  0.00000000000E+00  0.00000000000E+00 -0.21076948600E+03  0.25165589337E+04  0.25077171074E+04 0.  0.
        3    1    3    3  502    0 -0.98352541248E+03  0.58710090792E+03 -0.61723363919E+03  0.13011483730E+04  0.10100000352E+00 0.  1.
       -3    1    3    3    0  502  0.98352541248E+03 -0.58710090792E+03  0.40646415319E+03  0.12154105607E+04  0.10100000352E+00 0. -1.
</event>
<event>
 5   0  0.3808293E-06  0.2501587E+04  0.7818609E-02  0.8402420E-01
        2   -1    0    0  501    0  0.00000000000E+00  0.00000000000E+00  0.16261751455E+04  0.16261751455E+04  0.25500000920E-02 0.  1.
       -2   -1    0    0    0  501  0.00000000000E+00  0.00000000000E+00 -0.96206372589E+03  0.96206372589E+03  0.25500000920E-02 0. -1.
    10030    2    1    2    0    0  0.00000000000E+00  0.00000000000E+00  0.66411141964E+03  0.25882388714E+04  0.25015867920E+04 0.  0.
        1    1    3    3  502    0  0.34504110715E+03 -0.11526949729E+04  0.68554057246E+03  0.13848194621E+04  0.50400001928E-02 0.  1.
       -1    1    3    3    0  502 -0.34504110715E+03  0.11526949729E+04 -0.21429152810E+02  0.12034194093E+04  0.50400001928E-02 0. -1.
</event>
<event>
 5   0  0.1553604E-06  0.2497192E+04  0.7818609E-02  0.8403987E-01
       -1   -1    0    0    0  501  0.00000000000E+00  0.00000000000E+00  0.11904922485E+04  0.11904922485E+04  0.50400001928E-02 0. -1.
        1   -1    0    0  501    0  0.00000000000E+00  0.00000000000E+00 -0.13095356187E+04  0.13095356187E+04  0.50400001928E-02 0.  1.
    10030    2    1    2    0    0  0.00000000000E+00  0.00000000000E+00 -0.11904337019E+03  0.25000278672E+04  0.24971920256E+04 0.  0.
        1    1    3    3  502    0  0.23698128088E+03 -0.96739372707E+03 -0.81335835528E+03  0.12859092366E+04  0.50400001928E-02 0.  1.
       -1    1    3    3    0  502 -0.23698128088E+03  0.96739372707E+03  0.69431498509E+03  0.12141186306E+04  0.50400001928E-02 0. -1.
</event>
<event>
 5   0  0.3814260E-06  0.2501773E+04  0.7818609E-02  0.8402354E-01
        2   -1    0    0  501    0  0.00000000000E+00  0.00000000000E+00  0.18817539536E+04  0.18817539536E+04  0.25500000920E-02 0.  1.
       -2   -1    0    0    0  501  0.00000000000E+00  0.00000000000E+00 -0.83152049368E+03  0.83152049368E+03  0.25500000920E-02 0. -1.
    10030    2    1    2    0    0  0.00000000000E+00  0.00000000000E+00  0.10502334599E+04  0.27132744473E+04  0.25017729525E+04 0.  0.
        5    1    3    3  502    0  0.68150702500E+03  0.66463565008E+03 -0.35496813129E+03  0.10159807265E+04  0.46999998093E+01 0. -1.
       -5    1    3    3    0  502 -0.68150702500E+03 -0.66463565008E+03  0.14052015912E+04  0.16972937207E+04  0.46999998093E+01 0.  1.
</event>
<event>
 5   0  0.1501747E-06  0.2509652E+04  0.7818609E-02  0.8399555E-01
       -1   -1    0    0    0  501  0.00000000000E+00  0.00000000000E+00  0.10378517775E+04  0.10378517775E+04  0.50400001928E-02 0. -1.
        1   -1    0    0  501    0  0.00000000000E+00  0.00000000000E+00 -0.15171606984E+04  0.15171606985E+04  0.50400001928E-02 0.  1.
    10030    2    1    2    0    0  0.00000000000E+00  0.00000000000E+00 -0.47930892097E+03  0.25550124759E+04  0.25096517110E+04 0.  0.
        2    1    3    3  502    0  0.35528509441E+03 -0.93136456402E+03  0.53630300144E+03  0.11319400862E+04  0.25500000920E-02 0. -1.
       -2    1    3    3    0  502 -0.35528509441E+03  0.93136456402E+03 -0.10156119224E+04  0.14230723897E+04  0.25500000920E-02 0.  1.
</event>
<event>
 5   0  0.3713394E-06  0.2510782E+04  0.7818609E-02  0.8399154E-01
       -2   -1    0    0    0  501  0.00000000000E+00  0.00000000000E+00  0.14473084676E+04  0.14473084676E+04  0.25500000920E-02 0. -1.
        2   -1    0    0  501    0  0.00000000000E+00  0.00000000000E+00 -0.10889226446E+04  0.10889226446E+04  0.25500000920E-02 0.  1.
    10030    2    1    2    0    0  0.00000000000E+00  0.00000000000E+00  0.35838582306E+03  0.25362311122E+04  0.25107823196E+04 0.  0.
        3    1    3    3  502    0 -0.19146958577E+03 -0.29736985029E+03 -0.10375564499E+04  0.10961810193E+04  0.10100000352E+00 0.  1.
       -3    1    3    3    0  502  0.19146958577E+03  0.29736985029E+03  0.13959422730E+04  0.14400500928E+04  0.10100000352E+00 0. -1.
</event>
<event>
 5   0  0.3924441E-06  0.2497543E+04  0.7818609E-02  0.8403861E-01
       -2   -1    0    0    0  501  0.00000000000E+00  0.00000000000E+00  0.11208959428E+04  0.11208959428E+04  0.25500000920E-02 0.  1.
        2   -1    0    0  501    0  0.00000000000E+00  0.00000000000E+00 -0.13912352098E+04  0.13912352098E+04  0.25500000920E-02 0. -1.
    10030    2    1    2    0    0  0.00000000000E+00  0.00000000000E+00 -0.27033926698E+03  0.25121311525E+04  0.24975427140E+04 0.  0.
        2    1    3    3  502    0 -0.66066166208E+03 -0.74354975559E+03 -0.89462286081E+03  0.13377930086E+04  0.25500000920E-02 0. -1.
       -2    1    3    3    0  502  0.66066166208E+03  0.74354975559E+03  0.62428359383E+03  0.11743381439E+04  0.25500000920E-02 0.  1.
</event>
<event>
 5   0  0.1501747E-06  0.2495069E+04  0.7818609E-02  0.8404744E-01
       -1   -1    0    0    0  501  0.00000000000E+00  0.00000000000E+00  0.10988378417E+04  0.10988378417E+04  0.50400001928E-02 0.  1.
        1   -1    0    0  501    0  0.00000000000E+00  0.00000000000E+00 -0.14163529204E+04  0.14163529205E+04  0.50400001928E-02 0. -1.
    10030    2    1    2    0    0  0.00000000000E+00  0.00000000000E+00 -0.31751507877E+03  0.25151907621E+04  0.24950688858E+04 0.  0.
        2    1    3    3  502    0  0.63163393629E+03  0.11964031100E+03  0.91900782634E+03  0.11215393967E+04  0.25500000920E-02 0.  1.
       -2    1    3    3    0  502 -0.63163393629E+03 -0.11964031100E+03 -0.12365229051E+04  0.13936513654E+04  0.25500000920E-02 0. -1.
</event>
<event>
 5   0  0.1287375E-06  0.2504154E+04  0.7818609E-02  0.8401507E-01
        4   -1    0    0  501    0  0.00000000000E+00  0.00000000000E+00  0.12265257632E+04  0.12265264207E+04  0.12699999809E+01 0. -1.
       -4   -1    0    0    0  501  0.00000000000E+00  0.00000000000E+00 -0.12781589607E+04  0.12781595916E+04  0.12699999809E+01 0.  1.
    10030    2    1    2    0    0  0.00000000000E+00  0.00000000000E+00 -0.51633197476E+02  0.25046860124E+04  0.25041537560E+04 0.  0.
        4    1    3    3  502    0 -0.20664798463E+03  0.40801498393E+03  0.11399847752E+04  0.12283104319E+04  0.12699999809E+01 0. -1.
       -4    1    3    3    0  502  0.20664798463E+03 -0.40801498393E+03 -0.11916179727E+04  0.12763755804E+04  0.12699999809E+01 0.  1.
</event>
<event>
 5   0  0.3814260E-06  0.2498180E+04  0.7818609E-02  0.8403634E-01
       -2   -1    0    0    0  501  0.00000000000E+00  0.00000000000E+00  0.78112500639E+03  0.78112500639E+03  0.25500000920E-02 0. -1.
        2   -1    0    0  501    0  0.00000000000E+00  0.00000000000E+00 -0.19974090346E+04  0.19974090346E+04  0.25500000920E-02 0.  1.
    10030    2    1    2    0    0  0.00000000000E+00  0.00000000000E+00 -0.12162840282E+04  0.27785340410E+04  0.24981802537E+04 0.  0.
        5    1    3    3  502    0 -0.77702039628E+03  0.13450174510E+03  0.46925307231E+03  0.91764478505E+03  0.46999998093E+01 0. -1.
       -5    1    3    3    0  502  0.77702039628E+03 -0.13450174510E+03 -0.16855371005E+04  0.18608892560E+04  0.46999998093E+01 0.  1.
</event>
<event>
 5   0  0.3713394E-06  0.2504296E+04  0.7818609E-02  0.8401457E-01
       -2   -1    0    0    0  501  0.00000000000E+00  0.00000000000E+00  0.93813924902E+03  0.93813924903E+03  0.25500000920E-02 0.  1.
        2   -1    0    0  501    0  0.00000000000E+00  0.00000000000E+00 -0.16712605871E+04  0.16712605871E+04  0.25500000920E-02 0. -1.
    10030    2    1    2    0    0  0.00000000000E+00  0.00000000000E+00 -0.73312133812E+03  0.26093998362E+04  0.25042964299E+04 0.  0.
        3    1    3    3  502    0 -0.10260432610E+03  0.12226940737E+04 -0.10634630511E+03  0.12315916500E+04  0.10100000352E+00 0. -1.
       -3    1    3    3    0  502  0.10260432610E+03 -0.12226940737E+04 -0.62677503300E+03  0.13778081861E+04  0.10100000352E+00 0.  1.
</event>
<event>
 5   0  0.3808293E-06  0.2457844E+04  0.7818609E-02  0.8418160E-01
       -2   -1    0    0    0  501  0.00000000000E+00  0.00000000000E+00  0.22880593401E+04  0.22880593401E+04  0.25500000920E-02 0.  1.
        2   -1    0    0  501    0  0.00000000000E+00  0.00000000000E+00 -0.66005694409E+03  0.66005694410E+03  0.25500000920E-02 0. -1.
    10030    2    1    2    0    0  0.00000000000E+00  0.00000000000E+00  0.16280023960E+04  0.29481162842E+04  0.24578441415E+04 0.  0.
        1    1    3    3  502    0 -0.10606191719E+04 -0.61941014037E+03  0.76502061029E+03  0.14470101879E+04  0.50400001928E-02 0.  1.
       -1    1    3    3    0  502  0.10606191719E+04  0.61941014037E+03  0.86298178574E+03  0.15011060963E+04  0.50400001928E-02 0. -1.
</event>
<event>
 5   0  0.1541852E-06  0.2505095E+04  0.7818609E-02  0.8401173E-01
       -1   -1    0    0    0  501  0.00000000000E+00  0.00000000000E+00  0.96733824555E+03  0.96733824556E+03  0.50400001928E-02 0.  1.
        1   -1    0    0  501    0  0.00000000000E+00  0.00000000000E+00 -0.16218470680E+04  0.16218470681E+04  0.50400001928E-02 0. -1.
    10030    2    1    2    0    0  0.00000000000E+00  0.00000000000E+00 -0.65450882250E+03  0.25891853136E+04  0.25050945670E+04 0.  0.
        5    1    3    3  502    0  0.98456148959E+03  0.21954251136E+03 -0.10946689087E+04  0.14885840086E+04  0.46999998093E+01 0. -1.
       -5    1    3    3    0  502 -0.98456148959E+03 -0.21954251136E+03  0.44016008619E+03  0.11006013050E+04  0.46999998093E+01 0.  1.
</event>
<event>
 5   0  0.1553604E-06  0.2510334E+04  0.7818609E-02  0.8399313E-01
        1   -1    0    0  501    0  0.00000000000E+00  0.00000000000E+00  0.18206169858E+04  0.18206169858E+04  0.50400001928E-02 0.  1.
       -1   -1    0    0    0  501  0.00000000000E+00  0.00000000000E+00 -0.86533501785E+03  0.86533501786E+03  0.50400001928E-02 0. -1.
    10030    2    1    2    0    0  0.00000000000E+00  0.00000000000E+00  0.95528196798E+03  0.26859520037E+04  0.25103335491E+04 0.  0.
        1    1    3    3  502    0  0.76865326160E+03 -0.47469270311E+03  0.14099686051E+04  0.16745663517E+04  0.50400001928E-02 0.  1.
       -1    1    3    3    0  502 -0.76865326160E+03  0.47469270311E+03 -0.45468663714E+03  0.10113856519E+04  0.50400001928E-02 0. -1.
</event>
<event>
 5   0  0.3924441E-06  0.2506198E+04  0.7818609E-02  0.8400781E-01
        2   -1    0    0  501    0  0.00000000000E+00  0.00000000000E+00  0.83108423416E+03  0.83108423417E+03  0.25500000920E-02 0. -1.
       -2   -1    0    0    0  501  0.00000000000E+00  0.00000000000E+00 -0.18894073612E+04  0.18894073612E+04  0.25500000920E-02 0.  1.
    10030    2    1    2    0    0  0.00000000000E+00  0.00000000000E+00 -0.10583231270E+04  0.27204915953E+04  0.25061976536E+04 0.  0.
        2    1    3    3  502    0 -0.76233319370E+03  0.63099007474E+03 -0.13636296879E+04  0.16848698165E+04  0.25500000920E-02 0.  1.
       -2    1    3    3    0  502  0.76233319370E+03 -0.63099007474E+03  0.30530656095E+03  0.10356217788E+04  0.25500000920E-02 0. -1.
</event>
<event>
 5   0  0.1501747E-06  0.2498599E+04  0.7818609E-02  0.8403485E-01
       -1   -1    0    0    0  501  0.00000000000E+00  0.00000000000E+00  0.13205658149E+04  0.13205658149E+04  0.50400001928E-02 0.  1.
        1   -1    0    0  501    0  0.00000000000E+00  0.00000000000E+00 -0.11818793886E+04  0.11818793886E+04  0.50400001928E-02 0. -1.
    10030    2    1    2    0    0  0.00000000000E+00  0.00000000000E+00  0.13868642634E+03  0.25024452035E+04  0.24985992219E+04 0.  0.
        2    1    3    3  502    0  0.10675704198E+04 -0.64581266223E+03  0.62468595866E+01  0.12477257788E+04  0.25500000920E-02 0. -1.
       -2    1    3    3    0  502 -0.10675704198E+04  0.64581266223E+03  0.13243956675E+03  0.12547194247E+04  0.25500000920E-02 0.  1.
</event>
<event>
 5   0  0.3713394E-06  0.2497534E+04  0.7818609E-02  0.8403865E-01
       -2   -1    0    0    0  501  0.00000000000E+00  0.00000000000E+00  0.85861160279E+03  0.85861160280E+03  0.25500000920E-02 0. -1.
        2   -1    0    0  501    0  0.00000000000E+00  0.00000000000E+00 -0.18162096116E+04  0.18162096116E+04  0.25500000920E-02 0.  1.
    10030    2    1    2    0    0  0.00000000000E+00  0.00000000000E+00 -0.95759800883E+03  0.26748212144E+04  0.24975337000E+04 0.  0.
        3    1    3    3  502    0 -0.11153537699E+04  0.50567868310E+03 -0.74046515951E+03  0.14310882660E+04  0.10100000352E+00 0.  1.
       -3    1    3    3    0  502  0.11153537699E+04 -0.50567868310E+03 -0.21713284933E+03  0.12437329484E+04  0.10100000352E+00 0. -1.
</event>
<event>
 5   0  0.3814260E-06  0.2448236E+04  0.7818609E-02  0.8421662E-01
        2   -1    0    0  501    0  0.00000000000E+00  0.00000000000E+00  0.14614112970E+04  0.14614112971E+04  0.25500000920E-02 0.  1.
       -2   -1    0    0    0  501  0.00000000000E+00  0.00000000000E+00 -0.10253546221E+04  0.10253546221E+04  0.25500000920E-02 0. -1.
    10030    2    1    2    0    0  0.00000000000E+00  0.00000000000E+00  0.43605667492E+03  0.24867659192E+04  0.24482359594E+04 0.  0.
        5    1    3    3  502    0 -0.48746015551E+03  0.72773340439E+02 -0.92011005500E+03  0.10438093531E+04  0.46999998093E+01 0. -1.
       -5    1    3    3    0  502  0.48746015551E+03 -0.72773340439E+02  0.13561667299E+04  0.14429565661E+04  0.46999998093E+01 0.  1.
</event>
<event>
 5   0  0.1541852E-06  0.2499228E+04  0.7818609E-02  0.8403261E-01
        1   -1    0    0  501    0  0.00000000000E+00  0.00000000000E+00  0.28548536006E+04  0.28548536006E+04  0.50400001928E-02 0.  1.
       -1   -1    0    0    0  501  0.00000000000E+00  0.00000000000E+00 -0.54697565641E+03  0.54697565643E+03  0.50400001928E-02 0. -1.
    10030    2    1    2    0    0  0.00000000000E+00  0.00000000000E+00  0.23078779442E+04  0.34018292571E+04  0.24992282186E+04 0.  0.
        5    1    3    3  502    0 -0.34022653119E+03  0.78433657365E+03  0.23944371269E+04  0.25424966466E+04  0.46999998093E+01 0.  1.
       -5    1    3    3    0  502  0.34022653119E+03 -0.78433657365E+03 -0.86559182699E+02  0.85933261045E+03  0.46999998093E+01 0. -1.
</event>
<event>
 5   0  0.1541852E-06  0.2500178E+04  0.7818609E-02  0.8402922E-01
        1   -1    0    0  501    0  0.00000000000E+00  0.00000000000E+00  0.11741096447E+04  0.11741096447E+04  0.50400001928E-02 0.  1.
       -1   -1    0    0    0  501  0.00000000000E+00  0.00000000000E+00 -0.13309846306E+04  0.13309846306E+04  0.50400001928E-02 0. -1.
    10030    2    1    2    0    0  0.00000000000E+00  0.00000000000E+00 -0.15687498594E+03  0.25050942753E+04  0.25001775071E+04 0.  0.
        5    1    3    3  502    0  0.74074512223E+03 -0.31267653021E+03 -0.10375188516E+04  0.13126071027E+04  0.46999998093E+01 0. -1.
       -5    1    3    3    0  502 -0.74074512223E+03  0.31267653021E+03  0.88064386566E+03  0.11924871726E+04  0.46999998093E+01 0.  1.
</event>
<event>
 5   0  0.3808293E-06  0.2500699E+04  0.7818609E-02  0.8402737E-01
        2   -1    0    0  501    0  0.00000000000E+00  0.00000000000E+00  0.10619424672E+04  0.10619424672E+04  0.25500000920E-02 0. -1.
       -2   -1    0    0    0  501  0.00000000000E+00  0.00000000000E+00 -0.14721828886E+04  0.14721828886E+04  0.25500000920E-02 0.  1.
    10030    2    1    2    0    0  0.00000000000E+00  0.00000000000E+00 -0.41024042139E+03  0.25341253558E+04  0.25006987255E+04 0.  0.
        1    1    3    3  502    0  0.34616514028E+03  0.38781266116E+03 -0.13574857457E+04  0.14536149815E+04  0.50400001928E-02 0.  1.
       -1    1    3    3    0  502 -0.34616514028E+03 -0.38781266116E+03  0.94724532435E+03  0.10805103743E+04  0.50400001928E-02 0. -1.
</event>
<event>
 5   0  0.3971759E-06  0.2500565E+04  0.7818609E-02  0.8402784E-01
        2   -1    0    0  501    0  0.00000000000E+00  0.00000000000E+00  0.11805086556E+04  0.11805086556E+04  0.25500000920E-02 0. -1.
       -2   -1    0    0    0  501  0.00000000000E+00  0.00000000000E+00 -0.13241802628E+04  0.13241802628E+04  0.25500000920E-02 0.  1.
    10030    2    1    2    0    0  0.00000000000E+00  0.00000000000E+00 -0.14367160719E+03  0.25046889184E+04  0.25005649456E+04 0.  0.
        4    1    3    3  502    0 -0.69187722122E+03 -0.10104173857E+04  0.18070550332E+03  0.12378584226E+04  0.12699999809E+01 0. -1.
       -4    1    3    3    0  502  0.69187722122E+03  0.10104173857E+04 -0.32437711052E+03  0.12668304959E+04  0.12699999809E+01 0.  1.
</event>
<event>
 5   0  0.1501747E-06  0.2502919E+04  0.7818609E-02  0.8401947E-01
       -1   -1    0    0    0  501  0.00000000000E+00  0.00000000000E+00  0.12373148523E+04  0.12373148523E+04  0.50400001928E-02 0.  1.
        1   -1    0    0  501    0  0.00000000000E+00  0.00000000000E+00 -0.12657654359E+04  0.12657654359E+04  0.50400001928E-02 0. -1.
    10030    2    1    2    0    0  0.00000000000E+00  0.00000000000E+00 -0.28450583583E+02  0.25030802882E+04  0.25029185951E+04 0.  0.
        2    1    3    3  502    0  0.12127462743E+04  0.11464972116E+03  0.27258983451E+03  0.12482801377E+04  0.25500000920E-02 0.  1.
       -2    1    3    3    0  502 -0.12127462743E+04 -0.11464972116E+03 -0.30104041809E+03  0.12548001505E+04  0.25500000920E-02 0. -1.
</event>
<event>
 5   0  0.1519145E-06  0.2499088E+04  0.7818609E-02  0.8403311E-01
        1   -1    0    0  501    0  0.00000000000E+00  0.00000000000E+00  0.12823531639E+04  0.12823531640E+04  0.50400001928E-02 0.  1.
       -1   -1    0    0    0  501  0.00000000000E+00  0.00000000000E+00 -0.12175742578E+04  0.12175742578E+04  0.50400001928E-02 0. -1.
    10030    2    1    2    0    0  0.00000000000E+00  0.00000000000E+00  0.64778906193E+02  0.24999274217E+04  0.24990879951E+04 0.  0.
        4    1    3    3  502    0  0.11380710661E+04  0.31455131412E+03 -0.37666146865E+03  0.12393642546E+04  0.12699999809E+01 0. -1.
       -4    1    3    3    0  502 -0.11380710661E+04 -0.31455131412E+03  0.44144037484E+03  0.12605631671E+04  0.12699999809E+01 0.  1.
</event>
<event>
 5   0  0.3814260E-06  0.2502828E+04  0.7818609E-02  0.8401979E-01
       -2   -1    0    0    0  501  0.00000000000E+00  0.00000000000E+00  0.84485868028E+03  0.84485868028E+03  0.25500000920E-02 0. -1.
        2   -1    0    0  501    0  0.00000000000E+00  0.00000000000E+00 -0.18536089099E+04  0.18536089099E+04  0.25500000920E-02 0.  1.
    10030    2    1    2    0    0  0.00000000000E+00  0.00000000000E+00 -0.10087502296E+04  0.26984675901E+04  0.25028284618E+04 0.  0.
        5    1    3    3  502    0 -0.98929456234E+02 -0.20479025939E+02  0.84044522602E+03  0.84650853260E+03  0.46999998093E+01 0. -1.
       -5    1    3    3    0  502  0.98929456234E+02  0.20479025939E+02 -0.18491954556E+04  0.18519590575E+04  0.46999998093E+01 0.  1.
</event>
<event>
 5   0  0.1553604E-06  0.2489099E+04  0.7818609E-02  0.8406879E-01
        1   -1    0    0  501    0  0.00000000000E+00  0.00000000000E+00  0.25392168548E+04  0.25392168548E+04  0.50400001928E-02 0.  1.
       -1   -1    0    0    0  501  0.00000000000E+00  0.00000000000E+00 -0.60999264397E+03  0.60999264399E+03  0.50400001928E-02 0. -1.
    10030    2    1    2    0    0  0.00000000000E+00  0.00000000000E+00  0.19292242109E+04  0.31492094988E+04  0.24890991165E+04 0.  0.
        1    1    3    3  502    0  0.63443423701E+03  0.85536071034E+03  0.14980444694E+03  0.10754487985E+04  0.50400001928E-02 0. -1.
       -1    1    3    3    0  502 -0.63443423701E+03 -0.85536071034E+03  0.17794197639E+04  0.20737607003E+04  0.50400001928E-02 0.  1.
</event>
<event>
 5   0  0.3814260E-06  0.2490340E+04  0.7818609E-02  0.8406435E-01
        2   -1    0    0  501    0  0.00000000000E+00  0.00000000000E+00  0.21787577297E+04  0.21787577297E+04  0.25500000920E-02 0.  1.
       -2   -1    0    0    0  501  0.00000000000E+00  0.00000000000E+00 -0.71162029921E+03  0.71162029922E+03  0.25500000920E-02 0. -1.
    10030    2    1    2    0    0  0.00000000000E+00  0.00000000000E+00  0.14671374305E+04  0.28903780289E+04  0.24903399186E+04 0.  0.
        5    1    3    3  502    0 -0.77642383875E+03  0.95257066749E+03  0.96627921409E+03  0.15633113777E+04  0.46999998093E+01 0.  1.
       -5    1    3    3    0  502  0.77642383875E+03 -0.95257066749E+03  0.50085821639E+03  0.13270666513E+04  0.46999998093E+01 0. -1.
</event>
<event>
 5   0  0.1501747E-06  0.2566286E+04  0.7818609E-02  0.8379744E-01
       -1   -1    0    0    0  501  0.00000000000E+00  0.00000000000E+00  0.11054313839E+04  0.11054313839E+04  0.50400001928E-02 0. -1.
        1   -1    0    0  501    0  0.00000000000E+00  0.00000000000E+00 -0.14894239062E+04  0.14894239062E+04  0.50400001928E-02 0.  1.
    10030    2    1    2    0    0  0.00000000000E+00  0.00000000000E+00 -0.38399252228E+03  0.25948552902E+04  0.25662859778E+04 0.  0.
        2    1    3    3  502    0  0.27408518414E+03 -0.52261256887E+03 -0.13440704788E+04  0.14679141791E+04  0.25500000920E-02 0.  1.
       -2    1    3    3    0  502 -0.27408518414E+03  0.52261256887E+03  0.96007795647E+03  0.11269411111E+04  0.25500000920E-02 0. -1.
</event>
<event>
 5   0  0.3808293E-06  0.2506346E+04  0.7818609E-02  0.8400728E-01
       -2   -1    0    0    0  501  0.00000000000E+00  0.00000000000E+00  0.11632038093E+04  0.11632038093E+04  0.25500000920E-02 0. -1.
        2   -1    0    0  501    0  0.00000000000E+00  0.00000000000E+00 -0.13501005291E+04  0.13501005291E+04  0.25500000920E-02 0.  1.
    10030    2    1    2    0    0  0.00000000000E+00  0.00000000000E+00 -0.18689671980E+03  0.25133043385E+04  0.25063456094E+04 0.  0.
        1    1    3    3  502    0  0.32152862366E+03 -0.57334171104E+03  0.97644441943E+03  0.11770917881E+04  0.50400001928E-02 0. -1.
       -1    1    3    3    0  502 -0.32152862366E+03  0.57334171104E+03 -0.11633411392E+04  0.13362125503E+04  0.50400001928E-02 0.  1.
</event>
<event>
 5   0  0.3924441E-06  0.2502805E+04  0.7818609E-02  0.8401987E-01
        2   -1    0    0  501    0  0.00000000000E+00  0.00000000000E+00  0.10704678192E+04  0.10704678192E+04  0.25500000920E-02 0. -1.
       -2   -1    0    0    0  501  0.00000000000E+00  0.00000000000E+00 -0.14629196002E+04  0.14629196002E+04  0.25500000920E-02 0.  1.
    10030    2    1    2    0    0  0.00000000000E+00  0.00000000000E+00 -0.39245178098E+03  0.25333874195E+04  0.25028051096E+04 0.  0.
        2    1    3    3  502    0 -0.51605442747E+03 -0.88604444282E+03  0.52991101344E+03  0.11542064845E+04  0.25500000920E-02 0. -1.
       -2    1    3    3    0  502  0.51605442747E+03  0.88604444282E+03 -0.92236279442E+03  0.13791809349E+04  0.25500000920E-02 0.  1.
</event>
<event>
 5   0  0.1287375E-06  0.2508155E+04  0.7818609E-02  0.8400086E-01
       -3   -1    0    0    0  501  0.00000000000E+00  0.00000000000E+00  0.16643288533E+04  0.16643288564E+04  0.10100000352E+00 0.  1.
        3   -1    0    0  501    0  0.00000000000E+00  0.00000000000E+00 -0.94495151807E+03  0.94495152347E+03  0.10100000352E+00 0. -1.
    10030    2    1    2    0    0  0.00000000000E+00  0.00000000000E+00  0.71937733527E+03  0.26092803799E+04  0.25081547700E+04 0.  0.
        3    1    3    3  502    0 -0.93592643667E+03 -0.75286909745E+03 -0.15316876645E+02  0.12012513432E+04  0.10100000352E+00 0.  1.
       -3    1    3    3    0  502  0.93592643667E+03  0.75286909745E+03  0.73469421191E+03  0.14080290366E+04  0.10100000352E+00 0. -1.
</event>
<event>
 5   0  0.1519145E-06  0.2499085E+04  0.7818609E-02  0.8403312E-01
       -1   -1    0    0    0  501  0.00000000000E+00  0.00000000000E+00  0.73072781540E+03  0.73072781542E+03  0.50400001928E-02 0. -1.
        1   -1    0    0  501    0  0.00000000000E+00  0.00000000000E+00 -0.21367133722E+04  0.21367133722E+04  0.50400001928E-02 0.  1.
    10030    2    1    2    0    0  0.00000000000E+00  0.00000000000E+00 -0.14059855568E+04  0.28674411876E+04  0.24990845481E+04 0.  0.
        4    1    3    3  502    0 -0.97291036730E+03 -0.13564447570E+03  0.18310671328E+03  0.99924155635E+03  0.12699999809E+01 0.  1.
       -4    1    3    3    0  502  0.97291036730E+03  0.13564447570E+03 -0.15890922701E+04  0.18681996313E+04  0.12699999809E+01 0. -1.
</event>
<event>
 5   0  0.3971759E-06  0.2500700E+04  0.7818609E-02  0.8402736E-01
       -2   -1    0    0    0  501  0.00000000000E+00  0.00000000000E+00  0.74811529396E+03  0.74811529397E+03  0.25500000920E-02 0.  1.
        2   -1    0    0  501    0  0.00000000000E+00  0.00000000000E+00 -0.20897512333E+04  0.20897512333E+04  0.25500000920E-02 0. -1.
    10030    2    1    2    0    0  0.00000000000E+00  0.00000000000E+00 -0.13416359393E+04  0.28378665272E+04  0.25006997886E+04 0.  0.
        4    1    3    3  502    0  0.27978625992E+03  0.19325634318E+03 -0.20362699353E+04  0.20644672987E+04  0.12699999809E+01 0. -1.
       -4    1    3    3    0  502 -0.27978625992E+03 -0.19325634318E+03  0.69463399595E+03  0.77339922850E+03  0.12699999809E+01 0.  1.
</event>
<event>
 5   0  0.3814260E-06  0.2507653E+04  0.7818609E-02  0.8400264E-01
       -2   -1    0    0    0  501  0.00000000000E+00  0.00000000000E+00  0.85734366163E+03  0.85734366164E+03  0.25500000920E-02 0. -1.
        2   -1    0    0  501    0  0.00000000000E+00  0.00000000000E+00 -0.18336645932E+04  0.18336645932E+04  0.25500000920E-02 0.  1.
    10030    2    1    2    0    0  0.00000000000E+00  0.00000000000E+00 -0.97632093160E+03  0.26910082549E+04  0.25076528600E+04 0.  0.
        5    1    3    3  502    0 -0.82447681804E+03 -0.92967292556E+03 -0.30857785753E+03  0.12803500131E+04  0.46999998093E+01 0.  1.
       -5    1    3    3    0  502  0.82447681804E+03  0.92967292556E+03 -0.66774307407E+03  0.14106582417E+04  0.46999998093E+01 0. -1.
</event>
<event>
 5   0  0.1553604E-06  0.2498885E+04  0.7818609E-02  0.8403383E-01
       -1   -1    0    0    0  501  0.00000000000E+00  0.00000000000E+00  0.79661663168E+03  0.79661663170E+03  0.50400001928E-02 0.  1.
        1   -1    0    0  501    0  0.00000000000E+00  0.00000000000E+00 -0.19596707812E+04  0.19596707812E+04  0.50400001928E-02 0. -1.
    10030    2    1    2    0    0  0.00000000000E+00  0.00000000000E+00 -0.11630541495E+04  0.27562874129E+04  0.24988848208E+04 0.  0.
        1    1    3    3  502    0 -0.96317461019E+03 -0.79073489919E+03 -0.48201575270E+03  0.13361535078E+04  0.50400001928E-02 0.  1.
       -1    1    3    3    0  502  0.96317461019E+03  0.79073489919E+03 -0.68103839682E+03  0.14201339051E+04  0.50400001928E-02 0. -1.
</event>
<event>
 5   0  0.3971759E-06  0.2500368E+04  0.7818609E-02  0.8402855E-01
        2   -1    0    0  501    0  0.00000000000E+00  0.00000000000E+00  0.12118088346E+04  0.12118088346E+04  0.25500000920E-02 0. -1.
       -2   -1    0    0    0  501  0.00000000000E+00  0.00000000000E+00 -0.12897742405E+04  0.12897742405E+04  0.25500000920E-02 0.  1.
    10030    2    1    2    0    0  0.00000000000E+00  0.00000000000E+00 -0.77965405842E+02  0.25015830751E+04  0.25003678284E+04 0.  0.
        4    1    3    3  502    0  0.62160883863E+02  0.30541499979E+03  0.11723145801E+04  0.12130397294E+04  0.12699999809E+01 0. -1.
       -4    1    3    3    0  502 -0.62160883863E+02 -0.30541499979E+03 -0.12502799859E+04  0.12885433457E+04  0.12699999809E+01 0.  1.
</event>
<event>
 5   0  0.1574896E-06  0.2497861E+04  0.7818609E-02  0.8403748E-01
        1   -1    0    0  501    0  0.00000000000E+00  0.00000000000E+00  0.85120078719E+03  0.85120078721E+03  0.50400001928E-02 0.  1.
       -1   -1    0    0    0  501  0.00000000000E+00  0.00000000000E+00 -0.18325017404E+04  0.18325017404E+04  0.50400001928E-02 0. -1.
    10030    2    1    2    0    0  0.00000000000E+00  0.00000000000E+00 -0.98130095321E+03  0.26837025276E+04  0.24978606238E+04 0.  0.
        3    1    3    3  502    0  0.73808311207E+03  0.64156674845E+03 -0.13252683126E+04  0.16470308691E+04  0.10100000352E+00 0. -1.
       -3    1    3    3    0  502 -0.73808311207E+03 -0.64156674845E+03  0.34396735942E+03  0.10366716585E+04  0.10100000352E+00 0.  1.
</event>
<event>
 5   0  0.1501747E-06  0.2495425E+04  0.7818609E-02  0.8404617E-01
        1   -1    0    0  501    0  0.00000000000E+00  0.00000000000E+00  0.11860348240E+04  0.11860348240E+04  0.50400001928E-02 0.  1.
       -1   -1    0    0    0  501  0.00000000000E+00  0.00000000000E+00 -0.13125979481E+04  0.13125979481E+04  0.50400001928E-02 0. -1.
    10030    2    1    2    0    0  0.00000000000E+00  0.00000000000E+00 -0.12656312411E+03  0.24986327722E+04  0.24954253156E+04 0.  0.
        2    1    3    3  502    0  0.10274327882E+04 -0.63108278251E+03 -0.38447926447E+03  0.12655859977E+04  0.25500000920E-02 0.  1.
       -2    1    3    3    0  502 -0.10274327882E+04  0.63108278251E+03  0.25791614036E+03  0.12330467745E+04  0.25500000920E-02 0. -1.
</event>
<event>
 5   0  0.1501747E-06  0.2491840E+04  0.7818609E-02  0.8405898E-01
       -1   -1    0    0    0  501  0.00000000000E+00  0.00000000000E+00  0.14693143814E+04  0.14693143814E+04  0.50400001928E-02 0.  1.
        1   -1    0    0  501    0  0.00000000000E+00  0.00000000000E+00 -0.10564908268E+04  0.10564908269E+04  0.50400001928E-02 0. -1.
    10030    2    1    2    0    0  0.00000000000E+00  0.00000000000E+00  0.41282355451E+03  0.25258052082E+04  0.24918404168E+04 0.  0.
        2    1    3    3  502    0 -0.21033406958E+02  0.97631401329E+03 -0.57788255116E+03  0.11347156911E+04  0.25500000920E-02 0. -1.
       -2    1    3    3    0  502  0.21033406958E+02 -0.97631401329E+03  0.99070610568E+03  0.13910895171E+04  0.25500000920E-02 0.  1.
</event>
<event>
 5   0  0.1553604E-06  0.2495349E+04  0.7818609E-02  0.8404644E-01
       -1   -1    0    0    0  501  0.00000000000E+00  0.00000000000E+00  0.59372040465E+03  0.59372040467E+03  0.50400001928E-02 0. -1.
        1   -1    0    0  501    0  0.00000000000E+00  0.00000000000E+00 -0.26219264503E+04  0.26219264503E+04  0.50400001928E-02 0.  1.
    10030    2    1    2    0    0  0.00000000000E+00  0.00000000000E+00 -0.20282060456E+04  0.32156468550E+04  0.24953486595E+04 0.  0.
        1    1    3    3  502    0  0.80123343894E+03 -0.87432716410E+03 -0.51456254729E+03  0.12927480917E+04  0.50400001928E-02 0. -1.
       -1    1    3    3    0  502 -0.80123343894E+03  0.87432716410E+03 -0.15136434983E+04  0.19228987632E+04  0.50400001928E-02 0.  1.
</event>
<event>
 5   0  0.1541852E-06  0.2500585E+04  0.7818609E-02  0.8402777E-01
        1   -1    0    0  501    0  0.00000000000E+00  0.00000000000E+00  0.18558317939E+04  0.18558317939E+04  0.50400001928E-02 0. -1.
       -1   -1    0    0    0  501  0.00000000000E+00  0.00000000000E+00 -0.84233475983E+03  0.84233475984E+03  0.50400001928E-02 0.  1.
    10030    2    1    2    0    0  0.00000000000E+00  0.00000000000E+00  0.10134970341E+04  0.26981665538E+04  0.25005852343E+04 0.  0.
        5    1    3    3  502    0 -0.31370152597E+03  0.12063031418E+04  0.40084219773E+03  0.13093022855E+04  0.46999998093E+01 0.  1.
       -5    1    3    3    0  502  0.31370152597E+03 -0.12063031418E+04  0.61265483637E+03  0.13888642683E+04  0.46999998093E+01 0. -1.
</event>
<event>
 5   0  0.1501747E-06  0.2498882E+04  0.7818609E-02  0.8403384E-01
        1   -1    0    0  501    0  0.00000000000E+00  0.00000000000E+00  0.13236651095E+04  0.13236651095E+04  0.50400001928E-02 0.  1.
       -1   -1    0    0    0  501  0.00000000000E+00  0.00000000000E+00 -0.11793788334E+04  0.11793788334E+04  0.50400001928E-02 0. -1.
    10030    2    1    2    0    0  0.00000000000E+00  0.00000000000E+00  0.14428627613E+03  0.25030439429E+04  0.24988818401E+04 0.  0.
        2    1    3    3  502    0 -0.82943924326E+03 -0.25751945796E+03  0.97186907823E+03  0.13033860651E+04  0.25500000920E-02 0.  1.
       -2    1    3    3    0  502  0.82943924326E+03  0.25751945796E+03 -0.82758280210E+03  0.11996578778E+04  0.25500000920E-02 0. -1.
</event>
<event>
 5   0  0.3971759E-06  0.2501164E+04  0.7818609E-02  0.8402571E-01
        2   -1    0    0  501    0  0.00000000000E+00  0.00000000000E+00  0.19034677224E+04  0.19034677224E+04  0.25500000920E-02 0. -1.
       -2   -1    0    0    0  501  0.00000000000E+00  0.00000000000E+00 -0.82163468900E+03  0.82163468900E+03  0.25500000920E-02 0.  1.
    10030    2    1    2    0    0  0.00000000000E+00  0.00000000000E+00  0.10818330334E+04  0.27251024114E+04  0.25011638172E+04 0.  0.
        4    1    3    3  502    0 -0.61381062850E+03  0.16842367828E+03  0.17137850442E+04  0.18281659700E+04  0.12699999809E+01 0. -1.
       -4    1    3    3    0  502  0.61381062850E+03 -0.16842367828E+03 -0.63195201083E+03  0.89693644142E+03  0.12699999809E+01 0.  1.
</event>
<event>
 5   0  0.3971759E-06  0.2509597E+04  0.7818609E-02  0.8399574E-01
       -2   -1    0    0    0  501  0.00000000000E+00  0.00000000000E+00  0.75686347091E+03  0.75686347091E+03  0.25500000920E-02 0.  1.
        2   -1    0    0  501    0  0.00000000000E+00  0.00000000000E+00 -0.20803218600E+04  0.20803218600E+04  0.25500000920E-02 0. -1.
    10030    2    1    2    0    0  0.00000000000E+00  0.00000000000E+00 -0.13234583891E+04  0.28371853309E+04  0.25095972773E+04 0.  0.
        4    1    3    3  502    0  0.25215740915E+03  0.93355652763E+03 -0.15657372853E+04  0.18402842196E+04  0.12699999809E+01 0. -1.
       -4    1    3    3    0  502 -0.25215740915E+03 -0.93355652763E+03  0.24227889626E+03  0.99690111131E+03  0.12699999809E+01 0.  1.
</event>
<event>
 5   0  0.3808293E-06  0.2502576E+04  0.7818609E-02  0.8402068E-01
       -2   -1    0    0    0  501  0.00000000000E+00  0.00000000000E+00  0.12776585118E+04  0.12776585118E+04  0.25500000920E-02 0.  1.
        2   -1    0    0  501    0  0.00000000000E+00  0.00000000000E+00 -0.12254620008E+04  0.12254620008E+04  0.25500000920E-02 0. -1.
    10030    2    1    2    0    0  0.00000000000E+00  0.00000000000E+00  0.52196510964E+02  0.25031205126E+04  0.25025762375E+04 0.  0.
        1    1    3    3  502    0 -0.10362895505E+04 -0.31210865432E+03 -0.60206230455E+03  0.12384614904E+04  0.50400001928E-02 0.  1.
       -1    1    3    3    0  502  0.10362895505E+04  0.31210865432E+03  0.65425881551E+03  0.12646590222E+04  0.50400001928E-02 0. -1.
</event>
<event>
 5   0  0.1519145E-06  0.2481802E+04  0.7818609E-02  0.8409497E-01
       -1   -1    0    0    0  501  0.00000000000E+00  0.00000000000E+00  0.13817469302E+04  0.13817469302E+04  0.50400001928E-02 0.  1.
        1   -1    0    0  501    0  0.00000000000E+00  0.00000000000E+00 -0.11144123312E+04  0.11144123312E+04  0.50400001928E-02 0. -1.
    10030    2    1    2    0    0  0.00000000000E+00  0.00000000000E+00  0.26733459903E+03  0.24961592614E+04  0.24818024237E+04 0.  0.
        4    1    3    3  502    0  0.89660468045E+03  0.73742714650E+03  0.57453556996E+03  0.12952959058E+04  0.12699999809E+01 0.  1.
       -4    1    3    3    0  502 -0.89660468045E+03 -0.73742714650E+03 -0.30720097093E+03  0.12008633556E+04  0.12699999809E+01 0. -1.
</event>
<event>
 5   0  0.1519145E-06  0.2501174E+04  0.7818609E-02  0.8402567E-01
       -1   -1    0    0    0  501  0.00000000000E+00  0.00000000000E+00  0.12032068096E+04  0.12032068096E+04  0.50400001928E-02 0.  1.
        1   -1    0    0  501    0  0.00000000000E+00  0.00000000000E+00 -0.12998327089E+04  0.12998327089E+04  0.50400001928E-02 0. -1.
    10030    2    1    2    0    0  0.00000000000E+00  0.00000000000E+00 -0.96625899381E+02  0.25030395185E+04  0.25011737778E+04 0.  0.
        4    1    3    3  502    0 -0.49819171947E+03 -0.39216904636E+03 -0.11270662072E+04  0.12931633302E+04  0.12699999809E+01 0. -1.
       -4    1    3    3    0  502  0.49819171947E+03  0.39216904636E+03  0.10304403078E+04  0.12098761883E+04  0.12699999809E+01 0.  1.
</event>
<event>
 5   0  0.3814260E-06  0.2528285E+04  0.7818609E-02  0.8392978E-01
       -2   -1    0    0    0  501  0.00000000000E+00  0.00000000000E+00  0.11677159041E+04  0.11677159041E+04  0.25500000920E-02 0. -1.
        2   -1    0    0  501    0  0.00000000000E+00  0.00000000000E+00 -0.13685317680E+04  0.13685317680E+04  0.25500000920E-02 0.  1.
    10030    2    1    2    0    0  0.00000000000E+00  0.00000000000E+00 -0.20081586397E+03  0.25362476721E+04  0.25282850399E+04 0.  0.
        5    1    3    3  502    0  0.11997581316E+04  0.14437031549E+03  0.27193737548E+03  0.12386421551E+04  0.46999998093E+01 0. -1.
       -5    1    3    3    0  502 -0.11997581316E+04 -0.14437031549E+03 -0.47275323945E+03  0.12976055170E+04  0.46999998093E+01 0.  1.
</event>
<event>
 5   0  0.1541852E-06  0.2499657E+04  0.7818609E-02  0.8403108E-01
       -1   -1    0    0    0  501  0.00000000000E+00  0.00000000000E+00  0.85011187558E+03  0.85011187559E+03  0.50400001928E-02 0.  1.
        1   -1    0    0  501    0  0.00000000000E+00  0.00000000000E+00 -0.18374895520E+04  0.18374895520E+04  0.50400001928E-02 0. -1.
    10030    2    1    2    0    0  0.00000000000E+00  0.00000000000E+00 -0.98737767644E+03  0.26876014276E+04  0.24996573281E+04 0.  0.
        5    1    3    3  502    0 -0.87024656408E+03 -0.77183678070E+03 -0.21638716496E+01  0.11632230528E+04  0.46999998093E+01 0.  1.
       -5    1    3    3    0  502  0.87024656408E+03  0.77183678070E+03 -0.98521380479E+03  0.15243783748E+04  0.46999998093E+01 0. -1.
</event>
<event>
 5   0  0.1287375E-06  0.2493752E+04  0.7818609E-02  0.8405215E-01
       -3   -1    0    0    0  501  0.00000000000E+00  0.00000000000E+00  0.12231749854E+04  0.12231749896E+04  0.10100000352E+00 0.  1.
        3   -1    0    0  501    0  0.00000000000E+00  0.00000000000E+00 -0.12710362619E+04  0.12710362659E+04  0.10100000352E+00 0. -1.
    10030    2    1    2    0    0  0.00000000000E+00  0.00000000000E+00 -0.47861276429E+02  0.24942112555E+04  0.24937520096E+04 0.  0.
        2    1    3    3  502    0  0.21526396444E+03 -0.11996423724E+04  0.23921356599E+03  0.12420561687E+04  0.25500000920E-02 0.  1.
       -2    1    3    3    0  502 -0.21526396444E+03  0.11996423724E+04 -0.28707484242E+03  0.12521550868E+04  0.25500000920E-02 0. -1.
</event>
<event>
 5   0  0.3924441E-06  0.2498397E+04  0.7818609E-02  0.8403557E-01
        2   -1    0    0  501    0  0.00000000000E+00  0.00000000000E+00  0.11533216696E+04  0.11533216696E+04  0.25500000920E-02 0. -1.
       -2   -1    0    0    0  501  0.00000000000E+00  0.00000000000E+00 -0.13530454224E+04  0.13530454224E+04  0.25500000920E-02 0.  1.
    10030    2    1    2    0    0  0.00000000000E+00  0.00000000000E+00 -0.19972375285E+03  0.25063670920E+04  0.24983967704E+04 0.  0.
        2    1    3    3  502    0  0.57343185307E+03 -0.82319659037E+03 -0.84656152665E+03  0.13126854669E+04  0.25500000920E-02 0.  1.
       -2    1    3    3    0  502 -0.57343185307E+03  0.82319659037E+03  0.64683777380E+03  0.11936816251E+04  0.25500000920E-02 0. -1.
</event>
<event>
 5   0  0.1574896E-06  0.2498491E+04  0.7818609E-02  0.8403523E-01
       -1   -1    0    0    0  501  0.00000000000E+00  0.00000000000E+00  0.86467846674E+03  0.86467846675E+03  0.50400001928E-02 0. -1.
        1   -1    0    0  501    0  0.00000000000E+00  0.00000000000E+00 -0.18048499725E+04  0.18048499725E+04  0.50400001928E-02 0.  1.
    10030    2    1    2    0    0  0.00000000000E+00  0.00000000000E+00 -0.94017150575E+03  0.26695284392E+04  0.24984914704E+04 0.  0.
        3    1    3    3  502    0  0.11925422846E+04 -0.31577953688E+02 -0.86622315040E+03  0.14742784080E+04  0.10100000352E+00 0. -1.
       -3    1    3    3    0  502 -0.11925422846E+04  0.31577953688E+02 -0.73948355345E+02  0.11952500313E+04  0.10100000352E+00 0.  1.
</event>
<event>
 5   0  0.3713394E-06  0.2500496E+04  0.7818609E-02  0.8402809E-01
        2   -1    0    0  501    0  0.00000000000E+00  0.00000000000E+00  0.10132041969E+04  0.10132041969E+04  0.25500000920E-02 0.  1.
       -2   -1    0    0    0  501  0.00000000000E+00  0.00000000000E+00 -0.15427493953E+04  0.15427493953E+04  0.25500000920E-02 0. -1.
    10030    2    1    2    0    0  0.00000000000E+00  0.00000000000E+00 -0.52954519840E+03  0.25559535921E+04  0.25004960804E+04 0.  0.
        3    1    3    3  502    0 -0.16158335938E+03  0.12307430543E+04 -0.11218867427E+03  0.12463642953E+04  0.10100000352E+00 0.  1.
       -3    1    3    3    0  502  0.16158335938E+03 -0.12307430543E+04 -0.41735652413E+03  0.13095892968E+04  0.10100000352E+00 0. -1.
</event>
<event>
 5   0  0.3971759E-06  0.2499730E+04  0.7818609E-02  0.8403082E-01
       -2   -1    0    0    0  501  0.00000000000E+00  0.00000000000E+00  0.64205116488E+03  0.64205116488E+03  0.25500000920E-02 0.  1.
        2   -1    0    0  501    0  0.00000000000E+00  0.00000000000E+00 -0.24330818221E+04  0.24330818221E+04  0.25500000920E-02 0. -1.
    10030    2    1    2    0    0  0.00000000000E+00  0.00000000000E+00 -0.17910306572E+04  0.30751329870E+04  0.24997304000E+04 0.  0.
        4    1    3    3  502    0 -0.54687597334E+03  0.53028718307E+03 -0.21145069724E+04  0.22475362458E+04  0.12699999809E+01 0. -1.
       -4    1    3    3    0  502  0.54687597334E+03 -0.53028718307E+03  0.32347631517E+03  0.82759674124E+03  0.12699999809E+01 0.  1.
</event>
<event>
 5   0  0.3971759E-06  0.2490324E+04  0.7818609E-02  0.8406441E-01
        2   -1    0    0  501    0  0.00000000000E+00  0.00000000000E+00  0.13626887561E+04  0.13626887561E+04  0.25500000920E-02 0.  1.
       -2   -1    0    0    0  501  0.00000000000E+00  0.00000000000E+00 -0.11377715317E+04  0.11377715317E+04  0.25500000920E-02 0. -1.
    10030    2    1    2    0    0  0.00000000000E+00  0.00000000000E+00  0.22491722440E+03  0.25004602878E+04  0.24903240538E+04 0.  0.
        4    1    3    3  502    0 -0.80049215216E+03  0.64450299748E+03  0.81835288864E+03  0.13137255660E+04  0.12699999809E+01 0.  1.
       -4    1    3    3    0  502  0.80049215216E+03 -0.64450299748E+03 -0.59343566424E+03  0.11867347218E+04  0.12699999809E+01 0. -1.
</event>
<event>
 5   0  0.1501747E-06  0.2496558E+04  0.7818609E-02  0.8404213E-01
        1   -1    0    0  501    0  0.00000000000E+00  0.00000000000E+00  0.18027601495E+04  0.18027601495E+04  0.50400001928E-02 0. -1.
       -1   -1    0    0    0  501  0.00000000000E+00  0.00000000000E+00 -0.86434167133E+03  0.86434167135E+03  0.50400001928E-02 0.  1.
    10030    2    1    2    0    0  0.00000000000E+00  0.00000000000E+00  0.93841847820E+03  0.26671018209E+04  0.24965582074E+04 0.  0.
        2    1    3    3  502    0  0.12075109672E+04 -0.19525420275E+03  0.20321516439E+03  0.12399610247E+04  0.25500000920E-02 0.  1.
       -2    1    3    3    0  502 -0.12075109672E+04  0.19525420275E+03  0.73520331381E+03  0.14271407962E+04  0.25500000920E-02 0. -1.
</event>
<event>
 5   0  0.3808293E-06  0.2505434E+04  0.7818609E-02  0.8401052E-01
        2   -1    0    0  501    0  0.00000000000E+00  0.00000000000E+00  0.20334735786E+04  0.20334735786E+04  0.25500000920E-02 0.  1.
       -2   -1    0    0    0  501  0.00000000000E+00  0.00000000000E+00 -0.77173381921E+03  0.77173381921E+03  0.25500000920E-02 0. -1.
    10030    2    1    2    0    0  0.00000000000E+00  0.00000000000E+00  0.12617397594E+04  0.28052073978E+04  0.25054343584E+04 0.  0.
        1    1    3    3  502    0 -0.15065559179E+02  0.61882356213E+03 -0.58853584852E+03  0.85413348907E+03  0.50400001928E-02 0. -1.
       -1    1    3    3    0  502  0.15065559179E+02 -0.61882356213E+03  0.18502756079E+04  0.19510739088E+04  0.50400001928E-02 0.  1.
</event>
<event>
 5   0  0.1553604E-06  0.2502418E+04  0.7818609E-02  0.8402125E-01
       -1   -1    0    0    0  501  0.00000000000E+00  0.00000000000E+00  0.52025032093E+03  0.52025032096E+03  0.50400001928E-02 0. -1.
        1   -1    0    0  501    0  0.00000000000E+00  0.00000000000E+00 -0.30091746131E+04  0.30091746131E+04  0.50400001928E-02 0.  1.
    10030    2    1    2    0    0  0.00000000000E+00  0.00000000000E+00 -0.24889242922E+04  0.35294249341E+04  0.25024180772E+04 0.  0.
        1    1    3    3  502    0  0.10631862677E+04  0.92532369305E+02 -0.32326439966E+03  0.11150906471E+04  0.50400001928E-02 0. -1.
       -1    1    3    3    0  502 -0.10631862677E+04 -0.92532369305E+02 -0.21656598925E+04  0.24143342870E+04  0.50400001928E-02 0.  1.
</event>
<event>
 5   0  0.1541852E-06  0.2494017E+04  0.7818609E-02  0.8405120E-01
       -1   -1    0    0    0  501  0.00000000000E+00  0.00000000000E+00  0.25268989952E+04  0.25268989952E+04  0.50400001928E-02 0. -1.
        1   -1    0    0  501    0  0.00000000000E+00  0.00000000000E+00 -0.61539083791E+03  0.61539083793E+03  0.50400001928E-02 0.  1.
    10030    2    1    2    0    0  0.00000000000E+00  0.00000000000E+00  0.19115081573E+04  0.31422898331E+04  0.24940172333E+04 0.  0.
        5    1    3    3  502    0  0.66775886099E+03  0.45511526680E+03  0.21523414774E+04  0.22990493095E+04  0.46999998093E+01 0. -1.
       -5    1    3    3    0  502 -0.66775886099E+03 -0.45511526680E+03 -0.24083332011E+03  0.84324052356E+03  0.46999998093E+01 0.  1.
</event>
<event>
 5   0  0.3808293E-06  0.2484399E+04  0.7818609E-02  0.8408564E-01
       -2   -1    0    0    0  501  0.00000000000E+00  0.00000000000E+00  0.11787641383E+04  0.11787641383E+04  0.25500000920E-02 0.  1.
        2   -1    0    0  501    0  0.00000000000E+00  0.00000000000E+00 -0.13090491256E+04  0.13090491256E+04  0.25500000920E-02 0. -1.
    10030    2    1    2    0    0  0.00000000000E+00  0.00000000000E+00 -0.13028498729E+03  0.24878132639E+04  0.24843994562E+04 0.  0.
        1    1    3    3  502    0  0.38018174162E+03  0.62926308740E+03 -0.10677925178E+04  0.12964146910E+04  0.50400001928E-02 0. -1.
       -1    1    3    3    0  502 -0.38018174162E+03 -0.62926308740E+03  0.93750753052E+03  0.11913985730E+04  0.50400001928E-02 0.  1.
</event>
<event>
 5   0  0.1541852E-06  0.2499669E+04  0.7818609E-02  0.8403104E-01
       -1   -1    0    0    0  501  0.00000000000E+00  0.00000000000E+00  0.95856582193E+03  0.95856582194E+03  0.50400001928E-02 0. -1.
        1   -1    0    0  501    0  0.00000000000E+00  0.00000000000E+00 -0.16296074129E+04  0.16296074129E+04  0.50400001928E-02 0.  1.
    10030    2    1    2    0    0  0.00000000000E+00  0.00000000000E+00 -0.67104159100E+03  0.25881732349E+04  0.24996687534E+04 0.  0.
        5    1    3    3  502    0 -0.82991678192E+03  0.41159915252E+03  0.53316497543E+03  0.10688604719E+04  0.46999998093E+01 0. -1.
       -5    1    3    3    0  502  0.82991678192E+03 -0.41159915252E+03 -0.12042065664E+04  0.15193127630E+04  0.46999998093E+01 0.  1.
</event>
<event>
 5   0  0.1574896E-06  0.2499748E+04  0.7818609E-02  0.8403075E-01
        1   -1    0    0  501    0  0.00000000000E+00  0.00000000000E+00  0.18801707166E+04  0.18801707166E+04  0.50400001928E-02 0. -1.
       -1   -1    0    0    0  501  0.00000000000E+00  0.00000000000E+00 -0.83087376261E+03  0.83087376262E+03  0.50400001928E-02 0.  1.
    10030    2    1    2    0    0  0.00000000000E+00  0.00000000000E+00  0.10492969540E+04  0.27110444792E+04  0.24997476014E+04 0.  0.
        3    1    3    3  502    0  0.20318223815E+03 -0.10183790957E+04  0.12790036704E+04  0.16474918523E+04  0.10100000352E+00 0. -1.
       -3    1    3    3    0  502 -0.20318223815E+03  0.10183790957E+04 -0.22970671644E+03  0.10635526269E+04  0.10100000352E+00 0.  1.
</event>
<event>
 5   0  0.1519145E-06  0.2496280E+04  0.7818609E-02  0.8404312E-01
       -1   -1    0    0    0  501  0.00000000000E+00  0.00000000000E+00  0.88904257012E+03  0.88904257013E+03  0.50400001928E-02 0. -1.
        1   -1    0    0  501    0  0.00000000000E+00  0.00000000000E+00 -0.17522814987E+04  0.17522814987E+04  0.50400001928E-02 0.  1.
    10030    2    1    2    0    0  0.00000000000E+00  0.00000000000E+00 -0.86323892862E+03  0.26413240689E+04  0.24962795094E+04 0.  0.
        4    1    3    3  502    0 -0.75955744007E+03 -0.63907561100E+02  0.61415996559E+03  0.97887984827E+03  0.12699999809E+01 0. -1.
       -4    1    3    3    0  502  0.75955744007E+03  0.63907561100E+02 -0.14773988942E+04  0.16624442206E+04  0.12699999809E+01 0.  1.
</event>
<event>
 5   0  0.3814260E-06  0.2497404E+04  0.7818609E-02  0.8403911E-01
        2   -1    0    0  501    0  0.00000000000E+00  0.00000000000E+00  0.23713918169E+04  0.23713918169E+04  0.25500000920E-02 0.  1.
       -2   -1    0    0    0  501  0.00000000000E+00  0.00000000000E+00 -0.65752811482E+03  0.65752811482E+03  0.25500000920E-02 0. -1.
    10030    2    1    2    0    0  0.00000000000E+00  0.00000000000E+00  0.17138637021E+04  0.30289199317E+04  0.24974040849E+04 0.  0.
        5    1    3    3  502    0 -0.84777975666E+03  0.44844668757E+03 -0.11287491021E+03  0.96571102445E+03  0.46999998093E+01 0. -1.
       -5    1    3    3    0  502  0.84777975666E+03 -0.44844668757E+03  0.18267386123E+04  0.20632089073E+04  0.46999998093E+01 0.  1.
</event>
<event>
 5   0  0.3808293E-06  0.2510862E+04  0.7818609E-02  0.8399126E-01
        2   -1    0    0  501    0  0.00000000000E+00  0.00000000000E+00  0.98901206561E+03  0.98901206561E+03  0.25500000920E-02 0. -1.
       -2   -1    0    0    0  501  0.00000000000E+00  0.00000000000E+00 -0.15936171041E+04  0.15936171042E+04  0.25500000920E-02 0.  1.
    10030    2    1    2    0    0  0.00000000000E+00  0.00000000000E+00 -0.60460503854E+03  0.25826291698E+04  0.25108616401E+04 0.  0.
        1    1    3    3  502    0 -0.10520640245E+04 -0.58699291616E+03  0.60930185661E+02  0.12062801842E+04  0.50400001928E-02 0.  1.
       -1    1    3    3    0  502  0.10520640245E+04  0.58699291616E+03 -0.66553522420E+03  0.13763489855E+04  0.50400001928E-02 0. -1.
</event>
<event>
 5   0  0.1501747E-06  0.2488830E+04  0.7818609E-02  0.8406976E-01
        1   -1    0    0  501    0  0.00000000000E+00  0.00000000000E+00  0.11366570619E+04  0.11366570619E+04  0.50400001928E-02 0.  1.
       -1   -1    0    0    0  501  0.00000000000E+00  0.00000000000E+00 -0.13623881837E+04  0.13623881838E+04  0.50400001928E-02 0. -1.
    10030    2    1    2    0    0  0.00000000000E+00  0.00000000000E+00 -0.22573112185E+03  0.24990452457E+04  0.24888295644E+04 0.  0.
        2    1    3    3  502    0 -0.37079254081E+03 -0.10857657974E+04  0.37097709653E+03  0.12058185938E+04  0.25500000920E-02 0.  1.
       -2    1    3    3    0  502  0.37079254081E+03  0.10857657974E+04 -0.59670821838E+03  0.12932266518E+04  0.25500000920E-02 0. -1.
</event>
<event>
 5   0  0.1541852E-06  0.2487416E+04  0.7818609E-02  0.8407483E-01
        1   -1    0    0  501    0  0.00000000000E+00  0.00000000000E+00  0.21453242754E+04  0.21453242754E+04  0.50400001928E-02 0. -1.
       -1   -1    0    0    0  501  0.00000000000E+00  0.00000000000E+00 -0.72101407983E+03  0.72101407985E+03  0.50400001928E-02 0.  1.
    10030    2    1    2    0    0  0.00000000000E+00  0.00000000000E+00  0.14243101956E+04  0.28663383553E+04  0.24874155330E+04 0.  0.
        5    1    3    3  502    0 -0.11046710367E+04 -0.17915023316E+03  0.86919639199E+02  0.11224838614E+04  0.46999998093E+01 0.  1.
       -5    1    3    3    0  502  0.11046710367E+04  0.17915023316E+03  0.13373905564E+04  0.17438544939E+04  0.46999998093E+01 0. -1.
</event>
<event>
 5   0  0.3713394E-06  0.2498519E+04  0.7818609E-02  0.8403513E-01
       -2   -1    0    0    0  501  0.00000000000E+00  0.00000000000E+00  0.11308398830E+04  0.11308398830E+04  0.25500000920E-02 0. -1.
        2   -1    0    0  501    0  0.00000000000E+00  0.00000000000E+00 -0.13800796341E+04  0.13800796341E+04  0.25500000920E-02 0.  1.
    10030    2    1    2    0    0  0.00000000000E+00  0.00000000000E+00 -0.24923975111E+03  0.25109195171E+04  0.24985188348E+04 0.  0.
        3    1    3    3  502    0 -0.54244426005E+01  0.12487328435E+04 -0.88581851353E+02  0.12518825399E+04  0.10100000352E+00 0. -1.
       -3    1    3    3    0  502  0.54244426005E+01 -0.12487328435E+04 -0.16065789976E+03  0.12590369772E+04  0.10100000352E+00 0.  1.
</event>
<event>
 5   0  0.3808293E-06  0.2498971E+04  0.7818609E-02  0.8403352E-01
       -2   -1    0    0    0  501  0.00000000000E+00  0.00000000000E+00  0.11737368723E+04  0.11737368723E+04  0.25500000920E-02 0.  1.
        2   -1    0    0  501    0  0.00000000000E+00  0.00000000000E+00 -0.13301225658E+04  0.13301225658E+04  0.25500000920E-02 0. -1.
    10030    2    1    2    0    0  0.00000000000E+00  0.00000000000E+00 -0.15638569350E+03  0.25038594382E+04  0.24989709084E+04 0.  0.
        1    1    3    3  502    0 -0.15265423311E+03 -0.68167298199E+03  0.95980310208E+03  0.11870987171E+04  0.50400001928E-02 0.  1.
       -1    1    3    3    0  502  0.15265423311E+03  0.68167298199E+03 -0.11161887956E+04  0.13167607211E+04  0.50400001928E-02 0. -1.
</event>
<event>
 5   0  0.1287375E-06  0.2505746E+04  0.7818609E-02  0.8400941E-01
        3   -1    0    0  501    0  0.00000000000E+00  0.00000000000E+00  0.11114750896E+04  0.11114750942E+04  0.10100000352E+00 0. -1.
       -3   -1    0    0    0  501  0.00000000000E+00  0.00000000000E+00 -0.14122586869E+04  0.14122586905E+04  0.10100000352E+00 0.  1.
    10030    2    1    2    0    0  0.00000000000E+00  0.00000000000E+00 -0.30078359728E+03  0.25237337846E+04  0.25057456861E+04 0.  0.
        4    1    3    3  502    0  0.73254296800E+03 -0.94263364490E+03 -0.53326726914E+03  0.13074987502E+04  0.12699999809E+01 0.  1.
       -4    1    3    3    0  502 -0.73254296800E+03  0.94263364490E+03  0.23248367185E+03  0.12162350345E+04  0.12699999809E+01 0. -1.
</event>
<event>
 5   0  0.1501747E-06  0.2505618E+04  0.7818609E-02  0.8400987E-01
        1   -1    0    0  501    0  0.00000000000E+00  0.00000000000E+00  0.17346914657E+04  0.17346914657E+04  0.50400001928E-02 0.  1.
       -1   -1    0    0    0  501  0.00000000000E+00  0.00000000000E+00 -0.90478924659E+03  0.90478924660E+03  0.50400001928E-02 0. -1.
    10030    2    1    2    0    0  0.00000000000E+00  0.00000000000E+00  0.82990221912E+03  0.26394807123E+04  0.25056178355E+04 0.  0.
        2    1    3    3  502    0 -0.11708466639E+04  0.31990899674E+03  0.74186357340E+03  0.14225277635E+04  0.25500000920E-02 0.  1.
       -2    1    3    3    0  502  0.11708466639E+04 -0.31990899674E+03  0.88038645718E+02  0.12169529488E+04  0.25500000920E-02 0. -1.
</event>
<event>
 5   0  0.1541852E-06  0.2498091E+04  0.7818609E-02  0.8403666E-01
       -1   -1    0    0    0  501  0.00000000000E+00  0.00000000000E+00  0.13916314752E+04  0.13916314752E+04  0.50400001928E-02 0.  1.
        1   -1    0    0  501    0  0.00000000000E+00  0.00000000000E+00 -0.11210690990E+04  0.11210690990E+04  0.50400001928E-02 0. -1.
    10030    2    1    2    0    0  0.00000000000E+00  0.00000000000E+00  0.27056237617E+03  0.25127005742E+04  0.24980913066E+04 0.  0.
        5    1    3    3  502    0  0.23265838207E+03 -0.12219084167E+04  0.24953620908E+03  0.12686530303E+04  0.46999998093E+01 0. -1.
       -5    1    3    3    0  502 -0.23265838207E+03  0.12219084167E+04  0.21026167086E+02  0.12440475438E+04  0.46999998093E+01 0.  1.
</event>
<event>
 5   0  0.1501747E-06  0.2495114E+04  0.7818609E-02  0.8404728E-01
       -1   -1    0    0    0  501  0.00000000000E+00  0.00000000000E+00  0.93337180685E+03  0.93337180687E+03  0.50400001928E-02 0.  1.
        1   -1    0    0  501    0  0.00000000000E+00  0.00000000000E+00 -0.16675010355E+04  0.16675010355E+04  0.50400001928E-02 0. -1.
    10030    2    1    2    0    0  0.00000000000E+00  0.00000000000E+00 -0.73412922863E+03  0.26008728424E+04  0.24951139889E+04 0.  0.
        2    1    3    3  502    0  0.23710440534E+03  0.74228092486E+03  0.64849953456E+03  0.10137806058E+04  0.25500000920E-02 0.  1.
       -2    1    3    3    0  502 -0.23710440534E+03 -0.74228092486E+03 -0.13826287632E+04  0.15870922365E+04  0.25500000920E-02 0. -1.
</event>
<event>
 5   0  0.1541852E-06  0.2533476E+04  0.7818609E-02  0.8391156E-01
        1   -1    0    0  501    0  0.00000000000E+00  0.00000000000E+00  0.16755751564E+04  0.16755751564E+04  0.50400001928E-02 0. -1.
       -1   -1    0    0    0  501  0.00000000000E+00  0.00000000000E+00 -0.95765647884E+03  0.95765647886E+03  0.50400001928E-02 0.  1.
    10030    2    1    2    0    0  0.00000000000E+00  0.00000000000E+00  0.71791867753E+03  0.26332316352E+04  0.25334761924E+04 0.  0.
        5    1    3    3  502    0 -0.90997119133E+03 -0.56916803287E+03 -0.34028858970E+03  0.11259743483E+04  0.46999998093E+01 0.  1.
       -5    1    3    3    0  502  0.90997119133E+03  0.56916803287E+03  0.10582072672E+04  0.15072572870E+04  0.46999998093E+01 0. -1.
</event>
<event>
 5   0  0.1501747E-06  0.2494871E+04  0.7818609E-02  0.8404815E-01
        1   -1    0    0  501    0  0.00000000000E+00  0.00000000000E+00  0.14549242270E+04  0.14549242270E+04  0.50400001928E-02 0.  1.
       -1   -1    0    0    0  501  0.00000000000E+00  0.00000000000E+00 -0.10695366294E+04  0.10695366295E+04  0.50400001928E-02 0. -1.
    10030    2    1    2    0    0  0.00000000000E+00  0.00000000000E+00  0.38538759755E+03  0.25244608565E+04  0.24948705408E+04 0.  0.
        2    1    3    3  502    0  0.61308383712E+03  0.18528221608E+02  0.12917995609E+04  0.14300213956E+04  0.25500000920E-02 0.  1.
       -2    1    3    3    0  502 -0.61308383712E+03 -0.18528221608E+02 -0.90641196331E+03  0.10944394609E+04  0.25500000920E-02 0. -1.
</event>
<event>
 5   0  0.3713394E-06  0.2499314E+04  0.7818609E-02  0.8403230E-01
       -2   -1    0    0    0  501  0.00000000000E+00  0.00000000000E+00  0.55182053857E+03  0.55182053858E+03  0.25500000920E-02 0. -1.
        2   -1    0    0  501    0  0.00000000000E+00  0.00000000000E+00 -0.28299817972E+04  0.28299817972E+04  0.25500000920E-02 0.  1.
    10030    2    1    2    0    0  0.00000000000E+00  0.00000000000E+00 -0.22781612586E+04  0.33818023357E+04  0.24993135693E+04 0.  0.
        3    1    3    3  502    0  0.11948441663E+04 -0.33242207379E+03 -0.93172146211E+03  0.15512130447E+04  0.10100000352E+00 0. -1.
       -3    1    3    3    0  502 -0.11948441663E+04  0.33242207379E+03 -0.13464397965E+04  0.18305892911E+04  0.10100000352E+00 0.  1.
</event>
<event>
 5   0  0.3924441E-06  0.2499717E+04  0.7818609E-02  0.8403086E-01
        2   -1    0    0  501    0  0.00000000000E+00  0.00000000000E+00  0.15528555712E+04  0.15528555712E+04  0.25500000920E-02 0. -1.
       -2   -1    0    0    0  501  0.00000000000E+00  0.00000000000E+00 -0.10059833283E+04  0.10059833283E+04  0.25500000920E-02 0.  1.
    10030    2    1    2    0    0  0.00000000000E+00  0.00000000000E+00  0.54687224289E+03  0.25588388996E+04  0.24997174368E+04 0.  0.
        2    1    3    3  502    0  0.12167075542E+04  0.12441774064E+02  0.56587582911E+03  0.13419193433E+04  0.25500000920E-02 0. -1.
       -2    1    3    3    0  502 -0.12167075542E+04 -0.12441774064E+02 -0.19003586223E+02  0.12169195562E+04  0.25500000920E-02 0.  1.
</event>
<event>
 5   0  0.3808293E-06  0.2500667E+04  0.7818609E-02  0.8402748E-01
       -2   -1    0    0    0  501  0.00000000000E+00  0.00000000000E+00  0.10793385161E+04  0.10793385161E+04  0.25500000920E-02 0.  1.
        2   -1    0    0  501    0  0.00000000000E+00  0.00000000000E+00 -0.14484186346E+04  0.14484186346E+04  0.25500000920E-02 0. -1.
    10030    2    1    2    0    0  0.00000000000E+00  0.00000000000E+00 -0.36908011850E+03  0.25277571507E+04  0.25006671268E+04 0.  0.
        1    1    3    3  502    0 -0.97073979876E+03  0.67128338072E+03  0.23269884891E+03  0.12029571432E+04  0.50400001928E-02 0. -1.
       -1    1    3    3    0  502  0.97073979876E+03 -0.67128338072E+03 -0.60177896741E+03  0.13248000075E+04  0.50400001928E-02 0.  1.
</event>
<event>
 5   0  0.1501747E-06  0.2497077E+04  0.7818609E-02  0.8404028E-01
        1   -1    0    0  501    0  0.00000000000E+00  0.00000000000E+00  0.17215315188E+04  0.17215315188E+04  0.50400001928E-02 0.  1.
       -1   -1    0    0    0  501  0.00000000000E+00  0.00000000000E+00 -0.90550109927E+03  0.90550109928E+03  0.50400001928E-02 0. -1.
    10030    2    1    2    0    0  0.00000000000E+00  0.00000000000E+00  0.81603041951E+03  0.26270326181E+04  0.24970772377E+04 0.  0.
        2    1    3    3  502    0  0.16387096599E+03  0.11988853428E+04  0.73171111806E+03  0.14140653871E+04  0.25500000920E-02 0.  1.
       -2    1    3    3    0  502 -0.16387096599E+03 -0.11988853428E+04  0.84319301446E+02  0.12129672309E+04  0.25500000920E-02 0. -1.
</event>
<event>
 5   0  0.3971759E-06  0.2502623E+04  0.7818609E-02  0.8402052E-01
        2   -1    0    0  501    0  0.00000000000E+00  0.00000000000E+00  0.15481754303E+04  0.15481754303E+04  0.25500000920E-02 0.  1.
       -2   -1    0    0    0  501  0.00000000000E+00  0.00000000000E+00 -0.10113716616E+04  0.10113716616E+04  0.25500000920E-02 0. -1.
    10030    2    1    2    0    0  0.00000000000E+00  0.00000000000E+00  0.53680376878E+03  0.25595470919E+04  0.25026232296E+04 0.  0.
        4    1    3    3  502    0  0.23654880657E+03  0.11346516098E+04  0.75071028051E+03  0.13809261935E+04  0.12699999809E+01 0.  1.
       -4    1    3    3    0  502 -0.23654880657E+03 -0.11346516098E+04 -0.21390651174E+03  0.11786208985E+04  0.12699999809E+01 0. -1.
</event>
<event>
 5   0  0.1553604E-06  0.2505824E+04  0.7818609E-02  0.8400914E-01
       -1   -1    0    0    0  501  0.00000000000E+00  0.00000000000E+00  0.11704483558E+04  0.11704483558E+04  0.50400001928E-02 0. -1.
        1   -1    0    0  501    0  0.00000000000E+00  0.00000000000E+00 -0.13411856954E+04  0.13411856954E+04  0.50400001928E-02 0.  1.
    10030    2    1    2    0    0  0.00000000000E+00  0.00000000000E+00 -0.17073733960E+03  0.25116340512E+04  0.25058240896E+04 0.  0.
        1    1    3    3  502    0  0.61107576061E+03 -0.58882700368E+03 -0.10092746924E+04  0.13186228537E+04  0.50400001928E-02 0.  1.
       -1    1    3    3    0  502 -0.61107576061E+03  0.58882700368E+03  0.83853735281E+03  0.11930111976E+04  0.50400001928E-02 0. -1.
</event>
<event>
 5   0  0.1519145E-06  0.2502046E+04  0.7818609E-02  0.8402257E-01
        1   -1    0    0  501    0  0.00000000000E+00  0.00000000000E+00  0.13574077771E+04  0.13574077771E+04  0.50400001928E-02 0. -1.
       -1   -1    0    0    0  501  0.00000000000E+00  0.00000000000E+00 -0.11529757094E+04  0.11529757094E+04  0.50400001928E-02 0.  1.
    10030    2    1    2    0    0  0.00000000000E+00  0.00000000000E+00  0.20443206772E+03  0.25103834865E+04  0.25020457188E+04 0.  0.
        4    1    3    3  502    0  0.10451508692E+04  0.24469312896E+02 -0.58718173809E+03  0.11990509135E+04  0.12699999809E+01 0.  1.
       -4    1    3    3    0  502 -0.10451508692E+04 -0.24469312896E+02  0.79161380581E+03  0.13113325730E+04  0.12699999809E+01 0. -1.
</event>
<event>
 5   0  0.3713394E-06  0.2498099E+04  0.7818609E-02  0.8403663E-01
       -2   -1    0    0    0  501  0.00000000000E+00  0.00000000000E+00  0.13291023993E+04  0.13291023993E+04  0.25500000920E-02 0.  1.
        2   -1    0    0  501    0  0.00000000000E+00  0.00000000000E+00 -0.11738185601E+04  0.11738185601E+04  0.25500000920E-02 0. -1.
    10030    2    1    2    0    0  0.00000000000E+00  0.00000000000E+00  0.15528383929E+03  0.25029209594E+04  0.24980993291E+04 0.  0.
        3    1    3    3  502    0  0.57472197045E+03 -0.10595559442E+04  0.40562816633E+03  0.12718090902E+04  0.10100000352E+00 0.  1.
       -3    1    3    3    0  502 -0.57472197045E+03  0.10595559442E+04 -0.25034432704E+03  0.12311118692E+04  0.10100000352E+00 0. -1.
</event>
<event>
 5   0  0.1541852E-06  0.2498254E+04  0.7818609E-02  0.8403608E-01
        1   -1    0    0  501    0  0.00000000000E+00  0.00000000000E+00  0.22483676901E+04  0.22483676901E+04  0.50400001928E-02 0.  1.
       -1   -1    0    0    0  501  0.00000000000E+00  0.00000000000E+00 -0.69397824598E+03  0.69397824599E+03  0.50400001928E-02 0. -1.
    10030    2    1    2    0    0  0.00000000000E+00  0.00000000000E+00  0.15543894441E+04  0.29423459361E+04  0.24982540030E+04 0.  0.
        5    1    3    3  502    0 -0.66658497381E+03 -0.75990993343E+03 -0.87074410877E+02  0.10145948340E+04  0.46999998093E+01 0. -1.
       -5    1    3    3    0  502  0.66658497381E+03  0.75990993343E+03  0.16414638550E+04  0.19277511021E+04  0.46999998093E+01 0.  1.
</event>
<event>
 5   0  0.3713394E-06  0.2511170E+04  0.7818609E-02  0.8399017E-01
       -2   -1    0    0    0  501  0.00000000000E+00  0.00000000000E+00  0.86920013015E+03  0.86920013015E+03  0.25500000920E-02 0. -1.
        2   -1    0    0  501    0  0.00000000000E+00  0.00000000000E+00 -0.18137298634E+04  0.18137298634E+04  0.25500000920E-02 0.  1.
    10030    2    1    2    0    0  0.00000000000E+00  0.00000000000E+00 -0.94452973323E+03  0.26829299935E+04  0.25111704309E+04 0.  0.
        3    1    3    3  502    0 -0.11539603810E+04  0.45414589932E+03 -0.68222934789E+03  0.14153833234E+04  0.10100000352E+00 0.  1.
       -3    1    3    3    0  502  0.11539603810E+04 -0.45414589932E+03 -0.26230038534E+03  0.12675466702E+04  0.10100000352E+00 0. -1.
</event>
<event>
 5   0  0.1519145E-06  0.2524997E+04  0.7818609E-02  0.8394134E-01
        1   -1    0    0  501    0  0.00000000000E+00  0.00000000000E+00  0.13002193662E+04  0.13002193662E+04  0.50400001928E-02 0. -1.
       -1   -1    0    0    0  501  0.00000000000E+00  0.00000000000E+00 -0.12258723539E+04  0.12258723539E+04  0.50400001928E-02 0.  1.
    10030    2    1    2    0    0  0.00000000000E+00  0.00000000000E+00  0.74347012317E+02  0.25260917201E+04  0.25249974060E+04 0.  0.
        4    1    3    3  502    0  0.18775276198E+02 -0.12273808619E+04  0.33240319850E+03  0.12717349529E+04  0.12699999809E+01 0. -1.
       -4    1    3    3    0  502 -0.18775276198E+02  0.12273808619E+04 -0.25805618619E+03  0.12543567672E+04  0.12699999809E+01 0.  1.
</event>
<event>
 5   0  0.1541852E-06  0.2493529E+04  0.7818609E-02  0.8405294E-01
       -1   -1    0    0    0  501  0.00000000000E+00  0.00000000000E+00  0.11221867132E+04  0.11221867132E+04  0.50400001928E-02 0. -1.
        1   -1    0    0  501    0  0.00000000000E+00  0.00000000000E+00 -0.13851722453E+04  0.13851722453E+04  0.50400001928E-02 0.  1.
    10030    2    1    2    0    0  0.00000000000E+00  0.00000000000E+00 -0.26298553211E+03  0.25073589585E+04  0.24935291369E+04 0.  0.
        5    1    3    3  502    0  0.63319340183E+03 -0.88000225986E+03  0.48760203179E+03  0.11887454281E+04  0.46999998093E+01 0. -1.
       -5    1    3    3    0  502 -0.63319340183E+03  0.88000225986E+03 -0.75058756391E+03  0.13186135304E+04  0.46999998093E+01 0.  1.
</event>
<event>
 5   0  0.3814260E-06  0.2495451E+04  0.7818609E-02  0.8404608E-01
        2   -1    0    0  501    0  0.00000000000E+00  0.00000000000E+00  0.23999584324E+04  0.23999584324E+04  0.25500000920E-02 0. -1.
       -2   -1    0    0    0  501  0.00000000000E+00  0.00000000000E+00 -0.64868574522E+03  0.64868574523E+03  0.25500000920E-02 0.  1.
    10030    2    1    2    0    0  0.00000000000E+00  0.00000000000E+00  0.17512726872E+04  0.30486441776E+04  0.24954509205E+04 0.  0.
        5    1    3    3  502    0 -0.12083913798E+04 -0.15702478687E+03  0.54798389958E+03  0.13361043951E+04  0.46999998093E+01 0.  1.
       -5    1    3    3    0  502  0.12083913798E+04  0.15702478687E+03  0.12032887876E+04  0.17125397825E+04  0.46999998093E+01 0. -1.
</event>
<event>
 5   0  0.1553604E-06  0.2500211E+04  0.7818609E-02  0.8402910E-01
        1   -1    0    0  501    0  0.00000000000E+00  0.00000000000E+00  0.14768117181E+04  0.14768117181E+04  0.50400001928E-02 0.  1.
       -1   -1    0    0    0  501  0.00000000000E+00  0.00000000000E+00 -0.10582010548E+04  0.10582010548E+04  0.50400001928E-02 0. -1.
    10030    2    1    2    0    0  0.00000000000E+00  0.00000000000E+00  0.41861066335E+03  0.25350127729E+04  0.25002109653E+04 0.  0.
        1    1    3    3  502    0  0.47533883134E+03 -0.86820852372E+03 -0.56488759279E+03  0.11396626860E+04  0.50400001928E-02 0. -1.
       -1    1    3    3    0  502 -0.47533883134E+03  0.86820852372E+03  0.98349825614E+03  0.13953500869E+04  0.50400001928E-02 0.  1.
</event>
<event>
 5   0  0.3814260E-06  0.2499025E+04  0.7818609E-02  0.8403333E-01
        2   -1    0    0  501    0  0.00000000000E+00  0.00000000000E+00  0.15761511831E+04  0.15761511831E+04  0.25500000920E-02 0. -1.
       -2   -1    0    0    0  501  0.00000000000E+00  0.00000000000E+00 -0.99056586496E+03  0.99056586496E+03  0.25500000920E-02 0.  1.
    10030    2    1    2    0    0  0.00000000000E+00  0.00000000000E+00  0.58558531818E+03  0.25667170481E+04  0.24990250579E+04 0.  0.
        5    1    3    3  502    0  0.10006920732E+03  0.33726548874E+03  0.15242261210E+04  0.15643047063E+04  0.46999998093E+01 0. -1.
       -5    1    3    3    0  502 -0.10006920732E+03 -0.33726548874E+03 -0.93864080287E+03  0.10024123418E+04  0.46999998093E+01 0.  1.
</event>
<event>
 5   0  0.1501747E-06  0.2498918E+04  0.7818609E-02  0.8403371E-01
       -1   -1    0    0    0  501  0.00000000000E+00  0.00000000000E+00  0.76158287240E+03  0.76158287241E+03  0.50400001928E-02 0.  1.
        1   -1    0    0  501    0  0.00000000000E+00  0.00000000000E+00 -0.20498730990E+04  0.20498730990E+04  0.50400001928E-02 0. -1.
    10030    2    1    2    0    0  0.00000000000E+00  0.00000000000E+00 -0.12882902266E+04  0.28114559715E+04  0.24989183603E+04 0.  0.
        2    1    3    3  502    0  0.65339682109E+03 -0.96995118152E+03 -0.11389396593E+04  0.16324571197E+04  0.25500000920E-02 0. -1.
       -2    1    3    3    0  502 -0.65339682109E+03  0.96995118152E+03 -0.14935056736E+03  0.11789988517E+04  0.25500000920E-02 0.  1.
</event>
<event>
 5   0  0.1574896E-06  0.2554224E+04  0.7818609E-02  0.8383919E-01
        1   -1    0    0  501    0  0.00000000000E+00  0.00000000000E+00  0.12525063991E+04  0.12525063991E+04  0.50400001928E-02 0. -1.
       -1   -1    0    0    0  501  0.00000000000E+00  0.00000000000E+00 -0.13022004969E+04  0.13022004969E+04  0.50400001928E-02 0.  1.
    10030    2    1    2    0    0  0.00000000000E+00  0.00000000000E+00 -0.49694097736E+02  0.25547068960E+04  0.25542235261E+04 0.  0.
        3    1    3    3  502    0  0.10649357357E+04  0.80612810362E+02  0.67559105450E+03  0.12637285427E+04  0.10100000352E+00 0. -1.
       -3    1    3    3    0  502 -0.10649357357E+04 -0.80612810362E+02 -0.72528515224E+03  0.12909783533E+04  0.10100000352E+00 0.  1.
</event>
<event>
 5   0  0.1541852E-06  0.2502684E+04  0.7818609E-02  0.8402030E-01
        1   -1    0    0  501    0  0.00000000000E+00  0.00000000000E+00  0.13319092104E+04  0.13319092104E+04  0.50400001928E-02 0.  1.
       -1   -1    0    0    0  501  0.00000000000E+00  0.00000000000E+00 -0.11756483910E+04  0.11756483911E+04  0.50400001928E-02 0. -1.
    10030    2    1    2    0    0  0.00000000000E+00  0.00000000000E+00  0.15626081933E+03  0.25075576014E+04  0.25026840953E+04 0.  0.
        5    1    3    3  502    0  0.38518152113E+03  0.10005115043E+04 -0.56845310255E+03  0.12134863387E+04  0.46999998093E+01 0. -1.
       -5    1    3    3    0  502 -0.38518152113E+03 -0.10005115043E+04  0.72471392188E+03  0.12940712627E+04  0.46999998093E+01 0.  1.
</event>
<event>
 5   0  0.3924441E-06  0.2499424E+04  0.7818609E-02  0.8403191E-01
       -2   -1    0    0    0  501  0.00000000000E+00  0.00000000000E+00  0.75200636943E+03  0.75200636943E+03  0.25500000920E-02 0.  1.
        2   -1    0    0  501    0  0.00000000000E+00  0.00000000000E+00 -0.20768176768E+04  0.20768176768E+04  0.25500000920E-02 0. -1.
    10030    2    1    2    0    0  0.00000000000E+00  0.00000000000E+00 -0.13248113073E+04  0.28288240462E+04  0.24994240305E+04 0.  0.
        2    1    3    3  502    0  0.75905159273E+03  0.97699954824E+03 -0.46283572769E+03  0.13209482762E+04  0.25500000920E-02 0.  1.
       -2    1    3    3    0  502 -0.75905159273E+03 -0.97699954824E+03 -0.86197557964E+03  0.15078757699E+04  0.25500000920E-02 0. -1.
</event>
<event>
 5   0  0.3808293E-06  0.2500664E+04  0.7818609E-02  0.8402749E-01
        2   -1    0    0  501    0  0.00000000000E+00  0.00000000000E+00  0.10876976134E+04  0.10876976134E+04  0.25500000920E-02 0. -1.
       -2   -1    0    0    0  501  0.00000000000E+00  0.00000000000E+00 -0.14372839345E+04  0.14372839345E+04  0.25500000920E-02 0.  1.
    10030    2    1    2    0    0  0.00000000000E+00  0.00000000000E+00 -0.34958632114E+03  0.25249815479E+04  0.25006641560E+04 0.  0.
        1    1    3    3  502    0  0.78220398927E+03  0.21500405232E+03 -0.11354972088E+04  0.13955012485E+04  0.50400001928E-02 0.  1.
       -1    1    3    3    0  502 -0.78220398927E+03 -0.21500405232E+03  0.78591088766E+03  0.11294802994E+04  0.50400001928E-02 0. -1.
</event>
<event>
 5   0  0.1553604E-06  0.2500479E+04  0.7818609E-02  0.8402815E-01
        1   -1    0    0  501    0  0.00000000000E+00  0.00000000000E+00  0.13468514255E+04  0.13468514255E+04  0.50400001928E-02 0. -1.
       -1   -1    0    0    0  501  0.00000000000E+00  0.00000000000E+00 -0.11605575913E+04  0.11605575913E+04  0.50400001928E-02 0.  1.
    10030    2    1    2    0    0  0.00000000000E+00  0.00000000000E+00  0.18629383413E+03  0.25074090168E+04  0.25004788711E+04 0.  0.
        1    1    3    3  502    0  0.80117206259E+03  0.61313829674E+03 -0.64733274211E+03  0.11986888353E+04  0.50400001928E-02 0.  1.
       -1    1    3    3    0  502 -0.80117206259E+03 -0.61313829674E+03  0.83362657625E+03  0.13087201815E+04  0.50400001928E-02 0. -1.
</event>
<event>
 5   0  0.1574896E-06  0.2540245E+04  0.7818609E-02  0.8388787E-01
        1   -1    0    0  501    0  0.00000000000E+00  0.00000000000E+00  0.99299168344E+03  0.99299168345E+03  0.50400001928E-02 0. -1.
       -1   -1    0    0    0  501  0.00000000000E+00  0.00000000000E+00 -0.16245974463E+04  0.16245974463E+04  0.50400001928E-02 0.  1.
    10030    2    1    2    0    0  0.00000000000E+00  0.00000000000E+00 -0.63160576282E+03  0.26175891297E+04  0.25402454630E+04 0.  0.
        3    1    3    3  502    0  0.86221914006E+03  0.84425936073E+03  0.92514426389E+02  0.12102704834E+04  0.10100000352E+00 0. -1.
       -3    1    3    3    0  502 -0.86221914006E+03 -0.84425936073E+03 -0.72412018921E+03  0.14073186463E+04  0.10100000352E+00 0.  1.
</event>
<event>
 5   0  0.1574896E-06  0.2498407E+04  0.7818609E-02  0.8403553E-01
       -1   -1    0    0    0  501  0.00000000000E+00  0.00000000000E+00  0.12725787585E+04  0.12725787585E+04  0.50400001928E-02 0.  1.
        1   -1    0    0  501    0  0.00000000000E+00  0.00000000000E+00 -0.12262578318E+04  0.12262578318E+04  0.50400001928E-02 0. -1.
    10030    2    1    2    0    0  0.00000000000E+00  0.00000000000E+00  0.46320926710E+02  0.24988365903E+04  0.24984072280E+04 0.  0.
        3    1    3    3  502    0  0.42287086909E+03  0.62013203243E+03  0.10218941115E+04  0.12679318179E+04  0.10100000352E+00 0.  1.
       -3    1    3    3    0  502 -0.42287086909E+03 -0.62013203243E+03 -0.97557318480E+03  0.12309047724E+04  0.10100000352E+00 0. -1.
</event>
<event>
 5   0  0.1519145E-06  0.2504622E+04  0.7818609E-02  0.8401341E-01
        1   -1    0    0  501    0  0.00000000000E+00  0.00000000000E+00  0.19560580424E+04  0.19560580424E+04  0.50400001928E-02 0. -1.
       -1   -1    0    0    0  501  0.00000000000E+00  0.00000000000E+00 -0.80175651893E+03  0.80175651895E+03  0.50400001928E-02 0.  1.
    10030    2    1    2    0    0  0.00000000000E+00  0.00000000000E+00  0.11543015234E+04  0.27578145613E+04  0.25046215578E+04 0.  0.
        4    1    3    3  502    0 -0.38845001630E+03  0.65255909644E+03 -0.51927973354E+03  0.91998904563E+03  0.12699999809E+01 0.  1.
       -4    1    3    3    0  502  0.38845001630E+03 -0.65255909644E+03  0.16735812570E+04  0.18378255157E+04  0.12699999809E+01 0. -1.
</event>
<event>
 5   0  0.3808293E-06  0.2503752E+04  0.7818609E-02  0.8401650E-01
       -2   -1    0    0    0  501  0.00000000000E+00  0.00000000000E+00  0.89135183187E+03  0.89135183187E+03  0.25500000920E-02 0. -1.
        2   -1    0    0  501    0  0.00000000000E+00  0.00000000000E+00 -0.17582211060E+04  0.17582211060E+04  0.25500000920E-02 0.  1.
    10030    2    1    2    0    0  0.00000000000E+00  0.00000000000E+00 -0.86686927411E+03  0.26495729379E+04  0.25037520673E+04 0.  0.
        1    1    3    3  502    0 -0.92806255319E+03  0.63067499110E+03 -0.10208704223E+04  0.15169797184E+04  0.50400001928E-02 0.  1.
       -1    1    3    3    0  502  0.92806255319E+03 -0.63067499110E+03  0.15400114817E+03  0.11325932194E+04  0.50400001928E-02 0. -1.
</event>
<event>
 5   0  0.3713394E-06  0.2506913E+04  0.7818609E-02  0.8400527E-01
        2   -1    0    0  501    0  0.00000000000E+00  0.00000000000E+00  0.18776540773E+04  0.18776540773E+04  0.25500000920E-02 0. -1.
       -2   -1    0    0    0  501  0.00000000000E+00  0.00000000000E+00 -0.83676387023E+03  0.83676387023E+03  0.25500000920E-02 0.  1.
    10030    2    1    2    0    0  0.00000000000E+00  0.00000000000E+00  0.10408902071E+04  0.27144179476E+04  0.25069129165E+04 0.  0.
        3    1    3    3  502    0  0.70042786893E+03 -0.10039679054E+04  0.81219636536E+03  0.14690860086E+04  0.10100000352E+00 0. -1.
       -3    1    3    3    0  502 -0.70042786893E+03  0.10039679054E+04  0.22869384174E+03  0.12453319389E+04  0.10100000352E+00 0.  1.
</event>
<event>
 5   0  0.1574896E-06  0.2495759E+04  0.7818609E-02  0.8404498E-01
        1   -1    0    0  501    0  0.00000000000E+00  0.00000000000E+00  0.29052153428E+04  0.29052153428E+04  0.50400001928E-02 0.  1.
       -1   -1    0    0    0  501  0.00000000000E+00  0.00000000000E+00 -0.53600281514E+03  0.53600281516E+03  0.50400001928E-02 0. -1.
    10030    2    1    2    0    0  0.00000000000E+00  0.00000000000E+00  0.23692125277E+04  0.34412181580E+04  0.24957592852E+04 0.  0.
        3    1    3    3  502    0 -0.93223494958E+03 -0.65289924476E+03  0.47902417509E+03  0.12348293791E+04  0.10100000352E+00 0. -1.
       -3    1    3    3    0  502  0.93223494958E+03  0.65289924476E+03  0.18901883526E+04  0.22063887788E+04  0.10100000352E+00 0.  1.
</event>
<event>
 5   0  0.3971759E-06  0.2498315E+04  0.7818609E-02  0.8403586E-01
        2   -1    0    0  501    0  0.00000000000E+00  0.00000000000E+00  0.16756966316E+04  0.16756966316E+04  0.25500000920E-02 0. -1.
       -2   -1    0    0    0  501  0.00000000000E+00  0.00000000000E+00 -0.93119126146E+03  0.93119126147E+03  0.25500000920E-02 0.  1.
    10030    2    1    2    0    0  0.00000000000E+00  0.00000000000E+00  0.74450537015E+03  0.26068878931E+04  0.24983146801E+04 0.  0.
        4    1    3    3  502    0 -0.12444396041E+03 -0.43140381129E+02  0.16684303059E+04  0.16736214298E+04  0.12699999809E+01 0. -1.
       -4    1    3    3    0  502  0.12444396041E+03  0.43140381129E+02 -0.92392493573E+03  0.93326646330E+03  0.12699999809E+01 0.  1.
</event>
<event>
 5   0  0.1574896E-06  0.2498518E+04  0.7818609E-02  0.8403514E-01
        1   -1    0    0  501    0  0.00000000000E+00  0.00000000000E+00  0.12447377457E+04  0.12447377457E+04  0.50400001928E-02 0. -1.
       -1   -1    0    0    0  501  0.00000000000E+00  0.00000000000E+00 -0.12537967908E+04  0.12537967908E+04  0.50400001928E-02 0.  1.
    10030    2    1    2    0    0  0.00000000000E+00  0.00000000000E+00 -0.90590451123E+01  0.24985345365E+04  0.24985181135E+04 0.  0.
        3    1    3    3  502    0  0.64186251440E+03 -0.72707633870E+03  0.78288957930E+03  0.12464122886E+04  0.10100000352E+00 0. -1.
       -3    1    3    3    0  502 -0.64186251440E+03  0.72707633870E+03 -0.79194862441E+03  0.12521222479E+04  0.10100000352E+00 0.  1.
</event>
<event>
 5   0  0.1574896E-06  0.2496265E+04  0.7818609E-02  0.8404317E-01
        1   -1    0    0  501    0  0.00000000000E+00  0.00000000000E+00  0.19569025945E+04  0.19569025945E+04  0.50400001928E-02 0. -1.
       -1   -1    0    0    0  501  0.00000000000E+00  0.00000000000E+00 -0.79607173806E+03  0.79607173808E+03  0.50400001928E-02 0.  1.
    10030    2    1    2    0    0  0.00000000000E+00  0.00000000000E+00  0.11608308565E+04  0.27529743326E+04  0.24962650898E+04 0.  0.
        3    1    3    3  502    0  0.59440112149E+03 -0.10632279364E+04  0.88055844140E+03  0.15030467448E+04  0.10100000352E+00 0. -1.
       -3    1    3    3    0  502 -0.59440112149E+03  0.10632279364E+04  0.28027241507E+03  0.12499275879E+04  0.10100000352E+00 0.  1.
</event>
<event>
 5   0  0.3814260E-06  0.2499907E+04  0.7818609E-02  0.8403019E-01
       -2   -1    0    0    0  501  0.00000000000E+00  0.00000000000E+00  0.81453830086E+03  0.81453830086E+03  0.25500000920E-02 0.  1.
        2   -1    0    0  501    0  0.00000000000E+00  0.00000000000E+00 -0.19181216752E+04  0.19181216752E+04  0.25500000920E-02 0. -1.
    10030    2    1    2    0    0  0.00000000000E+00  0.00000000000E+00 -0.11035833743E+04  0.27326599760E+04  0.24999068544E+04 0.  0.
        5    1    3    3  502    0 -0.47604272040E+03 -0.96421801170E+03 -0.12483219540E+04  0.16476233904E+04  0.46999998093E+01 0. -1.
       -5    1    3    3    0  502  0.47604272040E+03  0.96421801170E+03  0.14473857969E+03  0.10850365856E+04  0.46999998093E+01 0.  1.
</event>
<event>
 5   0  0.1519145E-06  0.2506383E+04  0.7818609E-02  0.8400715E-01
        1   -1    0    0  501    0  0.00000000000E+00  0.00000000000E+00  0.25809428851E+04  0.25809428851E+04  0.50400001928E-02 0. -1.
       -1   -1    0    0    0  501  0.00000000000E+00  0.00000000000E+00 -0.60849426278E+03  0.60849426280E+03  0.50400001928E-02 0.  1.
    10030    2    1    2    0    0  0.00000000000E+00  0.00000000000E+00  0.19724486224E+04  0.31894371479E+04  0.25063830020E+04 0.  0.
        4    1    3    3  502    0 -0.58777800653E+03  0.23541325497E+02 -0.42188757799E+03  0.72389772781E+03  0.12699999809E+01 0.  1.
       -4    1    3    3    0  502  0.58777800653E+03 -0.23541325497E+02  0.23943362004E+04  0.24655394201E+04  0.12699999809E+01 0. -1.
</event>
<event>
 5   0  0.1574896E-06  0.2495721E+04  0.7818609E-02  0.8404512E-01
        1   -1    0    0  501    0  0.00000000000E+00  0.00000000000E+00  0.11814358882E+04  0.11814358882E+04  0.50400001928E-02 0. -1.
       -1   -1    0    0    0  501  0.00000000000E+00  0.00000000000E+00 -0.13180198210E+04  0.13180198210E+04  0.50400001928E-02 0.  1.
    10030    2    1    2    0    0  0.00000000000E+00  0.00000000000E+00 -0.13658393276E+03  0.24994557092E+04  0.24957210725E+04 0.  0.
        3    1    3    3  502    0 -0.33624811488E+03 -0.51270197403E+03 -0.11567622995E+04  0.13092078279E+04  0.10100000352E+00 0.  1.
       -3    1    3    3    0  502  0.33624811488E+03  0.51270197403E+03  0.10201783667E+04  0.11902478814E+04  0.10100000352E+00 0. -1.
</event>
<event>
 5   0  0.3924441E-06  0.2499279E+04  0.7818609E-02  0.8403243E-01
       -2   -1    0    0    0  501  0.00000000000E+00  0.00000000000E+00  0.53708748725E+03  0.53708748726E+03  0.25500000920E-02 0. -1.
        2   -1    0    0  501    0  0.00000000000E+00  0.00000000000E+00 -0.29075312202E+04  0.29075312202E+04  0.25500000920E-02 0.  1.
    10030    2    1    2    0    0  0.00000000000E+00  0.00000000000E+00 -0.23704437330E+04  0.34446187075E+04  0.24992788057E+04 0.  0.
        2    1    3    3  502    0 -0.87973439985E+02  0.10079388920E+04 -0.21960671529E+04  0.24179311563E+04  0.25500000920E-02 0.  1.
       -2    1    3    3    0  502  0.87973439985E+02 -0.10079388920E+04 -0.17437658003E+03  0.10266875512E+04  0.25500000920E-02 0. -1.
</event>
<event>
 5   0  0.1519145E-06  0.2503087E+04  0.7818609E-02  0.8401886E-01
        1   -1    0    0  501    0  0.00000000000E+00  0.00000000000E+00  0.56608624825E+03  0.56608624828E+03  0.50400001928E-02 0.  1.
       -1   -1    0    0    0  501  0.00000000000E+00  0.00000000000E+00 -0.27670017264E+04  0.27670017264E+04  0.50400001928E-02 0. -1.
    10030    2    1    2    0    0  0.00000000000E+00  0.00000000000E+00 -0.22009154781E+04  0.33330879747E+04  0.25030873946E+04 0.  0.
        4    1    3    3  502    0  0.91560806330E+03 -0.23675650407E+03 -0.21920115214E+04  0.23873223265E+04  0.12699999809E+01 0. -1.
       -4    1    3    3    0  502 -0.91560806330E+03  0.23675650407E+03 -0.89039566835E+01  0.94576564811E+03  0.12699999809E+01 0.  1.
</event>
<event>
 5   0  0.3808293E-06  0.2500587E+04  0.7818609E-02  0.8402777E-01
        2   -1    0    0  501    0  0.00000000000E+00  0.00000000000E+00  0.17796593096E+04  0.17796593096E+04  0.25500000920E-02 0.  1.
       -2   -1    0    0    0  501  0.00000000000E+00  0.00000000000E+00 -0.87838919542E+03  0.87838919542E+03  0.25500000920E-02 0. -1.
    10030    2    1    2    0    0  0.00000000000E+00  0.00000000000E+00  0.90127011421E+03  0.26580485050E+04  0.25005867384E+04 0.  0.
        1    1    3    3  502    0 -0.41207066252E+03 -0.11439785413E+03 -0.79822768273E+03  0.90556972864E+03  0.50400001928E-02 0. -1.
       -1    1    3    3    0  502  0.41207066252E+03  0.11439785413E+03  0.16994977969E+04  0.17524787764E+04  0.50400001928E-02 0.  1.
</event>
<event>
 5   0  0.1501747E-06  0.2500308E+04  0.7818609E-02  0.8402876E-01
       -1   -1    0    0    0  501  0.00000000000E+00  0.00000000000E+00  0.98119988596E+03  0.98119988597E+03  0.50400001928E-02 0. -1.
        1   -1    0    0  501    0  0.00000000000E+00  0.00000000000E+00 -0.15928310049E+04  0.15928310049E+04  0.50400001928E-02 0.  1.
    10030    2    1    2    0    0  0.00000000000E+00  0.00000000000E+00 -0.61163111892E+03  0.25740308909E+04  0.25003084613E+04 0.  0.
        2    1    3    3  502    0 -0.76505153850E+03 -0.76728658439E+03  0.33615175095E+03  0.11344736924E+04  0.25500000920E-02 0. -1.
       -2    1    3    3    0  502  0.76505153850E+03  0.76728658439E+03 -0.94778286987E+03  0.14395571984E+04  0.25500000920E-02 0.  1.
</event>
<event>
 5   0  0.1519145E-06  0.2468199E+04  0.7818609E-02  0.8414403E-01
       -1   -1    0    0    0  501  0.00000000000E+00  0.00000000000E+00  0.94119154451E+03  0.94119154453E+03  0.50400001928E-02 0. -1.
        1   -1    0    0  501    0  0.00000000000E+00  0.00000000000E+00 -0.16181633723E+04  0.16181633723E+04  0.50400001928E-02 0.  1.
    10030    2    1    2    0    0  0.00000000000E+00  0.00000000000E+00 -0.67697182781E+03  0.25593549169E+04  0.24681990874E+04 0.  0.
        4    1    3    3  502    0 -0.10853874451E+04 -0.34156505619E+02 -0.94645673298E+03  0.14404910736E+04  0.12699999809E+01 0. -1.
       -4    1    3    3    0  502  0.10853874451E+04  0.34156505619E+02  0.26948490518E+03  0.11188638433E+04  0.12699999809E+01 0.  1.
</event>
<event>
 5   0  0.3713394E-06  0.2502058E+04  0.7818609E-02  0.8402253E-01
        2   -1    0    0  501    0  0.00000000000E+00  0.00000000000E+00  0.12922825227E+04  0.12922825227E+04  0.25500000920E-02 0.  1.
       -2   -1    0    0    0  501  0.00000000000E+00  0.00000000000E+00 -0.12110920758E+04  0.12110920758E+04  0.25500000920E-02 0. -1.
    10030    2    1    2    0    0  0.00000000000E+00  0.00000000000E+00  0.81190446918E+02  0.25033745985E+04  0.25020576515E+04 0.  0.
        3    1    3    3  502    0  0.88020740317E+03 -0.64483270437E+03 -0.57168997056E+03  0.12318294208E+04  0.10100000352E+00 0. -1.
       -3    1    3    3    0  502 -0.88020740317E+03  0.64483270437E+03  0.65288041748E+03  0.12715451777E+04  0.10100000352E+00 0.  1.
</event>
<event>
 5   0  0.1574896E-06  0.2501991E+04  0.7818609E-02  0.8402276E-01
       -1   -1    0    0    0  501  0.00000000000E+00  0.00000000000E+00  0.22833243609E+04  0.22833243609E+04  0.50400001928E-02 0. -1.
        1   -1    0    0  501    0  0.00000000000E+00  0.00000000000E+00 -0.68539992690E+03  0.68539992692E+03  0.50400001928E-02 0.  1.
    10030    2    1    2    0    0  0.00000000000E+00  0.00000000000E+00  0.15979244340E+04  0.29687242878E+04  0.25019914869E+04 0.  0.
        3    1    3    3  502    0  0.64287029845E+03 -0.97962874706E+03  0.27899620890E+03  0.12044889362E+04  0.10100000352E+00 0.  1.
       -3    1    3    3    0  502 -0.64287029845E+03  0.97962874706E+03  0.13189282251E+04  0.17642353516E+04  0.10100000352E+00 0. -1.
</event>
<event>
 5   0  0.3924441E-06  0.2491454E+04  0.7818609E-02  0.8406036E-01
        2   -1    0    0  501    0  0.00000000000E+00  0.00000000000E+00  0.14586199529E+04  0.14586199529E+04  0.25500000920E-02 0. -1.
       -2   -1    0    0    0  501  0.00000000000E+00  0.00000000000E+00 -0.10639066692E+04  0.10639066692E+04  0.25500000920E-02 0.  1.
    10030    2    1    2    0    0  0.00000000000E+00  0.00000000000E+00  0.39471328377E+03  0.25225266221E+04  0.24914537890E+04 0.  0.
        2    1    3    3  502    0 -0.95827541009E+03 -0.33375603882E+02 -0.60781614065E+03  0.11352736029E+04  0.25500000920E-02 0.  1.
       -2    1    3    3    0  502  0.95827541009E+03  0.33375603882E+02  0.10025294244E+04  0.13872530192E+04  0.25500000920E-02 0. -1.
</event>
<event>
 5   0  0.3713394E-06  0.2499093E+04  0.7818609E-02  0.8403309E-01
        2   -1    0    0  501    0  0.00000000000E+00  0.00000000000E+00  0.12650997310E+04  0.12650997310E+04  0.25500000920E-02 0. -1.
       -2   -1    0    0    0  501  0.00000000000E+00  0.00000000000E+00 -0.12341842254E+04  0.12341842254E+04  0.25500000920E-02 0.  1.
    10030    2    1    2    0    0  0.00000000000E+00  0.00000000000E+00  0.30915505536E+02  0.24992839564E+04  0.24990927406E+04 0.  0.
        3    1    3    3  502    0  0.45862704370E+03 -0.53843501604E+03  0.10456409774E+04  0.12623850821E+04  0.10100000352E+00 0. -1.
       -3    1    3    3    0  502 -0.45862704370E+03  0.53843501604E+03 -0.10147254719E+04  0.12368988743E+04  0.10100000352E+00 0.  1.
</event>
<event>
 5   0  0.3924441E-06  0.2500339E+04  0.7818609E-02  0.8402865E-01
        2   -1    0    0  501    0  0.00000000000E+00  0.00000000000E+00  0.26152892401E+04  0.26152892401E+04  0.25500000920E-02 0. -1.
       -2   -1    0    0    0  501  0.00000000000E+00  0.00000000000E+00 -0.59761049851E+03  0.59761049851E+03  0.25500000920E-02 0.  1.
    10030    2    1    2    0    0  0.00000000000E+00  0.00000000000E+00  0.20176787416E+04  0.32128997386E+04  0.25003394222E+04 0.  0.
        2    1    3    3  502    0  0.24724160723E+03 -0.23663681179E+03 -0.53624483075E+03  0.63614771205E+03  0.25500000920E-02 0.  1.
       -2    1    3    3    0  502 -0.24724160723E+03  0.23663681179E+03  0.25539235723E+04  0.25767520266E+04  0.25500000920E-02 0. -1.
</event>
<event>
 5   0  0.3971759E-06  0.2497697E+04  0.7818609E-02  0.8403807E-01
       -2   -1    0    0    0  501  0.00000000000E+00  0.00000000000E+00  0.75631162878E+03  0.75631162878E+03  0.25500000920E-02 0.  1.
        2   -1    0    0  501    0  0.00000000000E+00  0.00000000000E+00 -0.20621419716E+04  0.20621419716E+04  0.25500000920E-02 0. -1.
    10030    2    1    2    0    0  0.00000000000E+00  0.00000000000E+00 -0.13058303428E+04  0.28184536004E+04  0.24976965014E+04 0.  0.
        4    1    3    3  502    0  0.66857455429E+03 -0.41994307069E+03  0.43896058020E+03  0.90334496242E+03  0.12699999809E+01 0.  1.
       -4    1    3    3    0  502 -0.66857455429E+03  0.41994307069E+03 -0.17447909230E+04  0.19151086380E+04  0.12699999809E+01 0. -1.
</event>
<event>
 5   0  0.1541852E-06  0.2509824E+04  0.7818609E-02  0.8399494E-01
        1   -1    0    0  501    0  0.00000000000E+00  0.00000000000E+00  0.10589622109E+04  0.10589622109E+04  0.50400001928E-02 0.  1.
       -1   -1    0    0    0  501  0.00000000000E+00  0.00000000000E+00 -0.14871203000E+04  0.14871203000E+04  0.50400001928E-02 0. -1.
    10030    2    1    2    0    0  0.00000000000E+00  0.00000000000E+00 -0.42815808909E+03  0.25460825108E+04  0.25098240581E+04 0.  0.
        5    1    3    3  502    0 -0.24384323018E+03 -0.12288002182E+04 -0.28843606829E+03  0.12855453911E+04  0.46999998093E+01 0.  1.
       -5    1    3    3    0  502  0.24384323018E+03  0.12288002182E+04 -0.13972202080E+03  0.12605371197E+04  0.46999998093E+01 0. -1.
</event>
<event>
 5   0  0.1553604E-06  0.2501723E+04  0.7818609E-02  0.8402372E-01
       -1   -1    0    0    0  501  0.00000000000E+00  0.00000000000E+00  0.70217077460E+03  0.70217077462E+03  0.50400001928E-02 0. -1.
        1   -1    0    0  501    0  0.00000000000E+00  0.00000000000E+00 -0.22283099418E+04  0.22283099418E+04  0.50400001928E-02 0.  1.
    10030    2    1    2    0    0  0.00000000000E+00  0.00000000000E+00 -0.15261391672E+04  0.29304807164E+04  0.25017227008E+04 0.  0.
        1    1    3    3  502    0  0.67087186867E+03 -0.55842207753E+03  0.28644822337E+03  0.91867124998E+03  0.50400001928E-02 0. -1.
       -1    1    3    3    0  502 -0.67087186867E+03  0.55842207753E+03 -0.18125873906E+04  0.20118094665E+04  0.50400001928E-02 0.  1.
</event>
<event>
 5   0  0.3924441E-06  0.2500255E+04  0.7818609E-02  0.8402895E-01
        2   -1    0    0  501    0  0.00000000000E+00  0.00000000000E+00  0.20363727706E+04  0.20363727706E+04  0.25500000920E-02 0. -1.
       -2   -1    0    0    0  501  0.00000000000E+00  0.00000000000E+00 -0.76745234639E+03  0.76745234640E+03  0.25500000920E-02 0.  1.
    10030    2    1    2    0    0  0.00000000000E+00  0.00000000000E+00  0.12689204242E+04  0.28038251170E+04  0.25002552357E+04 0.  0.
        2    1    3    3  502    0  0.11097226299E+04 -0.57173870377E+03  0.70926460051E+03  0.14357666016E+04  0.25500000920E-02 0.  1.
       -2    1    3    3    0  502 -0.11097226299E+04  0.57173870377E+03  0.55965582371E+03  0.13680585154E+04  0.25500000920E-02 0. -1.
</event>
<event>
 5   0  0.3924441E-06  0.2495604E+04  0.7818609E-02  0.8404553E-01
        2   -1    0    0  501    0  0.00000000000E+00  0.00000000000E+00  0.18919553028E+04  0.18919553028E+04  0.25500000920E-02 0. -1.
       -2   -1    0    0    0  501  0.00000000000E+00  0.00000000000E+00 -0.82296331402E+03  0.82296331403E+03  0.25500000920E-02 0.  1.
    10030    2    1    2    0    0  0.00000000000E+00  0.00000000000E+00  0.10689919888E+04  0.27149186168E+04  0.24956039798E+04 0.  0.
        2    1    3    3  502    0  0.22734820659E+03  0.27079530067E+03  0.18363177299E+04  0.18700481564E+04  0.25500000920E-02 0. -1.
       -2    1    3    3    0  502 -0.22734820659E+03 -0.27079530067E+03 -0.76732574115E+03  0.84487046045E+03  0.25500000920E-02 0.  1.
</event>
<event>
 5   0  0.3713394E-06  0.2500618E+04  0.7818609E-02  0.8402765E-01
        2   -1    0    0  501    0  0.00000000000E+00  0.00000000000E+00  0.18792950252E+04  0.18792950252E+04  0.25500000920E-02 0. -1.
       -2   -1    0    0    0  501  0.00000000000E+00  0.00000000000E+00 -0.83184007670E+03  0.83184007670E+03  0.25500000920E-02 0.  1.
    10030    2    1    2    0    0  0.00000000000E+00  0.00000000000E+00  0.10474549485E+04  0.27111351019E+04  0.25006182579E+04 0.  0.
        3    1    3    3  502    0  0.11075414824E+04  0.54683396310E+03  0.73395162489E+03  0.14367882643E+04  0.10100000352E+00 0. -1.
       -3    1    3    3    0  502 -0.11075414824E+04 -0.54683396310E+03  0.31350332366E+03  0.12743468377E+04  0.10100000352E+00 0.  1.
</event>
<event>
 5   0  0.1501747E-06  0.2505409E+04  0.7818609E-02  0.8401061E-01
        1   -1    0    0  501    0  0.00000000000E+00  0.00000000000E+00  0.14234456808E+04  0.14234456809E+04  0.50400001928E-02 0. -1.
       -1   -1    0    0    0  501  0.00000000000E+00  0.00000000000E+00 -0.11024432148E+04  0.11024432148E+04  0.50400001928E-02 0.  1.
    10030    2    1    2    0    0  0.00000000000E+00  0.00000000000E+00  0.32100246605E+03  0.25258888957E+04  0.25054085755E+04 0.  0.
        2    1    3    3  502    0  0.12279159885E+04 -0.39305372764E+01  0.41046935651E+03  0.12947116345E+04  0.25500000920E-02 0.  1.
       -2    1    3    3    0  502 -0.12279159885E+04  0.39305372764E+01 -0.89466890460E+02  0.12311772612E+04  0.25500000920E-02 0. -1.
</event>
<event>
 5   0  0.1553604E-06  0.2511561E+04  0.7818609E-02  0.8398878E-01
       -1   -1    0    0    0  501  0.00000000000E+00  0.00000000000E+00  0.12650594640E+04  0.12650594640E+04  0.50400001928E-02 0. -1.
        1   -1    0    0  501    0  0.00000000000E+00  0.00000000000E+00 -0.12465699485E+04  0.12465699485E+04  0.50400001928E-02 0.  1.
    10030    2    1    2    0    0  0.00000000000E+00  0.00000000000E+00  0.18489515541E+02  0.25116294125E+04  0.25115613558E+04 0.  0.
        1    1    3    3  502    0 -0.11091937953E+04 -0.52545059245E+02 -0.57721230865E+03  0.12514974662E+04  0.50400001928E-02 0.  1.
       -1    1    3    3    0  502  0.11091937953E+04  0.52545059245E+02  0.59570182419E+03  0.12601319463E+04  0.50400001928E-02 0. -1.
</event>
<event>
 5   0  0.3924441E-06  0.2502415E+04  0.7818609E-02  0.8402126E-01
        2   -1    0    0  501    0  0.00000000000E+00  0.00000000000E+00  0.21622981941E+04  0.21622981941E+04  0.25500000920E-02 0.  1.
       -2   -1    0    0    0  501  0.00000000000E+00  0.00000000000E+00 -0.72400762302E+03  0.72400762302E+03  0.25500000920E-02 0. -1.
    10030    2    1    2    0    0  0.00000000000E+00  0.00000000000E+00  0.14382905711E+04  0.28863058171E+04  0.25024151341E+04 0.  0.
        2    1    3    3  502    0 -0.43454604613E+03  0.19832129382E+03  0.20529951605E+04  0.21078308117E+04  0.25500000920E-02 0.  1.
       -2    1    3    3    0  502  0.43454604613E+03 -0.19832129382E+03 -0.61470458942E+03  0.77847500541E+03  0.25500000920E-02 0. -1.
</event>
<event>
 5   0  0.3814260E-06  0.2497938E+04  0.7818609E-02  0.8403721E-01
       -2   -1    0    0    0  501  0.00000000000E+00  0.00000000000E+00  0.73753007989E+03  0.73753007989E+03  0.25500000920E-02 0. -1.
        2   -1    0    0  501    0  0.00000000000E+00  0.00000000000E+00 -0.21150635327E+04  0.21150635327E+04  0.25500000920E-02 0.  1.
    10030    2    1    2    0    0  0.00000000000E+00  0.00000000000E+00 -0.13775334529E+04  0.28525936126E+04  0.24979375303E+04 0.  0.
        5    1    3    3  502    0 -0.10172709541E+04 -0.69453077774E+03 -0.92471112127E+03  0.15402356778E+04  0.46999998093E+01 0. -1.
       -5    1    3    3    0  502  0.10172709541E+04  0.69453077774E+03 -0.45282233158E+03  0.13123579349E+04  0.46999998093E+01 0.  1.
</event>
<event>
 5   0  0.1501747E-06  0.2497821E+04  0.7818609E-02  0.8403762E-01
        1   -1    0    0  501    0  0.00000000000E+00  0.00000000000E+00  0.11364616946E+04  0.11364616946E+04  0.50400001928E-02 0. -1.
       -1   -1    0    0    0  501  0.00000000000E+00  0.00000000000E+00 -0.13724856461E+04  0.13724856461E+04  0.50400001928E-02 0.  1.
    10030    2    1    2    0    0  0.00000000000E+00  0.00000000000E+00 -0.23602395143E+03  0.25089473407E+04  0.24978209409E+04 0.  0.
        2    1    3    3  502    0 -0.11239662924E+04 -0.33527791623E+03 -0.54895202891E+03  0.12950134507E+04  0.25500000920E-02 0.  1.
       -2    1    3    3    0  502  0.11239662924E+04  0.33527791623E+03  0.31292807748E+03  0.12139338900E+04  0.25500000920E-02 0. -1.
</event>
<event>
 5   0  0.1541852E-06  0.2502436E+04  0.7818609E-02  0.8402118E-01
       -1   -1    0    0    0  501  0.00000000000E+00  0.00000000000E+00  0.16025376956E+04  0.16025376956E+04  0.50400001928E-02 0.  1.
        1   -1    0    0  501    0  0.00000000000E+00  0.00000000000E+00 -0.97691682028E+03  0.97691682029E+03  0.50400001928E-02 0. -1.
    10030    2    1    2    0    0  0.00000000000E+00  0.00000000000E+00  0.62562087532E+03  0.25794545159E+04  0.25024356375E+04 0.  0.
        5    1    3    3  502    0  0.46839574140E+03 -0.74000374017E+03  0.12339149283E+04  0.15131319329E+04  0.46999998093E+01 0.  1.
       -5    1    3    3    0  502 -0.46839574140E+03  0.74000374017E+03 -0.60829405302E+03  0.10663225830E+04  0.46999998093E+01 0. -1.
</event>
<event>
 5   0  0.3971759E-06  0.2500511E+04  0.7818609E-02  0.8402803E-01
       -2   -1    0    0    0  501  0.00000000000E+00  0.00000000000E+00  0.52273674217E+03  0.52273674217E+03  0.25500000920E-02 0.  1.
        2   -1    0    0  501    0  0.00000000000E+00  0.00000000000E+00 -0.29902991884E+04  0.29902991884E+04  0.25500000920E-02 0. -1.
    10030    2    1    2    0    0  0.00000000000E+00  0.00000000000E+00 -0.24675624462E+04  0.35130359306E+04  0.25005113524E+04 0.  0.
        4    1    3    3  502    0 -0.26069932540E+03  0.19463561417E+03  0.46222259392E+03  0.56524198340E+03  0.12699999809E+01 0.  1.
       -4    1    3    3    0  502  0.26069932540E+03 -0.19463561417E+03 -0.29297850402E+04  0.29477939472E+04  0.12699999809E+01 0. -1.
</event>
<event>
 5   0  0.1574896E-06  0.2499072E+04  0.7818609E-02  0.8403316E-01
       -1   -1    0    0    0  501  0.00000000000E+00  0.00000000000E+00  0.88830289266E+03  0.88830289267E+03  0.50400001928E-02 0.  1.
        1   -1    0    0  501    0  0.00000000000E+00  0.00000000000E+00 -0.17576659696E+04  0.17576659696E+04  0.50400001928E-02 0. -1.
    10030    2    1    2    0    0  0.00000000000E+00  0.00000000000E+00 -0.86936307691E+03  0.26459688622E+04  0.24990716397E+04 0.  0.
        3    1    3    3  502    0 -0.50088271133E+02  0.31100357889E+03 -0.17149342500E+04  0.17436259785E+04  0.10100000352E+00 0. -1.
       -3    1    3    3    0  502  0.50088271133E+02 -0.31100357889E+03  0.84557117305E+03  0.90234288376E+03  0.10100000352E+00 0.  1.
</event>
<event>
 5   0  0.1501747E-06  0.2501753E+04  0.7818609E-02  0.8402361E-01
       -1   -1    0    0    0  501  0.00000000000E+00  0.00000000000E+00  0.83816013313E+03  0.83816013315E+03  0.50400001928E-02 0.  1.
        1   -1    0    0  501    0  0.00000000000E+00  0.00000000000E+00 -0.18668171089E+04  0.18668171090E+04  0.50400001928E-02 0. -1.
    10030    2    1    2    0    0  0.00000000000E+00  0.00000000000E+00 -0.10286569758E+04  0.27049772421E+04  0.25017527269E+04 0.  0.
        2    1    3    3  502    0 -0.31526115360E+03  0.31144887017E+03  0.75043746004E+03  0.87151957817E+03  0.25500000920E-02 0.  1.
       -2    1    3    3    0  502  0.31526115360E+03 -0.31144887017E+03 -0.17790944359E+04  0.18334576639E+04  0.25500000920E-02 0. -1.
</event>
<event>
 5   0  0.3924441E-06  0.2497870E+04  0.7818609E-02  0.8403745E-01
        2   -1    0    0  501    0  0.00000000000E+00  0.00000000000E+00  0.85590031831E+03  0.85590031832E+03  0.25500000920E-02 0. -1.
       -2   -1    0    0    0  501  0.00000000000E+00  0.00000000000E+00 -0.18224542876E+04  0.18224542876E+04  0.25500000920E-02 0.  1.
    10030    2    1    2    0    0  0.00000000000E+00  0.00000000000E+00 -0.96655396931E+03  0.26783546059E+04  0.24978704569E+04 0.  0.
        2    1    3    3  502    0  0.98145759094E+03  0.52386975373E+02 -0.13095648117E+04  0.16373647712E+04  0.25500000920E-02 0.  1.
       -2    1    3    3    0  502 -0.98145759094E+03 -0.52386975373E+02  0.34301084239E+03  0.10409898347E+04  0.25500000920E-02 0. -1.
</event>
<event>
 5   0  0.3814260E-06  0.2496732E+04  0.7818609E-02  0.8404151E-01
       -2   -1    0    0    0  501  0.00000000000E+00  0.00000000000E+00  0.95293216083E+03  0.95293216083E+03  0.25500000920E-02 0. -1.
        2   -1    0    0  501    0  0.00000000000E+00  0.00000000000E+00 -0.16353920749E+04  0.16353920749E+04  0.25500000920E-02 0.  1.
    10030    2    1    2    0    0  0.00000000000E+00  0.00000000000E+00 -0.68245991406E+03  0.25883242357E+04  0.24967320271E+04 0.  0.
        5    1    3    3  502    0  0.62922541991E+03  0.24411543623E+03  0.74747602474E+03  0.10071044995E+04  0.46999998093E+01 0. -1.
       -5    1    3    3    0  502 -0.62922541991E+03 -0.24411543623E+03 -0.14299359388E+04  0.15812197363E+04  0.46999998093E+01 0.  1.
</event>
<event>
 5   0  0.1519145E-06  0.2498486E+04  0.7818609E-02  0.8403525E-01
        1   -1    0    0  501    0  0.00000000000E+00  0.00000000000E+00  0.23385298846E+04  0.23385298846E+04  0.50400001928E-02 0.  1.
       -1   -1    0    0    0  501  0.00000000000E+00  0.00000000000E+00 -0.66734573227E+03  0.66734573229E+03  0.50400001928E-02 0. -1.
    10030    2    1    2    0    0  0.00000000000E+00  0.00000000000E+00  0.16711841524E+04  0.30058756169E+04  0.24984858922E+04 0.  0.
        4    1    3    3  502    0 -0.10940963291E+04 -0.45492116875E+03  0.35949152045E+03  0.12382389968E+04  0.12699999809E+01 0. -1.
       -4    1    3    3    0  502  0.10940963291E+04  0.45492116875E+03  0.13116926319E+04  0.17676366201E+04  0.12699999809E+01 0.  1.
</event>
<event>
 5   0  0.3814260E-06  0.2502059E+04  0.7818609E-02  0.8402252E-01
       -2   -1    0    0    0  501  0.00000000000E+00  0.00000000000E+00  0.11129173058E+04  0.11129173058E+04  0.25500000920E-02 0.  1.
        2   -1    0    0  501    0  0.00000000000E+00  0.00000000000E+00 -0.14062812975E+04  0.14062812975E+04  0.25500000920E-02 0. -1.
    10030    2    1    2    0    0  0.00000000000E+00  0.00000000000E+00 -0.29336399162E+03  0.25191986033E+04  0.25020589864E+04 0.  0.
        5    1    3    3  502    0  0.10439017625E+04  0.72174821966E+01 -0.84080260005E+03  0.13404305592E+04  0.46999998093E+01 0. -1.
       -5    1    3    3    0  502 -0.10439017625E+04 -0.72174821966E+01  0.54743860843E+03  0.11787680441E+04  0.46999998093E+01 0.  1.
</event>
<event>
 5   0  0.1574896E-06  0.2496363E+04  0.7818609E-02  0.8404282E-01
        1   -1    0    0  501    0  0.00000000000E+00  0.00000000000E+00  0.17409163113E+04  0.17409163113E+04  0.50400001928E-02 0. -1.
       -1   -1    0    0    0  501  0.00000000000E+00  0.00000000000E+00 -0.89490625836E+03  0.89490625837E+03  0.50400001928E-02 0.  1.
    10030    2    1    2    0    0  0.00000000000E+00  0.00000000000E+00  0.84601005291E+03  0.26358225696E+04  0.24963628761E+04 0.  0.
        3    1    3    3  502    0  0.39281488758E+03  0.34735571758E+03 -0.77296787251E+03  0.93404436328E+03  0.10100000352E+00 0.  1.
       -3    1    3    3    0  502 -0.39281488758E+03 -0.34735571758E+03  0.16189779254E+04  0.17017782064E+04  0.10100000352E+00 0. -1.
</event>
<event>
 5   0  0.3924441E-06  0.2499765E+04  0.7818609E-02  0.8403069E-01
        2   -1    0    0  501    0  0.00000000000E+00  0.00000000000E+00  0.16353236137E+04  0.16353236137E+04  0.25500000920E-02 0. -1.
       -2   -1    0    0    0  501  0.00000000000E+00  0.00000000000E+00 -0.95528896163E+03  0.95528896164E+03  0.25500000920E-02 0.  1.
    10030    2    1    2    0    0  0.00000000000E+00  0.00000000000E+00  0.68003465203E+03  0.25906125753E+04  0.24997652665E+04 0.  0.
        2    1    3    3  502    0  0.60258334256E+03 -0.55010806906E+03  0.13212540429E+04  0.15528804906E+04  0.25500000920E-02 0. -1.
       -2    1    3    3    0  502 -0.60258334256E+03  0.55010806906E+03 -0.64121939083E+03  0.10377320847E+04  0.25500000920E-02 0.  1.
</event>
<event>
 5   0  0.3713394E-06  0.2502894E+04  0.7818609E-02  0.8401955E-01
        2   -1    0    0  501    0  0.00000000000E+00  0.00000000000E+00  0.17951442882E+04  0.17951442882E+04  0.25500000920E-02 0. -1.
       -2   -1    0    0    0  501  0.00000000000E+00  0.00000000000E+00 -0.87242008468E+03  0.87242008468E+03  0.25500000920E-02 0.  1.
    10030    2    1    2    0    0  0.00000000000E+00  0.00000000000E+00  0.92272420355E+03  0.26675643729E+04  0.25028942702E+04 0.  0.
        3    1    3    3  502    0  0.24664308024E+03  0.34207630952E+03 -0.79440619995E+03  0.89940548769E+03  0.10100000352E+00 0.  1.
       -3    1    3    3    0  502 -0.24664308024E+03 -0.34207630952E+03  0.17171304035E+04  0.17681588852E+04  0.10100000352E+00 0. -1.
</event>
<event>
 5   0  0.3808293E-06  0.2504140E+04  0.7818609E-02  0.8401512E-01
       -2   -1    0    0    0  501  0.00000000000E+00  0.00000000000E+00  0.58610859861E+03  0.58610859861E+03  0.25500000920E-02 0. -1.
        2   -1    0    0  501    0  0.00000000000E+00  0.00000000000E+00 -0.26747259559E+04  0.26747259559E+04  0.25500000920E-02 0.  1.
    10030    2    1    2    0    0  0.00000000000E+00  0.00000000000E+00 -0.20886173573E+04  0.32608345546E+04  0.25041404767E+04 0.  0.
        1    1    3    3  502    0  0.59738553599E+03 -0.34850691353E+02 -0.24764643174E+04  0.25477361646E+04  0.50400001928E-02 0.  1.
       -1    1    3    3    0  502 -0.59738553599E+03  0.34850691353E+02  0.38784696003E+03  0.71309838994E+03  0.50400001928E-02 0. -1.
</event>
<event>
 5   0  0.1553604E-06  0.2540015E+04  0.7818609E-02  0.8388867E-01
        1   -1    0    0  501    0  0.00000000000E+00  0.00000000000E+00  0.17537683473E+04  0.17537683473E+04  0.50400001928E-02 0.  1.
       -1   -1    0    0    0  501  0.00000000000E+00  0.00000000000E+00 -0.91968751470E+03  0.91968751471E+03  0.50400001928E-02 0. -1.
    10030    2    1    2    0    0  0.00000000000E+00  0.00000000000E+00  0.83408083261E+03  0.26734558620E+04  0.25400148446E+04 0.  0.
        1    1    3    3  502    0  0.17824842973E+02  0.96676131024E+03  0.12836893083E+04  0.16071102626E+04  0.50400001928E-02 0.  1.
       -1    1    3    3    0  502 -0.17824842973E+02 -0.96676131024E+03 -0.44960847565E+03  0.10663455994E+04  0.50400001928E-02 0. -1.
</event>
<event>
 5   0  0.3713394E-06  0.2500292E+04  0.7818609E-02  0.8402881E-01
       -2   -1    0    0    0  501  0.00000000000E+00  0.00000000000E+00  0.77537230766E+03  0.77537230767E+03  0.25500000920E-02 0. -1.
        2   -1    0    0  501    0  0.00000000000E+00  0.00000000000E+00 -0.20156321947E+04  0.20156321947E+04  0.25500000920E-02 0.  1.
    10030    2    1    2    0    0  0.00000000000E+00  0.00000000000E+00 -0.12402598871E+04  0.27910045024E+04  0.25002922919E+04 0.  0.
        3    1    3    3  502    0 -0.82518023609E+03 -0.24738978009E+03  0.39115347394E+03  0.94611055152E+03  0.10100000352E+00 0.  1.
       -3    1    3    3    0  502  0.82518023609E+03  0.24738978009E+03 -0.16314133610E+04  0.18448939509E+04  0.10100000352E+00 0. -1.
</event>
<event>
 5   0  0.1519145E-06  0.2495519E+04  0.7818609E-02  0.8404584E-01
       -1   -1    0    0    0  501  0.00000000000E+00  0.00000000000E+00  0.15548645596E+04  0.15548645596E+04  0.50400001928E-02 0. -1.
        1   -1    0    0  501    0  0.00000000000E+00  0.00000000000E+00 -0.10013113823E+04  0.10013113823E+04  0.50400001928E-02 0.  1.
    10030    2    1    2    0    0  0.00000000000E+00  0.00000000000E+00  0.55355317726E+03  0.25561759419E+04  0.24955188490E+04 0.  0.
        4    1    3    3  502    0 -0.90539234861E+03 -0.54992934948E+03  0.95215453305E+03  0.14243445728E+04  0.12699999809E+01 0. -1.
       -4    1    3    3    0  502  0.90539234861E+03  0.54992934948E+03 -0.39860135579E+03  0.11318313691E+04  0.12699999809E+01 0.  1.
</event>
<event>
 5   0  0.3814260E-06  0.2505260E+04  0.7818609E-02  0.8401114E-01
       -2   -1    0    0    0  501  0.00000000000E+00  0.00000000000E+00  0.10491289135E+04  0.10491289135E+04  0.25500000920E-02 0. -1.
        2   -1    0    0  501    0  0.00000000000E+00  0.00000000000E+00 -0.14956050117E+04  0.14956050117E+04  0.25500000920E-02 0.  1.
    10030    2    1    2    0    0  0.00000000000E+00  0.00000000000E+00 -0.44647609817E+03  0.25447339252E+04  0.25052604344E+04 0.  0.
        5    1    3    3  502    0  0.62848962600E+03 -0.51346247216E+03  0.74595387535E+03  0.11023212755E+04  0.46999998093E+01 0. -1.
       -5    1    3    3    0  502 -0.62848962600E+03  0.51346247216E+03 -0.11924299735E+04  0.14424126497E+04  0.46999998093E+01 0.  1.
</event>
<event>
 5   0  0.1519145E-06  0.2498941E+04  0.7818609E-02  0.8403363E-01
       -1   -1    0    0    0  501  0.00000000000E+00  0.00000000000E+00  0.47826316023E+03  0.47826316025E+03  0.50400001928E-02 0. -1.
        1   -1    0    0  501    0  0.00000000000E+00  0.00000000000E+00 -0.32642630998E+04  0.32642630998E+04  0.50400001928E-02 0.  1.
    10030    2    1    2    0    0  0.00000000000E+00  0.00000000000E+00 -0.27859999396E+04  0.37425262600E+04  0.24989412046E+04 0.  0.
        4    1    3    3  502    0 -0.12447586095E+04 -0.39172273100E+02 -0.15443785246E+04  0.19839518903E+04  0.12699999809E+01 0.  1.
       -4    1    3    3    0  502  0.12447586095E+04  0.39172273100E+02 -0.12416214150E+04  0.17585743698E+04  0.12699999809E+01 0. -1.
</event>
<event>
 5   0  0.1574896E-06  0.2498325E+04  0.7818609E-02  0.8403583E-01
       -1   -1    0    0    0  501  0.00000000000E+00  0.00000000000E+00  0.18556112651E+04  0.18556112651E+04  0.50400001928E-02 0.  1.
        1   -1    0    0  501    0  0.00000000000E+00  0.00000000000E+00 -0.84091231416E+03  0.84091231417E+03  0.50400001928E-02 0. -1.
    10030    2    1    2    0    0  0.00000000000E+00  0.00000000000E+00  0.10146989510E+04  0.26965235793E+04  0.24983245291E+04 0.  0.
        3    1    3    3  502    0 -0.89811622641E+03 -0.56830123989E+03  0.12157958410E+04  0.16148494025E+04  0.10100000352E+00 0.  1.
       -3    1    3    3    0  502  0.89811622641E+03  0.56830123989E+03 -0.20109689006E+03  0.10816741768E+04  0.10100000352E+00 0. -1.
</event>
<event>
 5   0  0.3808293E-06  0.2499360E+04  0.7818609E-02  0.8403213E-01
       -2   -1    0    0    0  501  0.00000000000E+00  0.00000000000E+00  0.82187732996E+03  0.82187732996E+03  0.25500000920E-02 0. -1.
        2   -1    0    0  501    0  0.00000000000E+00  0.00000000000E+00 -0.19001623603E+04  0.19001623603E+04  0.25500000920E-02 0.  1.
    10030    2    1    2    0    0  0.00000000000E+00  0.00000000000E+00 -0.10782850304E+04  0.27220396903E+04  0.24993602119E+04 0.  0.
        1    1    3    3  502    0  0.79829441945E+03 -0.84090042439E+03 -0.10468438656E+04  0.15621362242E+04  0.50400001928E-02 0.  1.
       -1    1    3    3    0  502 -0.79829441945E+03  0.84090042439E+03 -0.31441164779E+02  0.11599034661E+04  0.50400001928E-02 0. -1.
</event>
<event>
 5   0  0.3971759E-06  0.2499692E+04  0.7818609E-02  0.8403095E-01
        2   -1    0    0  501    0  0.00000000000E+00  0.00000000000E+00  0.15449902939E+04  0.15449902939E+04  0.25500000920E-02 0. -1.
       -2   -1    0    0    0  501  0.00000000000E+00  0.00000000000E+00 -0.10110838941E+04  0.10110838941E+04  0.25500000920E-02 0.  1.
    10030    2    1    2    0    0  0.00000000000E+00  0.00000000000E+00  0.53390639978E+03  0.25560741880E+04  0.24996918232E+04 0.  0.
        4    1    3    3  502    0 -0.59487182569E+03 -0.20783592015E+03  0.13706717010E+04  0.15085790611E+04  0.12699999809E+01 0. -1.
       -4    1    3    3    0  502  0.59487182569E+03  0.20783592015E+03 -0.83676530124E+03  0.10474951269E+04  0.12699999809E+01 0.  1.
</event>
<event>
 5   0  0.3713394E-06  0.2488784E+04  0.7818609E-02  0.8406992E-01
       -2   -1    0    0    0  501  0.00000000000E+00  0.00000000000E+00  0.10598377311E+04  0.10598377311E+04  0.25500000920E-02 0.  1.
        2   -1    0    0  501    0  0.00000000000E+00  0.00000000000E+00 -0.14610830234E+04  0.14610830234E+04  0.25500000920E-02 0. -1.
    10030    2    1    2    0    0  0.00000000000E+00  0.00000000000E+00 -0.40124529233E+03  0.25209207545E+04  0.24887835715E+04 0.  0.
        3    1    3    3  502    0  0.37791745143E+03  0.73802136370E+03  0.73926753301E+03  0.11108616606E+04  0.10100000352E+00 0.  1.
       -3    1    3    3    0  502 -0.37791745143E+03 -0.73802136370E+03 -0.11405128253E+04  0.14100590939E+04  0.10100000352E+00 0. -1.
</event>
<event>
 5   0  0.1519145E-06  0.2495778E+04  0.7818609E-02  0.8404491E-01
        1   -1    0    0  501    0  0.00000000000E+00  0.00000000000E+00  0.17180531260E+04  0.17180531260E+04  0.50400001928E-02 0. -1.
       -1   -1    0    0    0  501  0.00000000000E+00  0.00000000000E+00 -0.90639033150E+03  0.90639033151E+03  0.50400001928E-02 0.  1.
    10030    2    1    2    0    0  0.00000000000E+00  0.00000000000E+00  0.81166279448E+03  0.26244434575E+04  0.24957778286E+04 0.  0.
        4    1    3    3  502    0 -0.17349892197E+03 -0.12318147530E+04  0.50969414385E+03  0.13443434066E+04  0.12699999809E+01 0. -1.
       -4    1    3    3    0  502  0.17349892197E+03  0.12318147530E+04  0.30196865063E+03  0.12801000509E+04  0.12699999809E+01 0.  1.
</event>
<event>
 5   0  0.1501747E-06  0.2485406E+04  0.7818609E-02  0.8408203E-01
       -1   -1    0    0    0  501  0.00000000000E+00  0.00000000000E+00  0.12924431639E+04  0.12924431639E+04  0.50400001928E-02 0.  1.
        1   -1    0    0  501    0  0.00000000000E+00  0.00000000000E+00 -0.11948767114E+04  0.11948767114E+04  0.50400001928E-02 0. -1.
    10030    2    1    2    0    0  0.00000000000E+00  0.00000000000E+00  0.97566452451E+02  0.24873198753E+04  0.24854055906E+04 0.  0.
        2    1    3    3  502    0  0.68769068678E+03  0.34890870880E+03 -0.92646951033E+03  0.12054051275E+04  0.25500000920E-02 0. -1.
       -2    1    3    3    0  502 -0.68769068678E+03 -0.34890870880E+03  0.10240359628E+04  0.12819147479E+04  0.25500000920E-02 0.  1.
</event>
<event>
 5   0  0.3814260E-06  0.2493394E+04  0.7818609E-02  0.8405343E-01
       -2   -1    0    0    0  501  0.00000000000E+00  0.00000000000E+00  0.92692928415E+03  0.92692928415E+03  0.25500000920E-02 0.  1.
        2   -1    0    0  501    0  0.00000000000E+00  0.00000000000E+00 -0.16767769889E+04  0.16767769889E+04  0.25500000920E-02 0. -1.
    10030    2    1    2    0    0  0.00000000000E+00  0.00000000000E+00 -0.74984770471E+03  0.26037062730E+04  0.24933942279E+04 0.  0.
        5    1    3    3  502    0  0.82230405140E+03 -0.55786732061E+03  0.41126721682E+03  0.10754360576E+04  0.46999998093E+01 0.  1.
       -5    1    3    3    0  502 -0.82230405140E+03  0.55786732061E+03 -0.11611149215E+04  0.15282702154E+04  0.46999998093E+01 0. -1.
</event>
<event>
 5   0  0.1553604E-06  0.2491299E+04  0.7818609E-02  0.8406092E-01
        1   -1    0    0  501    0  0.00000000000E+00  0.00000000000E+00  0.15882524273E+04  0.15882524274E+04  0.50400001928E-02 0. -1.
       -1   -1    0    0    0  501  0.00000000000E+00  0.00000000000E+00 -0.97694964777E+03  0.97694964779E+03  0.50400001928E-02 0.  1.
    10030    2    1    2    0    0  0.00000000000E+00  0.00000000000E+00  0.61130277957E+03  0.25652020751E+04  0.24912989780E+04 0.  0.
        1    1    3    3  502    0  0.95911416061E+03  0.56150989638E+03  0.88487707376E+03  0.14206339333E+04  0.50400001928E-02 0. -1.
       -1    1    3    3    0  502 -0.95911416061E+03 -0.56150989638E+03 -0.27357429419E+03  0.11445681418E+04  0.50400001928E-02 0.  1.
</event>
<event>
 5   0  0.3713394E-06  0.2498932E+04  0.7818609E-02  0.8403366E-01
        2   -1    0    0  501    0  0.00000000000E+00  0.00000000000E+00  0.83312711491E+03  0.83312711491E+03  0.25500000920E-02 0.  1.
       -2   -1    0    0    0  501  0.00000000000E+00  0.00000000000E+00 -0.18738615485E+04  0.18738615485E+04  0.25500000920E-02 0. -1.
    10030    2    1    2    0    0  0.00000000000E+00  0.00000000000E+00 -0.10407344336E+04  0.27069886634E+04  0.24989316642E+04 0.  0.
        3    1    3    3  502    0  0.53156240407E+03  0.11086026300E+04 -0.27909837459E+03  0.12607356160E+04  0.10100000352E+00 0.  1.
       -3    1    3    3    0  502 -0.53156240407E+03 -0.11086026300E+04 -0.76163605899E+03  0.14462530474E+04  0.10100000352E+00 0. -1.
</event>
<event>
 5   0  0.1501747E-06  0.2498048E+04  0.7818609E-02  0.8403681E-01
       -1   -1    0    0    0  501  0.00000000000E+00  0.00000000000E+00  0.11971963016E+04  0.11971963016E+04  0.50400001928E-02 0.  1.
        1   -1    0    0  501    0  0.00000000000E+00  0.00000000000E+00 -0.13030954613E+04  0.13030954613E+04  0.50400001928E-02 0. -1.
    10030    2    1    2    0    0  0.00000000000E+00  0.00000000000E+00 -0.10589915973E+03  0.25002917629E+04  0.24980480915E+04 0.  0.
        2    1    3    3  502    0 -0.58586684389E+03 -0.38951456413E+03 -0.10859131088E+04  0.12938967634E+04  0.25500000920E-02 0. -1.
       -2    1    3    3    0  502  0.58586684389E+03  0.38951456413E+03  0.98001394905E+03  0.12063949995E+04  0.25500000920E-02 0.  1.
</event>
<event>
 5   0  0.1519145E-06  0.2499155E+04  0.7818609E-02  0.8403287E-01
       -1   -1    0    0    0  501  0.00000000000E+00  0.00000000000E+00  0.58842055439E+03  0.58842055442E+03  0.50400001928E-02 0.  1.
        1   -1    0    0  501    0  0.00000000000E+00  0.00000000000E+00 -0.26536179518E+04  0.26536179518E+04  0.50400001928E-02 0. -1.
    10030    2    1    2    0    0  0.00000000000E+00  0.00000000000E+00 -0.20651973974E+04  0.32420385062E+04  0.24991545342E+04 0.  0.
        4    1    3    3  502    0  0.97415735680E+03 -0.70719944503E+03 -0.59781894957E+03  0.13440620225E+04  0.12699999809E+01 0.  1.
       -4    1    3    3    0  502 -0.97415735680E+03  0.70719944503E+03 -0.14673784479E+04  0.18979764838E+04  0.12699999809E+01 0. -1.
</event>
<event>
 5   0  0.1287375E-06  0.2500850E+04  0.7818609E-02  0.8402683E-01
       -3   -1    0    0    0  501  0.00000000000E+00  0.00000000000E+00  0.21104050472E+04  0.21104050496E+04  0.10100000352E+00 0.  1.
        3   -1    0    0  501    0  0.00000000000E+00  0.00000000000E+00 -0.74088264649E+03  0.74088265337E+03  0.10100000352E+00 0. -1.
    10030    2    1    2    0    0  0.00000000000E+00  0.00000000000E+00  0.13695224007E+04  0.28512877030E+04  0.25008498474E+04 0.  0.
        4    1    3    3  502    0 -0.63901677395E+03  0.10170914924E+04  0.28858807794E+03  0.12353551040E+04  0.12699999809E+01 0. -1.
       -4    1    3    3    0  502  0.63901677395E+03 -0.10170914924E+04  0.10809343228E+04  0.16159325990E+04  0.12699999809E+01 0.  1.
</event>
<event>
 5   0  0.3971759E-06  0.2479048E+04  0.7818609E-02  0.8410488E-01
       -2   -1    0    0    0  501  0.00000000000E+00  0.00000000000E+00  0.10483110492E+04  0.10483110492E+04  0.25500000920E-02 0. -1.
        2   -1    0    0  501    0  0.00000000000E+00  0.00000000000E+00 -0.14656141937E+04  0.14656141937E+04  0.25500000920E-02 0.  1.
    10030    2    1    2    0    0  0.00000000000E+00  0.00000000000E+00 -0.41730314449E+03  0.25139252429E+04  0.24790478439E+04 0.  0.
        4    1    3    3  502    0 -0.75564350406E+03 -0.50398379663E+03  0.64667278943E+03  0.11149816510E+04  0.12699999809E+01 0. -1.
       -4    1    3    3    0  502  0.75564350406E+03  0.50398379663E+03 -0.10639759339E+04  0.13989435919E+04  0.12699999809E+01 0.  1.
</event>
<event>
 5   0  0.1541852E-06  0.2501927E+04  0.7818609E-02  0.8402299E-01
       -1   -1    0    0    0  501  0.00000000000E+00  0.00000000000E+00  0.70247838724E+03  0.70247838726E+03  0.50400001928E-02 0. -1.
        1   -1    0    0  501    0  0.00000000000E+00  0.00000000000E+00 -0.22276984486E+04  0.22276984486E+04  0.50400001928E-02 0.  1.
    10030    2    1    2    0    0  0.00000000000E+00  0.00000000000E+00 -0.15252200614E+04  0.29301768359E+04  0.25019272679E+04 0.  0.
        5    1    3    3  502    0  0.23750248910E+03 -0.88815056808E+03  0.23093044894E+03  0.94792923057E+03  0.46999998093E+01 0. -1.
       -5    1    3    3    0  502 -0.23750248910E+03  0.88815056808E+03 -0.17561505103E+04  0.19822476053E+04  0.46999998093E+01 0.  1.
</event>
<event>
 5   0  0.3924441E-06  0.2491523E+04  0.7818609E-02  0.8406012E-01
        2   -1    0    0  501    0  0.00000000000E+00  0.00000000000E+00  0.94326963685E+03  0.94326963685E+03  0.25500000920E-02 0. -1.
       -2   -1    0    0    0  501  0.00000000000E+00  0.00000000000E+00 -0.16452579490E+04  0.16452579490E+04  0.25500000920E-02 0.  1.
    10030    2    1    2    0    0  0.00000000000E+00  0.00000000000E+00 -0.70198831220E+03  0.25885275859E+04  0.24915231230E+04 0.  0.
        2    1    3    3  502    0 -0.72783538918E+03 -0.17683750739E+03 -0.13851931403E+04  0.15747304194E+04  0.25500000920E-02 0.  1.
       -2    1    3    3    0  502  0.72783538918E+03  0.17683750739E+03  0.68320482808E+03  0.10137971665E+04  0.25500000920E-02 0. -1.
</event>
<event>
 5   0  0.1519145E-06  0.2499455E+04  0.7818609E-02  0.8403180E-01
       -1   -1    0    0    0  501  0.00000000000E+00  0.00000000000E+00  0.10243846858E+04  0.10243846858E+04  0.50400001928E-02 0. -1.
        1   -1    0    0  501    0  0.00000000000E+00  0.00000000000E+00 -0.15246414043E+04  0.15246414043E+04  0.50400001928E-02 0.  1.
    10030    2    1    2    0    0  0.00000000000E+00  0.00000000000E+00 -0.50025671853E+03  0.25490260901E+04  0.24994553854E+04 0.  0.
        4    1    3    3  502    0  0.19977223321E+03  0.38323596651E+03 -0.14460050209E+04  0.15092086948E+04  0.12699999809E+01 0.  1.
       -4    1    3    3    0  502 -0.19977223321E+03 -0.38323596651E+03  0.94574830234E+03  0.10398173953E+04  0.12699999809E+01 0. -1.
</event>
<event>
 5   0  0.1553604E-06  0.2497639E+04  0.7818609E-02  0.8403827E-01
        1   -1    0    0  501    0  0.00000000000E+00  0.00000000000E+00  0.12644927532E+04  0.12644927532E+04  0.50400001928E-02 0. -1.
       -1   -1    0    0    0  501  0.00000000000E+00  0.00000000000E+00 -0.12333403285E+04  0.12333403285E+04  0.50400001928E-02 0.  1.
    10030    2    1    2    0    0  0.00000000000E+00  0.00000000000E+00  0.31152424721E+02  0.24978330817E+04  0.24976388111E+04 0.  0.
        1    1    3    3  502    0 -0.29775032783E+03 -0.11526019727E+04 -0.36181681360E+03  0.12442097781E+04  0.50400001928E-02 0. -1.
       -1    1    3    3    0  502  0.29775032783E+03  0.11526019727E+04  0.39296923832E+03  0.12536233037E+04  0.50400001928E-02 0.  1.
</event>
<event>
 5   0  0.3924441E-06  0.2501256E+04  0.7818609E-02  0.8402538E-01
        2   -1    0    0  501    0  0.00000000000E+00  0.00000000000E+00  0.27023494569E+04  0.27023494569E+04  0.25500000920E-02 0.  1.
       -2   -1    0    0    0  501  0.00000000000E+00  0.00000000000E+00 -0.57878149928E+03  0.57878149928E+03  0.25500000920E-02 0. -1.
    10030    2    1    2    0    0  0.00000000000E+00  0.00000000000E+00  0.21235679577E+04  0.32811309562E+04  0.25012555809E+04 0.  0.
        2    1    3    3  502    0  0.48742685291E+03  0.40652652478E+03 -0.35180436775E+03  0.72568248253E+03  0.25500000920E-02 0. -1.
       -2    1    3    3    0  502 -0.48742685291E+03 -0.40652652478E+03  0.24753723254E+04  0.25554484737E+04  0.25500000920E-02 0.  1.
</event>
<event>
 5   0  0.3808293E-06  0.2498783E+04  0.7818609E-02  0.8403419E-01
       -2   -1    0    0    0  501  0.00000000000E+00  0.00000000000E+00  0.62473681923E+03  0.62473681923E+03  0.25500000920E-02 0.  1.
        2   -1    0    0  501    0  0.00000000000E+00  0.00000000000E+00 -0.24986189912E+04  0.24986189912E+04  0.25500000920E-02 0. -1.
    10030    2    1    2    0    0  0.00000000000E+00  0.00000000000E+00 -0.18738821719E+04  0.31233558104E+04  0.24987831287E+04 0.  0.
        1    1    3    3  502    0 -0.22577582536E+03  0.10915991112E+04 -0.16422677393E+04  0.19848442434E+04  0.50400001928E-02 0. -1.
       -1    1    3    3    0  502  0.22577582536E+03 -0.10915991112E+04 -0.23161443265E+03  0.11385115670E+04  0.50400001928E-02 0.  1.
</event>
<event>
 5   0  0.1501747E-06  0.2497057E+04  0.7818609E-02  0.8404035E-01
       -1   -1    0    0    0  501  0.00000000000E+00  0.00000000000E+00  0.10434999011E+04  0.10434999011E+04  0.50400001928E-02 0. -1.
        1   -1    0    0  501    0  0.00000000000E+00  0.00000000000E+00 -0.14938410488E+04  0.14938410488E+04  0.50400001928E-02 0.  1.
    10030    2    1    2    0    0  0.00000000000E+00  0.00000000000E+00 -0.45034114764E+03  0.25373409499E+04  0.24970566567E+04 0.  0.
        2    1    3    3  502    0 -0.43496019393E+03 -0.44919905548E+03  0.87293599636E+03  0.10737725157E+04  0.25500000920E-02 0. -1.
       -2    1    3    3    0  502  0.43496019393E+03  0.44919905548E+03 -0.13232771440E+04  0.14635684342E+04  0.25500000920E-02 0.  1.
</event>
<event>
 5   0  0.1553604E-06  0.2494214E+04  0.7818609E-02  0.8405050E-01
       -1   -1    0    0    0  501  0.00000000000E+00  0.00000000000E+00  0.10544804493E+04  0.10544804493E+04  0.50400001928E-02 0. -1.
        1   -1    0    0  501    0  0.00000000000E+00  0.00000000000E+00 -0.14749217273E+04  0.14749217273E+04  0.50400001928E-02 0.  1.
    10030    2    1    2    0    0  0.00000000000E+00  0.00000000000E+00 -0.42044127800E+03  0.25294021767E+04  0.24942142055E+04 0.  0.
        1    1    3    3  502    0 -0.84842754046E+03 -0.62444382478E+03 -0.88710761055E+03  0.13772143241E+04  0.50400001928E-02 0.  1.
       -1    1    3    3    0  502  0.84842754046E+03  0.62444382478E+03  0.46666633255E+03  0.11521878526E+04  0.50400001928E-02 0. -1.
</event>
<event>
 5   0  0.1553604E-06  0.2502981E+04  0.7818609E-02  0.8401924E-01
        1   -1    0    0  501    0  0.00000000000E+00  0.00000000000E+00  0.16149718898E+04  0.16149718898E+04  0.50400001928E-02 0.  1.
       -1   -1    0    0    0  501  0.00000000000E+00  0.00000000000E+00 -0.96981751464E+03  0.96981751466E+03  0.50400001928E-02 0. -1.
    10030    2    1    2    0    0  0.00000000000E+00  0.00000000000E+00  0.64515437513E+03  0.25847894044E+04  0.25029806427E+04 0.  0.
        1    1    3    3  502    0  0.12439394387E+04  0.58657767913E+02  0.45073813797E+03  0.13243832262E+04  0.50400001928E-02 0.  1.
       -1    1    3    3    0  502 -0.12439394387E+04 -0.58657767913E+02  0.19441623716E+03  0.12604061782E+04  0.50400001928E-02 0. -1.
</event>
<event>
 5   0  0.3971759E-06  0.2497893E+04  0.7818609E-02  0.8403736E-01
       -2   -1    0    0    0  501  0.00000000000E+00  0.00000000000E+00  0.92040949313E+03  0.92040949313E+03  0.25500000920E-02 0.  1.
        2   -1    0    0  501    0  0.00000000000E+00  0.00000000000E+00 -0.16947542230E+04  0.16947542230E+04  0.25500000920E-02 0. -1.
    10030    2    1    2    0    0  0.00000000000E+00  0.00000000000E+00 -0.77434472991E+03  0.26151637162E+04  0.24978934128E+04 0.  0.
        4    1    3    3  502    0  0.16160683348E+03 -0.60683445436E+03 -0.15174402459E+04  0.16422519101E+04  0.12699999809E+01 0. -1.
       -4    1    3    3    0  502 -0.16160683348E+03  0.60683445436E+03  0.74309551595E+03  0.97291180605E+03  0.12699999809E+01 0.  1.
</event>
<event>
 5   0  0.1574896E-06  0.2503438E+04  0.7818609E-02  0.8401762E-01
        1   -1    0    0  501    0  0.00000000000E+00  0.00000000000E+00  0.14960733143E+04  0.14960733143E+04  0.50400001928E-02 0.  1.
       -1   -1    0    0    0  501  0.00000000000E+00  0.00000000000E+00 -0.10472749299E+04  0.10472749299E+04  0.50400001928E-02 0. -1.
    10030    2    1    2    0    0  0.00000000000E+00  0.00000000000E+00  0.44879838440E+03  0.25433482443E+04  0.25034376968E+04 0.  0.
        3    1    3    3  502    0  0.76850755456E+03  0.67823356249E+03  0.95432063674E+03  0.14004758172E+04  0.10100000352E+00 0.  1.
       -3    1    3    3    0  502 -0.76850755456E+03 -0.67823356249E+03 -0.50552225233E+03  0.11428724271E+04  0.10100000352E+00 0. -1.
</event>
<event>
 5   0  0.1553604E-06  0.2500507E+04  0.7818609E-02  0.8402805E-01
       -1   -1    0    0    0  501  0.00000000000E+00  0.00000000000E+00  0.12533015322E+04  0.12533015322E+04  0.50400001928E-02 0.  1.
        1   -1    0    0  501    0  0.00000000000E+00  0.00000000000E+00 -0.12472128566E+04  0.12472128567E+04  0.50400001928E-02 0. -1.
    10030    2    1    2    0    0  0.00000000000E+00  0.00000000000E+00  0.60886755145E+01  0.25005143888E+04  0.25005069759E+04 0.  0.
        1    1    3    3  502    0  0.74255759168E+03  0.65125248234E+03  0.76960529128E+03  0.12521237467E+04  0.50400001928E-02 0.  1.
       -1    1    3    3    0  502 -0.74255759168E+03 -0.65125248234E+03 -0.76351661576E+03  0.12483906421E+04  0.50400001928E-02 0. -1.
</event>
<event>
 5   0  0.1553604E-06  0.2500110E+04  0.7818609E-02  0.8402946E-01
        1   -1    0    0  501    0  0.00000000000E+00  0.00000000000E+00  0.14250337168E+04  0.14250337168E+04  0.50400001928E-02 0. -1.
       -1   -1    0    0    0  501  0.00000000000E+00  0.00000000000E+00 -0.10965618240E+04  0.10965618240E+04  0.50400001928E-02 0.  1.
    10030    2    1    2    0    0  0.00000000000E+00  0.00000000000E+00  0.32847189276E+03  0.25215955408E+04  0.25001100550E+04 0.  0.
        1    1    3    3  502    0 -0.62375835724E+02  0.58832036900E+03  0.12748923722E+04  0.14054757778E+04  0.50400001928E-02 0. -1.
       -1    1    3    3    0  502  0.62375835724E+02 -0.58832036900E+03 -0.94642047940E+03  0.11161197630E+04  0.50400001928E-02 0.  1.
</event>
<event>
 5   0  0.3971759E-06  0.2505851E+04  0.7818609E-02  0.8400904E-01
        2   -1    0    0  501    0  0.00000000000E+00  0.00000000000E+00  0.11130228529E+04  0.11130228529E+04  0.25500000920E-02 0.  1.
       -2   -1    0    0    0  501  0.00000000000E+00  0.00000000000E+00 -0.14104136520E+04  0.14104136520E+04  0.25500000920E-02 0. -1.
    10030    2    1    2    0    0  0.00000000000E+00  0.00000000000E+00 -0.29739079913E+03  0.25234365049E+04  0.25058512539E+04 0.  0.
        4    1    3    3  502    0  0.54811084661E+03  0.10710379826E+04 -0.50082509401E+03  0.13032172682E+04  0.12699999809E+01 0. -1.
       -4    1    3    3    0  502 -0.54811084661E+03 -0.10710379826E+04  0.20343429488E+03  0.12202192367E+04  0.12699999809E+01 0.  1.
</event>
<event>
 5   0  0.3713394E-06  0.2456255E+04  0.7818609E-02  0.8418738E-01
       -2   -1    0    0    0  501  0.00000000000E+00  0.00000000000E+00  0.89339023852E+03  0.89339023853E+03  0.25500000920E-02 0. -1.
        2   -1    0    0  501    0  0.00000000000E+00  0.00000000000E+00 -0.16882841274E+04  0.16882841275E+04  0.25500000920E-02 0.  1.
    10030    2    1    2    0    0  0.00000000000E+00  0.00000000000E+00 -0.79489388893E+03  0.25816743660E+04  0.24562545140E+04 0.  0.
        3    1    3    3  502    0 -0.78367636178E+02  0.11198305471E+04 -0.92101334418E+03  0.14520425376E+04  0.10100000352E+00 0.  1.
       -3    1    3    3    0  502  0.78367636178E+02 -0.11198305471E+04  0.12611945525E+03  0.11296318284E+04  0.10100000352E+00 0. -1.
</event>
<event>
 5   0  0.3814260E-06  0.2496011E+04  0.7818609E-02  0.8404408E-01
       -2   -1    0    0    0  501  0.00000000000E+00  0.00000000000E+00  0.78136288267E+03  0.78136288268E+03  0.25500000920E-02 0.  1.
        2   -1    0    0  501    0  0.00000000000E+00  0.00000000000E+00 -0.19933348111E+04  0.19933348111E+04  0.25500000920E-02 0. -1.
    10030    2    1    2    0    0  0.00000000000E+00  0.00000000000E+00 -0.12119719284E+04  0.27746976937E+04  0.24960110850E+04 0.  0.
        5    1    3    3  502    0 -0.10010847654E+04 -0.73927541479E+03 -0.71024985675E+03  0.14328907130E+04  0.46999998093E+01 0.  1.
       -5    1    3    3    0  502  0.10010847654E+04  0.73927541479E+03 -0.50172207164E+03  0.13418069807E+04  0.46999998093E+01 0. -1.
</event>
<event>
 5   0  0.3713394E-06  0.2501131E+04  0.7818609E-02  0.8402583E-01
        2   -1    0    0  501    0  0.00000000000E+00  0.00000000000E+00  0.22836247047E+04  0.22836247047E+04  0.25500000920E-02 0.  1.
       -2   -1    0    0    0  501  0.00000000000E+00  0.00000000000E+00 -0.68483839205E+03  0.68483839206E+03  0.25500000920E-02 0. -1.
    10030    2    1    2    0    0  0.00000000000E+00  0.00000000000E+00  0.15987863127E+04  0.29684630968E+04  0.25011308409E+04 0.  0.
        3    1    3    3  502    0  0.42625311846E+03  0.35636146017E+03  0.21291023280E+04  0.22004004056E+04  0.10100000352E+00 0.  1.
       -3    1    3    3    0  502 -0.42625311846E+03 -0.35636146017E+03 -0.53031601537E+03  0.76806269123E+03  0.10100000352E+00 0. -1.
</event>
<event>
 5   0  0.1541852E-06  0.2501401E+04  0.7818609E-02  0.8402487E-01
       -1   -1    0    0    0  501  0.00000000000E+00  0.00000000000E+00  0.82296839957E+03  0.82296839959E+03  0.50400001928E-02 0. -1.
        1   -1    0    0  501    0  0.00000000000E+00  0.00000000000E+00 -0.19007437520E+04  0.19007437520E+04  0.50400001928E-02 0.  1.
    10030    2    1    2    0    0  0.00000000000E+00  0.00000000000E+00 -0.10777753524E+04  0.27237121516E+04  0.25014012422E+04 0.  0.
        5    1    3    3  502    0  0.63899346419E+01  0.11235937856E+04 -0.11370021424E+04  0.15985305090E+04  0.46999998093E+01 0.  1.
       -5    1    3    3    0  502 -0.63899346419E+01 -0.11235937856E+04  0.59226789934E+02  0.11251816426E+04  0.46999998093E+01 0. -1.
</event>
<event>
 5   0  0.3814260E-06  0.2499140E+04  0.7818609E-02  0.8403292E-01
        2   -1    0    0  501    0  0.00000000000E+00  0.00000000000E+00  0.18387254366E+04  0.18387254366E+04  0.25500000920E-02 0.  1.
       -2   -1    0    0    0  501  0.00000000000E+00  0.00000000000E+00 -0.84918919977E+03  0.84918919977E+03  0.25500000920E-02 0. -1.
    10030    2    1    2    0    0  0.00000000000E+00  0.00000000000E+00  0.98953623683E+03  0.26879146364E+04  0.24991404779E+04 0.  0.
        5    1    3    3  502    0  0.78260151437E+03 -0.64282697400E+03 -0.29244171119E+03  0.10541517411E+04  0.46999998093E+01 0. -1.
       -5    1    3    3    0  502 -0.78260151437E+03  0.64282697400E+03  0.12819779480E+04  0.16337628953E+04  0.46999998093E+01 0.  1.
</event>
<event>
 5   0  0.3924441E-06  0.2498766E+04  0.7818609E-02  0.8403425E-01
        2   -1    0    0  501    0  0.00000000000E+00  0.00000000000E+00  0.25934890463E+04  0.25934890463E+04  0.25500000920E-02 0.  1.
       -2   -1    0    0    0  501  0.00000000000E+00  0.00000000000E+00 -0.60187559280E+03  0.60187559280E+03  0.25500000920E-02 0. -1.
    10030    2    1    2    0    0  0.00000000000E+00  0.00000000000E+00  0.19916134535E+04  0.31953646391E+04  0.24987659011E+04 0.  0.
        2    1    3    3  502    0 -0.80721807555E+03 -0.40075116721E+03 -0.11072734424E+03  0.90799948474E+03  0.25500000920E-02 0. -1.
       -2    1    3    3    0  502  0.80721807555E+03  0.40075116721E+03  0.21023407977E+04  0.22873651543E+04  0.25500000920E-02 0.  1.
</event>
<event>
 5   0  0.3814260E-06  0.2428225E+04  0.7818609E-02  0.8429012E-01
        2   -1    0    0  501    0  0.00000000000E+00  0.00000000000E+00  0.18782561313E+04  0.18782561313E+04  0.25500000920E-02 0.  1.
       -2   -1    0    0    0  501  0.00000000000E+00  0.00000000000E+00 -0.78480729503E+03  0.78480729503E+03  0.25500000920E-02 0. -1.
    10030    2    1    2    0    0  0.00000000000E+00  0.00000000000E+00  0.10934488362E+04  0.26630634263E+04  0.24282249597E+04 0.  0.
        5    1    3    3  502    0 -0.63720208790E+03 -0.84033116464E+03 -0.11300418700E+03  0.10606483882E+04  0.46999998093E+01 0. -1.
       -5    1    3    3    0  502  0.63720208790E+03  0.84033116464E+03  0.12064530232E+04  0.16024150381E+04  0.46999998093E+01 0.  1.
</event>
<event>
 5   0  0.1553604E-06  0.2454990E+04  0.7818609E-02  0.8419198E-01
       -1   -1    0    0    0  501  0.00000000000E+00  0.00000000000E+00  0.11735250804E+04  0.11735250804E+04  0.50400001928E-02 0.  1.
        1   -1    0    0  501    0  0.00000000000E+00  0.00000000000E+00 -0.12839469934E+04  0.12839469935E+04  0.50400001928E-02 0. -1.
    10030    2    1    2    0    0  0.00000000000E+00  0.00000000000E+00 -0.11042191302E+03  0.24574720739E+04  0.24549900193E+04 0.  0.
        1    1    3    3  502    0  0.41486127109E+03 -0.10093047867E+04 -0.61786283547E+03  0.12540177472E+04  0.50400001928E-02 0. -1.
       -1    1    3    3    0  502 -0.41486127109E+03  0.10093047867E+04  0.50744092245E+03  0.12034543267E+04  0.50400001928E-02 0.  1.
</event>
<event>
 5   0  0.3924441E-06  0.2499200E+04  0.7818609E-02  0.8403271E-01
       -2   -1    0    0    0  501  0.00000000000E+00  0.00000000000E+00  0.28932658323E+04  0.28932658323E+04  0.25500000920E-02 0. -1.
        2   -1    0    0  501    0  0.00000000000E+00  0.00000000000E+00 -0.53970151354E+03  0.53970151355E+03  0.25500000920E-02 0.  1.
    10030    2    1    2    0    0  0.00000000000E+00  0.00000000000E+00  0.23535643187E+04  0.34329673458E+04  0.24991998310E+04 0.  0.
        2    1    3    3  502    0 -0.40272742543E+02  0.59398703178E+03  0.26859330420E+04  0.27511231877E+04  0.25500000920E-02 0. -1.
       -2    1    3    3    0  502  0.40272742543E+02 -0.59398703178E+03 -0.33236872330E+03  0.68184415811E+03  0.25500000920E-02 0.  1.
</event>
<event>
 5   0  0.1541852E-06  0.2499684E+04  0.7818609E-02  0.8403098E-01
        1   -1    0    0  501    0  0.00000000000E+00  0.00000000000E+00  0.98050267086E+03  0.98050267087E+03  0.50400001928E-02 0.  1.
       -1   -1    0    0    0  501  0.00000000000E+00  0.00000000000E+00 -0.15931681405E+04  0.15931681406E+04  0.50400001928E-02 0. -1.
    10030    2    1    2    0    0  0.00000000000E+00  0.00000000000E+00 -0.61266546969E+03  0.25736708114E+04  0.24996844737E+04 0.  0.
        5    1    3    3  502    0  0.11654556218E+04 -0.45140869620E+03 -0.30099174602E+03  0.12855639768E+04  0.46999998093E+01 0.  1.
       -5    1    3    3    0  502 -0.11654556218E+04  0.45140869620E+03 -0.31167372367E+03  0.12881068346E+04  0.46999998093E+01 0. -1.
</event>
<event>
 5   0  0.1574896E-06  0.2497462E+04  0.7818609E-02  0.8403890E-01
       -1   -1    0    0    0  501  0.00000000000E+00  0.00000000000E+00  0.79139558165E+03  0.79139558167E+03  0.50400001928E-02 0.  1.
        1   -1    0    0  501    0  0.00000000000E+00  0.00000000000E+00 -0.19703532574E+04  0.19703532574E+04  0.50400001928E-02 0. -1.
    10030    2    1    2    0    0  0.00000000000E+00  0.00000000000E+00 -0.11789576757E+04  0.27617488391E+04  0.24974618013E+04 0.  0.
        3    1    3    3  502    0 -0.58970082110E+03  0.71383705316E+03 -0.15160090608E+04  0.17763991330E+04  0.10100000352E+00 0. -1.
       -3    1    3    3    0  502  0.58970082110E+03 -0.71383705316E+03  0.33705138511E+03  0.98534970608E+03  0.10100000352E+00 0.  1.
</event>
<event>
 5   0  0.3971759E-06  0.2498391E+04  0.7818609E-02  0.8403559E-01
       -2   -1    0    0    0  501  0.00000000000E+00  0.00000000000E+00  0.54991930482E+03  0.54991930483E+03  0.25500000920E-02 0.  1.
        2   -1    0    0  501    0  0.00000000000E+00  0.00000000000E+00 -0.28376687083E+04  0.28376687083E+04  0.25500000920E-02 0. -1.
    10030    2    1    2    0    0  0.00000000000E+00  0.00000000000E+00 -0.22877494035E+04  0.33875880131E+04  0.24983905246E+04 0.  0.
        4    1    3    3  502    0 -0.66763579585E+03  0.18418067653E+03  0.26576583005E+03  0.74181747541E+03  0.12699999809E+01 0.  1.
       -4    1    3    3    0  502  0.66763579585E+03 -0.18418067653E+03 -0.25535152335E+04  0.26457705377E+04  0.12699999809E+01 0. -1.
</event>
<event>
 5   0  0.1541852E-06  0.2503345E+04  0.7818609E-02  0.8401795E-01
       -1   -1    0    0    0  501  0.00000000000E+00  0.00000000000E+00  0.13197452874E+04  0.13197452874E+04  0.50400001928E-02 0. -1.
        1   -1    0    0  501    0  0.00000000000E+00  0.00000000000E+00 -0.11871104675E+04  0.11871104675E+04  0.50400001928E-02 0.  1.
    10030    2    1    2    0    0  0.00000000000E+00  0.00000000000E+00  0.13263481989E+03  0.25068557549E+04  0.25033445190E+04 0.  0.
        5    1    3    3  502    0  0.12936874665E+03 -0.10931222803E+04  0.66297924426E+03  0.12849965606E+04  0.46999998093E+01 0. -1.
       -5    1    3    3    0  502 -0.12936874665E+03  0.10931222803E+04 -0.53034442437E+03  0.12218591944E+04  0.46999998093E+01 0.  1.
</event>
<event>
 5   0  0.1553604E-06  0.2520182E+04  0.7818609E-02  0.8395831E-01
        1   -1    0    0  501    0  0.00000000000E+00  0.00000000000E+00  0.18496835933E+04  0.18496835933E+04  0.50400001928E-02 0.  1.
       -1   -1    0    0    0  501  0.00000000000E+00  0.00000000000E+00 -0.85843262754E+03  0.85843262756E+03  0.50400001928E-02 0. -1.
    10030    2    1    2    0    0  0.00000000000E+00  0.00000000000E+00  0.99125096574E+03  0.27081162209E+04  0.25201815388E+04 0.  0.
        1    1    3    3  502    0 -0.10224009566E+04  0.49209426453E+03 -0.93302914945E+02  0.11384928261E+04  0.50400001928E-02 0.  1.
       -1    1    3    3    0  502  0.10224009566E+04 -0.49209426453E+03  0.10845538807E+04  0.15696233947E+04  0.50400001928E-02 0. -1.
</event>
<event>
 5   0  0.1541852E-06  0.2491396E+04  0.7818609E-02  0.8406057E-01
        1   -1    0    0  501    0  0.00000000000E+00  0.00000000000E+00  0.13338919716E+04  0.13338919716E+04  0.50400001928E-02 0. -1.
       -1   -1    0    0    0  501  0.00000000000E+00  0.00000000000E+00 -0.11633354240E+04  0.11633354240E+04  0.50400001928E-02 0.  1.
    10030    2    1    2    0    0  0.00000000000E+00  0.00000000000E+00  0.17055654761E+03  0.24972273955E+04  0.24913962208E+04 0.  0.
        5    1    3    3  502    0 -0.12357671031E+04 -0.98590322875E+02  0.20763489537E+03  0.12569704549E+04  0.46999998093E+01 0. -1.
       -5    1    3    3    0  502  0.12357671031E+04  0.98590322875E+02 -0.37078347758E+02  0.12402569406E+04  0.46999998093E+01 0.  1.
</event>
<event>
 5   0  0.3814260E-06  0.2498156E+04  0.7818609E-02  0.8403643E-01
        2   -1    0    0  501    0  0.00000000000E+00  0.00000000000E+00  0.73536763640E+03  0.73536763641E+03  0.25500000920E-02 0.  1.
       -2   -1    0    0    0  501  0.00000000000E+00  0.00000000000E+00 -0.21216539071E+04  0.21216539071E+04  0.25500000920E-02 0. -1.
    10030    2    1    2    0    0  0.00000000000E+00  0.00000000000E+00 -0.13862862707E+04  0.28570215435E+04  0.24981558149E+04 0.  0.
        5    1    3    3  502    0 -0.16303485879E+03 -0.50366122351E+03  0.60071051903E+03  0.80070607024E+03  0.46999998093E+01 0.  1.
       -5    1    3    3    0  502  0.16303485879E+03  0.50366122351E+03 -0.19869967897E+04  0.20563154733E+04  0.46999998093E+01 0. -1.
</event>
<event>
 5   0  0.1519145E-06  0.2501848E+04  0.7818609E-02  0.8402327E-01
        1   -1    0    0  501    0  0.00000000000E+00  0.00000000000E+00  0.12206056533E+04  0.12206056533E+04  0.50400001928E-02 0.  1.
       -1   -1    0    0    0  501  0.00000000000E+00  0.00000000000E+00 -0.12819958937E+04  0.12819958937E+04  0.50400001928E-02 0. -1.
    10030    2    1    2    0    0  0.00000000000E+00  0.00000000000E+00 -0.61390240416E+02  0.25026015470E+04  0.25018484650E+04 0.  0.
        4    1    3    3  502    0 -0.24165681863E+03  0.67531401180E+03 -0.10558757019E+04  0.12764490367E+04  0.12699999809E+01 0. -1.
       -4    1    3    3    0  502  0.24165681863E+03 -0.67531401180E+03  0.99448546151E+03  0.12261525103E+04  0.12699999809E+01 0.  1.
</event>
<event>
 5   0  0.1287375E-06  0.2499262E+04  0.7818609E-02  0.8403248E-01
       -3   -1    0    0    0  501  0.00000000000E+00  0.00000000000E+00  0.11683855954E+04  0.11683855997E+04  0.10100000352E+00 0.  1.
        3   -1    0    0  501    0  0.00000000000E+00  0.00000000000E+00 -0.13365263251E+04  0.13365263290E+04  0.10100000352E+00 0. -1.
    10030    2    1    2    0    0  0.00000000000E+00  0.00000000000E+00 -0.16814072976E+03  0.25049119287E+04  0.24992623843E+04 0.  0.
        2    1    3    3  502    0 -0.19010147874E+03 -0.94191232334E+03  0.71663522855E+03  0.11987090756E+04  0.25500000920E-02 0.  1.
       -2    1    3    3    0  502  0.19010147874E+03  0.94191232334E+03 -0.88477595832E+03  0.13062028531E+04  0.25500000920E-02 0. -1.
</event>
<event>
 5   0  0.3814260E-06  0.2508324E+04  0.7818609E-02  0.8400026E-01
       -2   -1    0    0    0  501  0.00000000000E+00  0.00000000000E+00  0.13682797824E+04  0.13682797824E+04  0.25500000920E-02 0. -1.
        2   -1    0    0  501    0  0.00000000000E+00  0.00000000000E+00 -0.11495620639E+04  0.11495620639E+04  0.25500000920E-02 0.  1.
    10030    2    1    2    0    0  0.00000000000E+00  0.00000000000E+00  0.21871771853E+03  0.25178418463E+04  0.25083241662E+04 0.  0.
        5    1    3    3  502    0  0.72500100779E+03  0.83468710868E+03 -0.48497850303E+03  0.12072925367E+04  0.46999998093E+01 0.  1.
       -5    1    3    3    0  502 -0.72500100779E+03 -0.83468710868E+03  0.70369622156E+03  0.13105493096E+04  0.46999998093E+01 0. -1.
</event>
<event>
 5   0  0.1541852E-06  0.2498996E+04  0.7818609E-02  0.8403343E-01
       -1   -1    0    0    0  501  0.00000000000E+00  0.00000000000E+00  0.80437413280E+03  0.80437413282E+03  0.50400001928E-02 0. -1.
        1   -1    0    0  501    0  0.00000000000E+00  0.00000000000E+00 -0.19409447845E+04  0.19409447845E+04  0.50400001928E-02 0.  1.
    10030    2    1    2    0    0  0.00000000000E+00  0.00000000000E+00 -0.11365706517E+04  0.27453189173E+04  0.24989964209E+04 0.  0.
        5    1    3    3  502    0 -0.11776334683E+04  0.34541691813E+03 -0.82613379643E+03  0.14794095351E+04  0.46999998093E+01 0.  1.
       -5    1    3    3    0  502  0.11776334683E+04 -0.34541691813E+03 -0.31043685527E+03  0.12659093822E+04  0.46999998093E+01 0. -1.
</event>
<event>
 5   0  0.3971759E-06  0.2498622E+04  0.7818609E-02  0.8403476E-01
       -2   -1    0    0    0  501  0.00000000000E+00  0.00000000000E+00  0.15544080864E+04  0.15544080864E+04  0.25500000920E-02 0.  1.
        2   -1    0    0  501    0  0.00000000000E+00  0.00000000000E+00 -0.10040983336E+04  0.10040983336E+04  0.25500000920E-02 0. -1.
    10030    2    1    2    0    0  0.00000000000E+00  0.00000000000E+00  0.55030975280E+03  0.25585064199E+04  0.24986224758E+04 0.  0.
        4    1    3    3  502    0  0.34171208520E+03 -0.77529292901E+03  0.12152716462E+04  0.14814631490E+04  0.12699999809E+01 0.  1.
       -4    1    3    3    0  502 -0.34171208520E+03  0.77529292901E+03 -0.66496189336E+03  0.10770432709E+04  0.12699999809E+01 0. -1.
</event>
<event>
 5   0  0.1519145E-06  0.2500761E+04  0.7818609E-02  0.8402715E-01
        1   -1    0    0  501    0  0.00000000000E+00  0.00000000000E+00  0.21548302344E+04  0.21548302345E+04  0.50400001928E-02 0.  1.
       -1   -1    0    0    0  501  0.00000000000E+00  0.00000000000E+00 -0.72555636700E+03  0.72555636702E+03  0.50400001928E-02 0. -1.
    10030    2    1    2    0    0  0.00000000000E+00  0.00000000000E+00  0.14292738674E+04  0.28803866015E+04  0.25007605215E+04 0.  0.
        4    1    3    3  502    0 -0.39756462972E+03  0.66938932723E+02 -0.64863943902E+03  0.76372324194E+03  0.12699999809E+01 0. -1.
       -4    1    3    3    0  502  0.39756462972E+03 -0.66938932723E+02  0.20779133065E+04  0.21166633595E+04  0.12699999809E+01 0.  1.
</event>
<event>
 5   0  0.1501747E-06  0.2503021E+04  0.7818609E-02  0.8401910E-01
       -1   -1    0    0    0  501  0.00000000000E+00  0.00000000000E+00  0.16838706987E+04  0.16838706987E+04  0.50400001928E-02 0.  1.
        1   -1    0    0  501    0  0.00000000000E+00  0.00000000000E+00 -0.93016518885E+03  0.93016518887E+03  0.50400001928E-02 0. -1.
    10030    2    1    2    0    0  0.00000000000E+00  0.00000000000E+00  0.75370550985E+03  0.26140358876E+04  0.25030205005E+04 0.  0.
        2    1    3    3  502    0 -0.58774633237E+03 -0.46804396810E+03  0.14221276008E+04  0.16084022570E+04  0.25500000920E-02 0.  1.
       -2    1    3    3    0  502  0.58774633237E+03  0.46804396810E+03 -0.66842209096E+03  0.10056336306E+04  0.25500000920E-02 0. -1.
</event>
<event>
 5   0  0.1574896E-06  0.2485096E+04  0.7818609E-02  0.8408315E-01
        1   -1    0    0  501    0  0.00000000000E+00  0.00000000000E+00  0.19697008327E+04  0.19697008328E+04  0.50400001928E-02 0. -1.
       -1   -1    0    0    0  501  0.00000000000E+00  0.00000000000E+00 -0.78383731470E+03  0.78383731472E+03  0.50400001928E-02 0.  1.
    10030    2    1    2    0    0  0.00000000000E+00  0.00000000000E+00  0.11858635180E+04  0.27535381475E+04  0.24850955809E+04 0.  0.
        3    1    3    3  502    0 -0.98584206903E+03  0.69250919490E+03  0.25599236515E+03  0.12316597222E+04  0.10100000352E+00 0.  1.
       -3    1    3    3    0  502  0.98584206903E+03 -0.69250919490E+03  0.92987115290E+03  0.15218784253E+04  0.10100000352E+00 0. -1.
</event>
<event>
 5   0  0.3713394E-06  0.2499379E+04  0.7818609E-02  0.8403207E-01
        2   -1    0    0  501    0  0.00000000000E+00  0.00000000000E+00  0.15747652933E+04  0.15747652933E+04  0.25500000920E-02 0.  1.
       -2   -1    0    0    0  501  0.00000000000E+00  0.00000000000E+00 -0.99171861225E+03  0.99171861225E+03  0.25500000920E-02 0. -1.
    10030    2    1    2    0    0  0.00000000000E+00  0.00000000000E+00  0.58304668101E+03  0.25664839055E+04  0.24993791639E+04 0.  0.
        3    1    3    3  502    0  0.33424113861E+03  0.82959923672E+03 -0.60470547947E+03  0.10796391802E+04  0.10100000352E+00 0. -1.
       -3    1    3    3    0  502 -0.33424113861E+03 -0.82959923672E+03  0.11877521605E+04  0.14868447253E+04  0.10100000352E+00 0.  1.
</event>
<event>
 5   0  0.1501747E-06  0.2502240E+04  0.7818609E-02  0.8402188E-01
       -1   -1    0    0    0  501  0.00000000000E+00  0.00000000000E+00  0.14428227375E+04  0.14428227375E+04  0.50400001928E-02 0.  1.
        1   -1    0    0  501    0  0.00000000000E+00  0.00000000000E+00 -0.10848882623E+04  0.10848882623E+04  0.50400001928E-02 0. -1.
    10030    2    1    2    0    0  0.00000000000E+00  0.00000000000E+00  0.35793447513E+03  0.25277109998E+04  0.25022401583E+04 0.  0.
        2    1    3    3  502    0 -0.60787939908E+03 -0.64737804124E+03  0.10692359279E+04  0.13899212789E+04  0.25500000920E-02 0.  1.
       -2    1    3    3    0  502  0.60787939908E+03  0.64737804124E+03 -0.71130145279E+03  0.11377897208E+04  0.25500000920E-02 0. -1.
</event>
<event>
 5   0  0.1501747E-06  0.2502557E+04  0.7818609E-02  0.8402075E-01
        1   -1    0    0  501    0  0.00000000000E+00  0.00000000000E+00  0.15116031425E+04  0.15116031425E+04  0.50400001928E-02 0.  1.
       -1   -1    0    0    0  501  0.00000000000E+00  0.00000000000E+00 -0.10357862642E+04  0.10357862642E+04  0.50400001928E-02 0. -1.
    10030    2    1    2    0    0  0.00000000000E+00  0.00000000000E+00  0.47581687826E+03  0.25473894067E+04  0.25025569100E+04 0.  0.
        2    1    3    3  502    0 -0.12301078908E+03  0.87275017572E+03 -0.66618848247E+03  0.11048219846E+04  0.25500000920E-02 0. -1.
       -2    1    3    3    0  502  0.12301078908E+03 -0.87275017572E+03  0.11420053607E+04  0.14425674221E+04  0.25500000920E-02 0.  1.
</event>
<event>
 5   0  0.3814260E-06  0.2512815E+04  0.7818609E-02  0.8398434E-01
       -2   -1    0    0    0  501  0.00000000000E+00  0.00000000000E+00  0.14139124243E+04  0.14139124243E+04  0.25500000920E-02 0.  1.
        2   -1    0    0  501    0  0.00000000000E+00  0.00000000000E+00 -0.11164480940E+04  0.11164480940E+04  0.25500000920E-02 0. -1.
    10030    2    1    2    0    0  0.00000000000E+00  0.00000000000E+00  0.29746433038E+03  0.25303605183E+04  0.25128150200E+04 0.  0.
        5    1    3    3  502    0  0.46839423033E+03  0.11654342191E+04  0.11839428917E+03  0.12616137966E+04  0.46999998093E+01 0. -1.
       -5    1    3    3    0  502 -0.46839423033E+03 -0.11654342191E+04  0.17907004122E+03  0.12687467217E+04  0.46999998093E+01 0.  1.
</event>
<event>
 5   0  0.3971759E-06  0.2497581E+04  0.7818609E-02  0.8403848E-01
        2   -1    0    0  501    0  0.00000000000E+00  0.00000000000E+00  0.12058189548E+04  0.12058189548E+04  0.25500000920E-02 0.  1.
       -2   -1    0    0    0  501  0.00000000000E+00  0.00000000000E+00 -0.12932937155E+04  0.12932937155E+04  0.25500000920E-02 0. -1.
    10030    2    1    2    0    0  0.00000000000E+00  0.00000000000E+00 -0.87474760734E+02  0.24991126703E+04  0.24975812910E+04 0.  0.
        4    1    3    3  502    0 -0.22305198862E+03 -0.10321574378E+04 -0.71076091612E+03  0.12729037116E+04  0.12699999809E+01 0. -1.
       -4    1    3    3    0  502  0.22305198862E+03  0.10321574378E+04  0.62328615539E+03  0.12262089587E+04  0.12699999809E+01 0.  1.
</event>
<event>
 5   0  0.1501747E-06  0.2513143E+04  0.7818609E-02  0.8398318E-01
       -1   -1    0    0    0  501  0.00000000000E+00  0.00000000000E+00  0.94397876960E+03  0.94397876961E+03  0.50400001928E-02 0.  1.
        1   -1    0    0  501    0  0.00000000000E+00  0.00000000000E+00 -0.16726774229E+04  0.16726774229E+04  0.50400001928E-02 0. -1.
    10030    2    1    2    0    0  0.00000000000E+00  0.00000000000E+00 -0.72869865333E+03  0.26166561925E+04  0.25131430327E+04 0.  0.
        2    1    3    3  502    0 -0.52244758413E+02  0.94344405801E+03  0.49811435680E+03  0.10681451764E+04  0.25500000920E-02 0.  1.
       -2    1    3    3    0  502  0.52244758413E+02 -0.94344405801E+03 -0.12268130101E+04  0.15485110162E+04  0.25500000920E-02 0. -1.
</event>
<event>
 5   0  0.1574896E-06  0.2495998E+04  0.7818609E-02  0.8404413E-01
        1   -1    0    0  501    0  0.00000000000E+00  0.00000000000E+00  0.13447434652E+04  0.13447434652E+04  0.50400001928E-02 0. -1.
       -1   -1    0    0    0  501  0.00000000000E+00  0.00000000000E+00 -0.11582148518E+04  0.11582148518E+04  0.50400001928E-02 0.  1.
    10030    2    1    2    0    0  0.00000000000E+00  0.00000000000E+00  0.18652861338E+03  0.25029583171E+04  0.24959982799E+04 0.  0.
        3    1    3    3  502    0 -0.27909914883E+03  0.11162050820E+04  0.57802902157E+03  0.12876054054E+04  0.10100000352E+00 0. -1.
       -3    1    3    3    0  502  0.27909914883E+03 -0.11162050820E+04 -0.39150040818E+03  0.12153529117E+04  0.10100000352E+00 0.  1.
</event>
<event>
 5   0  0.1574896E-06  0.2493142E+04  0.7818609E-02  0.8405433E-01
        1   -1    0    0  501    0  0.00000000000E+00  0.00000000000E+00  0.17801339897E+04  0.17801339897E+04  0.50400001928E-02 0. -1.
       -1   -1    0    0    0  501  0.00000000000E+00  0.00000000000E+00 -0.87293359151E+03  0.87293359152E+03  0.50400001928E-02 0.  1.
    10030    2    1    2    0    0  0.00000000000E+00  0.00000000000E+00  0.90720039820E+03  0.26530675812E+04  0.24931415981E+04 0.  0.
        3    1    3    3  502    0  0.79799780001E+03 -0.43026016265E+03  0.13640608799E+04  0.16378603087E+04  0.10100000352E+00 0.  1.
       -3    1    3    3    0  502 -0.79799780001E+03  0.43026016265E+03 -0.45686048170E+03  0.10152072726E+04  0.10100000352E+00 0. -1.
</event>
<event>
 5   0  0.3924441E-06  0.2482194E+04  0.7818609E-02  0.8409357E-01
        2   -1    0    0  501    0  0.00000000000E+00  0.00000000000E+00  0.12793844161E+04  0.12793844161E+04  0.25500000920E-02 0.  1.
       -2   -1    0    0    0  501  0.00000000000E+00  0.00000000000E+00 -0.12039550704E+04  0.12039550704E+04  0.25500000920E-02 0. -1.
    10030    2    1    2    0    0  0.00000000000E+00  0.00000000000E+00  0.75429345733E+02  0.24833394865E+04  0.24821936708E+04 0.  0.
        2    1    3    3  502    0 -0.52311824222E+03 -0.57724596610E+03 -0.92888645779E+03  0.12123100479E+04  0.25500000920E-02 0. -1.
       -2    1    3    3    0  502  0.52311824222E+03  0.57724596610E+03  0.10043158035E+04  0.12710294387E+04  0.25500000920E-02 0.  1.
</event>
<event>
 5   0  0.1553604E-06  0.2493909E+04  0.7818609E-02  0.8405159E-01
        1   -1    0    0  501    0  0.00000000000E+00  0.00000000000E+00  0.10044629426E+04  0.10044629426E+04  0.50400001928E-02 0. -1.
       -1   -1    0    0    0  501  0.00000000000E+00  0.00000000000E+00 -0.15479865979E+04  0.15479865979E+04  0.50400001928E-02 0.  1.
    10030    2    1    2    0    0  0.00000000000E+00  0.00000000000E+00 -0.54352365534E+03  0.25524495405E+04  0.24939087179E+04 0.  0.
        1    1    3    3  502    0 -0.10812047096E+04 -0.31177382355E+03 -0.82167161996E+03  0.13933236495E+04  0.50400001928E-02 0.  1.
       -1    1    3    3    0  502  0.10812047096E+04  0.31177382355E+03  0.27814796462E+03  0.11591258911E+04  0.50400001928E-02 0. -1.
</event>
<event>
 5   0  0.3814260E-06  0.2498182E+04  0.7818609E-02  0.8403634E-01
        2   -1    0    0  501    0  0.00000000000E+00  0.00000000000E+00  0.14916671532E+04  0.14916671532E+04  0.25500000920E-02 0. -1.
       -2   -1    0    0    0  501  0.00000000000E+00  0.00000000000E+00 -0.10459625234E+04  0.10459625234E+04  0.25500000920E-02 0.  1.
    10030    2    1    2    0    0  0.00000000000E+00  0.00000000000E+00  0.44570462977E+03  0.25376296766E+04  0.24981816905E+04 0.  0.
        5    1    3    3  502    0 -0.84314005364E+03  0.54173905970E+03 -0.53446680760E+03  0.11358006943E+04  0.46999998093E+01 0.  1.
       -5    1    3    3    0  502  0.84314005364E+03 -0.54173905970E+03  0.98017143737E+03  0.14018289823E+04  0.46999998093E+01 0. -1.
</event>
<event>
 5   0  0.1574896E-06  0.2500103E+04  0.7818609E-02  0.8402949E-01
       -1   -1    0    0    0  501  0.00000000000E+00  0.00000000000E+00  0.11040286678E+04  0.11040286679E+04  0.50400001928E-02 0.  1.
        1   -1    0    0  501    0  0.00000000000E+00  0.00000000000E+00 -0.14153875318E+04  0.14153875318E+04  0.50400001928E-02 0. -1.
    10030    2    1    2    0    0  0.00000000000E+00  0.00000000000E+00 -0.31135886396E+03  0.25194161997E+04  0.25001027269E+04 0.  0.
        3    1    3    3  502    0 -0.12100784468E+04  0.22334043184E+03  0.66151976426E+02  0.12322933458E+04  0.10100000352E+00 0. -1.
       -3    1    3    3    0  502  0.12100784468E+04 -0.22334043184E+03 -0.37751084039E+03  0.12871228538E+04  0.10100000352E+00 0.  1.
</event>
<event>
 5   0  0.3924441E-06  0.2502690E+04  0.7818609E-02  0.8402028E-01
        2   -1    0    0  501    0  0.00000000000E+00  0.00000000000E+00  0.31539424501E+04  0.31539424501E+04  0.25500000920E-02 0.  1.
       -2   -1    0    0    0  501  0.00000000000E+00  0.00000000000E+00 -0.49647857729E+03  0.49647857730E+03  0.25500000920E-02 0. -1.
    10030    2    1    2    0    0  0.00000000000E+00  0.00000000000E+00  0.26574638728E+04  0.36504210274E+04  0.25026904407E+04 0.  0.
        2    1    3    3  502    0  0.72210301585E+03 -0.54118464717E+03  0.64242720298E+02  0.90467713299E+03  0.25500000920E-02 0. -1.
       -2    1    3    3    0  502 -0.72210301585E+03  0.54118464717E+03  0.25932211525E+04  0.27457438944E+04  0.25500000920E-02 0.  1.
</event>
<event>
 5   0  0.3814260E-06  0.2500532E+04  0.7818609E-02  0.8402796E-01
       -2   -1    0    0    0  501  0.00000000000E+00  0.00000000000E+00  0.10095733015E+04  0.10095733015E+04  0.25500000920E-02 0. -1.
        2   -1    0    0  501    0  0.00000000000E+00  0.00000000000E+00 -0.15483427981E+04  0.15483427981E+04  0.25500000920E-02 0.  1.
    10030    2    1    2    0    0  0.00000000000E+00  0.00000000000E+00 -0.53876949667E+03  0.25579160996E+04  0.25005323838E+04 0.  0.
        5    1    3    3  502    0  0.93438746879E+03  0.52463238242E+02 -0.11174524031E+04  0.14575850906E+04  0.46999998093E+01 0.  1.
       -5    1    3    3    0  502 -0.93438746879E+03 -0.52463238242E+02  0.57868290643E+03  0.11003310090E+04  0.46999998093E+01 0. -1.
</event>
<event>
 5   0  0.1553604E-06  0.2500182E+04  0.7818609E-02  0.8402921E-01
       -1   -1    0    0    0  501  0.00000000000E+00  0.00000000000E+00  0.83362431875E+03  0.83362431876E+03  0.50400001928E-02 0.  1.
        1   -1    0    0  501    0  0.00000000000E+00  0.00000000000E+00 -0.18746182734E+04  0.18746182734E+04  0.50400001928E-02 0. -1.
    10030    2    1    2    0    0  0.00000000000E+00  0.00000000000E+00 -0.10409939547E+04  0.27082425922E+04  0.25001818983E+04 0.  0.
        1    1    3    3  502    0  0.21816694822E+03  0.50061952493E+03 -0.17385808803E+04  0.18223282370E+04  0.50400001928E-02 0. -1.
       -1    1    3    3    0  502 -0.21816694822E+03 -0.50061952493E+03  0.69758692558E+03  0.88591435523E+03  0.50400001928E-02 0.  1.
</event>
<event>
 5   0  0.1519145E-06  0.2471748E+04  0.7818609E-02  0.8413120E-01
        1   -1    0    0  501    0  0.00000000000E+00  0.00000000000E+00  0.66718272967E+03  0.66718272969E+03  0.50400001928E-02 0.  1.
       -1   -1    0    0    0  501  0.00000000000E+00  0.00000000000E+00 -0.22893049191E+04  0.22893049191E+04  0.50400001928E-02 0. -1.
    10030    2    1    2    0    0  0.00000000000E+00  0.00000000000E+00 -0.16221221894E+04  0.29564876487E+04  0.24717481304E+04 0.  0.
        4    1    3    3  502    0 -0.50463908820E+03 -0.38309693788E+03 -0.20802702180E+04  0.21746148316E+04  0.12699999809E+01 0. -1.
       -4    1    3    3    0  502  0.50463908820E+03  0.38309693788E+03  0.45814802860E+03  0.78187281713E+03  0.12699999809E+01 0.  1.
</event>
<event>
 5   0  0.3713394E-06  0.2499869E+04  0.7818609E-02  0.8403032E-01
       -2   -1    0    0    0  501  0.00000000000E+00  0.00000000000E+00  0.12072423148E+04  0.12072423148E+04  0.25500000920E-02 0. -1.
        2   -1    0    0  501    0  0.00000000000E+00  0.00000000000E+00 -0.12941361748E+04  0.12941361748E+04  0.25500000920E-02 0.  1.
    10030    2    1    2    0    0  0.00000000000E+00  0.00000000000E+00 -0.86893860023E+02  0.25013784896E+04  0.24998687576E+04 0.  0.
        3    1    3    3  502    0  0.16645365994E+03  0.70950104076E+03  0.97266494797E+03  0.12153911547E+04  0.10100000352E+00 0. -1.
       -3    1    3    3    0  502 -0.16645365994E+03 -0.70950104076E+03 -0.10595588080E+04  0.12859873349E+04  0.10100000352E+00 0.  1.
</event>
<event>
 5   0  0.1541852E-06  0.2530588E+04  0.7818609E-02  0.8392169E-01
        1   -1    0    0  501    0  0.00000000000E+00  0.00000000000E+00  0.15440692001E+04  0.15440692001E+04  0.50400001928E-02 0.  1.
       -1   -1    0    0    0  501  0.00000000000E+00  0.00000000000E+00 -0.10368502439E+04  0.10368502439E+04  0.50400001928E-02 0. -1.
    10030    2    1    2    0    0  0.00000000000E+00  0.00000000000E+00  0.50721895625E+03  0.25809194440E+04  0.25305876999E+04 0.  0.
        5    1    3    3  502    0 -0.11249060487E+04  0.54807352797E+03  0.44481690760E+03  0.13280370408E+04  0.46999998093E+01 0.  1.
       -5    1    3    3    0  502  0.11249060487E+04 -0.54807352797E+03  0.62402048652E+02  0.12528824032E+04  0.46999998093E+01 0. -1.
</event>
<event>
 5   0  0.3808293E-06  0.2499135E+04  0.7818609E-02  0.8403294E-01
       -2   -1    0    0    0  501  0.00000000000E+00  0.00000000000E+00  0.13169393543E+04  0.13169393543E+04  0.25500000920E-02 0.  1.
        2   -1    0    0  501    0  0.00000000000E+00  0.00000000000E+00 -0.11856424843E+04  0.11856424843E+04  0.25500000920E-02 0. -1.
    10030    2    1    2    0    0  0.00000000000E+00  0.00000000000E+00  0.13129686998E+03  0.25025818386E+04  0.24991352486E+04 0.  0.
        1    1    3    3  502    0  0.19385821012E+03  0.95698374055E+03 -0.71518354209E+03  0.12103249085E+04  0.50400001928E-02 0. -1.
       -1    1    3    3    0  502 -0.19385821012E+03 -0.95698374055E+03  0.84648041206E+03  0.12922569301E+04  0.50400001928E-02 0.  1.
</event>
<event>
 5   0  0.1553604E-06  0.2500687E+04  0.7818609E-02  0.8402741E-01
        1   -1    0    0  501    0  0.00000000000E+00  0.00000000000E+00  0.10098554309E+04  0.10098554309E+04  0.50400001928E-02 0. -1.
       -1   -1    0    0    0  501  0.00000000000E+00  0.00000000000E+00 -0.15481015331E+04  0.15481015331E+04  0.50400001928E-02 0.  1.
    10030    2    1    2    0    0  0.00000000000E+00  0.00000000000E+00 -0.53824610219E+03  0.25579569640E+04  0.25006868983E+04 0.  0.
        1    1    3    3  502    0 -0.77652904221E+03 -0.52694687434E+03 -0.11142951856E+04  0.14568198662E+04  0.50400001928E-02 0.  1.
       -1    1    3    3    0  502  0.77652904221E+03  0.52694687434E+03  0.57604908341E+03  0.11011370979E+04  0.50400001928E-02 0. -1.
</event>
<event>
 5   0  0.3924441E-06  0.2504626E+04  0.7818609E-02  0.8401339E-01
       -2   -1    0    0    0  501  0.00000000000E+00  0.00000000000E+00  0.83924314086E+03  0.83924314086E+03  0.25500000920E-02 0.  1.
        2   -1    0    0  501    0  0.00000000000E+00  0.00000000000E+00 -0.18686927281E+04  0.18686927281E+04  0.25500000920E-02 0. -1.
    10030    2    1    2    0    0  0.00000000000E+00  0.00000000000E+00 -0.10294495872E+04  0.27079358690E+04  0.25046257640E+04 0.  0.
        2    1    3    3  502    0  0.29758211080E+02 -0.11484903484E+04 -0.10535486068E+04  0.15588073321E+04  0.25500000920E-02 0.  1.
       -2    1    3    3    0  502 -0.29758211080E+02  0.11484903484E+04  0.24099019553E+02  0.11491285369E+04  0.25500000920E-02 0. -1.
</event>
<event>
 5   0  0.1574896E-06  0.2498948E+04  0.7818609E-02  0.8403360E-01
       -1   -1    0    0    0  501  0.00000000000E+00  0.00000000000E+00  0.12477882126E+04  0.12477882126E+04  0.50400001928E-02 0.  1.
        1   -1    0    0  501    0  0.00000000000E+00  0.00000000000E+00 -0.12511625569E+04  0.12511625569E+04  0.50400001928E-02 0. -1.
    10030    2    1    2    0    0  0.00000000000E+00  0.00000000000E+00 -0.33743442957E+01  0.24989507695E+04  0.24989484913E+04 0.  0.
        3    1    3    3  502    0  0.11382462241E+04 -0.43701076311E+03 -0.27482293079E+03  0.12498442012E+04  0.10100000352E+00 0. -1.
       -3    1    3    3    0  502 -0.11382462241E+04  0.43701076311E+03  0.27144858650E+03  0.12491065683E+04  0.10100000352E+00 0.  1.
</event>
<event>
 5   0  0.3971759E-06  0.2494931E+04  0.7818609E-02  0.8404794E-01
        2   -1    0    0  501    0  0.00000000000E+00  0.00000000000E+00  0.21619798343E+04  0.21619798343E+04  0.25500000920E-02 0.  1.
       -2   -1    0    0    0  501  0.00000000000E+00  0.00000000000E+00 -0.71978934894E+03  0.71978934895E+03  0.25500000920E-02 0. -1.
    10030    2    1    2    0    0  0.00000000000E+00  0.00000000000E+00  0.14421904853E+04  0.28817691832E+04  0.24949309067E+04 0.  0.
        4    1    3    3  502    0 -0.31735215258E+03  0.12189622686E+02 -0.67231195295E+03  0.74354956165E+03  0.12699999809E+01 0. -1.
       -4    1    3    3    0  502  0.31735215258E+03 -0.12189622686E+02  0.21145024383E+04  0.21382196216E+04  0.12699999809E+01 0.  1.
</event>
<event>
 5   0  0.3808293E-06  0.2497024E+04  0.7818609E-02  0.8404046E-01
        2   -1    0    0  501    0  0.00000000000E+00  0.00000000000E+00  0.12030493761E+04  0.12030493761E+04  0.25500000920E-02 0.  1.
       -2   -1    0    0    0  501  0.00000000000E+00  0.00000000000E+00 -0.12956929257E+04  0.12956929257E+04  0.25500000920E-02 0. -1.
    10030    2    1    2    0    0  0.00000000000E+00  0.00000000000E+00 -0.92643549536E+02  0.24987423018E+04  0.24970242817E+04 0.  0.
        1    1    3    3  502    0 -0.35775805819E+03  0.26667198944E+03 -0.12131762736E+04  0.12926335323E+04  0.50400001928E-02 0. -1.
       -1    1    3    3    0  502  0.35775805819E+03 -0.26667198944E+03  0.11205327240E+04  0.12061087695E+04  0.50400001928E-02 0.  1.
</event>
<event>
 5   0  0.1574896E-06  0.2500426E+04  0.7818609E-02  0.8402834E-01
       -1   -1    0    0    0  501  0.00000000000E+00  0.00000000000E+00  0.24212394740E+04  0.24212394740E+04  0.50400001928E-02 0. -1.
        1   -1    0    0  501    0  0.00000000000E+00  0.00000000000E+00 -0.64555073492E+03  0.64555073494E+03  0.50400001928E-02 0.  1.
    10030    2    1    2    0    0  0.00000000000E+00  0.00000000000E+00  0.17756887390E+04  0.30667902089E+04  0.25004263011E+04 0.  0.
        3    1    3    3  502    0  0.60926751097E+03  0.84909596828E+03  0.46222807521E+02  0.10460914976E+04  0.10100000352E+00 0.  1.
       -3    1    3    3    0  502 -0.60926751097E+03 -0.84909596828E+03  0.17294659315E+04  0.20206987113E+04  0.10100000352E+00 0. -1.
</event>
<event>
 5   0  0.1541852E-06  0.2499530E+04  0.7818609E-02  0.8403153E-01
       -1   -1    0    0    0  501  0.00000000000E+00  0.00000000000E+00  0.62863216521E+03  0.62863216523E+03  0.50400001928E-02 0.  1.
        1   -1    0    0  501    0  0.00000000000E+00  0.00000000000E+00 -0.24846200722E+04  0.24846200722E+04  0.50400001928E-02 0. -1.
    10030    2    1    2    0    0  0.00000000000E+00  0.00000000000E+00 -0.18559879070E+04  0.31132522374E+04  0.24995296324E+04 0.  0.
        5    1    3    3  502    0 -0.16321178761E+03  0.70939803857E+03 -0.21933047158E+04  0.23109503091E+04  0.46999998093E+01 0. -1.
       -5    1    3    3    0  502  0.16321178761E+03 -0.70939803857E+03  0.33731680880E+03  0.80230192835E+03  0.46999998093E+01 0.  1.
</event>
<event>
 5   0  0.1574896E-06  0.2498644E+04  0.7818609E-02  0.8403469E-01
       -1   -1    0    0    0  501  0.00000000000E+00  0.00000000000E+00  0.13279409138E+04  0.13279409138E+04  0.50400001928E-02 0. -1.
        1   -1    0    0  501    0  0.00000000000E+00  0.00000000000E+00 -0.11753574716E+04  0.11753574716E+04  0.50400001928E-02 0.  1.
    10030    2    1    2    0    0  0.00000000000E+00  0.00000000000E+00  0.15258344219E+03  0.25032983854E+04  0.24986438521E+04 0.  0.
        3    1    3    3  502    0 -0.27643189028E+03  0.29238310042E+03 -0.11086637509E+04  0.11794226512E+04  0.10100000352E+00 0.  1.
       -3    1    3    3    0  502  0.27643189028E+03 -0.29238310042E+03  0.12612471931E+04  0.13238757342E+04  0.10100000352E+00 0. -1.
</event>
<event>
 5   0  0.1287375E-06  0.2501710E+04  0.7818609E-02  0.8402377E-01
        3   -1    0    0  501    0  0.00000000000E+00  0.00000000000E+00  0.12859078429E+04  0.12859078469E+04  0.10100000352E+00 0. -1.
       -3   -1    0    0    0  501  0.00000000000E+00  0.00000000000E+00 -0.12167579101E+04  0.12167579143E+04  0.10100000352E+00 0.  1.
    10030    2    1    2    0    0  0.00000000000E+00  0.00000000000E+00  0.69149932792E+02  0.25026657612E+04  0.25017102549E+04 0.  0.
        2    1    3    3  502    0 -0.74991089215E+03  0.31655518020E+03 -0.91555882673E+03  0.12250801988E+04  0.25500000920E-02 0.  1.
       -2    1    3    3    0  502  0.74991089215E+03 -0.31655518020E+03  0.98470875952E+03  0.12775855624E+04  0.25500000920E-02 0. -1.
</event>
<event>
 5   0  0.3924441E-06  0.2499096E+04  0.7818609E-02  0.8403308E-01
       -2   -1    0    0    0  501  0.00000000000E+00  0.00000000000E+00  0.70742351706E+03  0.70742351706E+03  0.25500000920E-02 0. -1.
        2   -1    0    0  501    0  0.00000000000E+00  0.00000000000E+00 -0.22071221238E+04  0.22071221238E+04  0.25500000920E-02 0.  1.
    10030    2    1    2    0    0  0.00000000000E+00  0.00000000000E+00 -0.14996986068E+04  0.29145456409E+04  0.24990959129E+04 0.  0.
        2    1    3    3  502    0  0.30323103990E+03  0.57699420613E+03 -0.19931392201E+04  0.20970158149E+04  0.25500000920E-02 0.  1.
       -2    1    3    3    0  502 -0.30323103990E+03 -0.57699420613E+03  0.49344061331E+03  0.81752982596E+03  0.25500000920E-02 0. -1.
</event>
<event>
 5   0  0.1574896E-06  0.2516052E+04  0.7818609E-02  0.8397289E-01
        1   -1    0    0  501    0  0.00000000000E+00  0.00000000000E+00  0.19361101974E+04  0.19361101974E+04  0.50400001928E-02 0.  1.
       -1   -1    0    0    0  501  0.00000000000E+00  0.00000000000E+00 -0.81742703917E+03  0.81742703918E+03  0.50400001928E-02 0. -1.
    10030    2    1    2    0    0  0.00000000000E+00  0.00000000000E+00  0.11186831582E+04  0.27535372366E+04  0.25160515306E+04 0.  0.
        3    1    3    3  502    0 -0.63122170725E+03 -0.10325295246E+04  0.18329418024E+03  0.12239913519E+04  0.10100000352E+00 0. -1.
       -3    1    3    3    0  502  0.63122170725E+03  0.10325295246E+04  0.93538897800E+03  0.15295458847E+04  0.10100000352E+00 0.  1.
</event>
<event>
 5   0  0.3808293E-06  0.2498550E+04  0.7818609E-02  0.8403502E-01
        2   -1    0    0  501    0  0.00000000000E+00  0.00000000000E+00  0.26774823913E+04  0.26774823913E+04  0.25500000920E-02 0. -1.
       -2   -1    0    0    0  501  0.00000000000E+00  0.00000000000E+00 -0.58289383551E+03  0.58289383552E+03  0.25500000920E-02 0.  1.
    10030    2    1    2    0    0  0.00000000000E+00  0.00000000000E+00  0.20945885558E+04  0.32603762268E+04  0.24985499640E+04 0.  0.
        1    1    3    3  502    0 -0.55655191273E+03  0.16646246554E+03 -0.39592865421E+03  0.70300731379E+03  0.50400001928E-02 0.  1.
       -1    1    3    3    0  502  0.55655191273E+03 -0.16646246554E+03  0.24905172100E+04  0.25573689131E+04  0.50400001928E-02 0. -1.
</event>
<event>
 5   0  0.3971759E-06  0.2501081E+04  0.7818609E-02  0.8402600E-01
       -2   -1    0    0    0  501  0.00000000000E+00  0.00000000000E+00  0.10323466376E+04  0.10323466376E+04  0.25500000920E-02 0. -1.
        2   -1    0    0  501    0  0.00000000000E+00  0.00000000000E+00 -0.15148517931E+04  0.15148517932E+04  0.25500000920E-02 0.  1.
    10030    2    1    2    0    0  0.00000000000E+00  0.00000000000E+00 -0.48250515558E+03  0.25471984307E+04  0.25010814901E+04 0.  0.
        4    1    3    3  502    0 -0.79434044149E+03 -0.50975582036E+03  0.59425391225E+03  0.11153327120E+04  0.12699999809E+01 0. -1.
       -4    1    3    3    0  502  0.79434044149E+03  0.50975582036E+03 -0.10767590678E+04  0.14318657187E+04  0.12699999809E+01 0.  1.
</event>
<event>
 5   0  0.1541852E-06  0.2464390E+04  0.7818609E-02  0.8415783E-01
        1   -1    0    0  501    0  0.00000000000E+00  0.00000000000E+00  0.19404172581E+04  0.19404172581E+04  0.50400001928E-02 0.  1.
       -1   -1    0    0    0  501  0.00000000000E+00  0.00000000000E+00 -0.78246276438E+03  0.78246276439E+03  0.50400001928E-02 0. -1.
    10030    2    1    2    0    0  0.00000000000E+00  0.00000000000E+00  0.11579544937E+04  0.27228800225E+04  0.24643897840E+04 0.  0.
        5    1    3    3  502    0  0.26599644050E+02  0.11396157899E+04  0.62093531422E+02  0.11416257645E+04  0.46999998093E+01 0. -1.
       -5    1    3    3    0  502 -0.26599644050E+02 -0.11396157899E+04  0.10958609623E+04  0.15812542580E+04  0.46999998093E+01 0.  1.
</event>
<event>
 5   0  0.3713394E-06  0.2499836E+04  0.7818609E-02  0.8403044E-01
        2   -1    0    0  501    0  0.00000000000E+00  0.00000000000E+00  0.13387591565E+04  0.13387591565E+04  0.25500000920E-02 0.  1.
       -2   -1    0    0    0  501  0.00000000000E+00  0.00000000000E+00 -0.11669720316E+04  0.11669720316E+04  0.25500000920E-02 0. -1.
    10030    2    1    2    0    0  0.00000000000E+00  0.00000000000E+00  0.17178712491E+03  0.25057311882E+04  0.24998355888E+04 0.  0.
        3    1    3    3  502    0  0.25467912167E+03 -0.12115353753E+04  0.25838969166E+03  0.12646915291E+04  0.10100000352E+00 0.  1.
       -3    1    3    3    0  502 -0.25467912167E+03  0.12115353753E+04 -0.86602566744E+02  0.12410396591E+04  0.10100000352E+00 0. -1.
</event>
<event>
 5   0  0.3713394E-06  0.2503042E+04  0.7818609E-02  0.8401903E-01
        2   -1    0    0  501    0  0.00000000000E+00  0.00000000000E+00  0.20287188662E+04  0.20287188662E+04  0.25500000920E-02 0.  1.
       -2   -1    0    0    0  501  0.00000000000E+00  0.00000000000E+00 -0.77206603938E+03  0.77206603938E+03  0.25500000920E-02 0. -1.
    10030    2    1    2    0    0  0.00000000000E+00  0.00000000000E+00  0.12566528268E+04  0.28007849056E+04  0.25030421011E+04 0.  0.
        3    1    3    3  502    0  0.10751368915E+04 -0.63185276875E+03  0.74646824822E+03  0.14534001901E+04  0.10100000352E+00 0. -1.
       -3    1    3    3    0  502 -0.10751368915E+04  0.63185276875E+03  0.51018457858E+03  0.13473847154E+04  0.10100000352E+00 0.  1.
</event>
<event>
 5   0  0.1501747E-06  0.2503142E+04  0.7818609E-02  0.8401867E-01
        1   -1    0    0  501    0  0.00000000000E+00  0.00000000000E+00  0.18134051723E+04  0.18134051723E+04  0.50400001928E-02 0.  1.
       -1   -1    0    0    0  501  0.00000000000E+00  0.00000000000E+00 -0.86380609329E+03  0.86380609331E+03  0.50400001928E-02 0. -1.
    10030    2    1    2    0    0  0.00000000000E+00  0.00000000000E+00  0.94959907904E+03  0.26772112656E+04  0.25031423751E+04 0.  0.
        2    1    3    3  502    0  0.86766111244E+03  0.85939241449E+03  0.18181715747E+03  0.12346856308E+04  0.25500000920E-02 0. -1.
       -2    1    3    3    0  502 -0.86766111244E+03 -0.85939241449E+03  0.76778192156E+03  0.14425256349E+04  0.25500000920E-02 0.  1.
</event>
<event>
 5   0  0.1541852E-06  0.2502247E+04  0.7818609E-02  0.8402186E-01
       -1   -1    0    0    0  501  0.00000000000E+00  0.00000000000E+00  0.13887611775E+04  0.13887611775E+04  0.50400001928E-02 0. -1.
        1   -1    0    0  501    0  0.00000000000E+00  0.00000000000E+00 -0.11271265633E+04  0.11271265633E+04  0.50400001928E-02 0.  1.
    10030    2    1    2    0    0  0.00000000000E+00  0.00000000000E+00  0.26163461418E+03  0.25158877408E+04  0.25022466810E+04 0.  0.
        5    1    3    3  502    0 -0.50103819134E+03 -0.42657662779E+03  0.12007049633E+04  0.13692046550E+04  0.46999998093E+01 0. -1.
       -5    1    3    3    0  502  0.50103819134E+03  0.42657662779E+03 -0.93907034908E+03  0.11466830857E+04  0.46999998093E+01 0.  1.
</event>
<event>
 5   0  0.1553604E-06  0.2540894E+04  0.7818609E-02  0.8388560E-01
       -1   -1    0    0    0  501  0.00000000000E+00  0.00000000000E+00  0.96360420160E+03  0.96360420162E+03  0.50400001928E-02 0. -1.
        1   -1    0    0  501    0  0.00000000000E+00  0.00000000000E+00 -0.16749985821E+04  0.16749985822E+04  0.50400001928E-02 0.  1.
    10030    2    1    2    0    0  0.00000000000E+00  0.00000000000E+00 -0.71139438055E+03  0.26386027838E+04  0.25408940721E+04 0.  0.
        1    1    3    3  502    0 -0.73793729381E+03  0.85030317234E+03  0.25555366905E+03  0.11545018892E+04  0.50400001928E-02 0. -1.
       -1    1    3    3    0  502  0.73793729381E+03 -0.85030317234E+03 -0.96694804960E+03  0.14841008945E+04  0.50400001928E-02 0.  1.
</event>
<event>
 5   0  0.3814260E-06  0.2500603E+04  0.7818609E-02  0.8402771E-01
        2   -1    0    0  501    0  0.00000000000E+00  0.00000000000E+00  0.13399206662E+04  0.13399206662E+04  0.25500000920E-02 0.  1.
       -2   -1    0    0    0  501  0.00000000000E+00  0.00000000000E+00 -0.11666766061E+04  0.11666766061E+04  0.25500000920E-02 0. -1.
    10030    2    1    2    0    0  0.00000000000E+00  0.00000000000E+00  0.17324406004E+03  0.25065972723E+04  0.25006032034E+04 0.  0.
        5    1    3    3  502    0  0.22882723521E+03 -0.12287796956E+04  0.11785053989E+03  0.12554570019E+04  0.46999998093E+01 0.  1.
       -5    1    3    3    0  502 -0.22882723521E+03  0.12287796956E+04  0.55393520154E+02  0.12511402703E+04  0.46999998093E+01 0. -1.
</event>
<event>
 5   0  0.3713394E-06  0.2501536E+04  0.7818609E-02  0.8402438E-01
       -2   -1    0    0    0  501  0.00000000000E+00  0.00000000000E+00  0.14203404601E+04  0.14203404601E+04  0.25500000920E-02 0.  1.
        2   -1    0    0  501    0  0.00000000000E+00  0.00000000000E+00 -0.11014406759E+04  0.11014406759E+04  0.25500000920E-02 0. -1.
    10030    2    1    2    0    0  0.00000000000E+00  0.00000000000E+00  0.31889978421E+03  0.25217811361E+04  0.25015361332E+04 0.  0.
        3    1    3    3  502    0 -0.11984838441E+04  0.54678215068E+02 -0.19706105565E+03  0.12158068521E+04  0.10100000352E+00 0.  1.
       -3    1    3    3    0  502  0.11984838441E+04 -0.54678215068E+02  0.51596083986E+03  0.13059742839E+04  0.10100000352E+00 0. -1.
</event>
<event>
 5   0  0.3971759E-06  0.2497899E+04  0.7818609E-02  0.8403734E-01
       -2   -1    0    0    0  501  0.00000000000E+00  0.00000000000E+00  0.11267520935E+04  0.11267520935E+04  0.25500000920E-02 0. -1.
        2   -1    0    0  501    0  0.00000000000E+00  0.00000000000E+00 -0.13843992560E+04  0.13843992560E+04  0.25500000920E-02 0.  1.
    10030    2    1    2    0    0  0.00000000000E+00  0.00000000000E+00 -0.25764716254E+03  0.25111513495E+04  0.24978989250E+04 0.  0.
        4    1    3    3  502    0  0.74228384006E+03 -0.78612158214E+03  0.49971400740E+03  0.11910869587E+04  0.12699999809E+01 0. -1.
       -4    1    3    3    0  502 -0.74228384006E+03  0.78612158214E+03 -0.75736116993E+03  0.13200643908E+04  0.12699999809E+01 0.  1.
</event>
<event>
 5   0  0.3713394E-06  0.2503562E+04  0.7818609E-02  0.8401718E-01
       -2   -1    0    0    0  501  0.00000000000E+00  0.00000000000E+00  0.70197479358E+03  0.70197479359E+03  0.25500000920E-02 0. -1.
        2   -1    0    0  501    0  0.00000000000E+00  0.00000000000E+00 -0.22322098915E+04  0.22322098915E+04  0.25500000920E-02 0.  1.
    10030    2    1    2    0    0  0.00000000000E+00  0.00000000000E+00 -0.15302350979E+04  0.29341846851E+04  0.25035615254E+04 0.  0.
        3    1    3    3  502    0 -0.36725726421E+03 -0.11609901526E+04 -0.11051584426E+04  0.16444303652E+04  0.10100000352E+00 0. -1.
       -3    1    3    3    0  502  0.36725726421E+03  0.11609901526E+04 -0.42507665529E+03  0.12897543199E+04  0.10100000352E+00 0.  1.
</event>
<event>
 5   0  0.1541852E-06  0.2503406E+04  0.7818609E-02  0.8401773E-01
        1   -1    0    0  501    0  0.00000000000E+00  0.00000000000E+00  0.18547090733E+04  0.18547090733E+04  0.50400001928E-02 0. -1.
       -1   -1    0    0    0  501  0.00000000000E+00  0.00000000000E+00 -0.84474730066E+03  0.84474730068E+03  0.50400001928E-02 0.  1.
    10030    2    1    2    0    0  0.00000000000E+00  0.00000000000E+00  0.10099617726E+04  0.26994563740E+04  0.25034060663E+04 0.  0.
        5    1    3    3  502    0  0.88446201596E+03 -0.28377215147E+03 -0.39973545404E+03  0.10112419171E+04  0.46999998093E+01 0.  1.
       -5    1    3    3    0  502 -0.88446201596E+03  0.28377215147E+03  0.14096972267E+04  0.16882144569E+04  0.46999998093E+01 0. -1.
</event>
<event>
 5   0  0.1519145E-06  0.2491595E+04  0.7818609E-02  0.8405986E-01
       -1   -1    0    0    0  501  0.00000000000E+00  0.00000000000E+00  0.31156606121E+04  0.31156606121E+04  0.50400001928E-02 0. -1.
        1   -1    0    0  501    0  0.00000000000E+00  0.00000000000E+00 -0.49813221123E+03  0.49813221126E+03  0.50400001928E-02 0.  1.
    10030    2    1    2    0    0  0.00000000000E+00  0.00000000000E+00  0.26175284008E+04  0.36137928233E+04  0.24915945980E+04 0.  0.
        4    1    3    3  502    0  0.18132592666E+03  0.10114946519E+03 -0.47285939015E+03  0.51643772300E+03  0.12699999809E+01 0.  1.
       -4    1    3    3    0  502 -0.18132592666E+03 -0.10114946519E+03  0.30903877910E+04  0.30973551003E+04  0.12699999809E+01 0. -1.
</event>
<event>
 5   0  0.1541852E-06  0.2512209E+04  0.7818609E-02  0.8398649E-01
       -1   -1    0    0    0  501  0.00000000000E+00  0.00000000000E+00  0.99737441792E+03  0.99737441793E+03  0.50400001928E-02 0.  1.
        1   -1    0    0  501    0  0.00000000000E+00  0.00000000000E+00 -0.15819524819E+04  0.15819524819E+04  0.50400001928E-02 0. -1.
    10030    2    1    2    0    0  0.00000000000E+00  0.00000000000E+00 -0.58457806398E+03  0.25793268998E+04  0.25122093351E+04 0.  0.
        5    1    3    3  502    0 -0.72194727427E+03  0.10098853293E+04 -0.48898123674E+03  0.13342417266E+04  0.46999998093E+01 0. -1.
       -5    1    3    3    0  502  0.72194727427E+03 -0.10098853293E+04 -0.95596827240E+02  0.12450851732E+04  0.46999998093E+01 0.  1.
</event>
<event>
 5   0  0.1519145E-06  0.2529477E+04  0.7818609E-02  0.8392559E-01
        1   -1    0    0  501    0  0.00000000000E+00  0.00000000000E+00  0.18788062946E+04  0.18788062946E+04  0.50400001928E-02 0. -1.
       -1   -1    0    0    0  501  0.00000000000E+00  0.00000000000E+00 -0.85137238635E+03  0.85137238637E+03  0.50400001928E-02 0.  1.
    10030    2    1    2    0    0  0.00000000000E+00  0.00000000000E+00  0.10274339083E+04  0.27301786810E+04  0.25294772571E+04 0.  0.
        4    1    3    3  502    0  0.11276845615E+04 -0.18593367656E+03 -0.70844175226E+02  0.11451044985E+04  0.12699999809E+01 0.  1.
       -4    1    3    3    0  502 -0.11276845615E+04  0.18593367656E+03  0.10982780835E+04  0.15850741825E+04  0.12699999809E+01 0. -1.
</event>
<event>
 5   0  0.3713394E-06  0.2499957E+04  0.7818609E-02  0.8403001E-01
       -2   -1    0    0    0  501  0.00000000000E+00  0.00000000000E+00  0.10075333032E+04  0.10075333032E+04  0.25500000920E-02 0. -1.
        2   -1    0    0  501    0  0.00000000000E+00  0.00000000000E+00 -0.15507642966E+04  0.15507642966E+04  0.25500000920E-02 0.  1.
    10030    2    1    2    0    0  0.00000000000E+00  0.00000000000E+00 -0.54323099339E+03  0.25582975998E+04  0.24999573390E+04 0.  0.
        3    1    3    3  502    0  0.75007066360E+03 -0.95512771241E+03 -0.57444654313E+03  0.13434521906E+04  0.10100000352E+00 0.  1.
       -3    1    3    3    0  502 -0.75007066360E+03  0.95512771241E+03  0.31215549740E+02  0.12148454092E+04  0.10100000352E+00 0. -1.
</event>
<event>
 5   0  0.1574896E-06  0.2500961E+04  0.7818609E-02  0.8402643E-01
       -1   -1    0    0    0  501  0.00000000000E+00  0.00000000000E+00  0.14303896341E+04  0.14303896341E+04  0.50400001928E-02 0. -1.
        1   -1    0    0  501    0  0.00000000000E+00  0.00000000000E+00 -0.10931994680E+04  0.10931994680E+04  0.50400001928E-02 0.  1.
    10030    2    1    2    0    0  0.00000000000E+00  0.00000000000E+00  0.33719016612E+03  0.25235891021E+04  0.25009607650E+04 0.  0.
        3    1    3    3  502    0 -0.59482534472E+03 -0.62368487360E+03  0.10828287296E+04  0.13839501725E+04  0.10100000352E+00 0. -1.
       -3    1    3    3    0  502  0.59482534472E+03  0.62368487360E+03 -0.74563856344E+03  0.11396389296E+04  0.10100000352E+00 0.  1.
</event>
<event>
 5   0  0.1287375E-06  0.2545398E+04  0.7818609E-02  0.8386988E-01
       -4   -1    0    0    0  501  0.00000000000E+00  0.00000000000E+00  0.13192724862E+04  0.13192730975E+04  0.12699999809E+01 0. -1.
        4   -1    0    0  501    0  0.00000000000E+00  0.00000000000E+00 -0.12277685575E+04  0.12277692143E+04  0.12699999809E+01 0.  1.
    10030    2    1    2    0    0  0.00000000000E+00  0.00000000000E+00  0.91503928706E+02  0.25470423118E+04  0.25453981160E+04 0.  0.
        5    1    3    3  502    0 -0.15393595631E+03 -0.77147459683E+03 -0.95532990557E+03  0.12375567262E+04  0.46999998093E+01 0.  1.
       -5    1    3    3    0  502  0.15393595631E+03  0.77147459683E+03  0.10468338343E+04  0.13094855856E+04  0.46999998093E+01 0. -1.
</event>
<event>
 5   0  0.3713394E-06  0.2500898E+04  0.7818609E-02  0.8402666E-01
       -2   -1    0    0    0  501  0.00000000000E+00  0.00000000000E+00  0.13084362750E+04  0.13084362750E+04  0.25500000920E-02 0. -1.
        2   -1    0    0  501    0  0.00000000000E+00  0.00000000000E+00 -0.11950311931E+04  0.11950311931E+04  0.25500000920E-02 0.  1.
    10030    2    1    2    0    0  0.00000000000E+00  0.00000000000E+00  0.11340508195E+03  0.25034674681E+04  0.25008975692E+04 0.  0.
        3    1    3    3  502    0  0.32010012905E+03 -0.55461837873E+03 -0.10184386125E+04  0.12030306963E+04  0.10100000352E+00 0.  1.
       -3    1    3    3    0  502 -0.32010012905E+03  0.55461837873E+03  0.11318436945E+04  0.13004367718E+04  0.10100000352E+00 0. -1.
</event>
<event>
 5   0  0.1574896E-06  0.2449571E+04  0.7818609E-02  0.8421175E-01
        1   -1    0    0  501    0  0.00000000000E+00  0.00000000000E+00  0.11389345699E+04  0.11389345699E+04  0.50400001928E-02 0.  1.
       -1   -1    0    0    0  501  0.00000000000E+00  0.00000000000E+00 -0.13171080218E+04  0.13171080218E+04  0.50400001928E-02 0. -1.
    10030    2    1    2    0    0  0.00000000000E+00  0.00000000000E+00 -0.17817345191E+03  0.24560425916E+04  0.24495712753E+04 0.  0.
        3    1    3    3  502    0 -0.23082247555E+03  0.41247360693E+03 -0.12219771916E+04  0.13102067618E+04  0.10100000352E+00 0. -1.
       -3    1    3    3    0  502  0.23082247555E+03 -0.41247360693E+03  0.10438037397E+04  0.11458358298E+04  0.10100000352E+00 0.  1.
</event>
<event>
 5   0  0.3971759E-06  0.2500551E+04  0.7818609E-02  0.8402789E-01
       -2   -1    0    0    0  501  0.00000000000E+00  0.00000000000E+00  0.13284287280E+04  0.13284287280E+04  0.25500000920E-02 0. -1.
        2   -1    0    0  501    0  0.00000000000E+00  0.00000000000E+00 -0.11767201765E+04  0.11767201765E+04  0.25500000920E-02 0.  1.
    10030    2    1    2    0    0  0.00000000000E+00  0.00000000000E+00  0.15170855154E+03  0.25051489045E+04  0.25005510491E+04 0.  0.
        4    1    3    3  502    0  0.24202185223E+03 -0.89381536355E+03 -0.76575394509E+03  0.12016077556E+04  0.12699999809E+01 0.  1.
       -4    1    3    3    0  502 -0.24202185223E+03  0.89381536355E+03  0.91746249663E+03  0.13035411488E+04  0.12699999809E+01 0. -1.
</event>
<event>
 5   0  0.1501747E-06  0.2477954E+04  0.7818609E-02  0.8410882E-01
       -1   -1    0    0    0  501  0.00000000000E+00  0.00000000000E+00  0.77382151464E+03  0.77382151465E+03  0.50400001928E-02 0. -1.
        1   -1    0    0  501    0  0.00000000000E+00  0.00000000000E+00 -0.19837447344E+04  0.19837447344E+04  0.50400001928E-02 0.  1.
    10030    2    1    2    0    0  0.00000000000E+00  0.00000000000E+00 -0.12099232197E+04  0.27575662490E+04  0.24779542813E+04 0.  0.
        2    1    3    3  502    0 -0.77165018176E+03 -0.86227376851E+03 -0.11215534060E+03  0.11625570417E+04  0.25500000920E-02 0. -1.
       -2    1    3    3    0  502  0.77165018176E+03  0.86227376851E+03 -0.10977678791E+04  0.15950092073E+04  0.25500000920E-02 0.  1.
</event>
<event>
 5   0  0.1501747E-06  0.2500365E+04  0.7818609E-02  0.8402856E-01
        1   -1    0    0  501    0  0.00000000000E+00  0.00000000000E+00  0.30255089918E+04  0.30255089918E+04  0.50400001928E-02 0.  1.
       -1   -1    0    0    0  501  0.00000000000E+00  0.00000000000E+00 -0.51659268742E+03  0.51659268744E+03  0.50400001928E-02 0. -1.
    10030    2    1    2    0    0  0.00000000000E+00  0.00000000000E+00  0.25089163044E+04  0.35421016792E+04  0.25003646302E+04 0.  0.
        2    1    3    3  502    0 -0.38560307509E+03  0.10897680834E+04  0.19289182256E+04  0.22487796086E+04  0.25500000920E-02 0.  1.
       -2    1    3    3    0  502  0.38560307509E+03 -0.10897680834E+04  0.57999807878E+03  0.12933220706E+04  0.25500000920E-02 0. -1.
</event>
<event>
 5   0  0.1519145E-06  0.2502718E+04  0.7818609E-02  0.8402018E-01
        1   -1    0    0  501    0  0.00000000000E+00  0.00000000000E+00  0.17570312583E+04  0.17570312583E+04  0.50400001928E-02 0. -1.
       -1   -1    0    0    0  501  0.00000000000E+00  0.00000000000E+00 -0.89121861013E+03  0.89121861015E+03  0.50400001928E-02 0.  1.
    10030    2    1    2    0    0  0.00000000000E+00  0.00000000000E+00  0.86581264812E+03  0.26482498684E+04  0.25027176876E+04 0.  0.
        4    1    3    3  502    0 -0.38401124124E+03  0.87118626080E+02 -0.82395235576E+03  0.91321048279E+03  0.12699999809E+01 0.  1.
       -4    1    3    3    0  502  0.38401124124E+03 -0.87118626080E+02  0.16897650039E+04  0.17350393856E+04  0.12699999809E+01 0. -1.
</event>
<event>
 5   0  0.1574896E-06  0.2492950E+04  0.7818609E-02  0.8405502E-01
        1   -1    0    0  501    0  0.00000000000E+00  0.00000000000E+00  0.93109612367E+03  0.93109612369E+03  0.50400001928E-02 0.  1.
       -1   -1    0    0    0  501  0.00000000000E+00  0.00000000000E+00 -0.16686778508E+04  0.16686778508E+04  0.50400001928E-02 0. -1.
    10030    2    1    2    0    0  0.00000000000E+00  0.00000000000E+00 -0.73758172710E+03  0.25997739745E+04  0.24929496413E+04 0.  0.
        3    1    3    3  502    0 -0.43725031207E+03  0.21084938178E+03 -0.15660515334E+04  0.16395617441E+04  0.10100000352E+00 0. -1.
       -3    1    3    3    0  502  0.43725031207E+03 -0.21084938178E+03  0.82846980631E+03  0.96021223038E+03  0.10100000352E+00 0.  1.
</event>
<event>
 5   0  0.1541852E-06  0.2501176E+04  0.7818609E-02  0.8402567E-01
       -1   -1    0    0    0  501  0.00000000000E+00  0.00000000000E+00  0.14683682450E+04  0.14683682450E+04  0.50400001928E-02 0. -1.
        1   -1    0    0  501    0  0.00000000000E+00  0.00000000000E+00 -0.10651076263E+04  0.10651076263E+04  0.50400001928E-02 0.  1.
    10030    2    1    2    0    0  0.00000000000E+00  0.00000000000E+00  0.40326061868E+03  0.25334758713E+04  0.25011758962E+04 0.  0.
        5    1    3    3  502    0  0.10647223444E+04  0.62401836111E+03 -0.32577658403E+01  0.12341253132E+04  0.46999998093E+01 0.  1.
       -5    1    3    3    0  502 -0.10647223444E+04 -0.62401836111E+03  0.40651838452E+03  0.12993505580E+04  0.46999998093E+01 0. -1.
</event>
<event>
 5   0  0.3713394E-06  0.2499178E+04  0.7818609E-02  0.8403279E-01
        2   -1    0    0  501    0  0.00000000000E+00  0.00000000000E+00  0.15100568825E+04  0.15100568825E+04  0.25500000920E-02 0. -1.
       -2   -1    0    0    0  501  0.00000000000E+00  0.00000000000E+00 -0.10340486742E+04  0.10340486742E+04  0.25500000920E-02 0.  1.
    10030    2    1    2    0    0  0.00000000000E+00  0.00000000000E+00  0.47600820829E+03  0.25441055568E+04  0.24991777187E+04 0.  0.
        3    1    3    3  502    0 -0.15634834883E+03 -0.65958715409E+03 -0.83061595644E+03  0.10721114202E+04  0.10100000352E+00 0.  1.
       -3    1    3    3    0  502  0.15634834883E+03  0.65958715409E+03  0.13066241647E+04  0.14719941366E+04  0.10100000352E+00 0. -1.
</event>
<event>
 5   0  0.1553604E-06  0.2501073E+04  0.7818609E-02  0.8402603E-01
        1   -1    0    0  501    0  0.00000000000E+00  0.00000000000E+00  0.23137482546E+04  0.23137482546E+04  0.50400001928E-02 0.  1.
       -1   -1    0    0    0  501  0.00000000000E+00  0.00000000000E+00 -0.67589076984E+03  0.67589076986E+03  0.50400001928E-02 0. -1.
    10030    2    1    2    0    0  0.00000000000E+00  0.00000000000E+00  0.16378574848E+04  0.29896390245E+04  0.25010726411E+04 0.  0.
        1    1    3    3  502    0 -0.11492144539E+04  0.23855677840E+03  0.13347823491E+04  0.17774271060E+04  0.50400001928E-02 0.  1.
       -1    1    3    3    0  502  0.11492144539E+04 -0.23855677840E+03  0.30307513566E+03  0.12122119185E+04  0.50400001928E-02 0. -1.
</event>
<event>
 5   0  0.3808293E-06  0.2505374E+04  0.7818609E-02  0.8401074E-01
       -2   -1    0    0    0  501  0.00000000000E+00  0.00000000000E+00  0.10248174545E+04  0.10248174545E+04  0.25500000920E-02 0. -1.
        2   -1    0    0  501    0  0.00000000000E+00  0.00000000000E+00 -0.15312230402E+04  0.15312230402E+04  0.25500000920E-02 0.  1.
    10030    2    1    2    0    0  0.00000000000E+00  0.00000000000E+00 -0.50640558564E+03  0.25560404947E+04  0.25053735038E+04 0.  0.
        1    1    3    3  502    0  0.10586233356E+04  0.60658076366E+03 -0.54284652952E+03  0.13354047866E+04  0.50400001928E-02 0.  1.
       -1    1    3    3    0  502 -0.10586233356E+04 -0.60658076366E+03  0.36440943876E+02  0.12206357081E+04  0.50400001928E-02 0. -1.
</event>
<event>
 5   0  0.1574896E-06  0.2454206E+04  0.7818609E-02  0.8419484E-01
       -1   -1    0    0    0  501  0.00000000000E+00  0.00000000000E+00  0.59209093786E+03  0.59209093788E+03  0.50400001928E-02 0. -1.
        1   -1    0    0  501    0  0.00000000000E+00  0.00000000000E+00 -0.25431594653E+04  0.25431594653E+04  0.50400001928E-02 0.  1.
    10030    2    1    2    0    0  0.00000000000E+00  0.00000000000E+00 -0.19510685274E+04  0.31352504032E+04  0.24542059188E+04 0.  0.
        3    1    3    3  502    0 -0.29306040693E+03  0.11020230468E+04 -0.39649722894E+03  0.12072900483E+04  0.10100000352E+00 0. -1.
       -3    1    3    3    0  502  0.29306040693E+03 -0.11020230468E+04 -0.15545712985E+04  0.19279603549E+04  0.10100000352E+00 0.  1.
</event>
<event>
 5   0  0.1501747E-06  0.2501978E+04  0.7818609E-02  0.8402281E-01
        1   -1    0    0  501    0  0.00000000000E+00  0.00000000000E+00  0.16997712674E+04  0.16997712674E+04  0.50400001928E-02 0. -1.
       -1   -1    0    0    0  501  0.00000000000E+00  0.00000000000E+00 -0.92069680008E+03  0.92069680010E+03  0.50400001928E-02 0.  1.
    10030    2    1    2    0    0  0.00000000000E+00  0.00000000000E+00  0.77907446730E+03  0.26204680675E+04  0.25019783906E+04 0.  0.
        2    1    3    3  502    0 -0.59326485118E+03  0.10796544079E+04  0.61746018662E+03  0.13779963375E+04  0.25500000920E-02 0.  1.
       -2    1    3    3    0  502  0.59326485118E+03 -0.10796544079E+04  0.16161428069E+03  0.12424717300E+04  0.25500000920E-02 0. -1.
</event>
<event>
 5   0  0.1541852E-06  0.2502326E+04  0.7818609E-02  0.8402157E-01
       -1   -1    0    0    0  501  0.00000000000E+00  0.00000000000E+00  0.53510824192E+03  0.53510824195E+03  0.50400001928E-02 0.  1.
        1   -1    0    0  501    0  0.00000000000E+00  0.00000000000E+00 -0.29254056402E+04  0.29254056402E+04  0.50400001928E-02 0. -1.
    10030    2    1    2    0    0  0.00000000000E+00  0.00000000000E+00 -0.23902973983E+04  0.34605138822E+04  0.25023258534E+04 0.  0.
        5    1    3    3  502    0  0.14904677619E+03  0.71570701459E+03 -0.25992951203E+04  0.27001497523E+04  0.46999998093E+01 0. -1.
       -5    1    3    3    0  502 -0.14904677619E+03 -0.71570701459E+03  0.20899772202E+03  0.76036412990E+03  0.46999998093E+01 0.  1.
</event>
<event>
 5   0  0.3814260E-06  0.2484660E+04  0.7818609E-02  0.8408471E-01
        2   -1    0    0  501    0  0.00000000000E+00  0.00000000000E+00  0.30599004807E+04  0.30599004807E+04  0.25500000920E-02 0.  1.
       -2   -1    0    0    0  501  0.00000000000E+00  0.00000000000E+00 -0.50439006818E+03  0.50439006819E+03  0.25500000920E-02 0. -1.
    10030    2    1    2    0    0  0.00000000000E+00  0.00000000000E+00  0.25555104125E+04  0.35642905489E+04  0.24846596645E+04 0.  0.
        5    1    3    3  502    0  0.22739771862E+03  0.84138066068E+03  0.77968627654E+01  0.87161575230E+03  0.46999998093E+01 0. -1.
       -5    1    3    3    0  502 -0.22739771862E+03 -0.84138066068E+03  0.25477135497E+04  0.26926747965E+04  0.46999998093E+01 0.  1.
</event>
<event>
 5   0  0.3814260E-06  0.2495869E+04  0.7818609E-02  0.8404459E-01
        2   -1    0    0  501    0  0.00000000000E+00  0.00000000000E+00  0.21174584638E+04  0.21174584638E+04  0.25500000920E-02 0. -1.
       -2   -1    0    0    0  501  0.00000000000E+00  0.00000000000E+00 -0.73547651561E+03  0.73547651562E+03  0.25500000920E-02 0.  1.
    10030    2    1    2    0    0  0.00000000000E+00  0.00000000000E+00  0.13819819482E+04  0.28529349794E+04  0.24958693659E+04 0.  0.
        5    1    3    3  502    0 -0.86813304416E+03  0.15753083233E+03 -0.31778878663E+03  0.93780741541E+03  0.46999998093E+01 0.  1.
       -5    1    3    3    0  502  0.86813304416E+03 -0.15753083233E+03  0.16997707348E+04  0.19151275640E+04  0.46999998093E+01 0. -1.
</event>
<event>
 5   0  0.3814260E-06  0.2475199E+04  0.7818609E-02  0.8411875E-01
       -2   -1    0    0    0  501  0.00000000000E+00  0.00000000000E+00  0.14341379245E+04  0.14341379245E+04  0.25500000920E-02 0. -1.
        2   -1    0    0  501    0  0.00000000000E+00  0.00000000000E+00 -0.10679952974E+04  0.10679952974E+04  0.25500000920E-02 0.  1.
    10030    2    1    2    0    0  0.00000000000E+00  0.00000000000E+00  0.36614262710E+03  0.25021332220E+04  0.24751990298E+04 0.  0.
        5    1    3    3  502    0  0.22077227677E+03 -0.24943718973E+03  0.13879604403E+04  0.14273806723E+04  0.46999998093E+01 0. -1.
       -5    1    3    3    0  502 -0.22077227677E+03  0.24943718973E+03 -0.10218178132E+04  0.10747525497E+04  0.46999998093E+01 0.  1.
</event>
<event>
 5   0  0.1519145E-06  0.2501544E+04  0.7818609E-02  0.8402436E-01
        1   -1    0    0  501    0  0.00000000000E+00  0.00000000000E+00  0.10179857361E+04  0.10179857361E+04  0.50400001928E-02 0.  1.
       -1   -1    0    0    0  501  0.00000000000E+00  0.00000000000E+00 -0.15367908249E+04  0.15367908249E+04  0.50400001928E-02 0. -1.
    10030    2    1    2    0    0  0.00000000000E+00  0.00000000000E+00 -0.51880508876E+03  0.25547765610E+04  0.25015444342E+04 0.  0.
        4    1    3    3  502    0  0.28388106051E+03 -0.10937076516E+04  0.28833542367E+03  0.11661577136E+04  0.12699999809E+01 0.  1.
       -4    1    3    3    0  502 -0.28388106051E+03  0.10937076516E+04 -0.80714051243E+03  0.13886188474E+04  0.12699999809E+01 0. -1.
</event>
<event>
 5   0  0.3924441E-06  0.2500110E+04  0.7818609E-02  0.8402946E-01
        2   -1    0    0  501    0  0.00000000000E+00  0.00000000000E+00  0.17575363913E+04  0.17575363913E+04  0.25500000920E-02 0.  1.
       -2   -1    0    0    0  501  0.00000000000E+00  0.00000000000E+00 -0.88910678603E+03  0.88910678603E+03  0.25500000920E-02 0. -1.
    10030    2    1    2    0    0  0.00000000000E+00  0.00000000000E+00  0.86842960530E+03  0.26466431774E+04  0.25001100234E+04 0.  0.
        2    1    3    3  502    0  0.55679410513E+03  0.18934766063E+03 -0.73350779196E+03  0.94016269495E+03  0.25500000920E-02 0. -1.
       -2    1    3    3    0  502 -0.55679410513E+03 -0.18934766063E+03  0.16019373973E+04  0.17064804824E+04  0.25500000920E-02 0.  1.
</event>
<event>
 5   0  0.3713394E-06  0.2496751E+04  0.7818609E-02  0.8404144E-01
        2   -1    0    0  501    0  0.00000000000E+00  0.00000000000E+00  0.16231519396E+04  0.16231519396E+04  0.25500000920E-02 0.  1.
       -2   -1    0    0    0  501  0.00000000000E+00  0.00000000000E+00 -0.96013313883E+03  0.96013313883E+03  0.25500000920E-02 0. -1.
    10030    2    1    2    0    0  0.00000000000E+00  0.00000000000E+00  0.66301880081E+03  0.25832850785E+04  0.24967514627E+04 0.  0.
        3    1    3    3  502    0  0.79918598570E+03 -0.86857233756E+03  0.75220440334E+03  0.13996169547E+04  0.10100000352E+00 0.  1.
       -3    1    3    3    0  502 -0.79918598570E+03  0.86857233756E+03 -0.89185602533E+02  0.11836681238E+04  0.10100000352E+00 0. -1.
</event>
<event>
 5   0  0.1574896E-06  0.2501420E+04  0.7818609E-02  0.8402480E-01
       -1   -1    0    0    0  501  0.00000000000E+00  0.00000000000E+00  0.87388933251E+03  0.87388933253E+03  0.50400001928E-02 0.  1.
        1   -1    0    0  501    0  0.00000000000E+00  0.00000000000E+00 -0.17900156263E+04  0.17900156263E+04  0.50400001928E-02 0. -1.
    10030    2    1    2    0    0  0.00000000000E+00  0.00000000000E+00 -0.91612629382E+03  0.26639049589E+04  0.25014200454E+04 0.  0.
        3    1    3    3  502    0 -0.37098189250E+03 -0.11567256553E+04 -0.77511598814E+03  0.14409880677E+04  0.10100000352E+00 0.  1.
       -3    1    3    3    0  502  0.37098189250E+03  0.11567256553E+04 -0.14101030569E+03  0.12229168911E+04  0.10100000352E+00 0. -1.
</event>
<event>
 5   0  0.3713394E-06  0.2496291E+04  0.7818609E-02  0.8404308E-01
        2   -1    0    0  501    0  0.00000000000E+00  0.00000000000E+00  0.13533901308E+04  0.13533901308E+04  0.25500000920E-02 0. -1.
       -2   -1    0    0    0  501  0.00000000000E+00  0.00000000000E+00 -0.11510853640E+04  0.11510853640E+04  0.25500000920E-02 0.  1.
    10030    2    1    2    0    0  0.00000000000E+00  0.00000000000E+00  0.20230476687E+03  0.25044754948E+04  0.24962913062E+04 0.  0.
        3    1    3    3  502    0  0.56966250095E+03 -0.51118768662E+03 -0.88800055289E+03  0.11723366445E+04  0.10100000352E+00 0.  1.
       -3    1    3    3    0  502 -0.56966250095E+03  0.51118768662E+03  0.10903053198E+04  0.13321388503E+04  0.10100000352E+00 0. -1.
</event>
<event>
 5   0  0.1519145E-06  0.2490649E+04  0.7818609E-02  0.8406324E-01
       -1   -1    0    0    0  501  0.00000000000E+00  0.00000000000E+00  0.66124962332E+03  0.66124962334E+03  0.50400001928E-02 0.  1.
        1   -1    0    0  501    0  0.00000000000E+00  0.00000000000E+00 -0.23453067282E+04  0.23453067282E+04  0.50400001928E-02 0. -1.
    10030    2    1    2    0    0  0.00000000000E+00  0.00000000000E+00 -0.16840571049E+04  0.30065563516E+04  0.24906490645E+04 0.  0.
        4    1    3    3  502    0 -0.37844937036E+03  0.10956149933E+04 -0.29250182404E+03  0.11954727389E+04  0.12699999809E+01 0.  1.
       -4    1    3    3    0  502  0.37844937036E+03 -0.10956149933E+04 -0.13915552809E+04  0.18110836127E+04  0.12699999809E+01 0. -1.
</event>
<event>
 5   0  0.3814260E-06  0.2503486E+04  0.7818609E-02  0.8401745E-01
       -2   -1    0    0    0  501  0.00000000000E+00  0.00000000000E+00  0.51059391131E+03  0.51059391131E+03  0.25500000920E-02 0. -1.
        2   -1    0    0  501    0  0.00000000000E+00  0.00000000000E+00 -0.30687019828E+04  0.30687019828E+04  0.25500000920E-02 0.  1.
    10030    2    1    2    0    0  0.00000000000E+00  0.00000000000E+00 -0.25581080715E+04  0.35792958941E+04  0.25034860080E+04 0.  0.
        5    1    3    3  502    0 -0.33671417877E+03 -0.78098320973E+02 -0.29991042185E+04  0.30189607466E+04  0.46999998093E+01 0.  1.
       -5    1    3    3    0  502  0.33671417877E+03  0.78098320973E+02  0.44099614699E+03  0.56033514756E+03  0.46999998093E+01 0. -1.
</event>
<event>
 5   0  0.1574896E-06  0.2503674E+04  0.7818609E-02  0.8401678E-01
       -1   -1    0    0    0  501  0.00000000000E+00  0.00000000000E+00  0.12914881605E+04  0.12914881605E+04  0.50400001928E-02 0. -1.
        1   -1    0    0  501    0  0.00000000000E+00  0.00000000000E+00 -0.12134029663E+04  0.12134029663E+04  0.50400001928E-02 0.  1.
    10030    2    1    2    0    0  0.00000000000E+00  0.00000000000E+00  0.78085194212E+02  0.25048911269E+04  0.25036737527E+04 0.  0.
        3    1    3    3  502    0  0.85787493882E+03 -0.87052880197E+03  0.30996153977E+03  0.12608909438E+04  0.10100000352E+00 0.  1.
       -3    1    3    3    0  502 -0.85787493882E+03  0.87052880197E+03 -0.23187634556E+03  0.12440001831E+04  0.10100000352E+00 0. -1.
</event>
<event>
 5   0  0.3924441E-06  0.2496807E+04  0.7818609E-02  0.8404124E-01
       -2   -1    0    0    0  501  0.00000000000E+00  0.00000000000E+00  0.14599985866E+04  0.14599985866E+04  0.25500000920E-02 0. -1.
        2   -1    0    0  501    0  0.00000000000E+00  0.00000000000E+00 -0.10674746222E+04  0.10674746222E+04  0.25500000920E-02 0.  1.
    10030    2    1    2    0    0  0.00000000000E+00  0.00000000000E+00  0.39252396433E+03  0.25274732088E+04  0.24968071128E+04 0.  0.
        2    1    3    3  502    0 -0.64069729731E+03  0.10048629135E+04  0.57267434706E+03  0.13221945430E+04  0.25500000920E-02 0.  1.
       -2    1    3    3    0  502  0.64069729731E+03 -0.10048629135E+04 -0.18015038273E+03  0.12052786658E+04  0.25500000920E-02 0. -1.
</event>
<event>
 5   0  0.1541852E-06  0.2507974E+04  0.7818609E-02  0.8400150E-01
       -1   -1    0    0    0  501  0.00000000000E+00  0.00000000000E+00  0.14479080594E+04  0.14479080594E+04  0.50400001928E-02 0.  1.
        1   -1    0    0  501    0  0.00000000000E+00  0.00000000000E+00 -0.10860381306E+04  0.10860381306E+04  0.50400001928E-02 0. -1.
    10030    2    1    2    0    0  0.00000000000E+00  0.00000000000E+00  0.36186992887E+03  0.25339461900E+04  0.25079739728E+04 0.  0.
        5    1    3    3  502    0  0.37228559808E+03  0.11418571083E+03 -0.10233932505E+04  0.10949843735E+04  0.46999998093E+01 0. -1.
       -5    1    3    3    0  502 -0.37228559808E+03 -0.11418571083E+03  0.13852631794E+04  0.14389618165E+04  0.46999998093E+01 0.  1.
</event>
<event>
 5   0  0.1501747E-06  0.2491199E+04  0.7818609E-02  0.8406128E-01
       -1   -1    0    0    0  501  0.00000000000E+00  0.00000000000E+00  0.11097014990E+04  0.11097014990E+04  0.50400001928E-02 0. -1.
        1   -1    0    0  501    0  0.00000000000E+00  0.00000000000E+00 -0.13981399098E+04  0.13981399098E+04  0.50400001928E-02 0.  1.
    10030    2    1    2    0    0  0.00000000000E+00  0.00000000000E+00 -0.28843841079E+03  0.25078414088E+04  0.24911988710E+04 0.  0.
        2    1    3    3  502    0 -0.99603642703E+03  0.16100786974E+03 -0.87951361806E+03  0.13384903072E+04  0.25500000920E-02 0.  1.
       -2    1    3    3    0  502  0.99603642703E+03 -0.16100786974E+03  0.59107520728E+03  0.11693511016E+04  0.25500000920E-02 0. -1.
</event>
<event>
 5   0  0.1541852E-06  0.2498687E+04  0.7818609E-02  0.8403453E-01
       -1   -1    0    0    0  501  0.00000000000E+00  0.00000000000E+00  0.86031383392E+03  0.86031383394E+03  0.50400001928E-02 0.  1.
        1   -1    0    0  501    0  0.00000000000E+00  0.00000000000E+00 -0.18142906955E+04  0.18142906955E+04  0.50400001928E-02 0. -1.
    10030    2    1    2    0    0  0.00000000000E+00  0.00000000000E+00 -0.95397686154E+03  0.26746045294E+04  0.24986871626E+04 0.  0.
        5    1    3    3  502    0  0.84528416757E+03 -0.24952723182E+03  0.47082878138E+03  0.99923520491E+03  0.46999998093E+01 0.  1.
       -5    1    3    3    0  502 -0.84528416757E+03  0.24952723182E+03 -0.14248056429E+04  0.16753693245E+04  0.46999998093E+01 0. -1.
</event>
<event>
 5   0  0.3814260E-06  0.2498528E+04  0.7818609E-02  0.8403510E-01
        2   -1    0    0  501    0  0.00000000000E+00  0.00000000000E+00  0.98912491083E+03  0.98912491084E+03  0.25500000920E-02 0. -1.
       -2   -1    0    0    0  501  0.00000000000E+00  0.00000000000E+00 -0.15778196134E+04  0.15778196134E+04  0.25500000920E-02 0.  1.
    10030    2    1    2    0    0  0.00000000000E+00  0.00000000000E+00 -0.58869470254E+03  0.25669445242E+04  0.24985281142E+04 0.  0.
        5    1    3    3  502    0  0.66108096756E+03 -0.95544000177E+03 -0.76598757039E+03  0.13916366949E+04  0.46999998093E+01 0.  1.
       -5    1    3    3    0  502 -0.66108096756E+03  0.95544000177E+03  0.17729286784E+03  0.11753078293E+04  0.46999998093E+01 0. -1.
</event>
<event>
 5   0  0.1541852E-06  0.2501524E+04  0.7818609E-02  0.8402443E-01
       -1   -1    0    0    0  501  0.00000000000E+00  0.00000000000E+00  0.94389822484E+03  0.94389822485E+03  0.50400001928E-02 0.  1.
        1   -1    0    0  501    0  0.00000000000E+00  0.00000000000E+00 -0.16573884067E+04  0.16573884067E+04  0.50400001928E-02 0. -1.
    10030    2    1    2    0    0  0.00000000000E+00  0.00000000000E+00 -0.71349018186E+03  0.26012866316E+04  0.25015243153E+04 0.  0.
        5    1    3    3  502    0  0.30851524671E+03 -0.84909358259E+03 -0.12562522269E+04  0.15473633436E+04  0.46999998093E+01 0.  1.
       -5    1    3    3    0  502 -0.30851524671E+03  0.84909358259E+03  0.54276204503E+03  0.10539232880E+04  0.46999998093E+01 0. -1.
</event>
<event>
 5   0  0.3808293E-06  0.2486809E+04  0.7818609E-02  0.8407700E-01
        2   -1    0    0  501    0  0.00000000000E+00  0.00000000000E+00  0.16159139306E+04  0.16159139306E+04  0.25500000920E-02 0. -1.
       -2   -1    0    0    0  501  0.00000000000E+00  0.00000000000E+00 -0.95676823806E+03  0.95676823807E+03  0.25500000920E-02 0.  1.
    10030    2    1    2    0    0  0.00000000000E+00  0.00000000000E+00  0.65914569255E+03  0.25726821687E+04  0.24868093005E+04 0.  0.
        1    1    3    3  502    0 -0.82980669931E+03  0.50937681222E+03  0.11295882019E+04  0.14913126436E+04  0.50400001928E-02 0. -1.
       -1    1    3    3    0  502  0.82980669931E+03 -0.50937681222E+03 -0.47044250939E+03  0.10813695251E+04  0.50400001928E-02 0.  1.
</event>
<event>
 5   0  0.3814260E-06  0.2500980E+04  0.7818609E-02  0.8402636E-01
        2   -1    0    0  501    0  0.00000000000E+00  0.00000000000E+00  0.19515915940E+04  0.19515915940E+04  0.25500000920E-02 0.  1.
       -2   -1    0    0    0  501  0.00000000000E+00  0.00000000000E+00 -0.80125653650E+03  0.80125653650E+03  0.25500000920E-02 0. -1.
    10030    2    1    2    0    0  0.00000000000E+00  0.00000000000E+00  0.11503350575E+04  0.27528481305E+04  0.25009802248E+04 0.  0.
        5    1    3    3  502    0  0.80597614982E+03 -0.44151870343E+03  0.15086085965E+04  0.17664819012E+04  0.46999998093E+01 0.  1.
       -5    1    3    3    0  502 -0.80597614982E+03  0.44151870343E+03 -0.35827353906E+03  0.98636622932E+03  0.46999998093E+01 0. -1.
</event>
<event>
 5   0  0.3814260E-06  0.2502791E+04  0.7818609E-02  0.8401992E-01
        2   -1    0    0  501    0  0.00000000000E+00  0.00000000000E+00  0.99629306972E+03  0.99629306972E+03  0.25500000920E-02 0. -1.
       -2   -1    0    0    0  501  0.00000000000E+00  0.00000000000E+00 -0.15718177057E+04  0.15718177057E+04  0.25500000920E-02 0.  1.
    10030    2    1    2    0    0  0.00000000000E+00  0.00000000000E+00 -0.57552463600E+03  0.25681107754E+04  0.25027913114E+04 0.  0.
        5    1    3    3  502    0  0.10893712254E+04  0.10724530731E+02 -0.91956277205E+03  0.14256445784E+04  0.46999998093E+01 0.  1.
       -5    1    3    3    0  502 -0.10893712254E+04 -0.10724530731E+02  0.34403813605E+03  0.11424661970E+04  0.46999998093E+01 0. -1.
</event>
<event>
 5   0  0.1541852E-06  0.2488568E+04  0.7818609E-02  0.8407070E-01
        1   -1    0    0  501    0  0.00000000000E+00  0.00000000000E+00  0.10500454510E+04  0.10500454510E+04  0.50400001928E-02 0.  1.
       -1   -1    0    0    0  501  0.00000000000E+00  0.00000000000E+00 -0.14744530300E+04  0.14744530300E+04  0.50400001928E-02 0. -1.
    10030    2    1    2    0    0  0.00000000000E+00  0.00000000000E+00 -0.42440757902E+03  0.25244984810E+04  0.24885680194E+04 0.  0.
        5    1    3    3  502    0 -0.25424212940E+03 -0.50045401541E+03  0.91429196343E+03  0.10728677301E+04  0.46999998093E+01 0.  1.
       -5    1    3    3    0  502  0.25424212940E+03  0.50045401541E+03 -0.13386995424E+04  0.14516307509E+04  0.46999998093E+01 0. -1.
</event>
<event>
 5   0  0.1541852E-06  0.2510376E+04  0.7818609E-02  0.8399298E-01
       -1   -1    0    0    0  501  0.00000000000E+00  0.00000000000E+00  0.11992086098E+04  0.11992086098E+04  0.50400001928E-02 0. -1.
        1   -1    0    0  501    0  0.00000000000E+00  0.00000000000E+00 -0.13137805755E+04  0.13137805755E+04  0.50400001928E-02 0.  1.
    10030    2    1    2    0    0  0.00000000000E+00  0.00000000000E+00 -0.11457196567E+03  0.25129891853E+04  0.25103760496E+04 0.  0.
        5    1    3    3  502    0 -0.94853024219E+03  0.57943394479E+03 -0.64100665173E+03  0.12831075303E+04  0.46999998093E+01 0.  1.
       -5    1    3    3    0  502  0.94853024219E+03 -0.57943394479E+03  0.52643468605E+03  0.12298816550E+04  0.46999998093E+01 0. -1.
</event>
<event>
 5   0  0.3814260E-06  0.2498611E+04  0.7818609E-02  0.8403481E-01
        2   -1    0    0  501    0  0.00000000000E+00  0.00000000000E+00  0.13483608306E+04  0.13483608306E+04  0.25500000920E-02 0. -1.
       -2   -1    0    0    0  501  0.00000000000E+00  0.00000000000E+00 -0.11575267129E+04  0.11575267129E+04  0.25500000920E-02 0.  1.
    10030    2    1    2    0    0  0.00000000000E+00  0.00000000000E+00  0.19083411763E+03  0.25058875435E+04  0.24986105580E+04 0.  0.
        5    1    3    3  502    0  0.19115209513E+01  0.77077398733E+03 -0.89062763431E+03  0.11778522261E+04  0.46999998093E+01 0.  1.
       -5    1    3    3    0  502 -0.19115209513E+01 -0.77077398733E+03  0.10814617519E+04  0.13280353174E+04  0.46999998093E+01 0. -1.
</event>
<event>
 5   0  0.1519145E-06  0.2500440E+04  0.7818609E-02  0.8402829E-01
        1   -1    0    0  501    0  0.00000000000E+00  0.00000000000E+00  0.13774735450E+04  0.13774735450E+04  0.50400001928E-02 0.  1.
       -1   -1    0    0    0  501  0.00000000000E+00  0.00000000000E+00 -0.11347223139E+04  0.11347223139E+04  0.50400001928E-02 0. -1.
    10030    2    1    2    0    0  0.00000000000E+00  0.00000000000E+00  0.24275123113E+03  0.25121958590E+04  0.25004399360E+04 0.  0.
        4    1    3    3  502    0 -0.67301042632E+03 -0.53200601890E+03 -0.79233673202E+03  0.11678067254E+04  0.12699999809E+01 0. -1.
       -4    1    3    3    0  502  0.67301042632E+03  0.53200601890E+03  0.10350879632E+04  0.13443891336E+04  0.12699999809E+01 0.  1.
</event>
<event>
 5   0  0.3808293E-06  0.2503448E+04  0.7818609E-02  0.8401758E-01
        2   -1    0    0  501    0  0.00000000000E+00  0.00000000000E+00  0.19492553288E+04  0.19492553288E+04  0.25500000920E-02 0.  1.
       -2   -1    0    0    0  501  0.00000000000E+00  0.00000000000E+00 -0.80380104793E+03  0.80380104793E+03  0.25500000920E-02 0. -1.
    10030    2    1    2    0    0  0.00000000000E+00  0.00000000000E+00  0.11454542809E+04  0.27530563767E+04  0.25034484025E+04 0.  0.
        1    1    3    3  502    0  0.23843445181E+03  0.27223996350E+02  0.19237196127E+04  0.19386307751E+04  0.50400001928E-02 0.  1.
       -1    1    3    3    0  502 -0.23843445181E+03 -0.27223996350E+02 -0.77826533186E+03  0.81442560162E+03  0.50400001928E-02 0. -1.
</event>
<event>
 5   0  0.1541852E-06  0.2498460E+04  0.7818609E-02  0.8403534E-01
       -1   -1    0    0    0  501  0.00000000000E+00  0.00000000000E+00  0.13979052197E+04  0.13979052198E+04  0.50400001928E-02 0. -1.
        1   -1    0    0  501    0  0.00000000000E+00  0.00000000000E+00 -0.11163673405E+04  0.11163673405E+04  0.50400001928E-02 0.  1.
    10030    2    1    2    0    0  0.00000000000E+00  0.00000000000E+00  0.28153787925E+03  0.25142725603E+04  0.24984601117E+04 0.  0.
        5    1    3    3  502    0 -0.84525958173E+03  0.44485060343E+03 -0.66943382232E+03  0.11664131139E+04  0.46999998093E+01 0.  1.
       -5    1    3    3    0  502  0.84525958173E+03 -0.44485060343E+03  0.95097170157E+03  0.13478594463E+04  0.46999998093E+01 0. -1.
</event>
<event>
 5   0  0.1553604E-06  0.2490456E+04  0.7818609E-02  0.8406394E-01
       -1   -1    0    0    0  501  0.00000000000E+00  0.00000000000E+00  0.17291093436E+04  0.17291093436E+04  0.50400001928E-02 0. -1.
        1   -1    0    0  501    0  0.00000000000E+00  0.00000000000E+00 -0.89675783403E+03  0.89675783405E+03  0.50400001928E-02 0.  1.
    10030    2    1    2    0    0  0.00000000000E+00  0.00000000000E+00  0.83235150960E+03  0.26258671777E+04  0.24904556610E+04 0.  0.
        1    1    3    3  502    0  0.12601285142E+03 -0.31243329708E+03  0.16801470626E+04  0.17135892028E+04  0.50400001928E-02 0. -1.
       -1    1    3    3    0  502 -0.12601285142E+03  0.31243329708E+03 -0.84779555299E+03  0.91227797493E+03  0.50400001928E-02 0.  1.
</event>
<event>
 5   0  0.1553604E-06  0.2500662E+04  0.7818609E-02  0.8402750E-01
       -1   -1    0    0    0  501  0.00000000000E+00  0.00000000000E+00  0.90574363419E+03  0.90574363421E+03  0.50400001928E-02 0. -1.
        1   -1    0    0  501    0  0.00000000000E+00  0.00000000000E+00 -0.17260158136E+04  0.17260158136E+04  0.50400001928E-02 0.  1.
    10030    2    1    2    0    0  0.00000000000E+00  0.00000000000E+00 -0.82027217941E+03  0.26317594478E+04  0.25006621809E+04 0.  0.
        1    1    3    3  502    0 -0.44767967761E+03  0.61303434545E+02  0.81680943173E+03  0.93346282873E+03  0.50400001928E-02 0. -1.
       -1    1    3    3    0  502  0.44767967761E+03 -0.61303434545E+02 -0.16370816111E+04  0.16982966191E+04  0.50400001928E-02 0.  1.
</event>
<event>
 5   0  0.1519145E-06  0.2502219E+04  0.7818609E-02  0.8402195E-01
        1   -1    0    0  501    0  0.00000000000E+00  0.00000000000E+00  0.12381771988E+04  0.12381771988E+04  0.50400001928E-02 0. -1.
       -1   -1    0    0    0  501  0.00000000000E+00  0.00000000000E+00 -0.12641768938E+04  0.12641768938E+04  0.50400001928E-02 0.  1.
    10030    2    1    2    0    0  0.00000000000E+00  0.00000000000E+00 -0.25999695022E+02  0.25023540926E+04  0.25022190193E+04 0.  0.
        4    1    3    3  502    0  0.82639527415E+03 -0.77296654369E+03  0.52075826370E+03  0.12456312492E+04  0.12699999809E+01 0. -1.
       -4    1    3    3    0  502 -0.82639527415E+03  0.77296654369E+03 -0.54675795873E+03  0.12567228434E+04  0.12699999809E+01 0.  1.
</event>
<event>
 5   0  0.3971759E-06  0.2493508E+04  0.7818609E-02  0.8405302E-01
        2   -1    0    0  501    0  0.00000000000E+00  0.00000000000E+00  0.18199133256E+04  0.18199133256E+04  0.25500000920E-02 0. -1.
       -2   -1    0    0    0  501  0.00000000000E+00  0.00000000000E+00 -0.85410447584E+03  0.85410447584E+03  0.25500000920E-02 0.  1.
    10030    2    1    2    0    0  0.00000000000E+00  0.00000000000E+00  0.96580884977E+03  0.26740178014E+04  0.24935084656E+04 0.  0.
        4    1    3    3  502    0  0.30697394328E+03 -0.51029683309E+03 -0.69172368852E+03  0.91275359977E+03  0.12699999809E+01 0.  1.
       -4    1    3    3    0  502 -0.30697394328E+03  0.51029683309E+03  0.16575325383E+04  0.17612642017E+04  0.12699999809E+01 0. -1.
</event>
<event>
 5   0  0.3713394E-06  0.2480610E+04  0.7818609E-02  0.8409926E-01
       -2   -1    0    0    0  501  0.00000000000E+00  0.00000000000E+00  0.11053284666E+04  0.11053284666E+04  0.25500000920E-02 0. -1.
        2   -1    0    0  501    0  0.00000000000E+00  0.00000000000E+00 -0.13917636571E+04  0.13917636571E+04  0.25500000920E-02 0.  1.
    10030    2    1    2    0    0  0.00000000000E+00  0.00000000000E+00 -0.28643519051E+03  0.24970921238E+04  0.24806095937E+04 0.  0.
        3    1    3    3  502    0  0.29902282011E+03  0.77558731165E+03  0.78344540841E+03  0.11422508670E+04  0.10100000352E+00 0. -1.
       -3    1    3    3    0  502 -0.29902282011E+03 -0.77558731165E+03 -0.10698805989E+04  0.13548412568E+04  0.10100000352E+00 0.  1.
</event>
<event>
 5   0  0.1519145E-06  0.2499783E+04  0.7818609E-02  0.8403063E-01
        1   -1    0    0  501    0  0.00000000000E+00  0.00000000000E+00  0.98245508019E+03  0.98245508021E+03  0.50400001928E-02 0. -1.
       -1   -1    0    0    0  501  0.00000000000E+00  0.00000000000E+00 -0.15901273455E+04  0.15901273455E+04  0.50400001928E-02 0.  1.
    10030    2    1    2    0    0  0.00000000000E+00  0.00000000000E+00 -0.60767226534E+03  0.25725824257E+04  0.24997829416E+04 0.  0.
        4    1    3    3  502    0 -0.56773351410E+03  0.10435148675E+04 -0.70371664369E+03  0.13807473879E+04  0.12699999809E+01 0.  1.
       -4    1    3    3    0  502  0.56773351410E+03 -0.10435148675E+04  0.96044378352E+02  0.11918350378E+04  0.12699999809E+01 0. -1.
</event>
<event>
 5   0  0.3814260E-06  0.2500806E+04  0.7818609E-02  0.8402699E-01
       -2   -1    0    0    0  501  0.00000000000E+00  0.00000000000E+00  0.13072648021E+04  0.13072648021E+04  0.25500000920E-02 0. -1.
        2   -1    0    0  501    0  0.00000000000E+00  0.00000000000E+00 -0.11960143053E+04  0.11960143053E+04  0.25500000920E-02 0.  1.
    10030    2    1    2    0    0  0.00000000000E+00  0.00000000000E+00  0.11125049685E+03  0.25032791074E+04  0.25008057935E+04 0.  0.
        5    1    3    3  502    0 -0.25359798972E+03 -0.49881800555E+03 -0.10636729296E+04  0.12018958084E+04  0.46999998093E+01 0.  1.
       -5    1    3    3    0  502  0.25359798972E+03  0.49881800555E+03  0.11749234264E+04  0.13013832991E+04  0.46999998093E+01 0. -1.
</event>
<event>
 5   0  0.3713394E-06  0.2500051E+04  0.7818609E-02  0.8402967E-01
        2   -1    0    0  501    0  0.00000000000E+00  0.00000000000E+00  0.11856595511E+04  0.11856595511E+04  0.25500000920E-02 0. -1.
       -2   -1    0    0    0  501  0.00000000000E+00  0.00000000000E+00 -0.13178861525E+04  0.13178861525E+04  0.25500000920E-02 0.  1.
    10030    2    1    2    0    0  0.00000000000E+00  0.00000000000E+00 -0.13222660141E+03  0.25035457037E+04  0.25000514427E+04 0.  0.
        3    1    3    3  502    0  0.21781504896E+03  0.92623920570E+03 -0.87792622616E+03  0.12946493465E+04  0.10100000352E+00 0.  1.
       -3    1    3    3    0  502 -0.21781504896E+03 -0.92623920570E+03  0.74569962474E+03  0.12088963571E+04  0.10100000352E+00 0. -1.
</event>
<event>
 5   0  0.3971759E-06  0.2497679E+04  0.7818609E-02  0.8403813E-01
       -2   -1    0    0    0  501  0.00000000000E+00  0.00000000000E+00  0.12578391240E+04  0.12578391240E+04  0.25500000920E-02 0. -1.
        2   -1    0    0  501    0  0.00000000000E+00  0.00000000000E+00 -0.12399043505E+04  0.12399043505E+04  0.25500000920E-02 0.  1.
    10030    2    1    2    0    0  0.00000000000E+00  0.00000000000E+00  0.17934773503E+02  0.24977434746E+04  0.24976790844E+04 0.  0.
        4    1    3    3  502    0  0.14820025412E+03 -0.78291625599E+03 -0.95265888526E+03  0.12419668851E+04  0.12699999809E+01 0.  1.
       -4    1    3    3    0  502 -0.14820025412E+03  0.78291625599E+03  0.97059365877E+03  0.12557765894E+04  0.12699999809E+01 0. -1.
</event>
<event>
 5   0  0.3924441E-06  0.2432316E+04  0.7818609E-02  0.8427503E-01
        2   -1    0    0  501    0  0.00000000000E+00  0.00000000000E+00  0.15249481246E+04  0.15249481246E+04  0.25500000920E-02 0.  1.
       -2   -1    0    0    0  501  0.00000000000E+00  0.00000000000E+00 -0.96989552345E+03  0.96989552345E+03  0.25500000920E-02 0. -1.
    10030    2    1    2    0    0  0.00000000000E+00  0.00000000000E+00  0.55505260112E+03  0.24948436480E+04  0.24323160646E+04 0.  0.
        2    1    3    3  502    0  0.11312332132E+04 -0.43909236339E+03  0.19451577922E+03  0.12289536503E+04  0.25500000920E-02 0.  1.
       -2    1    3    3    0  502 -0.11312332132E+04  0.43909236339E+03  0.36053682190E+03  0.12658899977E+04  0.25500000920E-02 0. -1.
</event>
<event>
 5   0  0.3924441E-06  0.2490343E+04  0.7818609E-02  0.8406434E-01
        2   -1    0    0  501    0  0.00000000000E+00  0.00000000000E+00  0.13449230374E+04  0.13449230374E+04  0.25500000920E-02 0. -1.
       -2   -1    0    0    0  501  0.00000000000E+00  0.00000000000E+00 -0.11528184935E+04  0.11528184935E+04  0.25500000920E-02 0.  1.
    10030    2    1    2    0    0  0.00000000000E+00  0.00000000000E+00  0.19210454387E+03  0.24977415309E+04  0.24903430687E+04 0.  0.
        2    1    3    3  502    0 -0.31365594094E+03 -0.87717376778E+03  0.92472612403E+03  0.13126051473E+04  0.25500000920E-02 0. -1.
       -2    1    3    3    0  502  0.31365594094E+03  0.87717376778E+03 -0.73262158016E+03  0.11851363837E+04  0.25500000920E-02 0.  1.
</event>
<event>
 5   0  0.3924441E-06  0.2506806E+04  0.7818609E-02  0.8400565E-01
       -2   -1    0    0    0  501  0.00000000000E+00  0.00000000000E+00  0.71701427911E+03  0.71701427911E+03  0.25500000920E-02 0.  1.
        2   -1    0    0  501    0  0.00000000000E+00  0.00000000000E+00 -0.21910569258E+04  0.21910569258E+04  0.25500000920E-02 0. -1.
    10030    2    1    2    0    0  0.00000000000E+00  0.00000000000E+00 -0.14740426466E+04  0.29080712049E+04  0.25068060173E+04 0.  0.
        2    1    3    3  502    0 -0.84554273991E+02  0.44617791760E+03  0.61822428896E+03  0.76708893282E+03  0.25500000920E-02 0.  1.
       -2    1    3    3    0  502  0.84554273991E+02 -0.44617791760E+03 -0.20922669356E+04  0.21409822720E+04  0.25500000920E-02 0. -1.
</event>
<event>
 5   0  0.3713394E-06  0.2500831E+04  0.7818609E-02  0.8402689E-01
       -2   -1    0    0    0  501  0.00000000000E+00  0.00000000000E+00  0.12988304965E+04  0.12988304965E+04  0.25500000920E-02 0.  1.
        2   -1    0    0  501    0  0.00000000000E+00  0.00000000000E+00 -0.12038056320E+04  0.12038056320E+04  0.25500000920E-02 0. -1.
    10030    2    1    2    0    0  0.00000000000E+00  0.00000000000E+00  0.95024864480E+02  0.25026361285E+04  0.25008314351E+04 0.  0.
        3    1    3    3  502    0  0.11472251798E+04  0.31931662351E+03 -0.33414282907E+03  0.12368266490E+04  0.10100000352E+00 0. -1.
       -3    1    3    3    0  502 -0.11472251798E+04 -0.31931662351E+03  0.42916769355E+03  0.12658094796E+04  0.10100000352E+00 0.  1.
</event>
<event>
 5   0  0.3971759E-06  0.2500131E+04  0.7818609E-02  0.8402939E-01
       -2   -1    0    0    0  501  0.00000000000E+00  0.00000000000E+00  0.11297838452E+04  0.11297838452E+04  0.25500000920E-02 0.  1.
        2   -1    0    0  501    0  0.00000000000E+00  0.00000000000E+00 -0.13831532436E+04  0.13831532436E+04  0.25500000920E-02 0. -1.
    10030    2    1    2    0    0  0.00000000000E+00  0.00000000000E+00 -0.25336939840E+03  0.25129370887E+04  0.25001313485E+04 0.  0.
        4    1    3    3  502    0 -0.12491501657E+04  0.42890908300E+02 -0.14793086339E+03  0.12586107101E+04  0.12699999809E+01 0. -1.
       -4    1    3    3    0  502  0.12491501657E+04 -0.42890908300E+02 -0.10543853500E+03  0.12543263786E+04  0.12699999809E+01 0.  1.
</event>
<event>
 5   0  0.3808293E-06  0.2498991E+04  0.7818609E-02  0.8403345E-01
        2   -1    0    0  501    0  0.00000000000E+00  0.00000000000E+00  0.15912739259E+04  0.15912739259E+04  0.25500000920E-02 0. -1.
       -2   -1    0    0    0  501  0.00000000000E+00  0.00000000000E+00 -0.98112557027E+03  0.98112557028E+03  0.25500000920E-02 0.  1.
    10030    2    1    2    0    0  0.00000000000E+00  0.00000000000E+00  0.61014835561E+03  0.25723994962E+04  0.24989914270E+04 0.  0.
        1    1    3    3  502    0  0.77496005480E+03  0.88377899889E+02 -0.69974871045E+03  0.10478654482E+04  0.50400001928E-02 0.  1.
       -1    1    3    3    0  502 -0.77496005480E+03 -0.88377899889E+02  0.13098970661E+04  0.15245340480E+04  0.50400001928E-02 0. -1.
</event>
<event>
 5   0  0.1553604E-06  0.2510156E+04  0.7818609E-02  0.8399376E-01
        1   -1    0    0  501    0  0.00000000000E+00  0.00000000000E+00  0.15960506128E+04  0.15960506128E+04  0.50400001928E-02 0. -1.
       -1   -1    0    0    0  501  0.00000000000E+00  0.00000000000E+00 -0.98694921268E+03  0.98694921269E+03  0.50400001928E-02 0.  1.
    10030    2    1    2    0    0  0.00000000000E+00  0.00000000000E+00  0.60910140015E+03  0.25829998255E+04  0.25101560874E+04 0.  0.
        1    1    3    3  502    0 -0.46851257857E+03 -0.10404775076E+04 -0.23322740516E+03  0.11646855810E+04  0.50400001928E-02 0.  1.
       -1    1    3    3    0  502  0.46851257857E+03  0.10404775076E+04  0.84232880530E+03  0.14183142445E+04  0.50400001928E-02 0. -1.
</event>
<event>
 5   0  0.1574896E-06  0.2500187E+04  0.7818609E-02  0.8402919E-01
       -1   -1    0    0    0  501  0.00000000000E+00  0.00000000000E+00  0.27760883371E+04  0.27760883371E+04  0.50400001928E-02 0. -1.
        1   -1    0    0  501    0  0.00000000000E+00  0.00000000000E+00 -0.56292652502E+03  0.56292652505E+03  0.50400001928E-02 0.  1.
    10030    2    1    2    0    0  0.00000000000E+00  0.00000000000E+00  0.22131618120E+04  0.33390148621E+04  0.25001870016E+04 0.  0.
        3    1    3    3  502    0 -0.37916199697E+02 -0.12208871682E+04  0.75139997826E+03  0.14340868360E+04  0.10100000352E+00 0.  1.
       -3    1    3    3    0  502  0.37916199697E+02  0.12208871682E+04  0.14617618338E+04  0.19049280261E+04  0.10100000352E+00 0. -1.
</event>
<event>
 5   0  0.1553604E-06  0.2541654E+04  0.7818609E-02  0.8388295E-01
       -1   -1    0    0    0  501  0.00000000000E+00  0.00000000000E+00  0.17815869782E+04  0.17815869782E+04  0.50400001928E-02 0.  1.
        1   -1    0    0  501    0  0.00000000000E+00  0.00000000000E+00 -0.90649600636E+03  0.90649600637E+03  0.50400001928E-02 0. -1.
    10030    2    1    2    0    0  0.00000000000E+00  0.00000000000E+00  0.87509097180E+03  0.26880829845E+04  0.25416541706E+04 0.  0.
        1    1    3    3  502    0  0.12579161760E+04  0.14907645627E+03  0.32956243236E+03  0.13088881894E+04  0.50400001928E-02 0. -1.
       -1    1    3    3    0  502 -0.12579161760E+04 -0.14907645627E+03  0.54552853944E+03  0.13791947951E+04  0.50400001928E-02 0.  1.
</event>
<event>
 5   0  0.3971759E-06  0.2502064E+04  0.7818609E-02  0.8402250E-01
       -2   -1    0    0    0  501  0.00000000000E+00  0.00000000000E+00  0.80449194561E+03  0.80449194561E+03  0.25500000920E-02 0. -1.
        2   -1    0    0  501    0  0.00000000000E+00  0.00000000000E+00 -0.19454283410E+04  0.19454283410E+04  0.25500000920E-02 0.  1.
    10030    2    1    2    0    0  0.00000000000E+00  0.00000000000E+00 -0.11409363954E+04  0.27499202866E+04  0.25020642926E+04 0.  0.
        4    1    3    3  502    0 -0.63196674182E+03  0.10311823902E+04 -0.92210015206E+03  0.15208515339E+04  0.12699999809E+01 0.  1.
       -4    1    3    3    0  502  0.63196674182E+03 -0.10311823902E+04 -0.21883624333E+03  0.12290687528E+04  0.12699999809E+01 0. -1.
</event>
<event>
 5   0  0.3924441E-06  0.2497393E+04  0.7818609E-02  0.8403915E-01
       -2   -1    0    0    0  501  0.00000000000E+00  0.00000000000E+00  0.78478253812E+03  0.78478253812E+03  0.25500000920E-02 0.  1.
        2   -1    0    0  501    0  0.00000000000E+00  0.00000000000E+00 -0.19868465645E+04  0.19868465645E+04  0.25500000920E-02 0. -1.
    10030    2    1    2    0    0  0.00000000000E+00  0.00000000000E+00 -0.12020640264E+04  0.27716291027E+04  0.24973926321E+04 0.  0.
        2    1    3    3  502    0 -0.10400734482E+03  0.67944946285E+03 -0.17579905226E+04  0.18875909986E+04  0.25500000920E-02 0. -1.
       -2    1    3    3    0  502  0.10400734482E+03 -0.67944946285E+03  0.55592649616E+03  0.88403810410E+03  0.25500000920E-02 0.  1.
</event>
<event>
 5   0  0.3924441E-06  0.2499309E+04  0.7818609E-02  0.8403232E-01
        2   -1    0    0  501    0  0.00000000000E+00  0.00000000000E+00  0.87398893508E+03  0.87398893508E+03  0.25500000920E-02 0.  1.
       -2   -1    0    0    0  501  0.00000000000E+00  0.00000000000E+00 -0.17867925626E+04  0.17867925626E+04  0.25500000920E-02 0. -1.
    10030    2    1    2    0    0  0.00000000000E+00  0.00000000000E+00 -0.91280362747E+03  0.26607814976E+04  0.24993094478E+04 0.  0.
        2    1    3    3  502    0  0.84978802155E+02  0.61585583114E+03 -0.16104752766E+04  0.17263054243E+04  0.25500000920E-02 0. -1.
       -2    1    3    3    0  502 -0.84978802155E+02 -0.61585583114E+03  0.69767164912E+03  0.93447607330E+03  0.25500000920E-02 0.  1.
</event>
<event>
 5   0  0.3808293E-06  0.2485173E+04  0.7818609E-02  0.8408287E-01
        2   -1    0    0  501    0  0.00000000000E+00  0.00000000000E+00  0.18497992176E+04  0.18497992176E+04  0.25500000920E-02 0.  1.
       -2   -1    0    0    0  501  0.00000000000E+00  0.00000000000E+00 -0.83469677090E+03  0.83469677091E+03  0.25500000920E-02 0. -1.
    10030    2    1    2    0    0  0.00000000000E+00  0.00000000000E+00  0.10151024467E+04  0.26844959885E+04  0.24851731801E+04 0.  0.
        1    1    3    3  502    0  0.96757058465E+02  0.61680399811E+03  0.16680614090E+04  0.17810777537E+04  0.50400001928E-02 0.  1.
       -1    1    3    3    0  502 -0.96757058465E+02 -0.61680399811E+03 -0.65295896233E+03  0.90341823480E+03  0.50400001928E-02 0. -1.
</event>
<event>
 5   0  0.3814260E-06  0.2504268E+04  0.7818609E-02  0.8401466E-01
       -2   -1    0    0    0  501  0.00000000000E+00  0.00000000000E+00  0.10194193023E+04  0.10194193024E+04  0.25500000920E-02 0. -1.
        2   -1    0    0  501    0  0.00000000000E+00  0.00000000000E+00 -0.15379737053E+04  0.15379737053E+04  0.25500000920E-02 0.  1.
    10030    2    1    2    0    0  0.00000000000E+00  0.00000000000E+00 -0.51855440297E+03  0.25573930077E+04  0.25042684215E+04 0.  0.
        5    1    3    3  502    0  0.11187560380E+03 -0.92434459565E+03  0.59567373086E+03  0.11053408370E+04  0.46999998093E+01 0. -1.
       -5    1    3    3    0  502 -0.11187560380E+03  0.92434459565E+03 -0.11142281338E+04  0.14520521707E+04  0.46999998093E+01 0.  1.
</event>
<event>
 5   0  0.1501747E-06  0.2507562E+04  0.7818609E-02  0.8400296E-01
        1   -1    0    0  501    0  0.00000000000E+00  0.00000000000E+00  0.14408650184E+04  0.14408650184E+04  0.50400001928E-02 0.  1.
       -1   -1    0    0    0  501  0.00000000000E+00  0.00000000000E+00 -0.10909884000E+04  0.10909884000E+04  0.50400001928E-02 0. -1.
    10030    2    1    2    0    0  0.00000000000E+00  0.00000000000E+00  0.34987661847E+03  0.25318534184E+04  0.25075621795E+04 0.  0.
        2    1    3    3  502    0 -0.10037010206E+04  0.47013059356E+03 -0.41685253098E+03  0.11841471810E+04  0.25500000920E-02 0.  1.
       -2    1    3    3    0  502  0.10037010206E+04 -0.47013059356E+03  0.76672914945E+03  0.13477062374E+04  0.25500000920E-02 0. -1.
</event>
<event>
 5   0  0.1574896E-06  0.2502155E+04  0.7818609E-02  0.8402218E-01
       -1   -1    0    0    0  501  0.00000000000E+00  0.00000000000E+00  0.13792564556E+04  0.13792564557E+04  0.50400001928E-02 0.  1.
        1   -1    0    0  501    0  0.00000000000E+00  0.00000000000E+00 -0.11348109928E+04  0.11348109928E+04  0.50400001928E-02 0. -1.
    10030    2    1    2    0    0  0.00000000000E+00  0.00000000000E+00  0.24444546287E+03  0.25140674484E+04  0.25021553811E+04 0.  0.
        3    1    3    3  502    0  0.96483688454E+03  0.68584673979E+01 -0.67795934989E+03  0.11792311659E+04  0.10100000352E+00 0. -1.
       -3    1    3    3    0  502 -0.96483688454E+03 -0.68584673979E+01  0.92240481276E+03  0.13348362825E+04  0.10100000352E+00 0.  1.
</event>
<event>
 5   0  0.1553604E-06  0.2496822E+04  0.7818609E-02  0.8404119E-01
        1   -1    0    0  501    0  0.00000000000E+00  0.00000000000E+00  0.12476779601E+04  0.12476779601E+04  0.50400001928E-02 0.  1.
       -1   -1    0    0    0  501  0.00000000000E+00  0.00000000000E+00 -0.12491446447E+04  0.12491446447E+04  0.50400001928E-02 0. -1.
    10030    2    1    2    0    0  0.00000000000E+00  0.00000000000E+00 -0.14666846122E+01  0.24968226048E+04  0.24968221740E+04 0.  0.
        1    1    3    3  502    0  0.74730900729E+03  0.43414239551E+03 -0.90161077583E+03  0.12489404962E+04  0.50400001928E-02 0. -1.
       -1    1    3    3    0  502 -0.74730900729E+03 -0.43414239551E+03  0.90014409122E+03  0.12478821086E+04  0.50400001928E-02 0.  1.
</event>
<event>
 5   0  0.1501747E-06  0.2502234E+04  0.7818609E-02  0.8402190E-01
       -1   -1    0    0    0  501  0.00000000000E+00  0.00000000000E+00  0.73158933876E+03  0.73158933878E+03  0.50400001928E-02 0.  1.
        1   -1    0    0  501    0  0.00000000000E+00  0.00000000000E+00 -0.21395789220E+04  0.21395789220E+04  0.50400001928E-02 0. -1.
    10030    2    1    2    0    0  0.00000000000E+00  0.00000000000E+00 -0.14079895832E+04  0.28711682608E+04  0.25022335053E+04 0.  0.
        2    1    3    3  502    0  0.54634107232E+03 -0.10619185056E+04 -0.11319978744E+04  0.16454721715E+04  0.25500000920E-02 0. -1.
       -2    1    3    3    0  502 -0.54634107232E+03  0.10619185056E+04 -0.27599170886E+03  0.12256960892E+04  0.25500000920E-02 0.  1.
</event>
<event>
 5   0  0.3713394E-06  0.2498924E+04  0.7818609E-02  0.8403369E-01
        2   -1    0    0  501    0  0.00000000000E+00  0.00000000000E+00  0.19163385041E+04  0.19163385041E+04  0.25500000920E-02 0. -1.
       -2   -1    0    0    0  501  0.00000000000E+00  0.00000000000E+00 -0.81465557365E+03  0.81465557365E+03  0.25500000920E-02 0.  1.
    10030    2    1    2    0    0  0.00000000000E+00  0.00000000000E+00  0.11016829304E+04  0.27309940777E+04  0.24989244433E+04 0.  0.
        3    1    3    3  502    0 -0.59513729590E+03 -0.73500725285E+03 -0.34152493222E+03  0.10055164605E+04  0.10100000352E+00 0.  1.
       -3    1    3    3    0  502  0.59513729590E+03  0.73500725285E+03  0.14432078626E+04  0.17254776173E+04  0.10100000352E+00 0. -1.
</event>
<event>
 5   0  0.1501747E-06  0.2499957E+04  0.7818609E-02  0.8403001E-01
        1   -1    0    0  501    0  0.00000000000E+00  0.00000000000E+00  0.14911513262E+04  0.14911513262E+04  0.50400001928E-02 0. -1.
       -1   -1    0    0    0  501  0.00000000000E+00  0.00000000000E+00 -0.10478122243E+04  0.10478122243E+04  0.50400001928E-02 0.  1.
    10030    2    1    2    0    0  0.00000000000E+00  0.00000000000E+00  0.44333910190E+03  0.25389635505E+04  0.24999572700E+04 0.  0.
        2    1    3    3  502    0  0.98958000041E+03  0.76363467602E+03  0.22810018999E+03  0.12706046562E+04  0.25500000920E-02 0.  1.
       -2    1    3    3    0  502 -0.98958000041E+03 -0.76363467602E+03  0.21523891191E+03  0.12683588943E+04  0.25500000920E-02 0. -1.
</event>
<event>
 5   0  0.3814260E-06  0.2494649E+04  0.7818609E-02  0.8404894E-01
        2   -1    0    0  501    0  0.00000000000E+00  0.00000000000E+00  0.82274132293E+03  0.82274132293E+03  0.25500000920E-02 0. -1.
       -2   -1    0    0    0  501  0.00000000000E+00  0.00000000000E+00 -0.18910171042E+04  0.18910171042E+04  0.25500000920E-02 0.  1.
    10030    2    1    2    0    0  0.00000000000E+00  0.00000000000E+00 -0.10682757813E+04  0.27137584271E+04  0.24946486037E+04 0.  0.
        5    1    3    3  502    0 -0.99059136135E+03  0.62750115396E+03 -0.99664800809E+03  0.15389471354E+04  0.46999998093E+01 0. -1.
       -5    1    3    3    0  502  0.99059136135E+03 -0.62750115396E+03 -0.71627773193E+02  0.11748112918E+04  0.46999998093E+01 0.  1.
</event>
<event>
 5   0  0.3808293E-06  0.2502594E+04  0.7818609E-02  0.8402062E-01
       -2   -1    0    0    0  501  0.00000000000E+00  0.00000000000E+00  0.13317724577E+04  0.13317724577E+04  0.25500000920E-02 0. -1.
        2   -1    0    0  501    0  0.00000000000E+00  0.00000000000E+00 -0.11756841653E+04  0.11756841653E+04  0.25500000920E-02 0.  1.
    10030    2    1    2    0    0  0.00000000000E+00  0.00000000000E+00  0.15608829234E+03  0.25074566230E+04  0.25025936868E+04 0.  0.
        1    1    3    3  502    0  0.31186826286E+03 -0.45937213840E+03  0.12015880254E+04  0.13236685226E+04  0.50400001928E-02 0. -1.
       -1    1    3    3    0  502 -0.31186826286E+03  0.45937213840E+03 -0.10454997330E+04  0.11837881004E+04  0.50400001928E-02 0.  1.
</event>
<event>
 5   0  0.1541852E-06  0.2499708E+04  0.7818609E-02  0.8403090E-01
       -1   -1    0    0    0  501  0.00000000000E+00  0.00000000000E+00  0.12235050577E+04  0.12235050577E+04  0.50400001928E-02 0.  1.
        1   -1    0    0  501    0  0.00000000000E+00  0.00000000000E+00 -0.12767702284E+04  0.12767702284E+04  0.50400001928E-02 0. -1.
    10030    2    1    2    0    0  0.00000000000E+00  0.00000000000E+00 -0.53265170712E+02  0.25002752861E+04  0.24997078485E+04 0.  0.
        5    1    3    3  502    0  0.84487147247E+03  0.67229635293E+03 -0.65631703244E+03  0.12635522657E+04  0.46999998093E+01 0. -1.
       -5    1    3    3    0  502 -0.84487147247E+03 -0.67229635293E+03  0.60305186173E+03  0.12367230204E+04  0.46999998093E+01 0.  1.
</event>
<event>
 5   0  0.1574896E-06  0.2503690E+04  0.7818609E-02  0.8401672E-01
       -1   -1    0    0    0  501  0.00000000000E+00  0.00000000000E+00  0.90120126143E+03  0.90120126145E+03  0.50400001928E-02 0. -1.
        1   -1    0    0  501    0  0.00000000000E+00  0.00000000000E+00 -0.17389189497E+04  0.17389189497E+04  0.50400001928E-02 0.  1.
    10030    2    1    2    0    0  0.00000000000E+00  0.00000000000E+00 -0.83771768826E+03  0.26401202111E+04  0.25036900375E+04 0.  0.
        3    1    3    3  502    0 -0.11414099547E+03  0.10823310562E+04  0.23343374412E+03  0.11130858031E+04  0.10100000352E+00 0. -1.
       -3    1    3    3    0  502  0.11414099547E+03 -0.10823310562E+04 -0.10711514324E+04  0.15270344080E+04  0.10100000352E+00 0.  1.
</event>
<event>
 5   0  0.1553604E-06  0.2504474E+04  0.7818609E-02  0.8401394E-01
       -1   -1    0    0    0  501  0.00000000000E+00  0.00000000000E+00  0.98400640835E+03  0.98400640836E+03  0.50400001928E-02 0. -1.
        1   -1    0    0  501    0  0.00000000000E+00  0.00000000000E+00 -0.15935841193E+04  0.15935841193E+04  0.50400001928E-02 0.  1.
    10030    2    1    2    0    0  0.00000000000E+00  0.00000000000E+00 -0.60957771092E+03  0.25775905276E+04  0.25044735859E+04 0.  0.
        1    1    3    3  502    0  0.94579801916E+03 -0.13431069895E+03 -0.11380702402E+04  0.14858590541E+04  0.50400001928E-02 0.  1.
       -1    1    3    3    0  502 -0.94579801916E+03  0.13431069895E+03  0.52849252926E+03  0.10917314736E+04  0.50400001928E-02 0. -1.
</event>
<event>
 5   0  0.1541852E-06  0.2501566E+04  0.7818609E-02  0.8402428E-01
        1   -1    0    0  501    0  0.00000000000E+00  0.00000000000E+00  0.21096319246E+04  0.21096319246E+04  0.50400001928E-02 0. -1.
       -1   -1    0    0    0  501  0.00000000000E+00  0.00000000000E+00 -0.74157867328E+03  0.74157867330E+03  0.50400001928E-02 0.  1.
    10030    2    1    2    0    0  0.00000000000E+00  0.00000000000E+00  0.13680532514E+04  0.28512105979E+04  0.25015659446E+04 0.  0.
        5    1    3    3  502    0  0.10049559189E+04 -0.50623992010E+03  0.61602766539E+02  0.11269570740E+04  0.46999998093E+01 0.  1.
       -5    1    3    3    0  502 -0.10049559189E+04  0.50623992010E+03  0.13064504848E+04  0.17242535240E+04  0.46999998093E+01 0. -1.
</event>
<event>
 5   0  0.3924441E-06  0.2498612E+04  0.7818609E-02  0.8403480E-01
        2   -1    0    0  501    0  0.00000000000E+00  0.00000000000E+00  0.16305552816E+04  0.16305552816E+04  0.25500000920E-02 0.  1.
       -2   -1    0    0    0  501  0.00000000000E+00  0.00000000000E+00 -0.95719841726E+03  0.95719841726E+03  0.25500000920E-02 0. -1.
    10030    2    1    2    0    0  0.00000000000E+00  0.00000000000E+00  0.67335686436E+03  0.25877536989E+04  0.24986115623E+04 0.  0.
        2    1    3    3  502    0 -0.40119964309E+03  0.45438808054E+03 -0.79469357237E+03  0.99948364435E+03  0.25500000920E-02 0. -1.
       -2    1    3    3    0  502  0.40119964309E+03 -0.45438808054E+03  0.14680504367E+04  0.15882700545E+04  0.25500000920E-02 0.  1.
</event>
<event>
 5   0  0.1501747E-06  0.2495120E+04  0.7818609E-02  0.8404726E-01
        1   -1    0    0  501    0  0.00000000000E+00  0.00000000000E+00  0.90190582012E+03  0.90190582014E+03  0.50400001928E-02 0. -1.
       -1   -1    0    0    0  501  0.00000000000E+00  0.00000000000E+00 -0.17256857580E+04  0.17256857580E+04  0.50400001928E-02 0.  1.
    10030    2    1    2    0    0  0.00000000000E+00  0.00000000000E+00 -0.82377993787E+03  0.26275915781E+04  0.24951200603E+04 0.  0.
        2    1    3    3  502    0 -0.91108159541E+03 -0.60673759939E+03 -0.10421688348E+04  0.15113954044E+04  0.25500000920E-02 0.  1.
       -2    1    3    3    0  502  0.91108159541E+03  0.60673759939E+03  0.21838889698E+03  0.11161961738E+04  0.25500000920E-02 0. -1.
</event>
<event>
 5   0  0.3814260E-06  0.2497586E+04  0.7818609E-02  0.8403846E-01
        2   -1    0    0  501    0  0.00000000000E+00  0.00000000000E+00  0.11706175345E+04  0.11706175346E+04  0.25500000920E-02 0.  1.
       -2   -1    0    0    0  501  0.00000000000E+00  0.00000000000E+00 -0.13321886690E+04  0.13321886690E+04  0.25500000920E-02 0. -1.
    10030    2    1    2    0    0  0.00000000000E+00  0.00000000000E+00 -0.16157113450E+03  0.25028062036E+04  0.24975855664E+04 0.  0.
        5    1    3    3  502    0 -0.60537071323E+03 -0.10701972309E+04  0.13799511742E+03  0.12372794979E+04  0.46999998093E+01 0. -1.
       -5    1    3    3    0  502  0.60537071323E+03  0.10701972309E+04 -0.29956625192E+03  0.12655267057E+04  0.46999998093E+01 0.  1.
</event>
<event>
 5   0  0.1553604E-06  0.2499225E+04  0.7818609E-02  0.8403262E-01
        1   -1    0    0  501    0  0.00000000000E+00  0.00000000000E+00  0.19500378446E+04  0.19500378446E+04  0.50400001928E-02 0. -1.
       -1   -1    0    0    0  501  0.00000000000E+00  0.00000000000E+00 -0.80076962820E+03  0.80076962821E+03  0.50400001928E-02 0.  1.
    10030    2    1    2    0    0  0.00000000000E+00  0.00000000000E+00  0.11492682164E+04  0.27508074729E+04  0.24992247437E+04 0.  0.
        1    1    3    3  502    0  0.17011997937E+03 -0.11415396471E+04  0.11018942531E+04  0.15956893552E+04  0.50400001928E-02 0. -1.
       -1    1    3    3    0  502 -0.17011997937E+03  0.11415396471E+04  0.47373963329E+02  0.11551181176E+04  0.50400001928E-02 0.  1.
</event>
<event>
 5   0  0.3713394E-06  0.2501347E+04  0.7818609E-02  0.8402506E-01
        2   -1    0    0  501    0  0.00000000000E+00  0.00000000000E+00  0.14444895286E+04  0.14444895286E+04  0.25500000920E-02 0.  1.
       -2   -1    0    0    0  501  0.00000000000E+00  0.00000000000E+00 -0.10828633838E+04  0.10828633838E+04  0.25500000920E-02 0. -1.
    10030    2    1    2    0    0  0.00000000000E+00  0.00000000000E+00  0.36162614482E+03  0.25273529123E+04  0.25013474918E+04 0.  0.
        3    1    3    3  502    0 -0.12134443030E+04  0.28864556889E+03  0.27353570527E+03  0.12769436687E+04  0.10100000352E+00 0. -1.
       -3    1    3    3    0  502  0.12134443030E+04 -0.28864556889E+03  0.88090439557E+02  0.12504092436E+04  0.10100000352E+00 0.  1.
</event>
<event>
 5   0  0.3814260E-06  0.2499091E+04  0.7818609E-02  0.8403309E-01
       -2   -1    0    0    0  501  0.00000000000E+00  0.00000000000E+00  0.11616970921E+04  0.11616970921E+04  0.25500000920E-02 0.  1.
        2   -1    0    0  501    0  0.00000000000E+00  0.00000000000E+00 -0.13440372359E+04  0.13440372359E+04  0.25500000920E-02 0. -1.
    10030    2    1    2    0    0  0.00000000000E+00  0.00000000000E+00 -0.18234014385E+03  0.25057343280E+04  0.24990911537E+04 0.  0.
        5    1    3    3  502    0 -0.65816585640E+03 -0.88927324104E+03  0.49119474313E+03  0.12104889745E+04  0.46999998093E+01 0.  1.
       -5    1    3    3    0  502  0.65816585640E+03  0.88927324104E+03 -0.67353488698E+03  0.12952453535E+04  0.46999998093E+01 0. -1.
</event>
<event>
 5   0  0.3814260E-06  0.2501265E+04  0.7818609E-02  0.8402535E-01
        2   -1    0    0  501    0  0.00000000000E+00  0.00000000000E+00  0.11587265291E+04  0.11587265291E+04  0.25500000920E-02 0.  1.
       -2   -1    0    0    0  501  0.00000000000E+00  0.00000000000E+00 -0.13498282672E+04  0.13498282672E+04  0.25500000920E-02 0. -1.
    10030    2    1    2    0    0  0.00000000000E+00  0.00000000000E+00 -0.19110173808E+03  0.25085547963E+04  0.25012651383E+04 0.  0.
        5    1    3    3  502    0  0.65390328534E+03  0.54873312929E+02 -0.11632940280E+04  0.13356180864E+04  0.46999998093E+01 0. -1.
       -5    1    3    3    0  502 -0.65390328534E+03 -0.54873312929E+02  0.97219228991E+03  0.11729367100E+04  0.46999998093E+01 0.  1.
</event>
<event>
 5   0  0.3713394E-06  0.2501388E+04  0.7818609E-02  0.8402491E-01
        2   -1    0    0  501    0  0.00000000000E+00  0.00000000000E+00  0.10395327822E+04  0.10395327822E+04  0.25500000920E-02 0.  1.
       -2   -1    0    0    0  501  0.00000000000E+00  0.00000000000E+00 -0.15047481157E+04  0.15047481157E+04  0.25500000920E-02 0. -1.
    10030    2    1    2    0    0  0.00000000000E+00  0.00000000000E+00 -0.46521533351E+03  0.25442808979E+04  0.25013876111E+04 0.  0.
        3    1    3    3  502    0 -0.51880305959E+03 -0.10279081493E+04  0.26411384015E+03  0.11813161765E+04  0.10100000352E+00 0.  1.
       -3    1    3    3    0  502  0.51880305959E+03  0.10279081493E+04 -0.72932917365E+03  0.13629647214E+04  0.10100000352E+00 0. -1.
</event>
<event>
 5   0  0.1553604E-06  0.2496052E+04  0.7818609E-02  0.8404394E-01
       -1   -1    0    0    0  501  0.00000000000E+00  0.00000000000E+00  0.58903499323E+03  0.58903499325E+03  0.50400001928E-02 0.  1.
        1   -1    0    0  501    0  0.00000000000E+00  0.00000000000E+00 -0.26442714836E+04  0.26442714836E+04  0.50400001928E-02 0. -1.
    10030    2    1    2    0    0  0.00000000000E+00  0.00000000000E+00 -0.20552364904E+04  0.32333064769E+04  0.24960516305E+04 0.  0.
        1    1    3    3  502    0 -0.93280089708E+03  0.34841246968E+03 -0.20022137767E+04  0.22361504355E+04  0.50400001928E-02 0. -1.
       -1    1    3    3    0  502  0.93280089708E+03 -0.34841246968E+03 -0.53022713682E+02  0.99715604135E+03  0.50400001928E-02 0.  1.
</event>
<event>
 5   0  0.1519145E-06  0.2504850E+04  0.7818609E-02  0.8401260E-01
       -1   -1    0    0    0  501  0.00000000000E+00  0.00000000000E+00  0.12167139413E+04  0.12167139413E+04  0.50400001928E-02 0. -1.
        1   -1    0    0  501    0  0.00000000000E+00  0.00000000000E+00 -0.12891844197E+04  0.12891844197E+04  0.50400001928E-02 0.  1.
    10030    2    1    2    0    0  0.00000000000E+00  0.00000000000E+00 -0.72470478421E+02  0.25058983610E+04  0.25048502202E+04 0.  0.
        4    1    3    3  502    0  0.45588553537E+03  0.79118992740E+03  0.82130132387E+03  0.12281492581E+04  0.12699999809E+01 0. -1.
       -4    1    3    3    0  502 -0.45588553537E+03 -0.79118992740E+03 -0.89377180230E+03  0.12777491029E+04  0.12699999809E+01 0.  1.
</event>
<event>
 5   0  0.1541852E-06  0.2497724E+04  0.7818609E-02  0.8403797E-01
        1   -1    0    0  501    0  0.00000000000E+00  0.00000000000E+00  0.13040029334E+04  0.13040029334E+04  0.50400001928E-02 0.  1.
       -1   -1    0    0    0  501  0.00000000000E+00  0.00000000000E+00 -0.11960525798E+04  0.11960525798E+04  0.50400001928E-02 0. -1.
    10030    2    1    2    0    0  0.00000000000E+00  0.00000000000E+00  0.10795035362E+03  0.25000555132E+04  0.24977238218E+04 0.  0.
        5    1    3    3  502    0  0.34745390484E+03  0.57462397354E+02  0.12532622344E+04  0.13018119915E+04  0.46999998093E+01 0.  1.
       -5    1    3    3    0  502 -0.34745390484E+03 -0.57462397354E+02 -0.11453118807E+04  0.11982435217E+04  0.46999998093E+01 0. -1.
</event>
<event>
 5   0  0.3924441E-06  0.2496179E+04  0.7818609E-02  0.8404348E-01
        2   -1    0    0  501    0  0.00000000000E+00  0.00000000000E+00  0.19686230894E+04  0.19686230894E+04  0.25500000920E-02 0. -1.
       -2   -1    0    0    0  501  0.00000000000E+00  0.00000000000E+00 -0.79127790775E+03  0.79127790775E+03  0.25500000920E-02 0.  1.
    10030    2    1    2    0    0  0.00000000000E+00  0.00000000000E+00  0.11773451816E+04  0.27599009971E+04  0.24961794481E+04 0.  0.
        2    1    3    3  502    0 -0.53322491474E+03  0.10109592837E+04  0.11429997987E+04  0.16164207444E+04  0.25500000920E-02 0. -1.
       -2    1    3    3    0  502  0.53322491474E+03 -0.10109592837E+04  0.34345382933E+02  0.11434802527E+04  0.25500000920E-02 0.  1.
</event>
<event>
 5   0  0.1574896E-06  0.2498630E+04  0.7818609E-02  0.8403474E-01
       -1   -1    0    0    0  501  0.00000000000E+00  0.00000000000E+00  0.57090915313E+03  0.57090915315E+03  0.50400001928E-02 0. -1.
        1   -1    0    0  501    0  0.00000000000E+00  0.00000000000E+00 -0.27338640771E+04  0.27338640771E+04  0.50400001928E-02 0.  1.
    10030    2    1    2    0    0  0.00000000000E+00  0.00000000000E+00 -0.21629549240E+04  0.33047732303E+04  0.24986300447E+04 0.  0.
        3    1    3    3  502    0  0.64189052030E+03 -0.88577947654E+02 -0.24942330103E+04  0.25770269328E+04  0.10100000352E+00 0.  1.
       -3    1    3    3    0  502 -0.64189052030E+03  0.88577947654E+02  0.33127808625E+03  0.72774629747E+03  0.10100000352E+00 0. -1.
</event>
<event>
 5   0  0.1519145E-06  0.2494061E+04  0.7818609E-02  0.8405105E-01
        1   -1    0    0  501    0  0.00000000000E+00  0.00000000000E+00  0.13981390917E+04  0.13981390917E+04  0.50400001928E-02 0.  1.
       -1   -1    0    0    0  501  0.00000000000E+00  0.00000000000E+00 -0.11122531379E+04  0.11122531379E+04  0.50400001928E-02 0. -1.
    10030    2    1    2    0    0  0.00000000000E+00  0.00000000000E+00  0.28588595380E+03  0.25103922296E+04  0.24940606183E+04 0.  0.
        4    1    3    3  502    0  0.78793512348E+03 -0.12232937237E+03 -0.82212457570E+03  0.11452932659E+04  0.12699999809E+01 0. -1.
       -4    1    3    3    0  502 -0.78793512348E+03  0.12232937237E+03  0.11080105295E+04  0.13650989636E+04  0.12699999809E+01 0.  1.
</event>
<event>
 5   0  0.3971759E-06  0.2498487E+04  0.7818609E-02  0.8403525E-01
       -2   -1    0    0    0  501  0.00000000000E+00  0.00000000000E+00  0.59142267543E+03  0.59142267543E+03  0.25500000920E-02 0. -1.
        2   -1    0    0  501    0  0.00000000000E+00  0.00000000000E+00 -0.26387380811E+04  0.26387380811E+04  0.25500000920E-02 0.  1.
    10030    2    1    2    0    0  0.00000000000E+00  0.00000000000E+00 -0.20473154057E+04  0.32301607566E+04  0.24984871708E+04 0.  0.
        4    1    3    3  502    0 -0.63931880352E+03 -0.52132934007E+03 -0.22365208958E+04  0.23838079083E+04  0.12699999809E+01 0.  1.
       -4    1    3    3    0  502  0.63931880352E+03  0.52132934007E+03  0.18920549013E+03  0.84635284825E+03  0.12699999809E+01 0. -1.
</event>
<event>
 5   0  0.1519145E-06  0.2516014E+04  0.7818609E-02  0.8397303E-01
        1   -1    0    0  501    0  0.00000000000E+00  0.00000000000E+00  0.13963137833E+04  0.13963137833E+04  0.50400001928E-02 0.  1.
       -1   -1    0    0    0  501  0.00000000000E+00  0.00000000000E+00 -0.11333996843E+04  0.11333996844E+04  0.50400001928E-02 0. -1.
    10030    2    1    2    0    0  0.00000000000E+00  0.00000000000E+00  0.26291409896E+03  0.25297134677E+04  0.25160139914E+04 0.  0.
        4    1    3    3  502    0 -0.32867345420E+03 -0.90959237695E+03  0.94032198844E+03  0.13489223797E+04  0.12699999809E+01 0.  1.
       -4    1    3    3    0  502  0.32867345420E+03  0.90959237695E+03 -0.67740788949E+03  0.11807910879E+04  0.12699999809E+01 0. -1.
</event>
<event>
 5   0  0.1519145E-06  0.2504158E+04  0.7818609E-02  0.8401506E-01
        1   -1    0    0  501    0  0.00000000000E+00  0.00000000000E+00  0.12108483464E+04  0.12108483464E+04  0.50400001928E-02 0. -1.
       -1   -1    0    0    0  501  0.00000000000E+00  0.00000000000E+00 -0.12947140486E+04  0.12947140486E+04  0.50400001928E-02 0.  1.
    10030    2    1    2    0    0  0.00000000000E+00  0.00000000000E+00 -0.83865702163E+02  0.25055623950E+04  0.25041584333E+04 0.  0.
        4    1    3    3  502    0 -0.58576931900E+03 -0.32154359445E+03 -0.11013866326E+04  0.12882430305E+04  0.12699999809E+01 0.  1.
       -4    1    3    3    0  502  0.58576931900E+03  0.32154359445E+03  0.10175209305E+04  0.12173193644E+04  0.12699999809E+01 0. -1.
</event>
<event>
 5   0  0.1553604E-06  0.2563083E+04  0.7818609E-02  0.8380850E-01
        1   -1    0    0  501    0  0.00000000000E+00  0.00000000000E+00  0.16905284762E+04  0.16905284762E+04  0.50400001928E-02 0.  1.
       -1   -1    0    0    0  501  0.00000000000E+00  0.00000000000E+00 -0.97150037211E+03  0.97150037212E+03  0.50400001928E-02 0. -1.
    10030    2    1    2    0    0  0.00000000000E+00  0.00000000000E+00  0.71902810406E+03  0.26620288483E+04  0.25630833335E+04 0.  0.
        1    1    3    3  502    0 -0.12394820671E+04 -0.30256640504E+03  0.23450641236E+03  0.12972491980E+04  0.50400001928E-02 0. -1.
       -1    1    3    3    0  502  0.12394820671E+04  0.30256640504E+03  0.48452169169E+03  0.13647796503E+04  0.50400001928E-02 0.  1.
</event>
<event>
 5   0  0.3808293E-06  0.2493456E+04  0.7818609E-02  0.8405321E-01
       -2   -1    0    0    0  501  0.00000000000E+00  0.00000000000E+00  0.12177495768E+04  0.12177495768E+04  0.25500000920E-02 0. -1.
        2   -1    0    0  501    0  0.00000000000E+00  0.00000000000E+00 -0.12763957641E+04  0.12763957641E+04  0.25500000920E-02 0.  1.
    10030    2    1    2    0    0  0.00000000000E+00  0.00000000000E+00 -0.58646187288E+02  0.24941453409E+04  0.24934557559E+04 0.  0.
        1    1    3    3  502    0 -0.81557039586E+03  0.73875522460E+03  0.55685608055E+03  0.12332895228E+04  0.50400001928E-02 0. -1.
       -1    1    3    3    0  502  0.81557039586E+03 -0.73875522460E+03 -0.61550226783E+03  0.12608558182E+04  0.50400001928E-02 0.  1.
</event>
<event>
 5   0  0.1574896E-06  0.2500971E+04  0.7818609E-02  0.8402640E-01
       -1   -1    0    0    0  501  0.00000000000E+00  0.00000000000E+00  0.67433404137E+03  0.67433404138E+03  0.50400001928E-02 0. -1.
        1   -1    0    0  501    0  0.00000000000E+00  0.00000000000E+00 -0.23189013934E+04  0.23189013934E+04  0.50400001928E-02 0.  1.
    10030    2    1    2    0    0  0.00000000000E+00  0.00000000000E+00 -0.16445673521E+04  0.29932354348E+04  0.25009711299E+04 0.  0.
        3    1    3    3  502    0  0.10006787247E+03 -0.77394887235E+03 -0.19916928666E+04  0.21391238677E+04  0.10100000352E+00 0.  1.
       -3    1    3    3    0  502 -0.10006787247E+03  0.77394887235E+03  0.34712551453E+03  0.85411156716E+03  0.10100000352E+00 0. -1.
</event>
<event>
 5   0  0.3924441E-06  0.2500892E+04  0.7818609E-02  0.8402668E-01
        2   -1    0    0  501    0  0.00000000000E+00  0.00000000000E+00  0.19597956005E+04  0.19597956005E+04  0.25500000920E-02 0.  1.
       -2   -1    0    0    0  501  0.00000000000E+00  0.00000000000E+00 -0.79784611816E+03  0.79784611817E+03  0.25500000920E-02 0. -1.
    10030    2    1    2    0    0  0.00000000000E+00  0.00000000000E+00  0.11619494824E+04  0.27576417187E+04  0.25008920907E+04 0.  0.
        2    1    3    3  502    0 -0.43098697184E+03 -0.47237416802E+03 -0.60392818305E+03  0.87955464571E+03  0.25500000920E-02 0. -1.
       -2    1    3    3    0  502  0.43098697184E+03  0.47237416802E+03  0.17658776654E+04  0.18780870730E+04  0.25500000920E-02 0.  1.
</event>
<event>
 5   0  0.3713394E-06  0.2500998E+04  0.7818609E-02  0.8402630E-01
       -2   -1    0    0    0  501  0.00000000000E+00  0.00000000000E+00  0.71478114381E+03  0.71478114381E+03  0.25500000920E-02 0.  1.
        2   -1    0    0  501    0  0.00000000000E+00  0.00000000000E+00 -0.21877297758E+04  0.21877297758E+04  0.25500000920E-02 0. -1.
    10030    2    1    2    0    0  0.00000000000E+00  0.00000000000E+00 -0.14729486320E+04  0.29025109197E+04  0.25009981939E+04 0.  0.
        3    1    3    3  502    0  0.10879577453E+04 -0.56201581125E+03 -0.10306071364E+04  0.16005201990E+04  0.10100000352E+00 0. -1.
       -3    1    3    3    0  502 -0.10879577453E+04  0.56201581125E+03 -0.44234149562E+03  0.13019907206E+04  0.10100000352E+00 0.  1.
</event>
<event>
 5   0  0.1541852E-06  0.2495049E+04  0.7818609E-02  0.8404751E-01
        1   -1    0    0  501    0  0.00000000000E+00  0.00000000000E+00  0.15780429688E+04  0.15780429688E+04  0.50400001928E-02 0.  1.
       -1   -1    0    0    0  501  0.00000000000E+00  0.00000000000E+00 -0.98623257610E+03  0.98623257612E+03  0.50400001928E-02 0. -1.
    10030    2    1    2    0    0  0.00000000000E+00  0.00000000000E+00  0.59181039272E+03  0.25642755449E+04  0.24950490034E+04 0.  0.
        5    1    3    3  502    0 -0.38271052459E+02 -0.10533418695E+04  0.98172923294E+03  0.14404194334E+04  0.46999998093E+01 0.  1.
       -5    1    3    3    0  502  0.38271052459E+02  0.10533418695E+04 -0.38991884022E+03  0.11238561115E+04  0.46999998093E+01 0. -1.
</event>
<event>
 5   0  0.3971759E-06  0.2499844E+04  0.7818609E-02  0.8403041E-01
       -2   -1    0    0    0  501  0.00000000000E+00  0.00000000000E+00  0.64644385326E+03  0.64644385326E+03  0.25500000920E-02 0.  1.
        2   -1    0    0  501    0  0.00000000000E+00  0.00000000000E+00 -0.24167689539E+04  0.24167689539E+04  0.25500000920E-02 0. -1.
    10030    2    1    2    0    0  0.00000000000E+00  0.00000000000E+00 -0.17703251006E+04  0.30632128071E+04  0.24998443431E+04 0.  0.
        4    1    3    3  502    0  0.57522980343E+03 -0.12301020319E+03  0.46622999013E+03  0.75059499961E+03  0.12699999809E+01 0.  1.
       -4    1    3    3    0  502 -0.57522980343E+03  0.12301020319E+03 -0.22365550907E+04  0.23126178075E+04  0.12699999809E+01 0. -1.
</event>
<event>
 5   0  0.3971759E-06  0.2482606E+04  0.7818609E-02  0.8409208E-01
        2   -1    0    0  501    0  0.00000000000E+00  0.00000000000E+00  0.27582794284E+04  0.27582794284E+04  0.25500000920E-02 0. -1.
       -2   -1    0    0    0  501  0.00000000000E+00  0.00000000000E+00 -0.55862129589E+03  0.55862129590E+03  0.25500000920E-02 0.  1.
    10030    2    1    2    0    0  0.00000000000E+00  0.00000000000E+00  0.21996581325E+04  0.33169007243E+04  0.24826063955E+04 0.  0.
        4    1    3    3  502    0  0.21786182832E+03  0.87309434315E+03  0.22421954732E+04  0.24160297311E+04  0.12699999809E+01 0. -1.
       -4    1    3    3    0  502 -0.21786182832E+03 -0.87309434315E+03 -0.42537340681E+02  0.90087099328E+03  0.12699999809E+01 0.  1.
</event>
<event>
 5   0  0.3924441E-06  0.2499758E+04  0.7818609E-02  0.8403072E-01
        2   -1    0    0  501    0  0.00000000000E+00  0.00000000000E+00  0.10050781331E+04  0.10050781331E+04  0.25500000920E-02 0. -1.
       -2   -1    0    0    0  501  0.00000000000E+00  0.00000000000E+00 -0.15543044746E+04  0.15543044746E+04  0.25500000920E-02 0.  1.
    10030    2    1    2    0    0  0.00000000000E+00  0.00000000000E+00 -0.54922634157E+03  0.25593826077E+04  0.24997579400E+04 0.  0.
        2    1    3    3  502    0  0.21489745361E+03  0.86159006618E+03 -0.11751836058E+04  0.14729476790E+04  0.25500000920E-02 0.  1.
       -2    1    3    3    0  502 -0.21489745361E+03 -0.86159006618E+03  0.62595726422E+03  0.10864349287E+04  0.25500000920E-02 0. -1.
</event>
<event>
 5   0  0.1541852E-06  0.2491678E+04  0.7818609E-02  0.8405956E-01
        1   -1    0    0  501    0  0.00000000000E+00  0.00000000000E+00  0.12353592877E+04  0.12353592877E+04  0.50400001928E-02 0. -1.
       -1   -1    0    0    0  501  0.00000000000E+00  0.00000000000E+00 -0.12564078479E+04  0.12564078479E+04  0.50400001928E-02 0.  1.
    10030    2    1    2    0    0  0.00000000000E+00  0.00000000000E+00 -0.21048560205E+02  0.24917671355E+04  0.24916782328E+04 0.  0.
        5    1    3    3  502    0 -0.95965069908E+03 -0.17934319589E+03  0.76345395797E+03  0.12393455862E+04  0.46999998093E+01 0. -1.
       -5    1    3    3    0  502  0.95965069908E+03  0.17934319589E+03 -0.78450251817E+03  0.12524215493E+04  0.46999998093E+01 0.  1.
</event>
<event>
 5   0  0.3713394E-06  0.2497533E+04  0.7818609E-02  0.8403865E-01
        2   -1    0    0  501    0  0.00000000000E+00  0.00000000000E+00  0.10506304017E+04  0.10506304017E+04  0.25500000920E-02 0. -1.
       -2   -1    0    0    0  501  0.00000000000E+00  0.00000000000E+00 -0.14842688688E+04  0.14842688688E+04  0.25500000920E-02 0.  1.
    10030    2    1    2    0    0  0.00000000000E+00  0.00000000000E+00 -0.43363846715E+03  0.25348992705E+04  0.24975331812E+04 0.  0.
        3    1    3    3  502    0  0.53245060675E+03 -0.94463651618E+03  0.41178204622E+03  0.11599164884E+04  0.10100000352E+00 0. -1.
       -3    1    3    3    0  502 -0.53245060675E+03  0.94463651618E+03 -0.84542051337E+03  0.13749827821E+04  0.10100000352E+00 0.  1.
</event>
<event>
 5   0  0.1287375E-06  0.2496730E+04  0.7818609E-02  0.8404151E-01
       -3   -1    0    0    0  501  0.00000000000E+00  0.00000000000E+00  0.17321990730E+04  0.17321990759E+04  0.10100000352E+00 0.  1.
        3   -1    0    0  501    0  0.00000000000E+00  0.00000000000E+00 -0.89967455721E+03  0.89967456288E+03  0.10100000352E+00 0. -1.
    10030    2    1    2    0    0  0.00000000000E+00  0.00000000000E+00  0.83252451575E+03  0.26318736388E+04  0.24967302180E+04 0.  0.
        1    1    3    3  502    0  0.14210985857E+03  0.11904716197E+04  0.78293760845E+03  0.14319249938E+04  0.50400001928E-02 0.  1.
       -1    1    3    3    0  502 -0.14210985857E+03 -0.11904716197E+04  0.49586907301E+02  0.11999486450E+04  0.50400001928E-02 0. -1.
</event>
<event>
 5   0  0.1574896E-06  0.2506087E+04  0.7818609E-02  0.8400820E-01
       -1   -1    0    0    0  501  0.00000000000E+00  0.00000000000E+00  0.92101236094E+03  0.92101236096E+03  0.50400001928E-02 0.  1.
        1   -1    0    0  501    0  0.00000000000E+00  0.00000000000E+00 -0.17047747444E+04  0.17047747444E+04  0.50400001928E-02 0. -1.
    10030    2    1    2    0    0  0.00000000000E+00  0.00000000000E+00 -0.78376238349E+03  0.26257871054E+04  0.25060874783E+04 0.  0.
        3    1    3    3  502    0  0.31247226138E+03 -0.10732071062E+03  0.87455332206E+03  0.93487976360E+03  0.10100000352E+00 0.  1.
       -3    1    3    3    0  502 -0.31247226138E+03  0.10732071062E+03 -0.16583157056E+04  0.16909073418E+04  0.10100000352E+00 0. -1.
</event>
<event>
 5   0  0.1287375E-06  0.2496889E+04  0.7818609E-02  0.8404095E-01
        3   -1    0    0  501    0  0.00000000000E+00  0.00000000000E+00  0.66508295918E+03  0.66508296685E+03  0.10100000352E+00 0. -1.
       -3   -1    0    0    0  501  0.00000000000E+00  0.00000000000E+00 -0.23434874880E+04  0.23434874902E+04  0.10100000352E+00 0.  1.
    10030    2    1    2    0    0  0.00000000000E+00  0.00000000000E+00 -0.16784045288E+04  0.30085704570E+04  0.24968889508E+04 0.  0.
        5    1    3    3  502    0  0.39231874544E+03 -0.10670722593E+04 -0.21771850059E+03  0.11575753280E+04  0.46999998093E+01 0. -1.
       -5    1    3    3    0  502 -0.39231874544E+03  0.10670722593E+04 -0.14606860282E+04  0.18509951290E+04  0.46999998093E+01 0.  1.
</event>
<event>
 5   0  0.3971759E-06  0.2504499E+04  0.7818609E-02  0.8401385E-01
        2   -1    0    0  501    0  0.00000000000E+00  0.00000000000E+00  0.19727422047E+04  0.19727422047E+04  0.25500000920E-02 0. -1.
       -2   -1    0    0    0  501  0.00000000000E+00  0.00000000000E+00 -0.79489791599E+03  0.79489791599E+03  0.25500000920E-02 0.  1.
    10030    2    1    2    0    0  0.00000000000E+00  0.00000000000E+00  0.11778442887E+04  0.27676401207E+04  0.25044988858E+04 0.  0.
        4    1    3    3  502    0 -0.93243743733E+03  0.35971921613E+03  0.14227096572E+04  0.17386609418E+04  0.12699999809E+01 0. -1.
       -4    1    3    3    0  502  0.93243743733E+03 -0.35971921613E+03 -0.24486536849E+03  0.10289791789E+04  0.12699999809E+01 0.  1.
</event>
<event>
 5   0  0.1519145E-06  0.2499441E+04  0.7818609E-02  0.8403185E-01
        1   -1    0    0  501    0  0.00000000000E+00  0.00000000000E+00  0.15055611862E+04  0.15055611862E+04  0.50400001928E-02 0.  1.
       -1   -1    0    0    0  501  0.00000000000E+00  0.00000000000E+00 -0.10373550106E+04  0.10373550106E+04  0.50400001928E-02 0. -1.
    10030    2    1    2    0    0  0.00000000000E+00  0.00000000000E+00  0.46820617558E+03  0.25429161968E+04  0.24994410897E+04 0.  0.
        4    1    3    3  502    0 -0.11494145113E+04 -0.40080348216E+03  0.52187036194E+03  0.13244423120E+04  0.12699999809E+01 0. -1.
       -4    1    3    3    0  502  0.11494145113E+04  0.40080348216E+03 -0.53664186363E+02  0.12184738848E+04  0.12699999809E+01 0.  1.
</event>
<event>
 5   0  0.1574896E-06  0.2501183E+04  0.7818609E-02  0.8402564E-01
        1   -1    0    0  501    0  0.00000000000E+00  0.00000000000E+00  0.22530898702E+04  0.22530898702E+04  0.50400001928E-02 0.  1.
       -1   -1    0    0    0  501  0.00000000000E+00  0.00000000000E+00 -0.69414881168E+03  0.69414881170E+03  0.50400001928E-02 0. -1.
    10030    2    1    2    0    0  0.00000000000E+00  0.00000000000E+00  0.15589410585E+04  0.29472386819E+04  0.25011834447E+04 0.  0.
        3    1    3    3  502    0  0.47021174718E+03  0.68975657440E+03  0.18767278067E+04  0.20540132643E+04  0.10100000352E+00 0.  1.
       -3    1    3    3    0  502 -0.47021174718E+03 -0.68975657440E+03 -0.31778674822E+03  0.89322541760E+03  0.10100000352E+00 0. -1.
</event>
<event>
 5   0  0.3924441E-06  0.2502701E+04  0.7818609E-02  0.8402024E-01
        2   -1    0    0  501    0  0.00000000000E+00  0.00000000000E+00  0.19687263229E+04  0.19687263229E+04  0.25500000920E-02 0. -1.
       -2   -1    0    0    0  501  0.00000000000E+00  0.00000000000E+00 -0.79537633168E+03  0.79537633169E+03  0.25500000920E-02 0.  1.
    10030    2    1    2    0    0  0.00000000000E+00  0.00000000000E+00  0.11733499912E+04  0.27641026546E+04  0.25027011973E+04 0.  0.
        2    1    3    3  502    0  0.11542578064E+04 -0.38042328466E+03  0.25747293391E+03  0.12423064319E+04  0.25500000920E-02 0. -1.
       -2    1    3    3    0  502 -0.11542578064E+04  0.38042328466E+03  0.91587705728E+03  0.15217962226E+04  0.25500000920E-02 0.  1.
</event>
<event>
 5   0  0.1574896E-06  0.2504043E+04  0.7818609E-02  0.8401547E-01
       -1   -1    0    0    0  501  0.00000000000E+00  0.00000000000E+00  0.96845362605E+03  0.96845362606E+03  0.50400001928E-02 0.  1.
        1   -1    0    0  501    0  0.00000000000E+00  0.00000000000E+00 -0.16186193116E+04  0.16186193116E+04  0.50400001928E-02 0. -1.
    10030    2    1    2    0    0  0.00000000000E+00  0.00000000000E+00 -0.65016568558E+03  0.25870729377E+04  0.25040429242E+04 0.  0.
        3    1    3    3  502    0 -0.54268368157E+03  0.10757293401E+04  0.26583600802E+02  0.12051580350E+04  0.10100000352E+00 0.  1.
       -3    1    3    3    0  502  0.54268368157E+03 -0.10757293401E+04 -0.67674928638E+03  0.13819149027E+04  0.10100000352E+00 0. -1.
</event>
<event>
 5   0  0.3808293E-06  0.2501055E+04  0.7818609E-02  0.8402610E-01
        2   -1    0    0  501    0  0.00000000000E+00  0.00000000000E+00  0.16016935422E+04  0.16016935422E+04  0.25500000920E-02 0.  1.
       -2   -1    0    0    0  501  0.00000000000E+00  0.00000000000E+00 -0.97635357852E+03  0.97635357852E+03  0.25500000920E-02 0. -1.
    10030    2    1    2    0    0  0.00000000000E+00  0.00000000000E+00  0.62533996366E+03  0.25780471207E+04  0.25010551546E+04 0.  0.
        1    1    3    3  502    0 -0.96476492885E+03 -0.79550438521E+03  0.29735922476E+03  0.12853097305E+04  0.50400001928E-02 0. -1.
       -1    1    3    3    0  502  0.96476492885E+03  0.79550438521E+03  0.32798073890E+03  0.12927373902E+04  0.50400001928E-02 0.  1.
</event>
<event>
 5   0  0.3808293E-06  0.2495358E+04  0.7818609E-02  0.8404641E-01
        2   -1    0    0  501    0  0.00000000000E+00  0.00000000000E+00  0.14767242791E+04  0.14767242791E+04  0.25500000920E-02 0.  1.
       -2   -1    0    0    0  501  0.00000000000E+00  0.00000000000E+00 -0.10541597535E+04  0.10541597535E+04  0.25500000920E-02 0. -1.
    10030    2    1    2    0    0  0.00000000000E+00  0.00000000000E+00  0.42256452560E+03  0.25308840327E+04  0.24953583327E+04 0.  0.
        1    1    3    3  502    0 -0.51405694138E+03 -0.10660044968E+03 -0.93668186742E+03  0.10737742387E+04  0.50400001928E-02 0. -1.
       -1    1    3    3    0  502  0.51405694138E+03  0.10660044968E+03  0.13592463930E+04  0.14571097940E+04  0.50400001928E-02 0.  1.
</event>
<event>
 5   0  0.3713394E-06  0.2507259E+04  0.7818609E-02  0.8400404E-01
        2   -1    0    0  501    0  0.00000000000E+00  0.00000000000E+00  0.13031301305E+04  0.13031301305E+04  0.25500000920E-02 0.  1.
       -2   -1    0    0    0  501  0.00000000000E+00  0.00000000000E+00 -0.12060089514E+04  0.12060089514E+04  0.25500000920E-02 0. -1.
    10030    2    1    2    0    0  0.00000000000E+00  0.00000000000E+00  0.97121179121E+02  0.25091390819E+04  0.25072587439E+04 0.  0.
        3    1    3    3  502    0 -0.99478149031E+03  0.44444009152E+03 -0.57196037816E+03  0.12305510525E+04  0.10100000352E+00 0. -1.
       -3    1    3    3    0  502  0.99478149031E+03 -0.44444009152E+03  0.66908155728E+03  0.12785880294E+04  0.10100000352E+00 0.  1.
</event>
<event>
 5   0  0.3713394E-06  0.2501148E+04  0.7818609E-02  0.8402577E-01
        2   -1    0    0  501    0  0.00000000000E+00  0.00000000000E+00  0.11728135177E+04  0.11728135177E+04  0.25500000920E-02 0. -1.
       -2   -1    0    0    0  501  0.00000000000E+00  0.00000000000E+00 -0.13334905217E+04  0.13334905217E+04  0.25500000920E-02 0.  1.
    10030    2    1    2    0    0  0.00000000000E+00  0.00000000000E+00 -0.16067700399E+03  0.25063040394E+04  0.25011483039E+04 0.  0.
        3    1    3    3  502    0  0.42028138832E+03 -0.28655754561E+03  0.10644629866E+04  0.11797597774E+04  0.10100000352E+00 0. -1.
       -3    1    3    3    0  502 -0.42028138832E+03  0.28655754561E+03 -0.12251399906E+04  0.13265442620E+04  0.10100000352E+00 0.  1.
</event>
<event>
 5   0  0.3814260E-06  0.2500296E+04  0.7818609E-02  0.8402880E-01
       -2   -1    0    0    0  501  0.00000000000E+00  0.00000000000E+00  0.84112878802E+03  0.84112878802E+03  0.25500000920E-02 0.  1.
        2   -1    0    0  501    0  0.00000000000E+00  0.00000000000E+00 -0.18580623530E+04  0.18580623530E+04  0.25500000920E-02 0. -1.
    10030    2    1    2    0    0  0.00000000000E+00  0.00000000000E+00 -0.10169335650E+04  0.26991911410E+04  0.25002957705E+04 0.  0.
        5    1    3    3  502    0  0.93069049464E+03  0.37406699091E+03 -0.13139698387E+04  0.16530728167E+04  0.46999998093E+01 0. -1.
       -5    1    3    3    0  502 -0.93069049464E+03 -0.37406699091E+03  0.29703627369E+03  0.10461183243E+04  0.46999998093E+01 0.  1.
</event>
<event>
 5   0  0.1574896E-06  0.2498735E+04  0.7818609E-02  0.8403436E-01
       -1   -1    0    0    0  501  0.00000000000E+00  0.00000000000E+00  0.11689663864E+04  0.11689663864E+04  0.50400001928E-02 0.  1.
        1   -1    0    0  501    0  0.00000000000E+00  0.00000000000E+00 -0.13352987302E+04  0.13352987302E+04  0.50400001928E-02 0. -1.
    10030    2    1    2    0    0  0.00000000000E+00  0.00000000000E+00 -0.16633234379E+03  0.25042651167E+04  0.24987351452E+04 0.  0.
        3    1    3    3  502    0 -0.12246516652E+04 -0.24624484783E+03 -0.10582361676E+03  0.12536374573E+04  0.10100000352E+00 0. -1.
       -3    1    3    3    0  502  0.12246516652E+04  0.24624484783E+03 -0.60508727030E+02  0.12506276594E+04  0.10100000352E+00 0.  1.
</event>
<event>
 5   0  0.1519145E-06  0.2502014E+04  0.7818609E-02  0.8402268E-01
        1   -1    0    0  501    0  0.00000000000E+00  0.00000000000E+00  0.10218854473E+04  0.10218854473E+04  0.50400001928E-02 0. -1.
       -1   -1    0    0    0  501  0.00000000000E+00  0.00000000000E+00 -0.15315012403E+04  0.15315012403E+04  0.50400001928E-02 0.  1.
    10030    2    1    2    0    0  0.00000000000E+00  0.00000000000E+00 -0.50961579304E+03  0.25533866876E+04  0.25020142525E+04 0.  0.
        4    1    3    3  502    0 -0.58395229807E+02  0.59962923742E+03  0.86408479403E+03  0.10533799739E+04  0.12699999809E+01 0. -1.
       -4    1    3    3    0  502  0.58395229807E+02 -0.59962923742E+03 -0.13737005871E+04  0.15000067137E+04  0.12699999809E+01 0.  1.
</event>
<event>
 5   0  0.3971759E-06  0.2473301E+04  0.7818609E-02  0.8412559E-01
        2   -1    0    0  501    0  0.00000000000E+00  0.00000000000E+00  0.15051147936E+04  0.15051147936E+04  0.25500000920E-02 0. -1.
       -2   -1    0    0    0  501  0.00000000000E+00  0.00000000000E+00 -0.10160715752E+04  0.10160715752E+04  0.25500000920E-02 0.  1.
    10030    2    1    2    0    0  0.00000000000E+00  0.00000000000E+00  0.48904321839E+03  0.25211863688E+04  0.24733009192E+04 0.  0.
        4    1    3    3  502    0  0.79017347132E+03 -0.57093511059E+03  0.10201486125E+04  0.14110442302E+04  0.12699999809E+01 0. -1.
       -4    1    3    3    0  502 -0.79017347132E+03  0.57093511059E+03 -0.53110539408E+03  0.11101421386E+04  0.12699999809E+01 0.  1.
</event>
<event>
 5   0  0.1574896E-06  0.2504696E+04  0.7818609E-02  0.8401315E-01
        1   -1    0    0  501    0  0.00000000000E+00  0.00000000000E+00  0.14196993785E+04  0.14196993785E+04  0.50400001928E-02 0.  1.
       -1   -1    0    0    0  501  0.00000000000E+00  0.00000000000E+00 -0.11047235963E+04  0.11047235963E+04  0.50400001928E-02 0. -1.
    10030    2    1    2    0    0  0.00000000000E+00  0.00000000000E+00  0.31497578214E+03  0.25244229748E+04  0.25046959122E+04 0.  0.
        3    1    3    3  502    0 -0.39375876954E+03  0.64660853026E+03  0.11629556645E+04  0.13876651065E+04  0.10100000352E+00 0.  1.
       -3    1    3    3    0  502  0.39375876954E+03 -0.64660853026E+03 -0.84797988238E+03  0.11367578683E+04  0.10100000352E+00 0. -1.
</event>
<event>
 5   0  0.1501747E-06  0.2496312E+04  0.7818609E-02  0.8404300E-01
        1   -1    0    0  501    0  0.00000000000E+00  0.00000000000E+00  0.88893004119E+03  0.88893004120E+03  0.50400001928E-02 0.  1.
       -1   -1    0    0    0  501  0.00000000000E+00  0.00000000000E+00 -0.17525493477E+04  0.17525493477E+04  0.50400001928E-02 0. -1.
    10030    2    1    2    0    0  0.00000000000E+00  0.00000000000E+00 -0.86361930652E+03  0.26414793889E+04  0.24963122913E+04 0.  0.
        2    1    3    3  502    0 -0.56236710952E+03  0.18578017456E+03  0.73077349656E+03  0.94063858225E+03  0.25500000920E-02 0.  1.
       -2    1    3    3    0  502  0.56236710952E+03 -0.18578017456E+03 -0.15943928031E+04  0.17008408067E+04  0.25500000920E-02 0. -1.
</event>
<event>
 5   0  0.1541852E-06  0.2499233E+04  0.7818609E-02  0.8403259E-01
       -1   -1    0    0    0  501  0.00000000000E+00  0.00000000000E+00  0.11664227366E+04  0.11664227366E+04  0.50400001928E-02 0.  1.
        1   -1    0    0  501    0  0.00000000000E+00  0.00000000000E+00 -0.13387436600E+04  0.13387436600E+04  0.50400001928E-02 0. -1.
    10030    2    1    2    0    0  0.00000000000E+00  0.00000000000E+00 -0.17232092341E+03  0.25051663967E+04  0.24992327171E+04 0.  0.
        5    1    3    3  502    0  0.13507718182E+03  0.98074264822E+03  0.67815691005E+03  0.12000086965E+04  0.46999998093E+01 0.  1.
       -5    1    3    3    0  502 -0.13507718182E+03 -0.98074264822E+03 -0.85047783345E+03  0.13051577002E+04  0.46999998093E+01 0. -1.
</event>
<event>
 5   0  0.1574896E-06  0.2501663E+04  0.7818609E-02  0.8402393E-01
        1   -1    0    0  501    0  0.00000000000E+00  0.00000000000E+00  0.18420635226E+04  0.18420635226E+04  0.50400001928E-02 0. -1.
       -1   -1    0    0    0  501  0.00000000000E+00  0.00000000000E+00 -0.84936206352E+03  0.84936206353E+03  0.50400001928E-02 0.  1.
    10030    2    1    2    0    0  0.00000000000E+00  0.00000000000E+00  0.99270145910E+03  0.26914255862E+04  0.25016625470E+04 0.  0.
        3    1    3    3  502    0  0.47983777550E+03  0.10387577166E+04  0.10399683176E+04  0.15462199056E+04  0.10100000352E+00 0. -1.
       -3    1    3    3    0  502 -0.47983777550E+03 -0.10387577166E+04 -0.47266858528E+02  0.11452056805E+04  0.10100000352E+00 0.  1.
</event>
<event>
 5   0  0.1541852E-06  0.2455835E+04  0.7818609E-02  0.8418891E-01
        1   -1    0    0  501    0  0.00000000000E+00  0.00000000000E+00  0.70092233381E+03  0.70092233382E+03  0.50400001928E-02 0.  1.
       -1   -1    0    0    0  501  0.00000000000E+00  0.00000000000E+00 -0.21511391770E+04  0.21511391770E+04  0.50400001928E-02 0. -1.
    10030    2    1    2    0    0  0.00000000000E+00  0.00000000000E+00 -0.14502168432E+04  0.28520615108E+04  0.24558350859E+04 0.  0.
        5    1    3    3  502    0 -0.47522207286E+03 -0.93420093160E+03 -0.14679962740E+04  0.18037745285E+04  0.46999998093E+01 0. -1.
       -5    1    3    3    0  502  0.47522207286E+03  0.93420093160E+03  0.17779430845E+02  0.10482869823E+04  0.46999998093E+01 0.  1.
</event>
<event>
 5   0  0.1501747E-06  0.2497478E+04  0.7818609E-02  0.8403885E-01
        1   -1    0    0  501    0  0.00000000000E+00  0.00000000000E+00  0.11054753138E+04  0.11054753138E+04  0.50400001928E-02 0. -1.
       -1   -1    0    0    0  501  0.00000000000E+00  0.00000000000E+00 -0.14105684164E+04  0.14105684164E+04  0.50400001928E-02 0.  1.
    10030    2    1    2    0    0  0.00000000000E+00  0.00000000000E+00 -0.30509310262E+03  0.25160437303E+04  0.24974775777E+04 0.  0.
        2    1    3    3  502    0  0.10079072988E+04  0.14536969284E+02  0.58999455105E+03  0.11679820276E+04  0.25500000920E-02 0. -1.
       -2    1    3    3    0  502 -0.10079072988E+04 -0.14536969284E+02 -0.89508765368E+03  0.13480617027E+04  0.25500000920E-02 0.  1.
</event>
<event>
 5   0  0.1501747E-06  0.2499719E+04  0.7818609E-02  0.8403086E-01
        1   -1    0    0  501    0  0.00000000000E+00  0.00000000000E+00  0.15756336177E+04  0.15756336177E+04  0.50400001928E-02 0. -1.
       -1   -1    0    0    0  501  0.00000000000E+00  0.00000000000E+00 -0.99144190793E+03  0.99144190794E+03  0.50400001928E-02 0.  1.
    10030    2    1    2    0    0  0.00000000000E+00  0.00000000000E+00  0.58419170977E+03  0.25670755256E+04  0.24997193444E+04 0.  0.
        2    1    3    3  502    0 -0.89608598911E+03 -0.86505258546E+03  0.39913059936E+03  0.13078957569E+04  0.25500000920E-02 0.  1.
       -2    1    3    3    0  502  0.89608598911E+03  0.86505258546E+03  0.18506111041E+03  0.12591797688E+04  0.25500000920E-02 0. -1.
</event>
<event>
 5   0  0.3814260E-06  0.2487774E+04  0.7818609E-02  0.8407354E-01
        2   -1    0    0  501    0  0.00000000000E+00  0.00000000000E+00  0.13488885319E+04  0.13488885319E+04  0.25500000920E-02 0.  1.
       -2   -1    0    0    0  501  0.00000000000E+00  0.00000000000E+00 -0.11470592648E+04  0.11470592648E+04  0.25500000920E-02 0. -1.
    10030    2    1    2    0    0  0.00000000000E+00  0.00000000000E+00  0.20182926718E+03  0.24959477967E+04  0.24877741760E+04 0.  0.
        5    1    3    3  502    0  0.44463975520E+03 -0.66515831151E+03 -0.85462878972E+03  0.11707060047E+04  0.46999998093E+01 0. -1.
       -5    1    3    3    0  502 -0.44463975520E+03  0.66515831151E+03  0.10564580569E+04  0.13252417920E+04  0.46999998093E+01 0.  1.
</event>
<event>
 5   0  0.1574896E-06  0.2500522E+04  0.7818609E-02  0.8402799E-01
       -1   -1    0    0    0  501  0.00000000000E+00  0.00000000000E+00  0.18282240683E+04  0.18282240683E+04  0.50400001928E-02 0. -1.
        1   -1    0    0  501    0  0.00000000000E+00  0.00000000000E+00 -0.85501168704E+03  0.85501168705E+03  0.50400001928E-02 0.  1.
    10030    2    1    2    0    0  0.00000000000E+00  0.00000000000E+00  0.97321238122E+03  0.26832357553E+04  0.25005223014E+04 0.  0.
        3    1    3    3  502    0  0.34611268006E+03 -0.43079008323E+01 -0.80257061315E+03  0.87403211875E+03  0.10100000352E+00 0.  1.
       -3    1    3    3    0  502 -0.34611268006E+03  0.43079008323E+01  0.17757829944E+04  0.18092036366E+04  0.10100000352E+00 0. -1.
</event>
<event>
 5   0  0.3814260E-06  0.2500511E+04  0.7818609E-02  0.8402803E-01
        2   -1    0    0  501    0  0.00000000000E+00  0.00000000000E+00  0.21248866187E+04  0.21248866187E+04  0.25500000920E-02 0. -1.
       -2   -1    0    0    0  501  0.00000000000E+00  0.00000000000E+00 -0.73563405314E+03  0.73563405315E+03  0.25500000920E-02 0.  1.
    10030    2    1    2    0    0  0.00000000000E+00  0.00000000000E+00  0.13892525655E+04  0.28605206718E+04  0.25005111124E+04 0.  0.
        5    1    3    3  502    0 -0.10299000023E+04  0.54367200176E+03  0.12149065460E+04  0.16829418486E+04  0.46999998093E+01 0. -1.
       -5    1    3    3    0  502  0.10299000023E+04 -0.54367200176E+03  0.17434601948E+03  0.11775788232E+04  0.46999998093E+01 0.  1.
</event>
<event>
 5   0  0.1574896E-06  0.2554177E+04  0.7818609E-02  0.8383935E-01
        1   -1    0    0  501    0  0.00000000000E+00  0.00000000000E+00  0.19412864773E+04  0.19412864773E+04  0.50400001928E-02 0.  1.
       -1   -1    0    0    0  501  0.00000000000E+00  0.00000000000E+00 -0.84014133425E+03  0.84014133426E+03  0.50400001928E-02 0. -1.
    10030    2    1    2    0    0  0.00000000000E+00  0.00000000000E+00  0.11011451430E+04  0.27814278116E+04  0.25541769799E+04 0.  0.
        3    1    3    3  502    0 -0.44692261046E+03  0.10118950977E+04  0.12455412160E+04  0.16658464633E+04  0.10100000352E+00 0.  1.
       -3    1    3    3    0  502  0.44692261046E+03 -0.10118950977E+04 -0.14439607299E+03  0.11155813482E+04  0.10100000352E+00 0. -1.
</event>
<event>
 5   0  0.3971759E-06  0.2497723E+04  0.7818609E-02  0.8403797E-01
       -2   -1    0    0    0  501  0.00000000000E+00  0.00000000000E+00  0.60036693959E+03  0.60036693960E+03  0.25500000920E-02 0. -1.
        2   -1    0    0  501    0  0.00000000000E+00  0.00000000000E+00 -0.25978363814E+04  0.25978363814E+04  0.25500000920E-02 0.  1.
    10030    2    1    2    0    0  0.00000000000E+00  0.00000000000E+00 -0.19974694418E+04  0.31982033210E+04  0.24977230254E+04 0.  0.
        4    1    3    3  502    0 -0.31940935398E+03  0.89358047060E+03 -0.20383012720E+04  0.22483732077E+04  0.12699999809E+01 0.  1.
       -4    1    3    3    0  502  0.31940935398E+03 -0.89358047060E+03  0.40831830191E+02  0.94983011328E+03  0.12699999809E+01 0. -1.
</event>
<event>
 5   0  0.1519145E-06  0.2500701E+04  0.7818609E-02  0.8402736E-01
        1   -1    0    0  501    0  0.00000000000E+00  0.00000000000E+00  0.14467558128E+04  0.14467558128E+04  0.50400001928E-02 0. -1.
       -1   -1    0    0    0  501  0.00000000000E+00  0.00000000000E+00 -0.10806087158E+04  0.10806087158E+04  0.50400001928E-02 0.  1.
    10030    2    1    2    0    0  0.00000000000E+00  0.00000000000E+00  0.36614709698E+03  0.25273645286E+04  0.25007014544E+04 0.  0.
        4    1    3    3  502    0 -0.33345054463E+03 -0.33899783971E+03  0.13518057933E+04  0.14330001105E+04  0.12699999809E+01 0. -1.
       -4    1    3    3    0  502  0.33345054463E+03  0.33899783971E+03 -0.98565869634E+03  0.10943644181E+04  0.12699999809E+01 0.  1.
</event>
<event>
 5   0  0.3971759E-06  0.2498095E+04  0.7818609E-02  0.8403664E-01
        2   -1    0    0  501    0  0.00000000000E+00  0.00000000000E+00  0.11611073430E+04  0.11611073430E+04  0.25500000920E-02 0. -1.
       -2   -1    0    0    0  501  0.00000000000E+00  0.00000000000E+00 -0.13436481483E+04  0.13436481483E+04  0.25500000920E-02 0.  1.
    10030    2    1    2    0    0  0.00000000000E+00  0.00000000000E+00 -0.18254080530E+03  0.25047554912E+04  0.24980950593E+04 0.  0.
        4    1    3    3  502    0  0.83148287339E+03 -0.62642503595E+03 -0.78328881416E+03  0.13028104519E+04  0.12699999809E+01 0.  1.
       -4    1    3    3    0  502 -0.83148287339E+03  0.62642503595E+03  0.60074800885E+03  0.12019450393E+04  0.12699999809E+01 0. -1.
</event>
<event>
 5   0  0.3924441E-06  0.2497133E+04  0.7818609E-02  0.8404008E-01
       -2   -1    0    0    0  501  0.00000000000E+00  0.00000000000E+00  0.72765438222E+03  0.72765438223E+03  0.25500000920E-02 0. -1.
        2   -1    0    0  501    0  0.00000000000E+00  0.00000000000E+00 -0.21423881554E+04  0.21423881554E+04  0.25500000920E-02 0.  1.
    10030    2    1    2    0    0  0.00000000000E+00  0.00000000000E+00 -0.14147337732E+04  0.28700425376E+04  0.24971328597E+04 0.  0.
        2    1    3    3  502    0  0.50162366999E+03  0.36560975251E+03  0.53775160054E+03  0.82126340556E+03  0.25500000920E-02 0. -1.
       -2    1    3    3    0  502 -0.50162366999E+03 -0.36560975251E+03 -0.19524853737E+04  0.20487791321E+04  0.25500000920E-02 0.  1.
</event>
<event>
 5   0  0.1553604E-06  0.2498923E+04  0.7818609E-02  0.8403369E-01
       -1   -1    0    0    0  501  0.00000000000E+00  0.00000000000E+00  0.11871933894E+04  0.11871933894E+04  0.50400001928E-02 0.  1.
        1   -1    0    0  501    0  0.00000000000E+00  0.00000000000E+00 -0.13149953481E+04  0.13149953481E+04  0.50400001928E-02 0. -1.
    10030    2    1    2    0    0  0.00000000000E+00  0.00000000000E+00 -0.12780195874E+03  0.25021887375E+04  0.24989227955E+04 0.  0.
        1    1    3    3  502    0 -0.89454461392E+03  0.86943466290E+03 -0.13489558360E+03  0.12547204939E+04  0.50400001928E-02 0.  1.
       -1    1    3    3    0  502  0.89454461392E+03 -0.86943466290E+03  0.70936248567E+01  0.12474682436E+04  0.50400001928E-02 0. -1.
</event>
<event>
 5   0  0.1287375E-06  0.2499411E+04  0.7818609E-02  0.8403195E-01
       -3   -1    0    0    0  501  0.00000000000E+00  0.00000000000E+00  0.15730462391E+04  0.15730462423E+04  0.10100000352E+00 0.  1.
        3   -1    0    0  501    0  0.00000000000E+00  0.00000000000E+00 -0.99282779892E+03  0.99282780406E+03  0.10100000352E+00 0. -1.
    10030    2    1    2    0    0  0.00000000000E+00  0.00000000000E+00  0.58021844014E+03  0.25658740464E+04  0.24994111674E+04 0.  0.
        5    1    3    3  502    0  0.10429450269E+04 -0.68845383705E+03  0.28370300960E+03  0.12814883934E+04  0.46999998093E+01 0.  1.
       -5    1    3    3    0  502 -0.10429450269E+04  0.68845383705E+03  0.29651543054E+03  0.12843856529E+04  0.46999998093E+01 0. -1.
</event>
<event>
 5   0  0.1553604E-06  0.2505667E+04  0.7818609E-02  0.8400969E-01
        1   -1    0    0  501    0  0.00000000000E+00  0.00000000000E+00  0.21668143896E+04  0.21668143896E+04  0.50400001928E-02 0. -1.
       -1   -1    0    0    0  501  0.00000000000E+00  0.00000000000E+00 -0.72437748290E+03  0.72437748292E+03  0.50400001928E-02 0.  1.
    10030    2    1    2    0    0  0.00000000000E+00  0.00000000000E+00  0.14424369067E+04  0.28911918725E+04  0.25056668202E+04 0.  0.
        1    1    3    3  502    0 -0.94756392386E+03 -0.60435999219E+02  0.16643273991E+04  0.19161199313E+04  0.50400001928E-02 0. -1.
       -1    1    3    3    0  502  0.94756392386E+03  0.60435999219E+02 -0.22189049243E+03  0.97507194117E+03  0.50400001928E-02 0.  1.
</event>
<event>
 5   0  0.3814260E-06  0.2497965E+04  0.7818609E-02  0.8403711E-01
       -2   -1    0    0    0  501  0.00000000000E+00  0.00000000000E+00  0.14099587725E+04  0.14099587725E+04  0.25500000920E-02 0.  1.
        2   -1    0    0  501    0  0.00000000000E+00  0.00000000000E+00 -0.11063851157E+04  0.11063851157E+04  0.25500000920E-02 0. -1.
    10030    2    1    2    0    0  0.00000000000E+00  0.00000000000E+00  0.30357365679E+03  0.25163438882E+04  0.24979650916E+04 0.  0.
        5    1    3    3  502    0 -0.12432871755E+04 -0.17567098953E+02  0.33176284662E+02  0.12438626771E+04  0.46999998093E+01 0. -1.
       -5    1    3    3    0  502  0.12432871755E+04  0.17567098953E+02  0.27039737213E+03  0.12724812111E+04  0.46999998093E+01 0.  1.
</event>
<event>
 5   0  0.3713394E-06  0.2482657E+04  0.7818609E-02  0.8409190E-01
        2   -1    0    0  501    0  0.00000000000E+00  0.00000000000E+00  0.32231201647E+04  0.32231201647E+04  0.25500000920E-02 0.  1.
       -2   -1    0    0    0  501  0.00000000000E+00  0.00000000000E+00 -0.47807588704E+03  0.47807588705E+03  0.25500000920E-02 0. -1.
    10030    2    1    2    0    0  0.00000000000E+00  0.00000000000E+00  0.27450442776E+04  0.37011960517E+04  0.24826566672E+04 0.  0.
        3    1    3    3  502    0 -0.11319817800E+04 -0.29965430932E+03  0.19866978850E+04  0.23061101343E+04  0.10100000352E+00 0.  1.
       -3    1    3    3    0  502  0.11319817800E+04  0.29965430932E+03  0.75834639267E+03  0.13950859174E+04  0.10100000352E+00 0. -1.
</event>
<event>
 5   0  0.3814260E-06  0.2496629E+04  0.7818609E-02  0.8404188E-01
        2   -1    0    0  501    0  0.00000000000E+00  0.00000000000E+00  0.12602727668E+04  0.12602727668E+04  0.25500000920E-02 0. -1.
       -2   -1    0    0    0  501  0.00000000000E+00  0.00000000000E+00 -0.12364694962E+04  0.12364694962E+04  0.25500000920E-02 0.  1.
    10030    2    1    2    0    0  0.00000000000E+00  0.00000000000E+00  0.23803270678E+02  0.24967422630E+04  0.24966287934E+04 0.  0.
        5    1    3    3  502    0 -0.62716731491E+03 -0.62756186651E+03 -0.86625785959E+03  0.12399989946E+04  0.46999998093E+01 0.  1.
       -5    1    3    3    0  502  0.62716731491E+03  0.62756186651E+03  0.89006113027E+03  0.12567432685E+04  0.46999998093E+01 0. -1.
</event>
<event>
 5   0  0.1501747E-06  0.2499187E+04  0.7818609E-02  0.8403275E-01
        1   -1    0    0  501    0  0.00000000000E+00  0.00000000000E+00  0.10000683394E+04  0.10000683394E+04  0.50400001928E-02 0.  1.
       -1   -1    0    0    0  501  0.00000000000E+00  0.00000000000E+00 -0.15613766612E+04  0.15613766612E+04  0.50400001928E-02 0. -1.
    10030    2    1    2    0    0  0.00000000000E+00  0.00000000000E+00 -0.56130832181E+03  0.25614450006E+04  0.24991865594E+04 0.  0.
        2    1    3    3  502    0  0.12292725776E+04  0.72216063422E+01 -0.51056385950E+03  0.13311043071E+04  0.25500000920E-02 0. -1.
       -2    1    3    3    0  502 -0.12292725776E+04 -0.72216063422E+01 -0.50744462313E+02  0.12303406935E+04  0.25500000920E-02 0.  1.
</event>
<event>
 5   0  0.3971759E-06  0.2504733E+04  0.7818609E-02  0.8401301E-01
       -2   -1    0    0    0  501  0.00000000000E+00  0.00000000000E+00  0.91808105361E+03  0.91808105362E+03  0.25500000920E-02 0.  1.
        2   -1    0    0  501    0  0.00000000000E+00  0.00000000000E+00 -0.17083702732E+04  0.17083702732E+04  0.25500000920E-02 0. -1.
    10030    2    1    2    0    0  0.00000000000E+00  0.00000000000E+00 -0.79028921963E+03  0.26264513269E+04  0.25047334233E+04 0.  0.
        4    1    3    3  502    0 -0.10575283159E+04  0.36310920586E+03  0.19636561395E+03  0.11352424858E+04  0.12699999809E+01 0.  1.
       -4    1    3    3    0  502  0.10575283159E+04 -0.36310920586E+03 -0.98665483358E+03  0.14912088411E+04  0.12699999809E+01 0. -1.
</event>
<event>
 5   0  0.1553604E-06  0.2499061E+04  0.7818609E-02  0.8403320E-01
        1   -1    0    0  501    0  0.00000000000E+00  0.00000000000E+00  0.34044833953E+04  0.34044833953E+04  0.50400001928E-02 0.  1.
       -1   -1    0    0    0  501  0.00000000000E+00  0.00000000000E+00 -0.45860892437E+03  0.45860892440E+03  0.50400001928E-02 0. -1.
    10030    2    1    2    0    0  0.00000000000E+00  0.00000000000E+00  0.29458744709E+04  0.38630923197E+04  0.24990609981E+04 0.  0.
        1    1    3    3  502    0 -0.67380235663E+03  0.47563596662E+03  0.29239381826E+04  0.30380345100E+04  0.50400001928E-02 0.  1.
       -1    1    3    3    0  502  0.67380235663E+03 -0.47563596662E+03  0.21936288362E+02  0.82505780968E+03  0.50400001928E-02 0. -1.
</event>
<event>
 5   0  0.3713394E-06  0.2504999E+04  0.7818609E-02  0.8401207E-01
       -2   -1    0    0    0  501  0.00000000000E+00  0.00000000000E+00  0.89601816857E+03  0.89601816858E+03  0.25500000920E-02 0.  1.
        2   -1    0    0  501    0  0.00000000000E+00  0.00000000000E+00 -0.17508076968E+04  0.17508076968E+04  0.25500000920E-02 0. -1.
    10030    2    1    2    0    0  0.00000000000E+00  0.00000000000E+00 -0.85478952825E+03  0.26468258654E+04  0.25049994060E+04 0.  0.
        3    1    3    3  502    0  0.86787497083E+03 -0.69736529786E+03 -0.10336668284E+04  0.15192078350E+04  0.10100000352E+00 0. -1.
       -3    1    3    3    0  502 -0.86787497083E+03  0.69736529786E+03  0.17887730018E+03  0.11276180304E+04  0.10100000352E+00 0.  1.
</event>
<event>
 5   0  0.1553604E-06  0.2502703E+04  0.7818609E-02  0.8402023E-01
       -1   -1    0    0    0  501  0.00000000000E+00  0.00000000000E+00  0.14943948669E+04  0.14943948669E+04  0.50400001928E-02 0. -1.
        1   -1    0    0  501    0  0.00000000000E+00  0.00000000000E+00 -0.10478358167E+04  0.10478358167E+04  0.50400001928E-02 0.  1.
    10030    2    1    2    0    0  0.00000000000E+00  0.00000000000E+00  0.44655905027E+03  0.25422306836E+04  0.25027029115E+04 0.  0.
        1    1    3    3  502    0  0.60499070496E+03  0.42367027499E+02 -0.88857270319E+03  0.10758113994E+04  0.50400001928E-02 0.  1.
       -1    1    3    3    0  502 -0.60499070496E+03 -0.42367027499E+02  0.13351317535E+04  0.14664192843E+04  0.50400001928E-02 0. -1.
</event>
<event>
 5   0  0.3814260E-06  0.2501468E+04  0.7818609E-02  0.8402463E-01
        2   -1    0    0  501    0  0.00000000000E+00  0.00000000000E+00  0.15911580115E+04  0.15911580115E+04  0.25500000920E-02 0.  1.
       -2   -1    0    0    0  501  0.00000000000E+00  0.00000000000E+00 -0.98314281974E+03  0.98314281974E+03  0.25500000920E-02 0. -1.
    10030    2    1    2    0    0  0.00000000000E+00  0.00000000000E+00  0.60801519172E+03  0.25743008312E+04  0.25014680282E+04 0.  0.
        5    1    3    3  502    0 -0.11724473838E+03 -0.12388372997E+04  0.43356713299E+03  0.13177506337E+04  0.46999998093E+01 0.  1.
       -5    1    3    3    0  502  0.11724473838E+03  0.12388372997E+04  0.17444805874E+03  0.12565501975E+04  0.46999998093E+01 0. -1.
</event>
<event>
 5   0  0.1519145E-06  0.2499254E+04  0.7818609E-02  0.8403251E-01
       -1   -1    0    0    0  501  0.00000000000E+00  0.00000000000E+00  0.12346945484E+04  0.12346945484E+04  0.50400001928E-02 0. -1.
        1   -1    0    0  501    0  0.00000000000E+00  0.00000000000E+00 -0.12647403823E+04  0.12647403823E+04  0.50400001928E-02 0.  1.
    10030    2    1    2    0    0  0.00000000000E+00  0.00000000000E+00 -0.30045833890E+02  0.24994349307E+04  0.24992543329E+04 0.  0.
        4    1    3    3  502    0 -0.17094526784E+03  0.12184455810E+04  0.20347519006E+03  0.12470908885E+04  0.12699999809E+01 0.  1.
       -4    1    3    3    0  502  0.17094526784E+03 -0.12184455810E+04 -0.23352102395E+03  0.12523440422E+04  0.12699999809E+01 0. -1.
</event>
<event>
 5   0  0.3924441E-06  0.2501484E+04  0.7818609E-02  0.8402457E-01
       -2   -1    0    0    0  501  0.00000000000E+00  0.00000000000E+00  0.96583588692E+03  0.96583588692E+03  0.25500000920E-02 0.  1.
        2   -1    0    0  501    0  0.00000000000E+00  0.00000000000E+00 -0.16196912235E+04  0.16196912235E+04  0.25500000920E-02 0. -1.
    10030    2    1    2    0    0  0.00000000000E+00  0.00000000000E+00 -0.65385533659E+03  0.25855271104E+04  0.25014842869E+04 0.  0.
        2    1    3    3  502    0 -0.56737201978E+03 -0.27909158412E+03 -0.14423283523E+04  0.15748378320E+04  0.25500000920E-02 0. -1.
       -2    1    3    3    0  502  0.56737201978E+03  0.27909158412E+03  0.78847301568E+03  0.10106892785E+04  0.25500000920E-02 0.  1.
</event>
<event>
 5   0  0.3713394E-06  0.2501325E+04  0.7818609E-02  0.8402514E-01
       -2   -1    0    0    0  501  0.00000000000E+00  0.00000000000E+00  0.15831662339E+04  0.15831662339E+04  0.25500000920E-02 0.  1.
        2   -1    0    0  501    0  0.00000000000E+00  0.00000000000E+00 -0.98799258502E+03  0.98799258502E+03  0.25500000920E-02 0. -1.
    10030    2    1    2    0    0  0.00000000000E+00  0.00000000000E+00  0.59517364893E+03  0.25711588190E+04  0.25013248490E+04 0.  0.
        3    1    3    3  502    0 -0.38864432959E+03  0.66806208142E+03 -0.71312717033E+03  0.10516186242E+04  0.10100000352E+00 0. -1.
       -3    1    3    3    0  502  0.38864432959E+03 -0.66806208142E+03  0.13083008193E+04  0.15195401947E+04  0.10100000352E+00 0.  1.
</event>
<event>
 5   0  0.1541852E-06  0.2500540E+04  0.7818609E-02  0.8402793E-01
        1   -1    0    0  501    0  0.00000000000E+00  0.00000000000E+00  0.17779257938E+04  0.17779257938E+04  0.50400001928E-02 0.  1.
       -1   -1    0    0    0  501  0.00000000000E+00  0.00000000000E+00 -0.87921262294E+03  0.87921262296E+03  0.50400001928E-02 0. -1.
    10030    2    1    2    0    0  0.00000000000E+00  0.00000000000E+00  0.89871317083E+03  0.26571384167E+04  0.25005397822E+04 0.  0.
        5    1    3    3  502    0  0.46201900580E+03  0.10858303905E+04  0.88834266539E+03  0.14770456932E+04  0.46999998093E+01 0.  1.
       -5    1    3    3    0  502 -0.46201900580E+03 -0.10858303905E+04  0.10370505440E+02  0.11800927235E+04  0.46999998093E+01 0. -1.
</event>
<event>
 5   0  0.1501747E-06  0.2498921E+04  0.7818609E-02  0.8403370E-01
        1   -1    0    0  501    0  0.00000000000E+00  0.00000000000E+00  0.11204632363E+04  0.11204632363E+04  0.50400001928E-02 0.  1.
       -1   -1    0    0    0  501  0.00000000000E+00  0.00000000000E+00 -0.13933094825E+04  0.13933094825E+04  0.50400001928E-02 0. -1.
    10030    2    1    2    0    0  0.00000000000E+00  0.00000000000E+00 -0.27284624615E+03  0.25137727188E+04  0.24989214089E+04 0.  0.
        2    1    3    3  502    0  0.15614262193E+03  0.88347607273E+03 -0.10112128655E+04  0.13518365097E+04  0.25500000920E-02 0. -1.
       -2    1    3    3    0  502 -0.15614262193E+03 -0.88347607273E+03  0.73836661939E+03  0.11619362091E+04  0.25500000920E-02 0.  1.
</event>
<event>
 5   0  0.3808293E-06  0.2498040E+04  0.7818609E-02  0.8403684E-01
       -2   -1    0    0    0  501  0.00000000000E+00  0.00000000000E+00  0.10154851272E+04  0.10154851272E+04  0.25500000920E-02 0.  1.
        2   -1    0    0  501    0  0.00000000000E+00  0.00000000000E+00 -0.15362616710E+04  0.15362616710E+04  0.25500000920E-02 0. -1.
    10030    2    1    2    0    0  0.00000000000E+00  0.00000000000E+00 -0.52077654372E+03  0.25517467982E+04  0.24980399344E+04 0.  0.
        1    1    3    3  502    0 -0.12317147984E+04 -0.12381838919E+03 -0.43008804343E+03  0.13105067963E+04  0.50400001928E-02 0. -1.
       -1    1    3    3    0  502  0.12317147984E+04  0.12381838919E+03 -0.90688500292E+02  0.12412400019E+04  0.50400001928E-02 0.  1.
</event>
<event>
 5   0  0.3924441E-06  0.2498793E+04  0.7818609E-02  0.8403416E-01
       -2   -1    0    0    0  501  0.00000000000E+00  0.00000000000E+00  0.68395864778E+03  0.68395864779E+03  0.25500000920E-02 0.  1.
        2   -1    0    0  501    0  0.00000000000E+00  0.00000000000E+00 -0.22822900941E+04  0.22822900941E+04  0.25500000920E-02 0. -1.
    10030    2    1    2    0    0  0.00000000000E+00  0.00000000000E+00 -0.15983314463E+04  0.29662487419E+04  0.24987933461E+04 0.  0.
        2    1    3    3  502    0  0.55038184064E+03 -0.54928733792E+03 -0.19600444690E+04  0.21086514816E+04  0.25500000920E-02 0.  1.
       -2    1    3    3    0  502 -0.55038184064E+03  0.54928733792E+03  0.36171302272E+03  0.85759726032E+03  0.25500000920E-02 0. -1.
</event>
<event>
 5   0  0.1501747E-06  0.2501108E+04  0.7818609E-02  0.8402591E-01
       -1   -1    0    0    0  501  0.00000000000E+00  0.00000000000E+00  0.95817710968E+03  0.95817710969E+03  0.50400001928E-02 0.  1.
        1   -1    0    0  501    0  0.00000000000E+00  0.00000000000E+00 -0.16321466007E+04  0.16321466007E+04  0.50400001928E-02 0. -1.
    10030    2    1    2    0    0  0.00000000000E+00  0.00000000000E+00 -0.67396949106E+03  0.25903237104E+04  0.25011081644E+04 0.  0.
        2    1    3    3  502    0  0.62103479174E+03  0.11375157574E+03 -0.14549629489E+04  0.15860456539E+04  0.25500000920E-02 0. -1.
       -2    1    3    3    0  502 -0.62103479174E+03 -0.11375157574E+03  0.78099345788E+03  0.10042780565E+04  0.25500000920E-02 0.  1.
</event>
<event>
 5   0  0.3971759E-06  0.2491070E+04  0.7818609E-02  0.8406174E-01
        2   -1    0    0  501    0  0.00000000000E+00  0.00000000000E+00  0.10950885608E+04  0.10950885608E+04  0.25500000920E-02 0. -1.
       -2   -1    0    0    0  501  0.00000000000E+00  0.00000000000E+00 -0.14166506189E+04  0.14166506189E+04  0.25500000920E-02 0.  1.
    10030    2    1    2    0    0  0.00000000000E+00  0.00000000000E+00 -0.32156205812E+03  0.25117391796E+04  0.24910703622E+04 0.  0.
        4    1    3    3  502    0 -0.21298871896E+02  0.84994693578E+02 -0.14135384323E+04  0.14162521853E+04  0.12699999809E+01 0.  1.
       -4    1    3    3    0  502  0.21298871896E+02 -0.84994693578E+02  0.10919763742E+04  0.10954869943E+04  0.12699999809E+01 0. -1.
</event>
<event>
 5   0  0.3814260E-06  0.2499450E+04  0.7818609E-02  0.8403182E-01
       -2   -1    0    0    0  501  0.00000000000E+00  0.00000000000E+00  0.16762246320E+04  0.16762246320E+04  0.25500000920E-02 0. -1.
        2   -1    0    0  501    0  0.00000000000E+00  0.00000000000E+00 -0.93174418831E+03  0.93174418832E+03  0.25500000920E-02 0.  1.
    10030    2    1    2    0    0  0.00000000000E+00  0.00000000000E+00  0.74448044371E+03  0.26079688203E+04  0.24994499869E+04 0.  0.
        5    1    3    3  502    0  0.50565138142E+03  0.10633853248E+04  0.80913030735E+03  0.14287006729E+04  0.46999998093E+01 0. -1.
       -5    1    3    3    0  502 -0.50565138142E+03 -0.10633853248E+04 -0.64649863634E+02  0.11792681474E+04  0.46999998093E+01 0.  1.
</event>
<event>
 5   0  0.3971759E-06  0.2510173E+04  0.7818609E-02  0.8399370E-01
       -2   -1    0    0    0  501  0.00000000000E+00  0.00000000000E+00  0.78075383443E+03  0.78075383443E+03  0.25500000920E-02 0. -1.
        2   -1    0    0  501    0  0.00000000000E+00  0.00000000000E+00 -0.20175911130E+04  0.20175911130E+04  0.25500000920E-02 0.  1.
    10030    2    1    2    0    0  0.00000000000E+00  0.00000000000E+00 -0.12368372786E+04  0.27983449474E+04  0.25101729006E+04 0.  0.
        4    1    3    3  502    0 -0.67324500851E+03  0.86008191552E+03 -0.13076516066E+04  0.17038057636E+04  0.12699999809E+01 0.  1.
       -4    1    3    3    0  502  0.67324500851E+03 -0.86008191552E+03  0.70814328089E+02  0.10945391838E+04  0.12699999809E+01 0. -1.
</event>
<event>
 5   0  0.3924441E-06  0.2509850E+04  0.7818609E-02  0.8399485E-01
       -2   -1    0    0    0  501  0.00000000000E+00  0.00000000000E+00  0.77526356957E+03  0.77526356957E+03  0.25500000920E-02 0. -1.
        2   -1    0    0  501    0  0.00000000000E+00  0.00000000000E+00 -0.20313561569E+04  0.20313561569E+04  0.25500000920E-02 0.  1.
    10030    2    1    2    0    0  0.00000000000E+00  0.00000000000E+00 -0.12560925874E+04  0.28066197265E+04  0.25098497368E+04 0.  0.
        2    1    3    3  502    0 -0.56472411817E+03 -0.10495265934E+04 -0.18862262760E+03  0.12066473783E+04  0.25500000920E-02 0.  1.
       -2    1    3    3    0  502  0.56472411817E+03  0.10495265934E+04 -0.10674699598E+04  0.15999723482E+04  0.25500000920E-02 0. -1.
</event>
<event>
 5   0  0.1287375E-06  0.2503648E+04  0.7818609E-02  0.8401687E-01
       -4   -1    0    0    0  501  0.00000000000E+00  0.00000000000E+00  0.82637740259E+03  0.82637837848E+03  0.12699999809E+01 0. -1.
        4   -1    0    0  501    0  0.00000000000E+00  0.00000000000E+00 -0.18963020198E+04  0.18963024451E+04  0.12699999809E+01 0.  1.
    10030    2    1    2    0    0  0.00000000000E+00  0.00000000000E+00 -0.10699246172E+04  0.27226808235E+04  0.25036477748E+04 0.  0.
        3    1    3    3  502    0  0.83744973384E+02 -0.98105478924E+03  0.30570083424E+03  0.10309872600E+04  0.10100000352E+00 0. -1.
       -3    1    3    3    0  502 -0.83744973384E+02  0.98105478924E+03 -0.13756254514E+04  0.16916935635E+04  0.10100000352E+00 0.  1.
</event>
<event>
 5   0  0.1553604E-06  0.2498590E+04  0.7818609E-02  0.8403488E-01
        1   -1    0    0  501    0  0.00000000000E+00  0.00000000000E+00  0.12122967524E+04  0.12122967524E+04  0.50400001928E-02 0. -1.
       -1   -1    0    0    0  501  0.00000000000E+00  0.00000000000E+00 -0.12874222868E+04  0.12874222869E+04  0.50400001928E-02 0.  1.
    10030    2    1    2    0    0  0.00000000000E+00  0.00000000000E+00 -0.75125534461E+02  0.24997190392E+04  0.24985898882E+04 0.  0.
        1    1    3    3  502    0  0.87411398285E+03  0.78359614235E+03 -0.46511954780E+03  0.12627091364E+04  0.50400001928E-02 0.  1.
       -1    1    3    3    0  502 -0.87411398285E+03 -0.78359614235E+03  0.38999401334E+03  0.12370099029E+04  0.50400001928E-02 0. -1.
</event>
<event>
 5   0  0.3713394E-06  0.2507683E+04  0.7818609E-02  0.8400254E-01
        2   -1    0    0  501    0  0.00000000000E+00  0.00000000000E+00  0.27568274612E+04  0.27568274612E+04  0.25500000920E-02 0. -1.
       -2   -1    0    0    0  501  0.00000000000E+00  0.00000000000E+00 -0.57026369121E+03  0.57026369121E+03  0.25500000920E-02 0.  1.
    10030    2    1    2    0    0  0.00000000000E+00  0.00000000000E+00  0.21865637700E+04  0.33270911524E+04  0.25076830773E+04 0.  0.
        3    1    3    3  502    0 -0.79795205133E+03 -0.96647719553E+03  0.10452072671E+04  0.16319509450E+04  0.10100000352E+00 0. -1.
       -3    1    3    3    0  502  0.79795205133E+03  0.96647719553E+03  0.11413565030E+04  0.16951402074E+04  0.10100000352E+00 0.  1.
</event>
<event>
 5   0  0.1553604E-06  0.2504279E+04  0.7818609E-02  0.8401463E-01
       -1   -1    0    0    0  501  0.00000000000E+00  0.00000000000E+00  0.12797038761E+04  0.12797038761E+04  0.50400001928E-02 0.  1.
        1   -1    0    0  501    0  0.00000000000E+00  0.00000000000E+00 -0.12251690018E+04  0.12251690018E+04  0.50400001928E-02 0. -1.
    10030    2    1    2    0    0  0.00000000000E+00  0.00000000000E+00  0.54534874274E+02  0.25048728779E+04  0.25042791542E+04 0.  0.
        1    1    3    3  502    0 -0.90189162775E+03 -0.45687186178E+03  0.76616655354E+03  0.12685233912E+04  0.50400001928E-02 0.  1.
       -1    1    3    3    0  502  0.90189162775E+03  0.45687186178E+03 -0.71163167926E+03  0.12363494867E+04  0.50400001928E-02 0. -1.
</event>
<event>
 5   0  0.3924441E-06  0.2495536E+04  0.7818609E-02  0.8404578E-01
        2   -1    0    0  501    0  0.00000000000E+00  0.00000000000E+00  0.10541018550E+04  0.10541018550E+04  0.25500000920E-02 0.  1.
       -2   -1    0    0    0  501  0.00000000000E+00  0.00000000000E+00 -0.14770152978E+04  0.14770152978E+04  0.25500000920E-02 0. -1.
    10030    2    1    2    0    0  0.00000000000E+00  0.00000000000E+00 -0.42291344284E+03  0.25311171528E+04  0.24955356661E+04 0.  0.
        2    1    3    3  502    0 -0.12329592805E+04 -0.17780467438E+03 -0.13887186554E+03  0.12534306860E+04  0.25500000920E-02 0.  1.
       -2    1    3    3    0  502  0.12329592805E+04  0.17780467438E+03 -0.28404157730E+03  0.12776864667E+04  0.25500000920E-02 0. -1.
</event>
<event>
 5   0  0.3814260E-06  0.2501612E+04  0.7818609E-02  0.8402411E-01
        2   -1    0    0  501    0  0.00000000000E+00  0.00000000000E+00  0.11581843992E+04  0.11581843992E+04  0.25500000920E-02 0.  1.
       -2   -1    0    0    0  501  0.00000000000E+00  0.00000000000E+00 -0.13508348254E+04  0.13508348254E+04  0.25500000920E-02 0. -1.
    10030    2    1    2    0    0  0.00000000000E+00  0.00000000000E+00 -0.19265042619E+03  0.25090192246E+04  0.25016121368E+04 0.  0.
        5    1    3    3  502    0 -0.10884748870E+04  0.52488558425E+03  0.22744833731E+03  0.12296492558E+04  0.46999998093E+01 0.  1.
       -5    1    3    3    0  502  0.10884748870E+04 -0.52488558425E+03 -0.42009876349E+03  0.12793699688E+04  0.46999998093E+01 0. -1.
</event>
<event>
 5   0  0.1574896E-06  0.2499237E+04  0.7818609E-02  0.8403257E-01
       -1   -1    0    0    0  501  0.00000000000E+00  0.00000000000E+00  0.81118431090E+03  0.81118431092E+03  0.50400001928E-02 0.  1.
        1   -1    0    0  501    0  0.00000000000E+00  0.00000000000E+00 -0.19250205213E+04  0.19250205214E+04  0.50400001928E-02 0. -1.
    10030    2    1    2    0    0  0.00000000000E+00  0.00000000000E+00 -0.11138362104E+04  0.27362048323E+04  0.24992370397E+04 0.  0.
        3    1    3    3  502    0  0.44885678321E+03 -0.37600086860E+03 -0.17655362051E+04  0.18600986981E+04  0.10100000352E+00 0. -1.
       -3    1    3    3    0  502 -0.44885678321E+03  0.37600086860E+03  0.65169999467E+03  0.87610613414E+03  0.10100000352E+00 0.  1.
</event>
<event>
 5   0  0.1553604E-06  0.2499252E+04  0.7818609E-02  0.8403252E-01
        1   -1    0    0  501    0  0.00000000000E+00  0.00000000000E+00  0.13506111893E+04  0.13506111894E+04  0.50400001928E-02 0. -1.
       -1   -1    0    0    0  501  0.00000000000E+00  0.00000000000E+00 -0.11561914054E+04  0.11561914055E+04  0.50400001928E-02 0.  1.
    10030    2    1    2    0    0  0.00000000000E+00  0.00000000000E+00  0.19441978390E+03  0.25068025948E+04  0.24992519275E+04 0.  0.
        1    1    3    3  502    0  0.62718711769E+03 -0.10608618309E+03 -0.98165447408E+03  0.11697279450E+04  0.50400001928E-02 0.  1.
       -1    1    3    3    0  502 -0.62718711769E+03  0.10608618309E+03  0.11760742580E+04  0.13370746498E+04  0.50400001928E-02 0. -1.
</event>
<event>
 5   0  0.1541852E-06  0.2505382E+04  0.7818609E-02  0.8401071E-01
        1   -1    0    0  501    0  0.00000000000E+00  0.00000000000E+00  0.13468919416E+04  0.13468919416E+04  0.50400001928E-02 0.  1.
       -1   -1    0    0    0  501  0.00000000000E+00  0.00000000000E+00 -0.11650783467E+04  0.11650783468E+04  0.50400001928E-02 0. -1.
    10030    2    1    2    0    0  0.00000000000E+00  0.00000000000E+00  0.18181359486E+03  0.25119702884E+04  0.25053819163E+04 0.  0.
        5    1    3    3  502    0  0.17830647872E+03  0.10433842630E+04  0.76257038288E+03  0.13045994019E+04  0.46999998093E+01 0.  1.
       -5    1    3    3    0  502 -0.17830647872E+03 -0.10433842630E+04 -0.58075678803E+03  0.12073708865E+04  0.46999998093E+01 0. -1.
</event>
<event>
 5   0  0.1287375E-06  0.2500667E+04  0.7818609E-02  0.8402748E-01
       -3   -1    0    0    0  501  0.00000000000E+00  0.00000000000E+00  0.69775120031E+03  0.69775120762E+03  0.10100000352E+00 0. -1.
        3   -1    0    0  501    0  0.00000000000E+00  0.00000000000E+00 -0.22405310828E+04  0.22405310851E+04  0.10100000352E+00 0.  1.
    10030    2    1    2    0    0  0.00000000000E+00  0.00000000000E+00 -0.15427798825E+04  0.29382822927E+04  0.25006665243E+04 0.  0.
        1    1    3    3  502    0 -0.56665817139E+02 -0.24763145596E+02  0.69595319719E+03  0.69869527043E+03  0.50400001928E-02 0. -1.
       -1    1    3    3    0  502  0.56665817139E+02  0.24763145596E+02 -0.22387330797E+04  0.22395870223E+04  0.50400001928E-02 0.  1.
</event>
<event>
 5   0  0.1574896E-06  0.2500667E+04  0.7818609E-02  0.8402748E-01
       -1   -1    0    0    0  501  0.00000000000E+00  0.00000000000E+00  0.87146991101E+03  0.87146991103E+03  0.50400001928E-02 0. -1.
        1   -1    0    0  501    0  0.00000000000E+00  0.00000000000E+00 -0.17939044656E+04  0.17939044656E+04  0.50400001928E-02 0.  1.
    10030    2    1    2    0    0  0.00000000000E+00  0.00000000000E+00 -0.92243455458E+03  0.26653743766E+04  0.25006669231E+04 0.  0.
        3    1    3    3  502    0 -0.17923280056E+03 -0.76586893874E+03 -0.14971672464E+04  0.16912094495E+04  0.10100000352E+00 0.  1.
       -3    1    3    3    0  502  0.17923280056E+03  0.76586893874E+03  0.57473269179E+03  0.97416492717E+03  0.10100000352E+00 0. -1.
</event>
<event>
 5   0  0.3814260E-06  0.2545454E+04  0.7818609E-02  0.8386969E-01
        2   -1    0    0  501    0  0.00000000000E+00  0.00000000000E+00  0.23732234332E+04  0.23732234332E+04  0.25500000920E-02 0.  1.
       -2   -1    0    0    0  501  0.00000000000E+00  0.00000000000E+00 -0.68254577537E+03  0.68254577537E+03  0.25500000920E-02 0. -1.
    10030    2    1    2    0    0  0.00000000000E+00  0.00000000000E+00  0.16906776578E+04  0.30557692086E+04  0.25454536950E+04 0.  0.
        5    1    3    3  502    0 -0.54500024097E+03 -0.26701326511E+03 -0.49763971589E+03  0.78484949081E+03  0.46999998093E+01 0. -1.
       -5    1    3    3    0  502  0.54500024097E+03  0.26701326511E+03  0.21883173737E+04  0.22709197178E+04  0.46999998093E+01 0.  1.
</event>
<event>
 5   0  0.1287375E-06  0.2499016E+04  0.7818609E-02  0.8403336E-01
       -3   -1    0    0    0  501  0.00000000000E+00  0.00000000000E+00  0.65690446933E+03  0.65690447710E+03  0.10100000352E+00 0. -1.
        3   -1    0    0  501    0  0.00000000000E+00  0.00000000000E+00 -0.23767074310E+04  0.23767074332E+04  0.10100000352E+00 0.  1.
    10030    2    1    2    0    0  0.00000000000E+00  0.00000000000E+00 -0.17198029617E+04  0.30336119103E+04  0.24990156052E+04 0.  0.
        1    1    3    3  502    0 -0.55993477381E+03  0.11168881050E+04 -0.88105854899E+03  0.15288002344E+04  0.50400001928E-02 0.  1.
       -1    1    3    3    0  502  0.55993477381E+03 -0.11168881050E+04 -0.83874441269E+03  0.15048116759E+04  0.50400001928E-02 0. -1.
</event>
<event>
 5   0  0.3814260E-06  0.2501576E+04  0.7818609E-02  0.8402424E-01
        2   -1    0    0  501    0  0.00000000000E+00  0.00000000000E+00  0.97728601442E+03  0.97728601442E+03  0.25500000920E-02 0.  1.
       -2   -1    0    0    0  501  0.00000000000E+00  0.00000000000E+00 -0.16008319606E+04  0.16008319606E+04  0.25500000920E-02 0. -1.
    10030    2    1    2    0    0  0.00000000000E+00  0.00000000000E+00 -0.62354594622E+03  0.25781179751E+04  0.25015760525E+04 0.  0.
        5    1    3    3  502    0 -0.14789992870E+03  0.48000516655E+03 -0.14923219353E+04  0.15745876277E+04  0.46999998093E+01 0. -1.
       -5    1    3    3    0  502  0.14789992870E+03 -0.48000516655E+03  0.86877598908E+03  0.10035303473E+04  0.46999998093E+01 0.  1.
</event>
<event>
 5   0  0.1553604E-06  0.2500096E+04  0.7818609E-02  0.8402951E-01
        1   -1    0    0  501    0  0.00000000000E+00  0.00000000000E+00  0.11634684355E+04  0.11634684356E+04  0.50400001928E-02 0. -1.
       -1   -1    0    0    0  501  0.00000000000E+00  0.00000000000E+00 -0.13430705317E+04  0.13430705317E+04  0.50400001928E-02 0.  1.
    10030    2    1    2    0    0  0.00000000000E+00  0.00000000000E+00 -0.17960209615E+03  0.25065389673E+04  0.25000961345E+04 0.  0.
        1    1    3    3  502    0  0.95492342791E+02 -0.32078379839E+03  0.11177109634E+04  0.11667471151E+04  0.50400001928E-02 0. -1.
       -1    1    3    3    0  502 -0.95492342791E+02  0.32078379839E+03 -0.12973130595E+04  0.13397918522E+04  0.50400001928E-02 0.  1.
</event>
<event>
 5   0  0.1541852E-06  0.2484207E+04  0.7818609E-02  0.8408634E-01
       -1   -1    0    0    0  501  0.00000000000E+00  0.00000000000E+00  0.95463342531E+03  0.95463342533E+03  0.50400001928E-02 0. -1.
        1   -1    0    0  501    0  0.00000000000E+00  0.00000000000E+00 -0.16161392297E+04  0.16161392297E+04  0.50400001928E-02 0.  1.
    10030    2    1    2    0    0  0.00000000000E+00  0.00000000000E+00 -0.66150580434E+03  0.25707726550E+04  0.24842065362E+04 0.  0.
        5    1    3    3  502    0  0.25249377999E+03 -0.69202232060E+03 -0.13656773259E+04  0.15516909002E+04  0.46999998093E+01 0.  1.
       -5    1    3    3    0  502 -0.25249377999E+03  0.69202232060E+03  0.70417152160E+03  0.10190817548E+04  0.46999998093E+01 0. -1.
</event>
<event>
 5   0  0.3713394E-06  0.2488149E+04  0.7818609E-02  0.8407220E-01
        2   -1    0    0  501    0  0.00000000000E+00  0.00000000000E+00  0.16957365639E+04  0.16957365639E+04  0.25500000920E-02 0.  1.
       -2   -1    0    0    0  501  0.00000000000E+00  0.00000000000E+00 -0.91271313500E+03  0.91271313501E+03  0.25500000920E-02 0. -1.
    10030    2    1    2    0    0  0.00000000000E+00  0.00000000000E+00  0.78302342891E+03  0.26084496989E+04  0.24881487378E+04 0.  0.
        3    1    3    3  502    0  0.69978039586E+03 -0.10253859922E+04  0.47675736172E+03  0.13298145087E+04  0.10100000352E+00 0.  1.
       -3    1    3    3    0  502 -0.69978039586E+03  0.10253859922E+04  0.30626606718E+03  0.12786351902E+04  0.10100000352E+00 0. -1.
</event>
<event>
 5   0  0.3814260E-06  0.2501481E+04  0.7818609E-02  0.8402458E-01
        2   -1    0    0  501    0  0.00000000000E+00  0.00000000000E+00  0.16123427379E+04  0.16123427379E+04  0.25500000920E-02 0. -1.
       -2   -1    0    0    0  501  0.00000000000E+00  0.00000000000E+00 -0.97023553064E+03  0.97023553064E+03  0.25500000920E-02 0.  1.
    10030    2    1    2    0    0  0.00000000000E+00  0.00000000000E+00  0.64210720724E+03  0.25825782685E+04  0.25014813306E+04 0.  0.
        5    1    3    3  502    0  0.65408928141E+03 -0.51769125685E+03  0.12831961320E+04  0.15305069188E+04  0.46999998093E+01 0. -1.
       -5    1    3    3    0  502 -0.65408928141E+03  0.51769125685E+03 -0.64108892472E+03  0.10520713497E+04  0.46999998093E+01 0.  1.
</event>
<event>
 5   0  0.1287375E-06  0.2502915E+04  0.7818609E-02  0.8401948E-01
        3   -1    0    0  501    0  0.00000000000E+00  0.00000000000E+00  0.15498825517E+04  0.15498825550E+04  0.10100000352E+00 0. -1.
       -3   -1    0    0    0  501  0.00000000000E+00  0.00000000000E+00 -0.10104930153E+04  0.10104930203E+04  0.10100000352E+00 0.  1.
    10030    2    1    2    0    0  0.00000000000E+00  0.00000000000E+00  0.53938953643E+03  0.25603755753E+04  0.25029147038E+04 0.  0.
        5    1    3    3  502    0 -0.70793485996E+03  0.13483223378E+03 -0.77691228511E+03  0.10597010361E+04  0.46999998093E+01 0.  1.
       -5    1    3    3    0  502  0.70793485996E+03 -0.13483223378E+03  0.13163018215E+04  0.15006745392E+04  0.46999998093E+01 0. -1.
</event>
<event>
 5   0  0.3971759E-06  0.2496797E+04  0.7818609E-02  0.8404128E-01
       -2   -1    0    0    0  501  0.00000000000E+00  0.00000000000E+00  0.83290549369E+03  0.83290549369E+03  0.25500000920E-02 0. -1.
        2   -1    0    0  501    0  0.00000000000E+00  0.00000000000E+00 -0.18711587099E+04  0.18711587099E+04  0.25500000920E-02 0.  1.
    10030    2    1    2    0    0  0.00000000000E+00  0.00000000000E+00 -0.10382532162E+04  0.27040642036E+04  0.24967966429E+04 0.  0.
        4    1    3    3  502    0  0.83523865104E+03  0.20433245537E+03 -0.14993114077E+04  0.17283841201E+04  0.12699999809E+01 0.  1.
       -4    1    3    3    0  502 -0.83523865104E+03 -0.20433245537E+03  0.46105819147E+03  0.97568008349E+03  0.12699999809E+01 0. -1.
</event>
<event>
 5   0  0.1574896E-06  0.2496088E+04  0.7818609E-02  0.8404380E-01
        1   -1    0    0  501    0  0.00000000000E+00  0.00000000000E+00  0.11763962963E+04  0.11763962963E+04  0.50400001928E-02 0. -1.
       -1   -1    0    0    0  501  0.00000000000E+00  0.00000000000E+00 -0.13240557368E+04  0.13240557368E+04  0.50400001928E-02 0.  1.
    10030    2    1    2    0    0  0.00000000000E+00  0.00000000000E+00 -0.14765944049E+03  0.25004520330E+04  0.24960883516E+04 0.  0.
        3    1    3    3  502    0 -0.29444976075E+03 -0.61144825493E+03 -0.11230597720E+04  0.13121863022E+04  0.10100000352E+00 0.  1.
       -3    1    3    3    0  502  0.29444976075E+03  0.61144825493E+03  0.97540033152E+03  0.11882657308E+04  0.10100000352E+00 0. -1.
</event>
<event>
 5   0  0.1519145E-06  0.2499352E+04  0.7818609E-02  0.8403217E-01
        1   -1    0    0  501    0  0.00000000000E+00  0.00000000000E+00  0.93317403285E+03  0.93317403286E+03  0.50400001928E-02 0.  1.
       -1   -1    0    0    0  501  0.00000000000E+00  0.00000000000E+00 -0.16735244681E+04  0.16735244681E+04  0.50400001928E-02 0. -1.
    10030    2    1    2    0    0  0.00000000000E+00  0.00000000000E+00 -0.74035043522E+03  0.26066985009E+04  0.24993515775E+04 0.  0.
        4    1    3    3  502    0  0.12066220854E+03  0.12248035505E+04 -0.59624494536E+03  0.13675572213E+04  0.12699999809E+01 0. -1.
       -4    1    3    3    0  502 -0.12066220854E+03 -0.12248035505E+04 -0.14410548986E+03  0.12391412796E+04  0.12699999809E+01 0.  1.
</event>
<event>
 5   0  0.1519145E-06  0.2499651E+04  0.7818609E-02  0.8403110E-01
       -1   -1    0    0    0  501  0.00000000000E+00  0.00000000000E+00  0.10381246582E+04  0.10381246582E+04  0.50400001928E-02 0. -1.
        1   -1    0    0  501    0  0.00000000000E+00  0.00000000000E+00 -0.15046979238E+04  0.15046979238E+04  0.50400001928E-02 0.  1.
    10030    2    1    2    0    0  0.00000000000E+00  0.00000000000E+00 -0.46657326560E+03  0.25428225820E+04  0.24996511900E+04 0.  0.
        4    1    3    3  502    0 -0.29950001940E+03  0.40047707775E+03 -0.13984861579E+04  0.14852095133E+04  0.12699999809E+01 0.  1.
       -4    1    3    3    0  502  0.29950001940E+03 -0.40047707775E+03  0.93191289235E+03  0.10576130688E+04  0.12699999809E+01 0. -1.
</event>
<event>
 5   0  0.1519145E-06  0.2503630E+04  0.7818609E-02  0.8401694E-01
        1   -1    0    0  501    0  0.00000000000E+00  0.00000000000E+00  0.18532735133E+04  0.18532735133E+04  0.50400001928E-02 0. -1.
       -1   -1    0    0    0  501  0.00000000000E+00  0.00000000000E+00 -0.84555282436E+03  0.84555282438E+03  0.50400001928E-02 0.  1.
    10030    2    1    2    0    0  0.00000000000E+00  0.00000000000E+00  0.10077206890E+04  0.26988263377E+04  0.25036298876E+04 0.  0.
        4    1    3    3  502    0 -0.92177375176E+03  0.11069817374E+03  0.14090420033E+04  0.16874009349E+04  0.12699999809E+01 0. -1.
       -4    1    3    3    0  502  0.92177375176E+03 -0.11069817374E+03 -0.40132131439E+03  0.10114254028E+04  0.12699999809E+01 0.  1.
</event>
<event>
 5   0  0.1553604E-06  0.2497854E+04  0.7818609E-02  0.8403750E-01
        1   -1    0    0  501    0  0.00000000000E+00  0.00000000000E+00  0.25937978653E+04  0.25937978653E+04  0.50400001928E-02 0.  1.
       -1   -1    0    0    0  501  0.00000000000E+00  0.00000000000E+00 -0.60136474332E+03  0.60136474334E+03  0.50400001928E-02 0. -1.
    10030    2    1    2    0    0  0.00000000000E+00  0.00000000000E+00  0.19924331220E+04  0.31951626087E+04  0.24978539489E+04 0.  0.
        1    1    3    3  502    0  0.22135376194E+02 -0.47978941154E+02  0.25923674519E+04  0.25929058910E+04  0.50400001928E-02 0.  1.
       -1    1    3    3    0  502 -0.22135376194E+02  0.47978941154E+02 -0.59993432995E+03  0.60225671765E+03  0.50400001928E-02 0. -1.
</event>
<event>
 5   0  0.1541852E-06  0.2496671E+04  0.7818609E-02  0.8404172E-01
        1   -1    0    0  501    0  0.00000000000E+00  0.00000000000E+00  0.99042330837E+03  0.99042330838E+03  0.50400001928E-02 0. -1.
       -1   -1    0    0    0  501  0.00000000000E+00  0.00000000000E+00 -0.15734101837E+04  0.15734101837E+04  0.50400001928E-02 0.  1.
    10030    2    1    2    0    0  0.00000000000E+00  0.00000000000E+00 -0.58298687532E+03  0.25638334921E+04  0.24966714799E+04 0.  0.
        5    1    3    3  502    0  0.11000769762E+04  0.21562133997E+01  0.31441798226E+03  0.11441393098E+04  0.46999998093E+01 0. -1.
       -5    1    3    3    0  502 -0.11000769762E+04 -0.21562133997E+01 -0.89740485758E+03  0.14196941823E+04  0.46999998093E+01 0.  1.
</event>
<event>
 5   0  0.3971759E-06  0.2498382E+04  0.7818609E-02  0.8403562E-01
       -2   -1    0    0    0  501  0.00000000000E+00  0.00000000000E+00  0.97024065940E+03  0.97024065940E+03  0.25500000920E-02 0. -1.
        2   -1    0    0  501    0  0.00000000000E+00  0.00000000000E+00 -0.16083414826E+04  0.16083414826E+04  0.25500000920E-02 0.  1.
    10030    2    1    2    0    0  0.00000000000E+00  0.00000000000E+00 -0.63810082319E+03  0.25785821420E+04  0.24983821170E+04 0.  0.
        4    1    3    3  502    0  0.89559211912E+01 -0.40436768831E+03 -0.15388884255E+04  0.15911544975E+04  0.12699999809E+01 0.  1.
       -4    1    3    3    0  502 -0.89559211912E+01  0.40436768831E+03  0.90078760228E+03  0.98742764453E+03  0.12699999809E+01 0. -1.
</event>
<event>
 5   0  0.1541852E-06  0.2501052E+04  0.7818609E-02  0.8402611E-01
       -1   -1    0    0    0  501  0.00000000000E+00  0.00000000000E+00  0.21091471179E+04  0.21091471179E+04  0.50400001928E-02 0. -1.
        1   -1    0    0  501    0  0.00000000000E+00  0.00000000000E+00 -0.74144433173E+03  0.74144433174E+03  0.50400001928E-02 0.  1.
    10030    2    1    2    0    0  0.00000000000E+00  0.00000000000E+00  0.13677027861E+04  0.28505914496E+04  0.25010519190E+04 0.  0.
        5    1    3    3  502    0  0.88590871052E+03 -0.87450803442E+02  0.16848352865E+04  0.19055639372E+04  0.46999998093E+01 0. -1.
       -5    1    3    3    0  502 -0.88590871052E+03  0.87450803442E+02 -0.31713250031E+03  0.94502751238E+03  0.46999998093E+01 0.  1.
</event>
<event>
 5   0  0.3971759E-06  0.2502563E+04  0.7818609E-02  0.8402073E-01
        2   -1    0    0  501    0  0.00000000000E+00  0.00000000000E+00  0.16754205222E+04  0.16754205222E+04  0.25500000920E-02 0. -1.
       -2   -1    0    0    0  501  0.00000000000E+00  0.00000000000E+00 -0.93451503847E+03  0.93451503847E+03  0.25500000920E-02 0.  1.
    10030    2    1    2    0    0  0.00000000000E+00  0.00000000000E+00  0.74090548370E+03  0.26099355606E+04  0.25025632250E+04 0.  0.
        4    1    3    3  502    0  0.87215210217E+03  0.62086032640E+03  0.10460001867E+04  0.14967414064E+04  0.12699999809E+01 0.  1.
       -4    1    3    3    0  502 -0.87215210217E+03 -0.62086032640E+03 -0.30509470303E+03  0.11131941542E+04  0.12699999809E+01 0. -1.
</event>
<event>
 5   0  0.1553604E-06  0.2500311E+04  0.7818609E-02  0.8402875E-01
       -1   -1    0    0    0  501  0.00000000000E+00  0.00000000000E+00  0.17627207319E+04  0.17627207319E+04  0.50400001928E-02 0. -1.
        1   -1    0    0  501    0  0.00000000000E+00  0.00000000000E+00 -0.88663457383E+03  0.88663457384E+03  0.50400001928E-02 0.  1.
    10030    2    1    2    0    0  0.00000000000E+00  0.00000000000E+00  0.87608615805E+03  0.26493553057E+04  0.25003112966E+04 0.  0.
        1    1    3    3  502    0  0.20735381076E+03  0.42568597138E+03 -0.78794238334E+03  0.91927000851E+03  0.50400001928E-02 0.  1.
       -1    1    3    3    0  502 -0.20735381076E+03 -0.42568597138E+03  0.16640285414E+04  0.17300852972E+04  0.50400001928E-02 0. -1.
</event>
<event>
 5   0  0.3808293E-06  0.2499750E+04  0.7818609E-02  0.8403074E-01
        2   -1    0    0  501    0  0.00000000000E+00  0.00000000000E+00  0.18150611534E+04  0.18150611534E+04  0.25500000920E-02 0. -1.
       -2   -1    0    0    0  501  0.00000000000E+00  0.00000000000E+00 -0.86068063379E+03  0.86068063379E+03  0.25500000920E-02 0.  1.
    10030    2    1    2    0    0  0.00000000000E+00  0.00000000000E+00  0.95438051957E+03  0.26757417872E+04  0.24997503746E+04 0.  0.
        1    1    3    3  502    0 -0.35021470004E+03  0.18066417366E+03  0.17468252453E+04  0.17907228477E+04  0.50400001928E-02 0. -1.
       -1    1    3    3    0  502  0.35021470004E+03 -0.18066417366E+03 -0.79244472573E+03  0.88501893942E+03  0.50400001928E-02 0.  1.
</event>
<event>
 5   0  0.1574896E-06  0.2507325E+04  0.7818609E-02  0.8400381E-01
        1   -1    0    0  501    0  0.00000000000E+00  0.00000000000E+00  0.23972810095E+04  0.23972810095E+04  0.50400001928E-02 0.  1.
       -1   -1    0    0    0  501  0.00000000000E+00  0.00000000000E+00 -0.65560521123E+03  0.65560521125E+03  0.50400001928E-02 0. -1.
    10030    2    1    2    0    0  0.00000000000E+00  0.00000000000E+00  0.17416757983E+04  0.30528862208E+04  0.25073252064E+04 0.  0.
        3    1    3    3  502    0 -0.97721549196E+03 -0.17534655585E+03 -0.61211424332E+02  0.99470768623E+03  0.10100000352E+00 0. -1.
       -3    1    3    3    0  502  0.97721549196E+03  0.17534655585E+03  0.18028872226E+04  0.20581785345E+04  0.10100000352E+00 0.  1.
</event>
<event>
 5   0  0.3924441E-06  0.2498986E+04  0.7818609E-02  0.8403347E-01
        2   -1    0    0  501    0  0.00000000000E+00  0.00000000000E+00  0.13540055811E+04  0.13540055811E+04  0.25500000920E-02 0.  1.
       -2   -1    0    0    0  501  0.00000000000E+00  0.00000000000E+00 -0.11530478606E+04  0.11530478606E+04  0.25500000920E-02 0. -1.
    10030    2    1    2    0    0  0.00000000000E+00  0.00000000000E+00  0.20095772047E+03  0.25070534417E+04  0.24989863854E+04 0.  0.
        2    1    3    3  502    0  0.74300944120E+03 -0.91275036486E+03  0.52142480107E+03  0.12872684574E+04  0.25500000920E-02 0. -1.
       -2    1    3    3    0  502 -0.74300944120E+03  0.91275036486E+03 -0.32046708060E+03  0.12197849843E+04  0.25500000920E-02 0.  1.
</event>
<event>
 5   0  0.1553604E-06  0.2495650E+04  0.7818609E-02  0.8404537E-01
       -1   -1    0    0    0  501  0.00000000000E+00  0.00000000000E+00  0.14446528133E+04  0.14446528133E+04  0.50400001928E-02 0.  1.
        1   -1    0    0  501    0  0.00000000000E+00  0.00000000000E+00 -0.10778144559E+04  0.10778144559E+04  0.50400001928E-02 0. -1.
    10030    2    1    2    0    0  0.00000000000E+00  0.00000000000E+00  0.36683835740E+03  0.25224672693E+04  0.24956503650E+04 0.  0.
        1    1    3    3  502    0  0.11863361594E+04 -0.24070678047E+03 -0.12271232572E+03  0.12167134224E+04  0.50400001928E-02 0. -1.
       -1    1    3    3    0  502 -0.11863361594E+04  0.24070678047E+03  0.48955068312E+03  0.13057538469E+04  0.50400001928E-02 0.  1.
</event>
<event>
 5   0  0.1574896E-06  0.2499561E+04  0.7818609E-02  0.8403142E-01
       -1   -1    0    0    0  501  0.00000000000E+00  0.00000000000E+00  0.66148209705E+03  0.66148209707E+03  0.50400001928E-02 0. -1.
        1   -1    0    0  501    0  0.00000000000E+00  0.00000000000E+00 -0.23612898716E+04  0.23612898716E+04  0.50400001928E-02 0.  1.
    10030    2    1    2    0    0  0.00000000000E+00  0.00000000000E+00 -0.16998077745E+04  0.30227719687E+04  0.24995607423E+04 0.  0.
        3    1    3    3  502    0 -0.54116020645E+03  0.11071161894E+04 -0.59799805804E+03  0.13697307449E+04  0.10100000352E+00 0.  1.
       -3    1    3    3    0  502  0.54116020645E+03 -0.11071161894E+04 -0.11018097165E+04  0.16530412238E+04  0.10100000352E+00 0. -1.
</event>
<event>
 5   0  0.1553604E-06  0.2499818E+04  0.7818609E-02  0.8403050E-01
        1   -1    0    0  501    0  0.00000000000E+00  0.00000000000E+00  0.18345367764E+04  0.18345367764E+04  0.50400001928E-02 0.  1.
       -1   -1    0    0    0  501  0.00000000000E+00  0.00000000000E+00 -0.85158982772E+03  0.85158982774E+03  0.50400001928E-02 0. -1.
    10030    2    1    2    0    0  0.00000000000E+00  0.00000000000E+00  0.98294694866E+03  0.26861266041E+04  0.24998182793E+04 0.  0.
        1    1    3    3  502    0  0.61777385603E+02 -0.12456977960E+04  0.57938419708E+03  0.13752328865E+04  0.50400001928E-02 0.  1.
       -1    1    3    3    0  502 -0.61777385603E+02  0.12456977960E+04  0.40356275158E+03  0.13108937176E+04  0.50400001928E-02 0. -1.
</event>
<event>
 5   0  0.3814260E-06  0.2503676E+04  0.7818609E-02  0.8401677E-01
        2   -1    0    0  501    0  0.00000000000E+00  0.00000000000E+00  0.13747718527E+04  0.13747718527E+04  0.25500000920E-02 0. -1.
       -2   -1    0    0    0  501  0.00000000000E+00  0.00000000000E+00 -0.11398974859E+04  0.11398974859E+04  0.25500000920E-02 0.  1.
    10030    2    1    2    0    0  0.00000000000E+00  0.00000000000E+00  0.23487436681E+03  0.25146693386E+04  0.25036764795E+04 0.  0.
        5    1    3    3  502    0 -0.64370441894E+02 -0.45447462460E+03 -0.10523163087E+04  0.11480777159E+04  0.46999998093E+01 0.  1.
       -5    1    3    3    0  502  0.64370441894E+02  0.45447462460E+03  0.12871906755E+04  0.13665916227E+04  0.46999998093E+01 0. -1.
</event>
<event>
 5   0  0.3713394E-06  0.2501407E+04  0.7818609E-02  0.8402484E-01
        2   -1    0    0  501    0  0.00000000000E+00  0.00000000000E+00  0.11910899844E+04  0.11910899844E+04  0.25500000920E-02 0. -1.
       -2   -1    0    0    0  501  0.00000000000E+00  0.00000000000E+00 -0.13133006631E+04  0.13133006632E+04  0.25500000920E-02 0.  1.
    10030    2    1    2    0    0  0.00000000000E+00  0.00000000000E+00 -0.12221067871E+03  0.25043906476E+04  0.25014070172E+04 0.  0.
        3    1    3    3  502    0 -0.88624123455E+03  0.65487081507E+03  0.53119132843E+03  0.12232920942E+04  0.10100000352E+00 0. -1.
       -3    1    3    3    0  502  0.88624123455E+03 -0.65487081507E+03 -0.65340200714E+03  0.12810985533E+04  0.10100000352E+00 0.  1.
</event>
<event>
 5   0  0.3808293E-06  0.2526019E+04  0.7818609E-02  0.8393774E-01
       -2   -1    0    0    0  501  0.00000000000E+00  0.00000000000E+00  0.77873955298E+03  0.77873955299E+03  0.25500000920E-02 0. -1.
        2   -1    0    0  501    0  0.00000000000E+00  0.00000000000E+00 -0.20484294087E+04  0.20484294087E+04  0.25500000920E-02 0.  1.
    10030    2    1    2    0    0  0.00000000000E+00  0.00000000000E+00 -0.12696898557E+04  0.28271689617E+04  0.25260190039E+04 0.  0.
        1    1    3    3  502    0  0.10182705944E+04  0.61961686692E+03 -0.11022351218E+04  0.16234907850E+04  0.50400001928E-02 0.  1.
       -1    1    3    3    0  502 -0.10182705944E+04 -0.61961686692E+03 -0.16745473390E+03  0.12036781767E+04  0.50400001928E-02 0. -1.
</event>
<event>
 5   0  0.1501747E-06  0.2489642E+04  0.7818609E-02  0.8406685E-01
        1   -1    0    0  501    0  0.00000000000E+00  0.00000000000E+00  0.24369121773E+04  0.24369121773E+04  0.50400001928E-02 0. -1.
       -1   -1    0    0    0  501  0.00000000000E+00  0.00000000000E+00 -0.63587794656E+03  0.63587794658E+03  0.50400001928E-02 0.  1.
    10030    2    1    2    0    0  0.00000000000E+00  0.00000000000E+00  0.18010342307E+04  0.30727901239E+04  0.24896415094E+04 0.  0.
        2    1    3    3  502    0  0.28157509165E+03 -0.82577384272E+03 -0.19537326490E+03  0.89406805345E+03  0.25500000920E-02 0.  1.
       -2    1    3    3    0  502 -0.28157509165E+03  0.82577384272E+03  0.19964074956E+04  0.21787220704E+04  0.25500000920E-02 0. -1.
</event>
<event>
 5   0  0.1553604E-06  0.2495370E+04  0.7818609E-02  0.8404637E-01
       -1   -1    0    0    0  501  0.00000000000E+00  0.00000000000E+00  0.14098428286E+04  0.14098428286E+04  0.50400001928E-02 0. -1.
        1   -1    0    0  501    0  0.00000000000E+00  0.00000000000E+00 -0.11041785691E+04  0.11041785692E+04  0.50400001928E-02 0.  1.
    10030    2    1    2    0    0  0.00000000000E+00  0.00000000000E+00  0.30566425943E+03  0.25140213977E+04  0.24953703029E+04 0.  0.
        1    1    3    3  502    0 -0.14283330705E+03  0.93875848630E+03  0.96823266103E+03  0.13561501890E+04  0.50400001928E-02 0. -1.
       -1    1    3    3    0  502  0.14283330705E+03 -0.93875848630E+03 -0.66256840160E+03  0.11578712087E+04  0.50400001928E-02 0.  1.
</event>
<event>
 5   0  0.3814260E-06  0.2501762E+04  0.7818609E-02  0.8402358E-01
       -2   -1    0    0    0  501  0.00000000000E+00  0.00000000000E+00  0.74792433069E+03  0.74792433070E+03  0.25500000920E-02 0. -1.
        2   -1    0    0  501    0  0.00000000000E+00  0.00000000000E+00 -0.20920617419E+04  0.20920617419E+04  0.25500000920E-02 0.  1.
    10030    2    1    2    0    0  0.00000000000E+00  0.00000000000E+00 -0.13441374112E+04  0.28399860726E+04  0.25017624812E+04 0.  0.
        5    1    3    3  502    0  0.10125199862E+04 -0.31965210971E+03  0.78626504581E+02  0.10646963938E+04  0.46999998093E+01 0. -1.
       -5    1    3    3    0  502 -0.10125199862E+04  0.31965210971E+03 -0.14227639158E+04  0.17752896788E+04  0.46999998093E+01 0.  1.
</event>
<event>
 5   0  0.1541852E-06  0.2491647E+04  0.7818609E-02  0.8405967E-01
       -1   -1    0    0    0  501  0.00000000000E+00  0.00000000000E+00  0.10641215972E+04  0.10641215972E+04  0.50400001928E-02 0.  1.
        1   -1    0    0  501    0  0.00000000000E+00  0.00000000000E+00 -0.14585513976E+04  0.14585513977E+04  0.50400001928E-02 0. -1.
    10030    2    1    2    0    0  0.00000000000E+00  0.00000000000E+00 -0.39442980049E+03  0.25226729948E+04  0.24916468793E+04 0.  0.
        5    1    3    3  502    0 -0.10970403791E+04  0.43676838447E+03  0.20495896203E+03  0.11984550393E+04  0.46999998093E+01 0.  1.
       -5    1    3    3    0  502  0.10970403791E+04 -0.43676838447E+03 -0.59938876253E+03  0.13242179555E+04  0.46999998093E+01 0. -1.
</event>
<event>
 5   0  0.1519145E-06  0.2492744E+04  0.7818609E-02  0.8405575E-01
        1   -1    0    0  501    0  0.00000000000E+00  0.00000000000E+00  0.99470172578E+03  0.99470172580E+03  0.50400001928E-02 0.  1.
       -1   -1    0    0    0  501  0.00000000000E+00  0.00000000000E+00 -0.15617174456E+04  0.15617174456E+04  0.50400001928E-02 0. -1.
    10030    2    1    2    0    0  0.00000000000E+00  0.00000000000E+00 -0.56701571977E+03  0.25564191714E+04  0.24927439004E+04 0.  0.
        4    1    3    3  502    0 -0.88472399637E+03 -0.65915425980E+03 -0.87816484212E+03  0.14101049574E+04  0.12699999809E+01 0. -1.
       -4    1    3    3    0  502  0.88472399637E+03  0.65915425980E+03  0.31114912235E+03  0.11463142140E+04  0.12699999809E+01 0.  1.
</event>
<event>
 5   0  0.3814260E-06  0.2496992E+04  0.7818609E-02  0.8404058E-01
        2   -1    0    0  501    0  0.00000000000E+00  0.00000000000E+00  0.21411652408E+04  0.21411652408E+04  0.25500000920E-02 0. -1.
       -2   -1    0    0    0  501  0.00000000000E+00  0.00000000000E+00 -0.72798799557E+03  0.72798799557E+03  0.25500000920E-02 0.  1.
    10030    2    1    2    0    0  0.00000000000E+00  0.00000000000E+00  0.14131772452E+04  0.28691532364E+04  0.24969922642E+04 0.  0.
        5    1    3    3  502    0 -0.10878634191E+04 -0.55752003033E+03  0.41489193727E+03  0.12909038742E+04  0.46999998093E+01 0.  1.
       -5    1    3    3    0  502  0.10878634191E+04  0.55752003033E+03  0.99828530797E+03  0.15782493621E+04  0.46999998093E+01 0. -1.
</event>
<event>
 5   0  0.1287375E-06  0.2501853E+04  0.7818609E-02  0.8402326E-01
        3   -1    0    0  501    0  0.00000000000E+00  0.00000000000E+00  0.17333572531E+04  0.17333572561E+04  0.10100000352E+00 0.  1.
       -3   -1    0    0    0  501  0.00000000000E+00  0.00000000000E+00 -0.90276688947E+03  0.90276689512E+03  0.10100000352E+00 0. -1.
    10030    2    1    2    0    0  0.00000000000E+00  0.00000000000E+00  0.83059036367E+03  0.26361241512E+04  0.25018533507E+04 0.  0.
        4    1    3    3  502    0  0.59372593362E+03 -0.25561004447E+03  0.15437387412E+04  0.16736122290E+04  0.12699999809E+01 0.  1.
       -4    1    3    3    0  502 -0.59372593362E+03  0.25561004447E+03 -0.71314837754E+03  0.96251192220E+03  0.12699999809E+01 0. -1.
</event>
<event>
 5   0  0.3814260E-06  0.2502745E+04  0.7818609E-02  0.8402008E-01
       -2   -1    0    0    0  501  0.00000000000E+00  0.00000000000E+00  0.15767576130E+04  0.15767576131E+04  0.25500000920E-02 0. -1.
        2   -1    0    0  501    0  0.00000000000E+00  0.00000000000E+00 -0.99313478555E+03  0.99313478555E+03  0.25500000920E-02 0.  1.
    10030    2    1    2    0    0  0.00000000000E+00  0.00000000000E+00  0.58362282750E+03  0.25698923986E+04  0.25027447604E+04 0.  0.
        5    1    3    3  502    0 -0.10168407002E+04  0.15477139243E+02 -0.45693410839E+03  0.11149060144E+04  0.46999998093E+01 0.  1.
       -5    1    3    3    0  502  0.10168407002E+04 -0.15477139243E+02  0.10405569359E+04  0.14549863842E+04  0.46999998093E+01 0. -1.
</event>
<event>
 5   0  0.3971759E-06  0.2499073E+04  0.7818609E-02  0.8403316E-01
        2   -1    0    0  501    0  0.00000000000E+00  0.00000000000E+00  0.12961843993E+04  0.12961843993E+04  0.25500000920E-02 0.  1.
       -2   -1    0    0    0  501  0.00000000000E+00  0.00000000000E+00 -0.12045675925E+04  0.12045675925E+04  0.25500000920E-02 0. -1.
    10030    2    1    2    0    0  0.00000000000E+00  0.00000000000E+00  0.91616806750E+02  0.25007519918E+04  0.24990732053E+04 0.  0.
        4    1    3    3  502    0  0.69911806598E+03 -0.10332525175E+04  0.11630623184E+03  0.12529587334E+04  0.12699999809E+01 0.  1.
       -4    1    3    3    0  502 -0.69911806598E+03  0.10332525175E+04 -0.24689425085E+02  0.12477932584E+04  0.12699999809E+01 0. -1.
</event>
<event>
 5   0  0.3808293E-06  0.2504402E+04  0.7818609E-02  0.8401419E-01
        2   -1    0    0  501    0  0.00000000000E+00  0.00000000000E+00  0.99525508202E+03  0.99525508203E+03  0.25500000920E-02 0.  1.
       -2   -1    0    0    0  501  0.00000000000E+00  0.00000000000E+00 -0.15754822565E+04  0.15754822565E+04  0.25500000920E-02 0. -1.
    10030    2    1    2    0    0  0.00000000000E+00  0.00000000000E+00 -0.58022717449E+03  0.25707373385E+04  0.25044015033E+04 0.  0.
        1    1    3    3  502    0 -0.50905554327E+03  0.10024870604E+04  0.27574921604E+03  0.11576508466E+04  0.50400001928E-02 0.  1.
       -1    1    3    3    0  502  0.50905554327E+03 -0.10024870604E+04 -0.85597639054E+03  0.14130864919E+04  0.50400001928E-02 0. -1.
</event>
<event>
 5   0  0.3808293E-06  0.2499422E+04  0.7818609E-02  0.8403191E-01
        2   -1    0    0  501    0  0.00000000000E+00  0.00000000000E+00  0.13122698809E+04  0.13122698809E+04  0.25500000920E-02 0.  1.
       -2   -1    0    0    0  501  0.00000000000E+00  0.00000000000E+00 -0.11901349057E+04  0.11901349057E+04  0.25500000920E-02 0. -1.
    10030    2    1    2    0    0  0.00000000000E+00  0.00000000000E+00  0.12213497522E+03  0.25024047866E+04  0.24994224860E+04 0.  0.
        1    1    3    3  502    0 -0.24946046925E+03 -0.79920579639E+03 -0.86784221420E+03  0.12058650586E+04  0.50400001928E-02 0. -1.
       -1    1    3    3    0  502  0.24946046925E+03  0.79920579639E+03  0.98997718942E+03  0.12965397280E+04  0.50400001928E-02 0.  1.
</event>
<event>
 5   0  0.1501747E-06  0.2514909E+04  0.7818609E-02  0.8397693E-01
        1   -1    0    0  501    0  0.00000000000E+00  0.00000000000E+00  0.11816519074E+04  0.11816519074E+04  0.50400001928E-02 0.  1.
       -1   -1    0    0    0  501  0.00000000000E+00  0.00000000000E+00 -0.13381197594E+04  0.13381197594E+04  0.50400001928E-02 0. -1.
    10030    2    1    2    0    0  0.00000000000E+00  0.00000000000E+00 -0.15646785201E+03  0.25197716668E+04  0.25149089574E+04 0.  0.
        2    1    3    3  502    0  0.19065185546E+03 -0.74926707480E+03 -0.10718380923E+04  0.13215847213E+04  0.25500000920E-02 0. -1.
       -2    1    3    3    0  502 -0.19065185546E+03  0.74926707480E+03  0.91537024033E+03  0.11981869455E+04  0.25500000920E-02 0.  1.
</event>
<event>
 5   0  0.3808293E-06  0.2498736E+04  0.7818609E-02  0.8403436E-01
        2   -1    0    0  501    0  0.00000000000E+00  0.00000000000E+00  0.19925513330E+04  0.19925513330E+04  0.25500000920E-02 0. -1.
       -2   -1    0    0    0  501  0.00000000000E+00  0.00000000000E+00 -0.78337782345E+03  0.78337782345E+03  0.25500000920E-02 0.  1.
    10030    2    1    2    0    0  0.00000000000E+00  0.00000000000E+00  0.12091735095E+04  0.27759291564E+04  0.24987361016E+04 0.  0.
        1    1    3    3  502    0 -0.12407004095E+04 -0.28934706043E+02  0.44457454967E+03  0.13182644855E+04  0.50400001928E-02 0.  1.
       -1    1    3    3    0  502  0.12407004095E+04  0.28934706043E+02  0.76459895985E+03  0.14576646709E+04  0.50400001928E-02 0. -1.
</event>
<event>
 5   0  0.1541852E-06  0.2498768E+04  0.7818609E-02  0.8403424E-01
       -1   -1    0    0    0  501  0.00000000000E+00  0.00000000000E+00  0.10304091299E+04  0.10304091300E+04  0.50400001928E-02 0.  1.
        1   -1    0    0  501    0  0.00000000000E+00  0.00000000000E+00 -0.15148941362E+04  0.15148941362E+04  0.50400001928E-02 0. -1.
    10030    2    1    2    0    0  0.00000000000E+00  0.00000000000E+00 -0.48448500622E+03  0.25453032661E+04  0.24987682956E+04 0.  0.
        5    1    3    3  502    0  0.22573132410E+03 -0.81853608705E+03  0.69133143472E+03  0.10949507747E+04  0.46999998093E+01 0.  1.
       -5    1    3    3    0  502 -0.22573132410E+03  0.81853608705E+03 -0.11758164409E+04  0.14503524914E+04  0.46999998093E+01 0. -1.
</event>
<event>
 5   0  0.1574896E-06  0.2504057E+04  0.7818609E-02  0.8401542E-01
       -1   -1    0    0    0  501  0.00000000000E+00  0.00000000000E+00  0.11730341909E+04  0.11730341909E+04  0.50400001928E-02 0.  1.
        1   -1    0    0  501    0  0.00000000000E+00  0.00000000000E+00 -0.13363426831E+04  0.13363426831E+04  0.50400001928E-02 0. -1.
    10030    2    1    2    0    0  0.00000000000E+00  0.00000000000E+00 -0.16330849222E+03  0.25093768740E+04  0.25040572342E+04 0.  0.
        3    1    3    3  502    0 -0.45892609704E+03 -0.98712265382E+03  0.53816707380E+03  0.12143508989E+04  0.10100000352E+00 0.  1.
       -3    1    3    3    0  502  0.45892609704E+03  0.98712265382E+03 -0.70147556602E+03  0.12950259751E+04  0.10100000352E+00 0. -1.
</event>
<event>
 5   0  0.3971759E-06  0.2496380E+04  0.7818609E-02  0.8404276E-01
        2   -1    0    0  501    0  0.00000000000E+00  0.00000000000E+00  0.27412890618E+04  0.27412890618E+04  0.25500000920E-02 0.  1.
       -2   -1    0    0    0  501  0.00000000000E+00  0.00000000000E+00 -0.56833793763E+03  0.56833793764E+03  0.25500000920E-02 0. -1.
    10030    2    1    2    0    0  0.00000000000E+00  0.00000000000E+00  0.21729511242E+04  0.33096269995E+04  0.24963802369E+04 0.  0.
        4    1    3    3  502    0 -0.50565015622E+03 -0.74523100031E+03 -0.59319634979E+02  0.90253629085E+03  0.12699999809E+01 0. -1.
       -4    1    3    3    0  502  0.50565015622E+03  0.74523100031E+03  0.22322707592E+04  0.24070907086E+04  0.12699999809E+01 0.  1.
</event>
<event>
 5   0  0.1553604E-06  0.2502204E+04  0.7818609E-02  0.8402201E-01
       -1   -1    0    0    0  501  0.00000000000E+00  0.00000000000E+00  0.84521082521E+03  0.84521082522E+03  0.50400001928E-02 0. -1.
        1   -1    0    0  501    0  0.00000000000E+00  0.00000000000E+00 -0.18519127140E+04  0.18519127140E+04  0.50400001928E-02 0.  1.
    10030    2    1    2    0    0  0.00000000000E+00  0.00000000000E+00 -0.10067018888E+04  0.26971235392E+04  0.25022043668E+04 0.  0.
        1    1    3    3  502    0 -0.19840360240E+03  0.10266525298E+04 -0.12437955770E+04  0.16249328736E+04  0.50400001928E-02 0.  1.
       -1    1    3    3    0  502  0.19840360240E+03 -0.10266525298E+04  0.23709368822E+03  0.10721906656E+04  0.50400001928E-02 0. -1.
</event>
<event>
 5   0  0.3713394E-06  0.2489976E+04  0.7818609E-02  0.8406565E-01
       -2   -1    0    0    0  501  0.00000000000E+00  0.00000000000E+00  0.10776557699E+04  0.10776557699E+04  0.25500000920E-02 0. -1.
        2   -1    0    0  501    0  0.00000000000E+00  0.00000000000E+00 -0.14383022993E+04  0.14383022993E+04  0.25500000920E-02 0.  1.
    10030    2    1    2    0    0  0.00000000000E+00  0.00000000000E+00 -0.36064652939E+03  0.25159580693E+04  0.24899757202E+04 0.  0.
        3    1    3    3  502    0  0.10057349721E+04  0.38512589263E+03 -0.81147707600E+03  0.13484509047E+04  0.10100000352E+00 0.  1.
       -3    1    3    3    0  502 -0.10057349721E+04 -0.38512589263E+03  0.45083054662E+03  0.11675071646E+04  0.10100000352E+00 0. -1.
</event>
<event>
 5   0  0.3713394E-06  0.2494492E+04  0.7818609E-02  0.8404950E-01
        2   -1    0    0  501    0  0.00000000000E+00  0.00000000000E+00  0.22125376214E+04  0.22125376214E+04  0.25500000920E-02 0. -1.
       -2   -1    0    0    0  501  0.00000000000E+00  0.00000000000E+00 -0.70309441580E+03  0.70309441580E+03  0.25500000920E-02 0.  1.
    10030    2    1    2    0    0  0.00000000000E+00  0.00000000000E+00  0.15094432056E+04  0.29156320372E+04  0.24944922099E+04 0.  0.
        3    1    3    3  502    0 -0.33740144350E+02  0.18352354494E+03  0.21961302398E+04  0.22040434046E+04  0.10100000352E+00 0. -1.
       -3    1    3    3    0  502  0.33740144350E+02 -0.18352354494E+03 -0.68668703422E+03  0.71158863261E+03  0.10100000352E+00 0.  1.
</event>
<event>
 5   0  0.3713394E-06  0.2494044E+04  0.7818609E-02  0.8405111E-01
        2   -1    0    0  501    0  0.00000000000E+00  0.00000000000E+00  0.27581903823E+04  0.27581903823E+04  0.25500000920E-02 0. -1.
       -2   -1    0    0    0  501  0.00000000000E+00  0.00000000000E+00 -0.56379837234E+03  0.56379837234E+03  0.25500000920E-02 0.  1.
    10030    2    1    2    0    0  0.00000000000E+00  0.00000000000E+00  0.21943920099E+04  0.33219887546E+04  0.24940435025E+04 0.  0.
        3    1    3    3  502    0 -0.11189461305E+04  0.18579701668E+03  0.40700688455E+03  0.12050790799E+04  0.10100000352E+00 0.  1.
       -3    1    3    3    0  502  0.11189461305E+04 -0.18579701668E+03  0.17873851254E+04  0.21169096748E+04  0.10100000352E+00 0. -1.
</event>
<event>
 5   0  0.1501747E-06  0.2498801E+04  0.7818609E-02  0.8403413E-01
       -1   -1    0    0    0  501  0.00000000000E+00  0.00000000000E+00  0.10394312510E+04  0.10394312510E+04  0.50400001928E-02 0.  1.
        1   -1    0    0  501    0  0.00000000000E+00  0.00000000000E+00 -0.15017843816E+04  0.15017843817E+04  0.50400001928E-02 0. -1.
    10030    2    1    2    0    0  0.00000000000E+00  0.00000000000E+00 -0.46235313068E+03  0.25412156326E+04  0.24988010073E+04 0.  0.
        2    1    3    3  502    0 -0.22838129674E+03 -0.10323329232E+04 -0.90815770219E+03  0.13937789255E+04  0.25500000920E-02 0. -1.
       -2    1    3    3    0  502  0.22838129674E+03  0.10323329232E+04  0.44580457151E+03  0.11474367072E+04  0.25500000920E-02 0.  1.
</event>
<event>
 5   0  0.3814260E-06  0.2501042E+04  0.7818609E-02  0.8402614E-01
       -2   -1    0    0    0  501  0.00000000000E+00  0.00000000000E+00  0.12372868158E+04  0.12372868158E+04  0.25500000920E-02 0. -1.
        2   -1    0    0  501    0  0.00000000000E+00  0.00000000000E+00 -0.12638968485E+04  0.12638968485E+04  0.25500000920E-02 0.  1.
    10030    2    1    2    0    0  0.00000000000E+00  0.00000000000E+00 -0.26610032729E+02  0.25011836643E+04  0.25010421085E+04 0.  0.
        5    1    3    3  502    0 -0.34781806510E+03 -0.95485383035E+03 -0.74208323328E+03  0.12583452860E+04  0.46999998093E+01 0.  1.
       -5    1    3    3    0  502  0.34781806510E+03  0.95485383035E+03  0.71547320055E+03  0.12428383782E+04  0.46999998093E+01 0. -1.
</event>
<event>
 5   0  0.3814260E-06  0.2500298E+04  0.7818609E-02  0.8402879E-01
       -2   -1    0    0    0  501  0.00000000000E+00  0.00000000000E+00  0.14688849990E+04  0.14688849990E+04  0.25500000920E-02 0.  1.
        2   -1    0    0  501    0  0.00000000000E+00  0.00000000000E+00 -0.10639858375E+04  0.10639858375E+04  0.25500000920E-02 0. -1.
    10030    2    1    2    0    0  0.00000000000E+00  0.00000000000E+00  0.40489916149E+03  0.25328708364E+04  0.25002982508E+04 0.  0.
        5    1    3    3  502    0  0.28819004161E+03  0.86622191533E+03  0.10676585774E+04  0.14047458256E+04  0.46999998093E+01 0.  1.
       -5    1    3    3    0  502 -0.28819004161E+03 -0.86622191533E+03 -0.66275941589E+03  0.11281250108E+04  0.46999998093E+01 0. -1.
</event>
<event>
 5   0  0.3971759E-06  0.2500647E+04  0.7818609E-02  0.8402755E-01
        2   -1    0    0  501    0  0.00000000000E+00  0.00000000000E+00  0.11380279187E+04  0.11380279187E+04  0.25500000920E-02 0.  1.
       -2   -1    0    0    0  501  0.00000000000E+00  0.00000000000E+00 -0.13736997392E+04  0.13736997392E+04  0.25500000920E-02 0. -1.
    10030    2    1    2    0    0  0.00000000000E+00  0.00000000000E+00 -0.23567182044E+03  0.25117276579E+04  0.25006468404E+04 0.  0.
        4    1    3    3  502    0  0.71654592272E+03  0.78467346389E+03 -0.77966120036E+03  0.13179619511E+04  0.12699999809E+01 0. -1.
       -4    1    3    3    0  502 -0.71654592272E+03 -0.78467346389E+03  0.54398937992E+03  0.11937657068E+04  0.12699999809E+01 0.  1.
</event>
<event>
 5   0  0.3971759E-06  0.2500261E+04  0.7818609E-02  0.8402892E-01
        2   -1    0    0  501    0  0.00000000000E+00  0.00000000000E+00  0.53445515378E+03  0.53445515378E+03  0.25500000920E-02 0. -1.
       -2   -1    0    0    0  501  0.00000000000E+00  0.00000000000E+00 -0.29241491052E+04  0.29241491052E+04  0.25500000920E-02 0.  1.
    10030    2    1    2    0    0  0.00000000000E+00  0.00000000000E+00 -0.23896939515E+04  0.34586042590E+04  0.25002612341E+04 0.  0.
        4    1    3    3  502    0 -0.12052701212E+04  0.64914302733E+02 -0.74461612435E+03  0.14182188538E+04  0.12699999809E+01 0. -1.
       -4    1    3    3    0  502  0.12052701212E+04 -0.64914302733E+02 -0.16450778271E+04  0.20403854052E+04  0.12699999809E+01 0.  1.
</event>
<event>
 5   0  0.1519145E-06  0.2498337E+04  0.7818609E-02  0.8403578E-01
        1   -1    0    0  501    0  0.00000000000E+00  0.00000000000E+00  0.82092240993E+03  0.82092240995E+03  0.50400001928E-02 0.  1.
       -1   -1    0    0    0  501  0.00000000000E+00  0.00000000000E+00 -0.19008151221E+04  0.19008151221E+04  0.50400001928E-02 0. -1.
    10030    2    1    2    0    0  0.00000000000E+00  0.00000000000E+00 -0.10798927121E+04  0.27217375320E+04  0.24983368315E+04 0.  0.
        4    1    3    3  502    0  0.45557605150E+03  0.79739720410E+03  0.38254731107E+03  0.99485471197E+03  0.12699999809E+01 0.  1.
       -4    1    3    3    0  502 -0.45557605150E+03 -0.79739720410E+03 -0.14624400232E+04  0.17268828201E+04  0.12699999809E+01 0. -1.
</event>
<event>
 5   0  0.3713394E-06  0.2521511E+04  0.7818609E-02  0.8395362E-01
       -2   -1    0    0    0  501  0.00000000000E+00  0.00000000000E+00  0.12419256376E+04  0.12419256376E+04  0.25500000920E-02 0.  1.
        2   -1    0    0  501    0  0.00000000000E+00  0.00000000000E+00 -0.12798708575E+04  0.12798708575E+04  0.25500000920E-02 0. -1.
    10030    2    1    2    0    0  0.00000000000E+00  0.00000000000E+00 -0.37945219910E+02  0.25217964952E+04  0.25215110000E+04 0.  0.
        3    1    3    3  502    0  0.10027839293E+02 -0.17611285558E+03  0.12295229000E+04  0.12421122604E+04  0.10100000352E+00 0.  1.
       -3    1    3    3    0  502 -0.10027839293E+02  0.17611285558E+03 -0.12674681200E+04  0.12796842348E+04  0.10100000352E+00 0. -1.
</event>
<event>
 5   0  0.1519145E-06  0.2500268E+04  0.7818609E-02  0.8402890E-01
        1   -1    0    0  501    0  0.00000000000E+00  0.00000000000E+00  0.10928810837E+04  0.10928810837E+04  0.50400001928E-02 0.  1.
       -1   -1    0    0    0  501  0.00000000000E+00  0.00000000000E+00 -0.14300142144E+04  0.14300142144E+04  0.50400001928E-02 0. -1.
    10030    2    1    2    0    0  0.00000000000E+00  0.00000000000E+00 -0.33713313072E+03  0.25228952982E+04  0.25002683732E+04 0.  0.
        4    1    3    3  502    0 -0.10416925915E+04  0.23433341208E+03  0.48754727632E+03  0.11737715122E+04  0.12699999809E+01 0.  1.
       -4    1    3    3    0  502  0.10416925915E+04 -0.23433341208E+03 -0.82468040704E+03  0.13491237860E+04  0.12699999809E+01 0. -1.
</event>
<event>
 5   0  0.3808293E-06  0.2497210E+04  0.7818609E-02  0.8403980E-01
        2   -1    0    0  501    0  0.00000000000E+00  0.00000000000E+00  0.13258289951E+04  0.13258289951E+04  0.25500000920E-02 0. -1.
       -2   -1    0    0    0  501  0.00000000000E+00  0.00000000000E+00 -0.11758788609E+04  0.11758788609E+04  0.25500000920E-02 0.  1.
    10030    2    1    2    0    0  0.00000000000E+00  0.00000000000E+00  0.14995013420E+03  0.25017078561E+04  0.24972098739E+04 0.  0.
        1    1    3    3  502    0  0.97271189696E+03 -0.69405065853E+01 -0.70924889183E+03  0.12038482445E+04  0.50400001928E-02 0.  1.
       -1    1    3    3    0  502 -0.97271189696E+03  0.69405065853E+01  0.85919902602E+03  0.12978596116E+04  0.50400001928E-02 0. -1.
</event>
<event>
 5   0  0.3924441E-06  0.2504237E+04  0.7818609E-02  0.8401478E-01
       -2   -1    0    0    0  501  0.00000000000E+00  0.00000000000E+00  0.97982409850E+03  0.97982409851E+03  0.25500000920E-02 0.  1.
        2   -1    0    0  501    0  0.00000000000E+00  0.00000000000E+00 -0.16000843611E+04  0.16000843611E+04  0.25500000920E-02 0. -1.
    10030    2    1    2    0    0  0.00000000000E+00  0.00000000000E+00 -0.62026026255E+03  0.25799084596E+04  0.25042373822E+04 0.  0.
        2    1    3    3  502    0 -0.10650176093E+04  0.24875192463E+03 -0.93819197255E+03  0.14409525341E+04  0.25500000920E-02 0. -1.
       -2    1    3    3    0  502  0.10650176093E+04 -0.24875192463E+03  0.31793170999E+03  0.11389559255E+04  0.25500000920E-02 0.  1.
</event>
<event>
 5   0  0.1519145E-06  0.2498716E+04  0.7818609E-02  0.8403443E-01
       -1   -1    0    0    0  501  0.00000000000E+00  0.00000000000E+00  0.11378337608E+04  0.11378337608E+04  0.50400001928E-02 0.  1.
        1   -1    0    0  501    0  0.00000000000E+00  0.00000000000E+00 -0.13718136090E+04  0.13718136090E+04  0.50400001928E-02 0. -1.
    10030    2    1    2    0    0  0.00000000000E+00  0.00000000000E+00 -0.23397984821E+03  0.25096473698E+04  0.24987163408E+04 0.  0.
        4    1    3    3  502    0 -0.14315704537E+03  0.11584855497E+03 -0.13581058112E+04  0.13705356014E+04  0.12699999809E+01 0. -1.
       -4    1    3    3    0  502  0.14315704537E+03 -0.11584855497E+03  0.11241259630E+04  0.11391117684E+04  0.12699999809E+01 0.  1.
</event>
<event>
 5   0  0.1501747E-06  0.2499382E+04  0.7818609E-02  0.8403206E-01
       -1   -1    0    0    0  501  0.00000000000E+00  0.00000000000E+00  0.11125953199E+04  0.11125953199E+04  0.50400001928E-02 0.  1.
        1   -1    0    0  501    0  0.00000000000E+00  0.00000000000E+00 -0.14036793831E+04  0.14036793831E+04  0.50400001928E-02 0. -1.
    10030    2    1    2    0    0  0.00000000000E+00  0.00000000000E+00 -0.29108406318E+03  0.25162747030E+04  0.24993816134E+04 0.  0.
        2    1    3    3  502    0  0.12566708861E+03 -0.12429054012E+04 -0.11183351280E+03  0.12542379312E+04  0.25500000920E-02 0.  1.
       -2    1    3    3    0  502 -0.12566708861E+03  0.12429054012E+04 -0.17925055038E+03  0.12620367718E+04  0.25500000920E-02 0. -1.
</event>
<event>
 5   0  0.3971759E-06  0.2499525E+04  0.7818609E-02  0.8403155E-01
       -2   -1    0    0    0  501  0.00000000000E+00  0.00000000000E+00  0.11339936237E+04  0.11339936237E+04  0.25500000920E-02 0. -1.
        2   -1    0    0  501    0  0.00000000000E+00  0.00000000000E+00 -0.13773498827E+04  0.13773498827E+04  0.25500000920E-02 0.  1.
    10030    2    1    2    0    0  0.00000000000E+00  0.00000000000E+00 -0.24335625902E+03  0.25113435063E+04  0.24995247424E+04 0.  0.
        4    1    3    3  502    0  0.25859475382E+03 -0.89622882867E+03 -0.95736034515E+03  0.13366517136E+04  0.12699999809E+01 0.  1.
       -4    1    3    3    0  502 -0.25859475382E+03  0.89622882867E+03  0.71400408613E+03  0.11746917928E+04  0.12699999809E+01 0. -1.
</event>
<event>
 5   0  0.3971759E-06  0.2491794E+04  0.7818609E-02  0.8405915E-01
        2   -1    0    0  501    0  0.00000000000E+00  0.00000000000E+00  0.16975370360E+04  0.16975370360E+04  0.25500000920E-02 0. -1.
       -2   -1    0    0    0  501  0.00000000000E+00  0.00000000000E+00 -0.91441863248E+03  0.91441863248E+03  0.25500000920E-02 0.  1.
    10030    2    1    2    0    0  0.00000000000E+00  0.00000000000E+00  0.78311840350E+03  0.26119556685E+04  0.24917941287E+04 0.  0.
        4    1    3    3  502    0 -0.66709778131E+03  0.67533532573E+03 -0.45429928440E+03  0.10523719422E+04  0.12699999809E+01 0.  1.
       -4    1    3    3    0  502  0.66709778131E+03 -0.67533532573E+03  0.12374176879E+04  0.15595837263E+04  0.12699999809E+01 0. -1.
</event>
<event>
 5   0  0.1519145E-06  0.2496767E+04  0.7818609E-02  0.8404138E-01
        1   -1    0    0  501    0  0.00000000000E+00  0.00000000000E+00  0.13989458090E+04  0.13989458090E+04  0.50400001928E-02 0. -1.
       -1   -1    0    0    0  501  0.00000000000E+00  0.00000000000E+00 -0.11140259091E+04  0.11140259091E+04  0.50400001928E-02 0.  1.
    10030    2    1    2    0    0  0.00000000000E+00  0.00000000000E+00  0.28491989990E+03  0.25129717181E+04  0.24967674114E+04 0.  0.
        4    1    3    3  502    0 -0.17563433199E+03  0.15677602082E+03  0.13763996414E+04  0.13963895320E+04  0.12699999809E+01 0. -1.
       -4    1    3    3    0  502  0.17563433199E+03 -0.15677602082E+03 -0.10914797415E+04  0.11165821861E+04  0.12699999809E+01 0.  1.
</event>
<event>
 5   0  0.1501747E-06  0.2500748E+04  0.7818609E-02  0.8402719E-01
        1   -1    0    0  501    0  0.00000000000E+00  0.00000000000E+00  0.10804359798E+04  0.10804359798E+04  0.50400001928E-02 0. -1.
       -1   -1    0    0    0  501  0.00000000000E+00  0.00000000000E+00 -0.14470408251E+04  0.14470408251E+04  0.50400001928E-02 0.  1.
    10030    2    1    2    0    0  0.00000000000E+00  0.00000000000E+00 -0.36660484530E+03  0.25274768048E+04  0.25007478654E+04 0.  0.
        2    1    3    3  502    0  0.10228243949E+04 -0.52176616283E+03  0.31698863112E+03  0.11911723064E+04  0.25500000920E-02 0. -1.
       -2    1    3    3    0  502 -0.10228243949E+04  0.52176616283E+03 -0.68359347642E+03  0.13363044984E+04  0.25500000920E-02 0.  1.
</event>
<event>
 5   0  0.3814260E-06  0.2498250E+04  0.7818609E-02  0.8403609E-01
       -2   -1    0    0    0  501  0.00000000000E+00  0.00000000000E+00  0.16806720808E+04  0.16806720808E+04  0.25500000920E-02 0.  1.
        2   -1    0    0  501    0  0.00000000000E+00  0.00000000000E+00 -0.92838665882E+03  0.92838665883E+03  0.25500000920E-02 0. -1.
    10030    2    1    2    0    0  0.00000000000E+00  0.00000000000E+00  0.75228542201E+03  0.26090587397E+04  0.24982502178E+04 0.  0.
        5    1    3    3  502    0 -0.56197265027E+03 -0.97085811379E+03  0.94997980932E+03  0.14699872329E+04  0.46999998093E+01 0.  1.
       -5    1    3    3    0  502  0.56197265027E+03  0.97085811379E+03 -0.19769438731E+03  0.11390715068E+04  0.46999998093E+01 0. -1.
</event>
<event>
 5   0  0.1287375E-06  0.2519304E+04  0.7818609E-02  0.8396140E-01
        4   -1    0    0  501    0  0.00000000000E+00  0.00000000000E+00  0.13647099803E+04  0.13647105712E+04  0.12699999809E+01 0. -1.
       -4   -1    0    0    0  501  0.00000000000E+00  0.00000000000E+00 -0.11626808187E+04  0.11626815123E+04  0.12699999809E+01 0.  1.
    10030    2    1    2    0    0  0.00000000000E+00  0.00000000000E+00  0.20202916160E+03  0.25273920835E+04  0.25193044599E+04 0.  0.
        3    1    3    3  502    0  0.77116747777E+03 -0.93835889275E+03 -0.23398410919E+03  0.12369176464E+04  0.10100000352E+00 0. -1.
       -3    1    3    3    0  502 -0.77116747777E+03  0.93835889275E+03  0.43601327079E+03  0.12904744371E+04  0.10100000352E+00 0.  1.
</event>
<event>
 5   0  0.1541852E-06  0.2495971E+04  0.7818609E-02  0.8404422E-01
       -1   -1    0    0    0  501  0.00000000000E+00  0.00000000000E+00  0.67107976497E+03  0.67107976499E+03  0.50400001928E-02 0.  1.
        1   -1    0    0  501    0  0.00000000000E+00  0.00000000000E+00 -0.23208379553E+04  0.23208379553E+04  0.50400001928E-02 0. -1.
    10030    2    1    2    0    0  0.00000000000E+00  0.00000000000E+00 -0.16497581903E+04  0.29919177203E+04  0.24959706646E+04 0.  0.
        5    1    3    3  502    0  0.49899088245E+03  0.46775003621E+03  0.42640617378E+03  0.80599399017E+03  0.46999998093E+01 0.  1.
       -5    1    3    3    0  502 -0.49899088245E+03 -0.46775003621E+03 -0.20761643641E+04  0.21859237301E+04  0.46999998093E+01 0. -1.
</event>
<event>
 5   0  0.3924441E-06  0.2515213E+04  0.7818609E-02  0.8397586E-01
        2   -1    0    0  501    0  0.00000000000E+00  0.00000000000E+00  0.14137547562E+04  0.14137547562E+04  0.25500000920E-02 0.  1.
       -2   -1    0    0    0  501  0.00000000000E+00  0.00000000000E+00 -0.11187047118E+04  0.11187047118E+04  0.25500000920E-02 0. -1.
    10030    2    1    2    0    0  0.00000000000E+00  0.00000000000E+00  0.29505004440E+03  0.25324594680E+04  0.25152129986E+04 0.  0.
        2    1    3    3  502    0 -0.11305220977E+04 -0.10939954550E+03 -0.39610834884E+03  0.12028924714E+04  0.25500000920E-02 0. -1.
       -2    1    3    3    0  502  0.11305220977E+04  0.10939954550E+03  0.69115839324E+03  0.13295669966E+04  0.25500000920E-02 0.  1.
</event>
<event>
 5   0  0.1519145E-06  0.2502239E+04  0.7818609E-02  0.8402188E-01
        1   -1    0    0  501    0  0.00000000000E+00  0.00000000000E+00  0.15323918185E+04  0.15323918185E+04  0.50400001928E-02 0.  1.
       -1   -1    0    0    0  501  0.00000000000E+00  0.00000000000E+00 -0.10214749356E+04  0.10214749356E+04  0.50400001928E-02 0. -1.
    10030    2    1    2    0    0  0.00000000000E+00  0.00000000000E+00  0.51091688292E+03  0.25538667542E+04  0.25022388649E+04 0.  0.
        4    1    3    3  502    0 -0.10436451256E+04  0.71167100526E+02  0.95594142151E+03  0.14170693415E+04  0.12699999809E+01 0.  1.
       -4    1    3    3    0  502  0.10436451256E+04 -0.71167100526E+02 -0.44502453859E+03  0.11367974126E+04  0.12699999809E+01 0. -1.
</event>
<event>
 5   0  0.3713394E-06  0.2507873E+04  0.7818609E-02  0.8400186E-01
       -2   -1    0    0    0  501  0.00000000000E+00  0.00000000000E+00  0.99280897602E+03  0.99280897603E+03  0.25500000920E-02 0.  1.
        2   -1    0    0  501    0  0.00000000000E+00  0.00000000000E+00 -0.15837450369E+04  0.15837450369E+04  0.25500000920E-02 0. -1.
    10030    2    1    2    0    0  0.00000000000E+00  0.00000000000E+00 -0.59093606086E+03  0.25765540129E+04  0.25078726350E+04 0.  0.
        3    1    3    3  502    0 -0.78319811995E+03  0.21259202261E+02  0.71037676368E+03  0.10575851764E+04  0.10100000352E+00 0.  1.
       -3    1    3    3    0  502  0.78319811995E+03 -0.21259202261E+02 -0.13013128245E+04  0.15189688365E+04  0.10100000352E+00 0. -1.
</event>
<event>
 5   0  0.1501747E-06  0.2496877E+04  0.7818609E-02  0.8404099E-01
        1   -1    0    0  501    0  0.00000000000E+00  0.00000000000E+00  0.19627155112E+04  0.19627155112E+04  0.50400001928E-02 0.  1.
       -1   -1    0    0    0  501  0.00000000000E+00  0.00000000000E+00 -0.79410333849E+03  0.79410333850E+03  0.50400001928E-02 0. -1.
    10030    2    1    2    0    0  0.00000000000E+00  0.00000000000E+00  0.11686121727E+04  0.27568188497E+04  0.24968772016E+04 0.  0.
        2    1    3    3  502    0  0.34617593980E+03  0.71756649689E+03 -0.47693487839E+03  0.92855066474E+03  0.25500000920E-02 0. -1.
       -2    1    3    3    0  502 -0.34617593980E+03 -0.71756649689E+03  0.16455470511E+04  0.18282681850E+04  0.25500000920E-02 0.  1.
</event>
<event>
 5   0  0.3924441E-06  0.2499402E+04  0.7818609E-02  0.8403198E-01
       -2   -1    0    0    0  501  0.00000000000E+00  0.00000000000E+00  0.71585492396E+03  0.71585492397E+03  0.25500000920E-02 0. -1.
        2   -1    0    0  501    0  0.00000000000E+00  0.00000000000E+00 -0.21816613909E+04  0.21816613909E+04  0.25500000920E-02 0.  1.
    10030    2    1    2    0    0  0.00000000000E+00  0.00000000000E+00 -0.14658064669E+04  0.28975163148E+04  0.24994023678E+04 0.  0.
        2    1    3    3  502    0 -0.89275979167E+03  0.87416675707E+03 -0.70533556796E+03  0.14348121230E+04  0.25500000920E-02 0. -1.
       -2    1    3    3    0  502  0.89275979167E+03 -0.87416675707E+03 -0.76047089895E+03  0.14627041919E+04  0.25500000920E-02 0.  1.
</event>
<event>
 5   0  0.1574896E-06  0.2487750E+04  0.7818609E-02  0.8407363E-01
        1   -1    0    0  501    0  0.00000000000E+00  0.00000000000E+00  0.10216009395E+04  0.10216009396E+04  0.50400001928E-02 0.  1.
       -1   -1    0    0    0  501  0.00000000000E+00  0.00000000000E+00 -0.15145102405E+04  0.15145102405E+04  0.50400001928E-02 0. -1.
    10030    2    1    2    0    0  0.00000000000E+00  0.00000000000E+00 -0.49290930093E+03  0.25361111800E+04  0.24877500555E+04 0.  0.
        3    1    3    3  502    0 -0.12721685649E+03  0.11843833656E+04  0.11866560193E+03  0.11970921521E+04  0.10100000352E+00 0. -1.
       -3    1    3    3    0  502  0.12721685649E+03 -0.11843833656E+04 -0.61157490286E+03  0.13390190280E+04  0.10100000352E+00 0.  1.
</event>
<event>
 5   0  0.3924441E-06  0.2504679E+04  0.7818609E-02  0.8401320E-01
       -2   -1    0    0    0  501  0.00000000000E+00  0.00000000000E+00  0.13431317796E+04  0.13431317796E+04  0.25500000920E-02 0. -1.
        2   -1    0    0  501    0  0.00000000000E+00  0.00000000000E+00 -0.11676848606E+04  0.11676848607E+04  0.25500000920E-02 0.  1.
    10030    2    1    2    0    0  0.00000000000E+00  0.00000000000E+00  0.17544691897E+03  0.25108166403E+04  0.25046793367E+04 0.  0.
        2    1    3    3  502    0 -0.63875034425E+03 -0.95270172437E+03 -0.41621308693E+03  0.12201950302E+04  0.25500000920E-02 0.  1.
       -2    1    3    3    0  502  0.63875034425E+03  0.95270172437E+03  0.59166000590E+03  0.12906216101E+04  0.25500000920E-02 0. -1.
</event>
<event>
 5   0  0.1541852E-06  0.2499634E+04  0.7818609E-02  0.8403116E-01
       -1   -1    0    0    0  501  0.00000000000E+00  0.00000000000E+00  0.88074848688E+03  0.88074848689E+03  0.50400001928E-02 0.  1.
        1   -1    0    0  501    0  0.00000000000E+00  0.00000000000E+00 -0.17735404298E+04  0.17735404298E+04  0.50400001928E-02 0. -1.
    10030    2    1    2    0    0  0.00000000000E+00  0.00000000000E+00 -0.89279194291E+03  0.26542889167E+04  0.24996344133E+04 0.  0.
        5    1    3    3  502    0 -0.59261148325E+03 -0.10892100412E+04 -0.61244920134E+03  0.13829978301E+04  0.46999998093E+01 0. -1.
       -5    1    3    3    0  502  0.59261148325E+03  0.10892100412E+04 -0.28034274157E+03  0.12712910865E+04  0.46999998093E+01 0.  1.
</event>
<event>
 5   0  0.1519145E-06  0.2503111E+04  0.7818609E-02  0.8401878E-01
       -1   -1    0    0    0  501  0.00000000000E+00  0.00000000000E+00  0.51695510173E+03  0.51695510176E+03  0.50400001928E-02 0. -1.
        1   -1    0    0  501    0  0.00000000000E+00  0.00000000000E+00 -0.30300341374E+04  0.30300341374E+04  0.50400001928E-02 0.  1.
    10030    2    1    2    0    0  0.00000000000E+00  0.00000000000E+00 -0.25130790356E+04  0.35469892391E+04  0.25031113485E+04 0.  0.
        4    1    3    3  502    0  0.86796353057E+03 -0.67007908079E+03 -0.21114965909E+04  0.23792406627E+04  0.12699999809E+01 0.  1.
       -4    1    3    3    0  502 -0.86796353057E+03  0.67007908079E+03 -0.40158244477E+03  0.11677485764E+04  0.12699999809E+01 0. -1.
</event>
<event>
 5   0  0.3713394E-06  0.2495295E+04  0.7818609E-02  0.8404664E-01
       -2   -1    0    0    0  501  0.00000000000E+00  0.00000000000E+00  0.13730220262E+04  0.13730220262E+04  0.25500000920E-02 0.  1.
        2   -1    0    0  501    0  0.00000000000E+00  0.00000000000E+00 -0.11337208457E+04  0.11337208457E+04  0.25500000920E-02 0. -1.
    10030    2    1    2    0    0  0.00000000000E+00  0.00000000000E+00  0.23930118055E+03  0.25067428719E+04  0.24952945259E+04 0.  0.
        3    1    3    3  502    0 -0.38931344082E+03 -0.81794855932E+03 -0.74220093129E+03  0.11710965090E+04  0.10100000352E+00 0. -1.
       -3    1    3    3    0  502  0.38931344082E+03  0.81794855932E+03  0.98150211184E+03  0.13356463629E+04  0.10100000352E+00 0.  1.
</event>
<event>
 5   0  0.1574896E-06  0.2499543E+04  0.7818609E-02  0.8403148E-01
        1   -1    0    0  501    0  0.00000000000E+00  0.00000000000E+00  0.21018388693E+04  0.21018388693E+04  0.50400001928E-02 0.  1.
       -1   -1    0    0    0  501  0.00000000000E+00  0.00000000000E+00 -0.74312489602E+03  0.74312489604E+03  0.50400001928E-02 0. -1.
    10030    2    1    2    0    0  0.00000000000E+00  0.00000000000E+00  0.13587139732E+04  0.28449637653E+04  0.24995429912E+04 0.  0.
        3    1    3    3  502    0 -0.18920538189E+03  0.93700838646E+02 -0.72267864132E+03  0.75288973463E+03  0.10100000352E+00 0. -1.
       -3    1    3    3    0  502  0.18920538189E+03 -0.93700838646E+02  0.20813926146E+04  0.20920740307E+04  0.10100000352E+00 0.  1.
</event>
<event>
 5   0  0.1501747E-06  0.2499136E+04  0.7818609E-02  0.8403293E-01
        1   -1    0    0  501    0  0.00000000000E+00  0.00000000000E+00  0.13090387692E+04  0.13090387692E+04  0.50400001928E-02 0.  1.
       -1   -1    0    0    0  501  0.00000000000E+00  0.00000000000E+00 -0.11927988644E+04  0.11927988644E+04  0.50400001928E-02 0. -1.
    10030    2    1    2    0    0  0.00000000000E+00  0.00000000000E+00  0.11623990476E+03  0.25018376336E+04  0.24991358165E+04 0.  0.
        2    1    3    3  502    0  0.11245607632E+04 -0.46735906455E+03  0.33834855631E+03  0.12639387449E+04  0.25500000920E-02 0. -1.
       -2    1    3    3    0  502 -0.11245607632E+04  0.46735906455E+03 -0.22210865155E+03  0.12378988886E+04  0.25500000920E-02 0.  1.
</event>
<event>
 5   0  0.1501747E-06  0.2501879E+04  0.7818609E-02  0.8402317E-01
        1   -1    0    0  501    0  0.00000000000E+00  0.00000000000E+00  0.10413997239E+04  0.10413997239E+04  0.50400001928E-02 0. -1.
       -1   -1    0    0    0  501  0.00000000000E+00  0.00000000000E+00 -0.15026403472E+04  0.15026403472E+04  0.50400001928E-02 0.  1.
    10030    2    1    2    0    0  0.00000000000E+00  0.00000000000E+00 -0.46124062336E+03  0.25440400711E+04  0.25018786883E+04 0.  0.
        2    1    3    3  502    0  0.10000355359E+03 -0.69569057835E+03 -0.12828842501E+04  0.14627980349E+04  0.25500000920E-02 0.  1.
       -2    1    3    3    0  502 -0.10000355359E+03  0.69569057835E+03  0.82164362678E+03  0.10812420363E+04  0.25500000920E-02 0. -1.
</event>
<event>
 5   0  0.3971759E-06  0.2498590E+04  0.7818609E-02  0.8403488E-01
        2   -1    0    0  501    0  0.00000000000E+00  0.00000000000E+00  0.22193687950E+04  0.22193687950E+04  0.25500000920E-02 0. -1.
       -2   -1    0    0    0  501  0.00000000000E+00  0.00000000000E+00 -0.70323497917E+03  0.70323497917E+03  0.25500000920E-02 0.  1.
    10030    2    1    2    0    0  0.00000000000E+00  0.00000000000E+00  0.15161338158E+04  0.29226037742E+04  0.24985898169E+04 0.  0.
        4    1    3    3  502    0  0.11054562784E+04  0.10689793418E+03  0.14272295061E+04  0.18084375653E+04  0.12699999809E+01 0. -1.
       -4    1    3    3    0  502 -0.11054562784E+04 -0.10689793418E+03  0.88904309750E+02  0.11141662089E+04  0.12699999809E+01 0.  1.
</event>
<event>
 5   0  0.1553604E-06  0.2500235E+04  0.7818609E-02  0.8402902E-01
        1   -1    0    0  501    0  0.00000000000E+00  0.00000000000E+00  0.89530058932E+03  0.89530058934E+03  0.50400001928E-02 0.  1.
       -1   -1    0    0    0  501  0.00000000000E+00  0.00000000000E+00 -0.17455517665E+04  0.17455517665E+04  0.50400001928E-02 0. -1.
    10030    2    1    2    0    0  0.00000000000E+00  0.00000000000E+00 -0.85025117715E+03  0.26408523558E+04  0.25002348092E+04 0.  0.
        1    1    3    3  502    0 -0.52042829661E+03 -0.99622090629E+03  0.15291163463E+03  0.11343207986E+04  0.50400001928E-02 0.  1.
       -1    1    3    3    0  502  0.52042829661E+03  0.99622090629E+03 -0.10031628118E+04  0.15065315572E+04  0.50400001928E-02 0. -1.
</event>
<event>
 5   0  0.1553604E-06  0.2500539E+04  0.7818609E-02  0.8402794E-01
        1   -1    0    0  501    0  0.00000000000E+00  0.00000000000E+00  0.26995767918E+04  0.26995767918E+04  0.50400001928E-02 0. -1.
       -1   -1    0    0    0  501  0.00000000000E+00  0.00000000000E+00 -0.57904386588E+03  0.57904386590E+03  0.50400001928E-02 0.  1.
    10030    2    1    2    0    0  0.00000000000E+00  0.00000000000E+00  0.21205329259E+04  0.32786206577E+04  0.25005386474E+04 0.  0.
        1    1    3    3  502    0 -0.23616733561E+03  0.22815226835E+03  0.26420263796E+04  0.26623545704E+04  0.50400001928E-02 0. -1.
       -1    1    3    3    0  502  0.23616733561E+03 -0.22815226835E+03 -0.52149345375E+03  0.61626608725E+03  0.50400001928E-02 0.  1.
</event>
<event>
 5   0  0.3814260E-06  0.2489593E+04  0.7818609E-02  0.8406703E-01
       -2   -1    0    0    0  501  0.00000000000E+00  0.00000000000E+00  0.12015077250E+04  0.12015077250E+04  0.25500000920E-02 0. -1.
        2   -1    0    0  501    0  0.00000000000E+00  0.00000000000E+00 -0.12896444770E+04  0.12896444770E+04  0.25500000920E-02 0.  1.
    10030    2    1    2    0    0  0.00000000000E+00  0.00000000000E+00 -0.88136751946E+02  0.24911522020E+04  0.24895925784E+04 0.  0.
        5    1    3    3  502    0 -0.70460552132E+03 -0.10038661582E+04  0.16885474743E+03  0.12380428991E+04  0.46999998093E+01 0. -1.
       -5    1    3    3    0  502  0.70460552132E+03  0.10038661582E+04 -0.25699149937E+03  0.12531093029E+04  0.46999998093E+01 0.  1.
</event>
<event>
 5   0  0.3808293E-06  0.2499375E+04  0.7818609E-02  0.8403208E-01
        2   -1    0    0  501    0  0.00000000000E+00  0.00000000000E+00  0.17019612319E+04  0.17019612319E+04  0.25500000920E-02 0. -1.
       -2   -1    0    0    0  501  0.00000000000E+00  0.00000000000E+00 -0.91759926162E+03  0.91759926163E+03  0.25500000920E-02 0.  1.
    10030    2    1    2    0    0  0.00000000000E+00  0.00000000000E+00  0.78436197031E+03  0.26195604936E+04  0.24993746176E+04 0.  0.
        1    1    3    3  502    0 -0.63457279043E+03 -0.26224732010E+03  0.14865468344E+04  0.16374607702E+04  0.50400001928E-02 0. -1.
       -1    1    3    3    0  502  0.63457279043E+03  0.26224732010E+03 -0.70218486406E+03  0.98209972334E+03  0.50400001928E-02 0.  1.
</event>
<event>
 5   0  0.3808293E-06  0.2499077E+04  0.7818609E-02  0.8403314E-01
       -2   -1    0    0    0  501  0.00000000000E+00  0.00000000000E+00  0.10567250541E+04  0.10567250541E+04  0.25500000920E-02 0.  1.
        2   -1    0    0  501    0  0.00000000000E+00  0.00000000000E+00 -0.14775338494E+04  0.14775338494E+04  0.25500000920E-02 0. -1.
    10030    2    1    2    0    0  0.00000000000E+00  0.00000000000E+00 -0.42080879530E+03  0.25342589035E+04  0.24990774593E+04 0.  0.
        1    1    3    3  502    0 -0.10260811527E+04 -0.69175533425E+03 -0.38598651736E+03  0.12962845235E+04  0.50400001928E-02 0. -1.
       -1    1    3    3    0  502  0.10260811527E+04  0.69175533425E+03 -0.34822277946E+02  0.12379743800E+04  0.50400001928E-02 0.  1.
</event>
<event>
 5   0  0.1574896E-06  0.2501804E+04  0.7818609E-02  0.8402343E-01
       -1   -1    0    0    0  501  0.00000000000E+00  0.00000000000E+00  0.14283486870E+04  0.14283486870E+04  0.50400001928E-02 0.  1.
        1   -1    0    0  501    0  0.00000000000E+00  0.00000000000E+00 -0.10955000390E+04  0.10955000390E+04  0.50400001928E-02 0. -1.
    10030    2    1    2    0    0  0.00000000000E+00  0.00000000000E+00  0.33284864794E+03  0.25238487260E+04  0.25018041828E+04 0.  0.
        3    1    3    3  502    0 -0.54055620609E+03 -0.35989937597E+03 -0.91212084595E+03  0.11196843397E+04  0.10100000352E+00 0. -1.
       -3    1    3    3    0  502  0.54055620609E+03  0.35989937597E+03  0.12449694939E+04  0.14041643863E+04  0.10100000352E+00 0.  1.
</event>
<event>
 5   0  0.3814260E-06  0.2499868E+04  0.7818609E-02  0.8403032E-01
       -2   -1    0    0    0  501  0.00000000000E+00  0.00000000000E+00  0.15326311916E+04  0.15326311917E+04  0.25500000920E-02 0.  1.
        2   -1    0    0  501    0  0.00000000000E+00  0.00000000000E+00 -0.10193813161E+04  0.10193813162E+04  0.25500000920E-02 0. -1.
    10030    2    1    2    0    0  0.00000000000E+00  0.00000000000E+00  0.51324987550E+03  0.25520125078E+04  0.24998684776E+04 0.  0.
        5    1    3    3  502    0  0.64770689422E+03  0.10959106311E+02  0.13478790588E+04  0.14954746304E+04  0.46999998093E+01 0.  1.
       -5    1    3    3    0  502 -0.64770689422E+03 -0.10959106311E+02 -0.83462918332E+03  0.10565378774E+04  0.46999998093E+01 0. -1.
</event>
<event>
 5   0  0.3924441E-06  0.2496142E+04  0.7818609E-02  0.8404361E-01
       -2   -1    0    0    0  501  0.00000000000E+00  0.00000000000E+00  0.17344487961E+04  0.17344487961E+04  0.25500000920E-02 0. -1.
        2   -1    0    0  501    0  0.00000000000E+00  0.00000000000E+00 -0.89808440603E+03  0.89808440603E+03  0.25500000920E-02 0.  1.
    10030    2    1    2    0    0  0.00000000000E+00  0.00000000000E+00  0.83636439008E+03  0.26325332021E+04  0.24961421569E+04 0.  0.
        2    1    3    3  502    0  0.81011378113E+03  0.79722090588E+03  0.96194733484E+03  0.14890225607E+04  0.25500000920E-02 0.  1.
       -2    1    3    3    0  502 -0.81011378113E+03 -0.79722090588E+03 -0.12558294476E+03  0.11435106415E+04  0.25500000920E-02 0. -1.
</event>
<event>
 5   0  0.1541852E-06  0.2500440E+04  0.7818609E-02  0.8402829E-01
        1   -1    0    0  501    0  0.00000000000E+00  0.00000000000E+00  0.99540858047E+03  0.99540858048E+03  0.50400001928E-02 0. -1.
       -1   -1    0    0    0  501  0.00000000000E+00  0.00000000000E+00 -0.15702598470E+04  0.15702598470E+04  0.50400001928E-02 0.  1.
    10030    2    1    2    0    0  0.00000000000E+00  0.00000000000E+00 -0.57485126649E+03  0.25656684274E+04  0.25004400615E+04 0.  0.
        5    1    3    3  502    0 -0.25348939089E+03 -0.26450451508E+03  0.93908437930E+03  0.10080283087E+04  0.46999998093E+01 0. -1.
       -5    1    3    3    0  502  0.25348939089E+03  0.26450451508E+03 -0.15139356458E+04  0.15576401187E+04  0.46999998093E+01 0.  1.
</event>
<event>
 5   0  0.3808293E-06  0.2504919E+04  0.7818609E-02  0.8401235E-01
        2   -1    0    0  501    0  0.00000000000E+00  0.00000000000E+00  0.17005732730E+04  0.17005732730E+04  0.25500000920E-02 0. -1.
       -2   -1    0    0    0  501  0.00000000000E+00  0.00000000000E+00 -0.92242717252E+03  0.92242717253E+03  0.25500000920E-02 0.  1.
    10030    2    1    2    0    0  0.00000000000E+00  0.00000000000E+00  0.77814610046E+03  0.26230004455E+04  0.25049191571E+04 0.  0.
        1    1    3    3  502    0 -0.39993015273E+03  0.10368073628E+03 -0.84901691902E+03  0.94420524832E+03  0.50400001928E-02 0.  1.
       -1    1    3    3    0  502  0.39993015273E+03 -0.10368073628E+03  0.16271630195E+04  0.16787951972E+04  0.50400001928E-02 0. -1.
</event>
<event>
 5   0  0.3971759E-06  0.2504284E+04  0.7818609E-02  0.8401461E-01
       -2   -1    0    0    0  501  0.00000000000E+00  0.00000000000E+00  0.10486034960E+04  0.10486034960E+04  0.25500000920E-02 0. -1.
        2   -1    0    0  501    0  0.00000000000E+00  0.00000000000E+00 -0.14951877825E+04  0.14951877825E+04  0.25500000920E-02 0.  1.
    10030    2    1    2    0    0  0.00000000000E+00  0.00000000000E+00 -0.44658428642E+03  0.25437912785E+04  0.25042836388E+04 0.  0.
        4    1    3    3  502    0  0.12177868913E+03 -0.10357363355E+04  0.48066168773E+03  0.11483105315E+04  0.12699999809E+01 0.  1.
       -4    1    3    3    0  502 -0.12177868913E+03  0.10357363355E+04 -0.92724597415E+03  0.13954807470E+04  0.12699999809E+01 0. -1.
</event>
<event>
 5   0  0.3808293E-06  0.2508516E+04  0.7818609E-02  0.8399958E-01
        2   -1    0    0  501    0  0.00000000000E+00  0.00000000000E+00  0.26353082167E+04  0.26353082167E+04  0.25500000920E-02 0. -1.
       -2   -1    0    0    0  501  0.00000000000E+00  0.00000000000E+00 -0.59695603740E+03  0.59695603741E+03  0.25500000920E-02 0.  1.
    10030    2    1    2    0    0  0.00000000000E+00  0.00000000000E+00  0.20383521793E+04  0.32322642541E+04  0.25085160158E+04 0.  0.
        1    1    3    3  502    0  0.90215249929E+03  0.22837615565E+03  0.21027015127E+04  0.22994322021E+04  0.50400001928E-02 0. -1.
       -1    1    3    3    0  502 -0.90215249929E+03 -0.22837615565E+03 -0.64349333453E+02  0.93283205198E+03  0.50400001928E-02 0.  1.
</event>
<event>
 5   0  0.3924441E-06  0.2500280E+04  0.7818609E-02  0.8402886E-01
        2   -1    0    0  501    0  0.00000000000E+00  0.00000000000E+00  0.13679666026E+04  0.13679666026E+04  0.25500000920E-02 0. -1.
       -2   -1    0    0    0  501  0.00000000000E+00  0.00000000000E+00 -0.11424621259E+04  0.11424621259E+04  0.25500000920E-02 0.  1.
    10030    2    1    2    0    0  0.00000000000E+00  0.00000000000E+00  0.22550447670E+03  0.25104287285E+04  0.25002800107E+04 0.  0.
        2    1    3    3  502    0 -0.63607574360E+03 -0.10676941028E+04  0.24853051485E+03  0.12674109301E+04  0.25500000920E-02 0. -1.
       -2    1    3    3    0  502  0.63607574360E+03  0.10676941028E+04 -0.23026038151E+02  0.12430177984E+04  0.25500000920E-02 0.  1.
</event>
<event>
 5   0  0.1501747E-06  0.2498922E+04  0.7818609E-02  0.8403370E-01
        1   -1    0    0  501    0  0.00000000000E+00  0.00000000000E+00  0.79509427766E+03  0.79509427767E+03  0.50400001928E-02 0.  1.
       -1   -1    0    0    0  501  0.00000000000E+00  0.00000000000E+00 -0.19634808271E+04  0.19634808271E+04  0.50400001928E-02 0. -1.
    10030    2    1    2    0    0  0.00000000000E+00  0.00000000000E+00 -0.11683865494E+04  0.27585751048E+04  0.24989216634E+04 0.  0.
        2    1    3    3  502    0 -0.10105633034E+04  0.69435985966E+03 -0.31884544119E+03  0.12669002409E+04  0.25500000920E-02 0. -1.
       -2    1    3    3    0  502  0.10105633034E+04 -0.69435985966E+03 -0.84954110826E+03  0.14916748639E+04  0.25500000920E-02 0.  1.
</event>
<event>
 5   0  0.1501747E-06  0.2500538E+04  0.7818609E-02  0.8402794E-01
        1   -1    0    0  501    0  0.00000000000E+00  0.00000000000E+00  0.24073151807E+04  0.24073151807E+04  0.50400001928E-02 0. -1.
       -1   -1    0    0    0  501  0.00000000000E+00  0.00000000000E+00 -0.64934271850E+03  0.64934271852E+03  0.50400001928E-02 0.  1.
    10030    2    1    2    0    0  0.00000000000E+00  0.00000000000E+00  0.17579724622E+04  0.30566578992E+04  0.25005380091E+04 0.  0.
        2    1    3    3  502    0 -0.11584788395E+04 -0.21088332608E+03  0.13927253543E+04  0.18237951945E+04  0.25500000920E-02 0. -1.
       -2    1    3    3    0  502  0.11584788395E+04  0.21088332608E+03  0.36524710784E+03  0.12328627047E+04  0.25500000920E-02 0.  1.
</event>
<event>
 5   0  0.3808293E-06  0.2504991E+04  0.7818609E-02  0.8401210E-01
        2   -1    0    0  501    0  0.00000000000E+00  0.00000000000E+00  0.11075077918E+04  0.11075077918E+04  0.25500000920E-02 0.  1.
       -2   -1    0    0    0  501  0.00000000000E+00  0.00000000000E+00 -0.14164641986E+04  0.14164641986E+04  0.25500000920E-02 0. -1.
    10030    2    1    2    0    0  0.00000000000E+00  0.00000000000E+00 -0.30895640679E+03  0.25239719905E+04  0.25049911272E+04 0.  0.
        1    1    3    3  502    0 -0.13061224206E+03  0.72855763066E+03  0.86356844257E+03  0.11373681172E+04  0.50400001928E-02 0.  1.
       -1    1    3    3    0  502  0.13061224206E+03 -0.72855763066E+03 -0.11725248494E+04  0.13866038733E+04  0.50400001928E-02 0. -1.
</event>
<event>
 5   0  0.1553604E-06  0.2501943E+04  0.7818609E-02  0.8402294E-01
       -1   -1    0    0    0  501  0.00000000000E+00  0.00000000000E+00  0.20399283797E+04  0.20399283797E+04  0.50400001928E-02 0.  1.
        1   -1    0    0  501    0  0.00000000000E+00  0.00000000000E+00 -0.76714934928E+03  0.76714934930E+03  0.50400001928E-02 0. -1.
    10030    2    1    2    0    0  0.00000000000E+00  0.00000000000E+00  0.12727790304E+04  0.28070777290E+04  0.25019430282E+04 0.  0.
        1    1    3    3  502    0  0.11035828174E+04  0.14932034812E+03 -0.29678370237E+01  0.11136428554E+04  0.50400001928E-02 0. -1.
       -1    1    3    3    0  502 -0.11035828174E+04 -0.14932034812E+03  0.12757468674E+04  0.16934348736E+04  0.50400001928E-02 0.  1.
</event>
<event>
 5   0  0.1541852E-06  0.2486692E+04  0.7818609E-02  0.8407742E-01
        1   -1    0    0  501    0  0.00000000000E+00  0.00000000000E+00  0.15742242695E+04  0.15742242695E+04  0.50400001928E-02 0. -1.
       -1   -1    0    0    0  501  0.00000000000E+00  0.00000000000E+00 -0.98201343366E+03  0.98201343368E+03  0.50400001928E-02 0.  1.
    10030    2    1    2    0    0  0.00000000000E+00  0.00000000000E+00  0.59221083579E+03  0.25562377031E+04  0.24866920841E+04 0.  0.
        5    1    3    3  502    0  0.51683957118E+03  0.93057120525E+03 -0.36435956152E+03  0.11251070573E+04  0.46999998093E+01 0.  1.
       -5    1    3    3    0  502 -0.51683957118E+03 -0.93057120525E+03  0.95657039731E+03  0.14311306458E+04  0.46999998093E+01 0. -1.
</event>
<event>
 5   0  0.3713394E-06  0.2499212E+04  0.7818609E-02  0.8403266E-01
        2   -1    0    0  501    0  0.00000000000E+00  0.00000000000E+00  0.23535672691E+04  0.23535672691E+04  0.25500000920E-02 0. -1.
       -2   -1    0    0    0  501  0.00000000000E+00  0.00000000000E+00 -0.66346737152E+03  0.66346737153E+03  0.25500000920E-02 0.  1.
    10030    2    1    2    0    0  0.00000000000E+00  0.00000000000E+00  0.16900998976E+04  0.30170346406E+04  0.24992119476E+04 0.  0.
        3    1    3    3  502    0 -0.69591314241E+01 -0.10590162668E+04  0.16457677062E+04  0.19570680202E+04  0.10100000352E+00 0. -1.
       -3    1    3    3    0  502  0.69591314241E+01  0.10590162668E+04  0.44332191358E+02  0.10599666204E+04  0.10100000352E+00 0.  1.
</event>
<event>
 5   0  0.1519145E-06  0.2496903E+04  0.7818609E-02  0.8404090E-01
        1   -1    0    0  501    0  0.00000000000E+00  0.00000000000E+00  0.13489274852E+04  0.13489274852E+04  0.50400001928E-02 0.  1.
       -1   -1    0    0    0  501  0.00000000000E+00  0.00000000000E+00 -0.11554598426E+04  0.11554598426E+04  0.50400001928E-02 0. -1.
    10030    2    1    2    0    0  0.00000000000E+00  0.00000000000E+00  0.19346764252E+03  0.25043873278E+04  0.24969033139E+04 0.  0.
        4    1    3    3  502    0  0.73103208736E+03  0.10063252450E+04 -0.10972938966E+02  0.12438731566E+04  0.12699999809E+01 0. -1.
       -4    1    3    3    0  502 -0.73103208736E+03 -0.10063252450E+04  0.20444058149E+03  0.12605141712E+04  0.12699999809E+01 0.  1.
</event>
<event>
 5   0  0.3924441E-06  0.2498549E+04  0.7818609E-02  0.8403503E-01
        2   -1    0    0  501    0  0.00000000000E+00  0.00000000000E+00  0.22506447013E+04  0.22506447013E+04  0.25500000920E-02 0.  1.
       -2   -1    0    0    0  501  0.00000000000E+00  0.00000000000E+00 -0.69343984225E+03  0.69343984225E+03  0.25500000920E-02 0. -1.
    10030    2    1    2    0    0  0.00000000000E+00  0.00000000000E+00  0.15572048591E+04  0.29440845436E+04  0.24985489442E+04 0.  0.
        2    1    3    3  502    0 -0.62300433962E+03 -0.10790796684E+04  0.88490842896E+03  0.15282703510E+04  0.25500000920E-02 0.  1.
       -2    1    3    3    0  502  0.62300433962E+03  0.10790796684E+04  0.67229643012E+03  0.14158141926E+04  0.25500000920E-02 0. -1.
</event>
<event>
 5   0  0.1519145E-06  0.2503467E+04  0.7818609E-02  0.8401751E-01
       -1   -1    0    0    0  501  0.00000000000E+00  0.00000000000E+00  0.13967101148E+04  0.13967101148E+04  0.50400001928E-02 0. -1.
        1   -1    0    0  501    0  0.00000000000E+00  0.00000000000E+00 -0.11218051995E+04  0.11218051995E+04  0.50400001928E-02 0.  1.
    10030    2    1    2    0    0  0.00000000000E+00  0.00000000000E+00  0.27490491526E+03  0.25185153143E+04  0.25034669313E+04 0.  0.
        4    1    3    3  502    0 -0.33796744947E+03 -0.66550232469E+03  0.11483407224E+04  0.13695997111E+04  0.12699999809E+01 0. -1.
       -4    1    3    3    0  502  0.33796744947E+03  0.66550232469E+03 -0.87343580716E+03  0.11489156032E+04  0.12699999809E+01 0.  1.
</event>
<event>
 5   0  0.1553604E-06  0.2500784E+04  0.7818609E-02  0.8402706E-01
       -1   -1    0    0    0  501  0.00000000000E+00  0.00000000000E+00  0.90913066972E+03  0.90913066973E+03  0.50400001928E-02 0. -1.
        1   -1    0    0  501    0  0.00000000000E+00  0.00000000000E+00 -0.17197523444E+04  0.17197523445E+04  0.50400001928E-02 0.  1.
    10030    2    1    2    0    0  0.00000000000E+00  0.00000000000E+00 -0.81062167473E+03  0.26288830142E+04  0.25007835578E+04 0.  0.
        1    1    3    3  502    0 -0.10732367508E+04  0.44414045388E+03  0.81420205102E+02  0.11643569538E+04  0.50400001928E-02 0. -1.
       -1    1    3    3    0  502  0.10732367508E+04 -0.44414045388E+03 -0.89204187983E+03  0.14645260604E+04  0.50400001928E-02 0.  1.
</event>
<event>
 5   0  0.3814260E-06  0.2504210E+04  0.7818609E-02  0.8401487E-01
        2   -1    0    0  501    0  0.00000000000E+00  0.00000000000E+00  0.17492745650E+04  0.17492745651E+04  0.25500000920E-02 0.  1.
       -2   -1    0    0    0  501  0.00000000000E+00  0.00000000000E+00 -0.89623859520E+03  0.89623859520E+03  0.25500000920E-02 0. -1.
    10030    2    1    2    0    0  0.00000000000E+00  0.00000000000E+00  0.85303596985E+03  0.26455131603E+04  0.25042103576E+04 0.  0.
        5    1    3    3  502    0 -0.76810841644E+03  0.98630866414E+03  0.50084391184E+03  0.13467227014E+04  0.46999998093E+01 0. -1.
       -5    1    3    3    0  502  0.76810841644E+03 -0.98630866414E+03  0.35219205800E+03  0.12987904589E+04  0.46999998093E+01 0.  1.
</event>
<event>
 5   0  0.1574896E-06  0.2500513E+04  0.7818609E-02  0.8402803E-01
        1   -1    0    0  501    0  0.00000000000E+00  0.00000000000E+00  0.18719997014E+04  0.18719997014E+04  0.50400001928E-02 0. -1.
       -1   -1    0    0    0  501  0.00000000000E+00  0.00000000000E+00 -0.83501158675E+03  0.83501158677E+03  0.50400001928E-02 0.  1.
    10030    2    1    2    0    0  0.00000000000E+00  0.00000000000E+00  0.10369881147E+04  0.27070112882E+04  0.25005131002E+04 0.  0.
        3    1    3    3  502    0 -0.23537457797E+00 -0.36680210660E+03  0.18124392732E+04  0.18491835955E+04  0.10100000352E+00 0. -1.
       -3    1    3    3    0  502  0.23537457797E+00  0.36680210660E+03 -0.77545115853E+03  0.85782769265E+03  0.10100000352E+00 0.  1.
</event>
<event>
 5   0  0.1541852E-06  0.2503009E+04  0.7818609E-02  0.8401914E-01
       -1   -1    0    0    0  501  0.00000000000E+00  0.00000000000E+00  0.14332465154E+04  0.14332465154E+04  0.50400001928E-02 0. -1.
        1   -1    0    0  501    0  0.00000000000E+00  0.00000000000E+00 -0.10928081850E+04  0.10928081850E+04  0.50400001928E-02 0.  1.
    10030    2    1    2    0    0  0.00000000000E+00  0.00000000000E+00  0.34043833047E+03  0.25260547004E+04  0.25030090077E+04 0.  0.
        5    1    3    3  502    0 -0.55340727752E+02 -0.75472995375E+03  0.11761722410E+04  0.13986004182E+04  0.46999998093E+01 0. -1.
       -5    1    3    3    0  502  0.55340727752E+02  0.75472995375E+03 -0.83573391056E+03  0.11274542822E+04  0.46999998093E+01 0.  1.
</event>
<event>
 5   0  0.3924441E-06  0.2491491E+04  0.7818609E-02  0.8406023E-01
       -2   -1    0    0    0  501  0.00000000000E+00  0.00000000000E+00  0.10173803325E+04  0.10173803325E+04  0.25500000920E-02 0.  1.
        2   -1    0    0  501    0  0.00000000000E+00  0.00000000000E+00 -0.15253701945E+04  0.15253701945E+04  0.25500000920E-02 0. -1.
    10030    2    1    2    0    0  0.00000000000E+00  0.00000000000E+00 -0.50798986201E+03  0.25427505270E+04  0.24914908273E+04 0.  0.
        2    1    3    3  502    0  0.61902319292E+03  0.56693088348E+03 -0.11934116171E+04  0.14590516194E+04  0.25500000920E-02 0. -1.
       -2    1    3    3    0  502 -0.61902319292E+03 -0.56693088348E+03  0.68542175514E+03  0.10836989077E+04  0.25500000920E-02 0.  1.
</event>
<event>
 5   0  0.3971759E-06  0.2481943E+04  0.7818609E-02  0.8409447E-01
        2   -1    0    0  501    0  0.00000000000E+00  0.00000000000E+00  0.15504866145E+04  0.15504866145E+04  0.25500000920E-02 0. -1.
       -2   -1    0    0    0  501  0.00000000000E+00  0.00000000000E+00 -0.99324325339E+03  0.99324325340E+03  0.25500000920E-02 0.  1.
    10030    2    1    2    0    0  0.00000000000E+00  0.00000000000E+00  0.55724336113E+03  0.25437298679E+04  0.24819430850E+04 0.  0.
        4    1    3    3  502    0  0.61654403418E+03  0.11011760531E+03  0.13766259233E+04  0.15123997417E+04  0.12699999809E+01 0. -1.
       -4    1    3    3    0  502 -0.61654403418E+03 -0.11011760531E+03 -0.81938256220E+03  0.10313301262E+04  0.12699999809E+01 0.  1.
</event>
<event>
 5   0  0.1574896E-06  0.2500598E+04  0.7818609E-02  0.8402773E-01
        1   -1    0    0  501    0  0.00000000000E+00  0.00000000000E+00  0.20017424478E+04  0.20017424478E+04  0.50400001928E-02 0. -1.
       -1   -1    0    0    0  501  0.00000000000E+00  0.00000000000E+00 -0.78094336180E+03  0.78094336181E+03  0.50400001928E-02 0.  1.
    10030    2    1    2    0    0  0.00000000000E+00  0.00000000000E+00  0.12207990860E+04  0.27826858096E+04  0.25005979098E+04 0.  0.
        3    1    3    3  502    0 -0.47731459161E+03 -0.10805427468E+04  0.15449353551E+03  0.11913312343E+04  0.10100000352E+00 0.  1.
       -3    1    3    3    0  502  0.47731459161E+03  0.10805427468E+04  0.10663055505E+04  0.15913545753E+04  0.10100000352E+00 0. -1.
</event>
<event>
 5   0  0.3924441E-06  0.2500370E+04  0.7818609E-02  0.8402854E-01
        2   -1    0    0  501    0  0.00000000000E+00  0.00000000000E+00  0.20666904896E+04  0.20666904896E+04  0.25500000920E-02 0.  1.
       -2   -1    0    0    0  501  0.00000000000E+00  0.00000000000E+00 -0.75626349784E+03  0.75626349785E+03  0.25500000920E-02 0. -1.
    10030    2    1    2    0    0  0.00000000000E+00  0.00000000000E+00  0.13104269918E+04  0.28229539875E+04  0.25003700355E+04 0.  0.
        2    1    3    3  502    0  0.72037467296E+03  0.76549195475E+03  0.14193194362E+04  0.17661781519E+04  0.25500000920E-02 0.  1.
       -2    1    3    3    0  502 -0.72037467296E+03 -0.76549195475E+03 -0.10889244441E+03  0.10567758356E+04  0.25500000920E-02 0. -1.
</event>
<event>
 5   0  0.3971759E-06  0.2495661E+04  0.7818609E-02  0.8404533E-01
       -2   -1    0    0    0  501  0.00000000000E+00  0.00000000000E+00  0.77558331077E+03  0.77558331077E+03  0.25500000920E-02 0.  1.
        2   -1    0    0  501    0  0.00000000000E+00  0.00000000000E+00 -0.20076257367E+04  0.20076257367E+04  0.25500000920E-02 0. -1.
    10030    2    1    2    0    0  0.00000000000E+00  0.00000000000E+00 -0.12320424260E+04  0.27832090475E+04  0.24956610472E+04 0.  0.
        4    1    3    3  502    0  0.12451963563E+04  0.74935668299E+01 -0.52604518391E+03  0.13517748583E+04  0.12699999809E+01 0.  1.
       -4    1    3    3    0  502 -0.12451963563E+04 -0.74935668299E+01 -0.70599724204E+03  0.14314341892E+04  0.12699999809E+01 0. -1.
</event>
<event>
 5   0  0.3713394E-06  0.2504551E+04  0.7818609E-02  0.8401366E-01
       -2   -1    0    0    0  501  0.00000000000E+00  0.00000000000E+00  0.16441821347E+04  0.16441821347E+04  0.25500000920E-02 0.  1.
        2   -1    0    0  501    0  0.00000000000E+00  0.00000000000E+00 -0.95378324826E+03  0.95378324826E+03  0.25500000920E-02 0. -1.
    10030    2    1    2    0    0  0.00000000000E+00  0.00000000000E+00  0.69039888646E+03  0.25979653830E+04  0.25045505602E+04 0.  0.
        3    1    3    3  502    0 -0.55335021031E+03  0.63512955024E+03  0.13063708916E+04  0.15544101510E+04  0.10100000352E+00 0.  1.
       -3    1    3    3    0  502  0.55335021031E+03 -0.63512955024E+03 -0.61597200517E+03  0.10435552320E+04  0.10100000352E+00 0. -1.
</event>
<event>
 5   0  0.1541852E-06  0.2503733E+04  0.7818609E-02  0.8401657E-01
        1   -1    0    0  501    0  0.00000000000E+00  0.00000000000E+00  0.10685023143E+04  0.10685023143E+04  0.50400001928E-02 0.  1.
       -1   -1    0    0    0  501  0.00000000000E+00  0.00000000000E+00 -0.14666974987E+04  0.14666974987E+04  0.50400001928E-02 0. -1.
    10030    2    1    2    0    0  0.00000000000E+00  0.00000000000E+00 -0.39819518441E+03  0.25351998130E+04  0.25037329504E+04 0.  0.
        5    1    3    3  502    0 -0.16506471631E+02  0.11735170645E+04  0.24196011678E+03  0.11983244771E+04  0.46999998093E+01 0.  1.
       -5    1    3    3    0  502  0.16506471631E+02 -0.11735170645E+04 -0.64015530119E+03  0.13368753360E+04  0.46999998093E+01 0. -1.
</event>
<event>
 5   0  0.3924441E-06  0.2495428E+04  0.7818609E-02  0.8404616E-01
       -2   -1    0    0    0  501  0.00000000000E+00  0.00000000000E+00  0.51301475819E+03  0.51301475819E+03  0.25500000920E-02 0. -1.
        2   -1    0    0  501    0  0.00000000000E+00  0.00000000000E+00 -0.30345912536E+04  0.30345912536E+04  0.25500000920E-02 0.  1.
    10030    2    1    2    0    0  0.00000000000E+00  0.00000000000E+00 -0.25215764954E+04  0.35476060118E+04  0.24954278977E+04 0.  0.
        2    1    3    3  502    0 -0.25153511811E+03 -0.61810479506E+03 -0.27595706085E+04  0.28391113744E+04  0.25500000920E-02 0.  1.
       -2    1    3    3    0  502  0.25153511811E+03  0.61810479506E+03  0.23799411305E+03  0.70849463736E+03  0.25500000920E-02 0. -1.
</event>
<event>
 5   0  0.1287375E-06  0.2504113E+04  0.7818609E-02  0.8401522E-01
       -3   -1    0    0    0  501  0.00000000000E+00  0.00000000000E+00  0.14471454075E+04  0.14471454110E+04  0.10100000352E+00 0. -1.
        3   -1    0    0  501    0  0.00000000000E+00  0.00000000000E+00 -0.10832678076E+04  0.10832678123E+04  0.10100000352E+00 0.  1.
    10030    2    1    2    0    0  0.00000000000E+00  0.00000000000E+00  0.36387759984E+03  0.25304132233E+04  0.25041134505E+04 0.  0.
        4    1    3    3  502    0 -0.10206309964E+04  0.62886547839E+03  0.54695972255E+03  0.13176972231E+04  0.12699999809E+01 0.  1.
       -4    1    3    3    0  502  0.10206309964E+04 -0.62886547839E+03 -0.18308212272E+03  0.12127160003E+04  0.12699999809E+01 0. -1.
</event>
<event>
 5   0  0.1519145E-06  0.2499276E+04  0.7818609E-02  0.8403244E-01
        1   -1    0    0  501    0  0.00000000000E+00  0.00000000000E+00  0.13384372497E+04  0.13384372497E+04  0.50400001928E-02 0.  1.
       -1   -1    0    0    0  501  0.00000000000E+00  0.00000000000E+00 -0.11667297199E+04  0.11667297199E+04  0.50400001928E-02 0. -1.
    10030    2    1    2    0    0  0.00000000000E+00  0.00000000000E+00  0.17170752980E+03  0.25051669696E+04  0.24992755089E+04 0.  0.
        4    1    3    3  502    0  0.21648021099E+03 -0.85600447328E+03 -0.80053024209E+03  0.11918295270E+04  0.12699999809E+01 0. -1.
       -4    1    3    3    0  502 -0.21648021099E+03  0.85600447328E+03  0.97223777189E+03  0.13133374426E+04  0.12699999809E+01 0.  1.
</event>
<event>
 5   0  0.3924441E-06  0.2501881E+04  0.7818609E-02  0.8402316E-01
       -2   -1    0    0    0  501  0.00000000000E+00  0.00000000000E+00  0.10017426593E+04  0.10017426593E+04  0.25500000920E-02 0. -1.
        2   -1    0    0  501    0  0.00000000000E+00  0.00000000000E+00 -0.15621302083E+04  0.15621302083E+04  0.25500000920E-02 0.  1.
    10030    2    1    2    0    0  0.00000000000E+00  0.00000000000E+00 -0.56038754903E+03  0.25638728676E+04  0.25018812674E+04 0.  0.
        2    1    3    3  502    0  0.71513057352E+03 -0.98658713710E+03 -0.57020151602E+03  0.13453236358E+04  0.25500000920E-02 0. -1.
       -2    1    3    3    0  502 -0.71513057352E+03  0.98658713710E+03  0.98139669888E+01  0.12185492318E+04  0.25500000920E-02 0.  1.
</event>
<event>
 5   0  0.1541852E-06  0.2500955E+04  0.7818609E-02  0.8402645E-01
       -1   -1    0    0    0  501  0.00000000000E+00  0.00000000000E+00  0.20261693977E+04  0.20261693977E+04  0.50400001928E-02 0.  1.
        1   -1    0    0  501    0  0.00000000000E+00  0.00000000000E+00 -0.77174892703E+03  0.77174892705E+03  0.50400001928E-02 0. -1.
    10030    2    1    2    0    0  0.00000000000E+00  0.00000000000E+00  0.12544204706E+04  0.27979183247E+04  0.25009550645E+04 0.  0.
        5    1    3    3  502    0  0.64927388052E+03 -0.55577058156E+03 -0.39399434646E+03  0.94111165453E+03  0.46999998093E+01 0. -1.
       -5    1    3    3    0  502 -0.64927388052E+03  0.55577058156E+03  0.16484148171E+04  0.18568066702E+04  0.46999998093E+01 0.  1.
</event>
<event>
 5   0  0.1541852E-06  0.2507346E+04  0.7818609E-02  0.8400373E-01
       -1   -1    0    0    0  501  0.00000000000E+00  0.00000000000E+00  0.96833697122E+03  0.96833697123E+03  0.50400001928E-02 0. -1.
        1   -1    0    0  501    0  0.00000000000E+00  0.00000000000E+00 -0.16230875770E+04  0.16230875770E+04  0.50400001928E-02 0.  1.
    10030    2    1    2    0    0  0.00000000000E+00  0.00000000000E+00 -0.65475060574E+03  0.25914245482E+04  0.25073457746E+04 0.  0.
        5    1    3    3  502    0  0.16053740087E+03 -0.68168992634E+03 -0.14020509286E+04  0.15672403483E+04  0.46999998093E+01 0.  1.
       -5    1    3    3    0  502 -0.16053740087E+03  0.68168992634E+03  0.74730032291E+03  0.10241841999E+04  0.46999998093E+01 0. -1.
</event>
<event>
 5   0  0.1574896E-06  0.2503005E+04  0.7818609E-02  0.8401916E-01
       -1   -1    0    0    0  501  0.00000000000E+00  0.00000000000E+00  0.11291517002E+04  0.11291517002E+04  0.50400001928E-02 0. -1.
        1   -1    0    0  501    0  0.00000000000E+00  0.00000000000E+00 -0.13871109865E+04  0.13871109865E+04  0.50400001928E-02 0.  1.
    10030    2    1    2    0    0  0.00000000000E+00  0.00000000000E+00 -0.25795928633E+03  0.25162626867E+04  0.25030051768E+04 0.  0.
        3    1    3    3  502    0 -0.37083613178E+03 -0.11572211543E+02  0.10725939304E+04  0.11349498237E+04  0.10100000352E+00 0. -1.
       -3    1    3    3    0  502  0.37083613178E+03  0.11572211543E+02 -0.13305532167E+04  0.13813128630E+04  0.10100000352E+00 0.  1.
</event>
<event>
 5   0  0.1501747E-06  0.2499935E+04  0.7818609E-02  0.8403009E-01
       -1   -1    0    0    0  501  0.00000000000E+00  0.00000000000E+00  0.16949647062E+04  0.16949647062E+04  0.50400001928E-02 0. -1.
        1   -1    0    0  501    0  0.00000000000E+00  0.00000000000E+00 -0.92180023705E+03  0.92180023706E+03  0.50400001928E-02 0.  1.
    10030    2    1    2    0    0  0.00000000000E+00  0.00000000000E+00  0.77316446920E+03  0.26167649433E+04  0.24999350936E+04 0.  0.
        2    1    3    3  502    0 -0.11341838290E+03 -0.56468196491E+03  0.15477907523E+04  0.16514798406E+04  0.25500000920E-02 0. -1.
       -2    1    3    3    0  502  0.11341838290E+03  0.56468196491E+03 -0.77462628308E+03  0.96528510271E+03  0.25500000920E-02 0.  1.
</event>
<event>
 5   0  0.3814260E-06  0.2490202E+04  0.7818609E-02  0.8406485E-01
        2   -1    0    0  501    0  0.00000000000E+00  0.00000000000E+00  0.25897193331E+04  0.25897193331E+04  0.25500000920E-02 0. -1.
       -2   -1    0    0    0  501  0.00000000000E+00  0.00000000000E+00 -0.59862705751E+03  0.59862705752E+03  0.25500000920E-02 0.  1.
    10030    2    1    2    0    0  0.00000000000E+00  0.00000000000E+00  0.19910922756E+04  0.31883463906E+04  0.24902016498E+04 0.  0.
        5    1    3    3  502    0  0.36166945317E+03 -0.45581232244E+03  0.24049184113E+04  0.24743128989E+04  0.46999998093E+01 0. -1.
       -5    1    3    3    0  502 -0.36166945317E+03  0.45581232244E+03 -0.41382613574E+03  0.71403349169E+03  0.46999998093E+01 0.  1.
</event>
<event>
 5   0  0.1519145E-06  0.2502212E+04  0.7818609E-02  0.8402198E-01
        1   -1    0    0  501    0  0.00000000000E+00  0.00000000000E+00  0.12447799685E+04  0.12447799685E+04  0.50400001928E-02 0. -1.
       -1   -1    0    0    0  501  0.00000000000E+00  0.00000000000E+00 -0.12574638846E+04  0.12574638846E+04  0.50400001928E-02 0.  1.
    10030    2    1    2    0    0  0.00000000000E+00  0.00000000000E+00 -0.12683916049E+02  0.25022438531E+04  0.25022117054E+04 0.  0.
        4    1    3    3  502    0  0.39621190496E+03 -0.58753612546E+03  0.10247298077E+04  0.12458954065E+04  0.12699999809E+01 0. -1.
       -4    1    3    3    0  502 -0.39621190496E+03  0.58753612546E+03 -0.10374137237E+04  0.12563484466E+04  0.12699999809E+01 0.  1.
</event>
<event>
 5   0  0.1541852E-06  0.2491963E+04  0.7818609E-02  0.8405854E-01
       -1   -1    0    0    0  501  0.00000000000E+00  0.00000000000E+00  0.11237579855E+04  0.11237579855E+04  0.50400001928E-02 0.  1.
        1   -1    0    0  501    0  0.00000000000E+00  0.00000000000E+00 -0.13814989283E+04  0.13814989283E+04  0.50400001928E-02 0. -1.
    10030    2    1    2    0    0  0.00000000000E+00  0.00000000000E+00 -0.25774094272E+03  0.25052569138E+04  0.24919634449E+04 0.  0.
        5    1    3    3  502    0 -0.30560764754E+03 -0.29876599580E+03 -0.13054947062E+04  0.13736796105E+04  0.46999998093E+01 0. -1.
       -5    1    3    3    0  502  0.30560764754E+03  0.29876599580E+03  0.10477537635E+04  0.11315773033E+04  0.46999998093E+01 0.  1.
</event>
<event>
 5   0  0.3924441E-06  0.2501054E+04  0.7818609E-02  0.8402610E-01
       -2   -1    0    0    0  501  0.00000000000E+00  0.00000000000E+00  0.72999932924E+03  0.72999932925E+03  0.25500000920E-02 0. -1.
        2   -1    0    0  501    0  0.00000000000E+00  0.00000000000E+00 -0.21422179938E+04  0.21422179938E+04  0.25500000920E-02 0.  1.
    10030    2    1    2    0    0  0.00000000000E+00  0.00000000000E+00 -0.14122186646E+04  0.28722173231E+04  0.25010539367E+04 0.  0.
        2    1    3    3  502    0 -0.39880326455E+02 -0.12489248333E+04 -0.76253342309E+03  0.14638513931E+04  0.25500000920E-02 0.  1.
       -2    1    3    3    0  502  0.39880326455E+02  0.12489248333E+04 -0.64968524152E+03  0.14083659300E+04  0.25500000920E-02 0. -1.
</event>
<event>
 5   0  0.1501747E-06  0.2496170E+04  0.7818609E-02  0.8404351E-01
       -1   -1    0    0    0  501  0.00000000000E+00  0.00000000000E+00  0.72230857905E+03  0.72230857907E+03  0.50400001928E-02 0. -1.
        1   -1    0    0  501    0  0.00000000000E+00  0.00000000000E+00 -0.21565795157E+04  0.21565795157E+04  0.50400001928E-02 0.  1.
    10030    2    1    2    0    0  0.00000000000E+00  0.00000000000E+00 -0.14342709366E+04  0.28788880947E+04  0.24961697743E+04 0.  0.
        2    1    3    3  502    0  0.31357849765E+03  0.11923515579E+04 -0.49325374650E+03  0.13279054824E+04  0.25500000920E-02 0. -1.
       -2    1    3    3    0  502 -0.31357849765E+03 -0.11923515579E+04 -0.94101719010E+03  0.15509826123E+04  0.25500000920E-02 0.  1.
</event>
<event>
 5   0  0.3814260E-06  0.2500132E+04  0.7818609E-02  0.8402939E-01
        2   -1    0    0  501    0  0.00000000000E+00  0.00000000000E+00  0.11580935169E+04  0.11580935169E+04  0.25500000920E-02 0. -1.
       -2   -1    0    0    0  501  0.00000000000E+00  0.00000000000E+00 -0.13493425483E+04  0.13493425483E+04  0.25500000920E-02 0.  1.
    10030    2    1    2    0    0  0.00000000000E+00  0.00000000000E+00 -0.19124903139E+03  0.25074360651E+04  0.25001318823E+04 0.  0.
        5    1    3    3  502    0  0.26784238738E+03  0.12204883436E+04 -0.59305102168E+02  0.12509478512E+04  0.46999998093E+01 0. -1.
       -5    1    3    3    0  502 -0.26784238738E+03 -0.12204883436E+04 -0.13194392922E+03  0.12564882139E+04  0.46999998093E+01 0.  1.
</event>
<event>
 5   0  0.1553604E-06  0.2500885E+04  0.7818609E-02  0.8402670E-01
       -1   -1    0    0    0  501  0.00000000000E+00  0.00000000000E+00  0.11667886686E+04  0.11667886686E+04  0.50400001928E-02 0. -1.
        1   -1    0    0  501    0  0.00000000000E+00  0.00000000000E+00 -0.13400940786E+04  0.13400940786E+04  0.50400001928E-02 0.  1.
    10030    2    1    2    0    0  0.00000000000E+00  0.00000000000E+00 -0.17330540996E+03  0.25068827472E+04  0.25008851119E+04 0.  0.
        1    1    3    3  502    0 -0.83991108442E+03 -0.57507137186E+03  0.64134576200E+03  0.12031135021E+04  0.50400001928E-02 0. -1.
       -1    1    3    3    0  502  0.83991108442E+03  0.57507137186E+03 -0.81465117196E+03  0.13037692451E+04  0.50400001928E-02 0.  1.
</event>
<event>
 5   0  0.3713394E-06  0.2480369E+04  0.7818609E-02  0.8410013E-01
        2   -1    0    0  501    0  0.00000000000E+00  0.00000000000E+00  0.10923940696E+04  0.10923940696E+04  0.25500000920E-02 0.  1.
       -2   -1    0    0    0  501  0.00000000000E+00  0.00000000000E+00 -0.14079696089E+04  0.14079696089E+04  0.25500000920E-02 0. -1.
    10030    2    1    2    0    0  0.00000000000E+00  0.00000000000E+00 -0.31557553935E+03  0.25003636785E+04  0.24803690459E+04 0.  0.
        3    1    3    3  502    0 -0.57844256323E+03  0.32944238941E+03 -0.12126116851E+04  0.13833131229E+04  0.10100000352E+00 0. -1.
       -3    1    3    3    0  502  0.57844256323E+03 -0.32944238941E+03  0.89703614574E+03  0.11170505556E+04  0.10100000352E+00 0.  1.
</event>
<event>
 5   0  0.3814260E-06  0.2507046E+04  0.7818609E-02  0.8400480E-01
       -2   -1    0    0    0  501  0.00000000000E+00  0.00000000000E+00  0.21439070056E+04  0.21439070056E+04  0.25500000920E-02 0. -1.
        2   -1    0    0  501    0  0.00000000000E+00  0.00000000000E+00 -0.73292332520E+03  0.73292332520E+03  0.25500000920E-02 0.  1.
    10030    2    1    2    0    0  0.00000000000E+00  0.00000000000E+00  0.14109836804E+04  0.28768303308E+04  0.25070456330E+04 0.  0.
        5    1    3    3  502    0  0.44503161219E+03 -0.23432414679E+03 -0.61205218177E+03  0.79220635243E+03  0.46999998093E+01 0.  1.
       -5    1    3    3    0  502 -0.44503161219E+03  0.23432414679E+03  0.20230358621E+04  0.20846239783E+04  0.46999998093E+01 0. -1.
</event>
<event>
 5   0  0.1553604E-06  0.2499855E+04  0.7818609E-02  0.8403037E-01
       -1   -1    0    0    0  501  0.00000000000E+00  0.00000000000E+00  0.92888719312E+03  0.92888719314E+03  0.50400001928E-02 0. -1.
        1   -1    0    0  501    0  0.00000000000E+00  0.00000000000E+00 -0.16819257601E+04  0.16819257601E+04  0.50400001928E-02 0.  1.
    10030    2    1    2    0    0  0.00000000000E+00  0.00000000000E+00 -0.75303856696E+03  0.26108129532E+04  0.24998554345E+04 0.  0.
        1    1    3    3  502    0  0.11657404391E+04 -0.29439546558E+03 -0.19742990550E+02  0.12025012463E+04  0.50400001928E-02 0.  1.
       -1    1    3    3    0  502 -0.11657404391E+04  0.29439546558E+03 -0.73329557641E+03  0.14083117070E+04  0.50400001928E-02 0. -1.
</event>
<event>
 5   0  0.3924441E-06  0.2500946E+04  0.7818609E-02  0.8402648E-01
       -2   -1    0    0    0  501  0.00000000000E+00  0.00000000000E+00  0.55398721777E+03  0.55398721778E+03  0.25500000920E-02 0. -1.
        2   -1    0    0  501    0  0.00000000000E+00  0.00000000000E+00 -0.28225982228E+04  0.28225982228E+04  0.25500000920E-02 0.  1.
    10030    2    1    2    0    0  0.00000000000E+00  0.00000000000E+00 -0.22686110050E+04  0.33765854405E+04  0.25009464899E+04 0.  0.
        2    1    3    3  502    0 -0.81551751183E+03  0.68367964832E+03 -0.20208714357E+04  0.22839457159E+04  0.25500000920E-02 0.  1.
       -2    1    3    3    0  502  0.81551751183E+03 -0.68367964832E+03 -0.24773956930E+03  0.10926397246E+04  0.25500000920E-02 0. -1.
</event>
<event>
 5   0  0.3814260E-06  0.2521958E+04  0.7818609E-02  0.8395204E-01
        2   -1    0    0  501    0  0.00000000000E+00  0.00000000000E+00  0.17486104858E+04  0.17486104858E+04  0.25500000920E-02 0.  1.
       -2   -1    0    0    0  501  0.00000000000E+00  0.00000000000E+00 -0.90933250273E+03  0.90933250273E+03  0.25500000920E-02 0. -1.
    10030    2    1    2    0    0  0.00000000000E+00  0.00000000000E+00  0.83927798308E+03  0.26579429885E+04  0.25219582466E+04 0.  0.
        5    1    3    3  502    0 -0.10881716333E+04 -0.45983441331E+03  0.88441792475E+03  0.14757311228E+04  0.46999998093E+01 0.  1.
       -5    1    3    3    0  502  0.10881716333E+04  0.45983441331E+03 -0.45139941674E+02  0.11822118657E+04  0.46999998093E+01 0. -1.
</event>
<event>
 5   0  0.1501747E-06  0.2504284E+04  0.7818609E-02  0.8401461E-01
        1   -1    0    0  501    0  0.00000000000E+00  0.00000000000E+00  0.16489211108E+04  0.16489211108E+04  0.50400001928E-02 0.  1.
       -1   -1    0    0    0  501  0.00000000000E+00  0.00000000000E+00 -0.95083967192E+03  0.95083967193E+03  0.50400001928E-02 0. -1.
    10030    2    1    2    0    0  0.00000000000E+00  0.00000000000E+00  0.69808143884E+03  0.25997607827E+04  0.25042840158E+04 0.  0.
        2    1    3    3  502    0  0.11723607312E+04  0.79962921661E+02 -0.99924027746E+02  0.11793254700E+04  0.25500000920E-02 0.  1.
       -2    1    3    3    0  502 -0.11723607312E+04 -0.79962921661E+02  0.79800546658E+03  0.14204353127E+04  0.25500000920E-02 0. -1.
</event>
<event>
 5   0  0.3814260E-06  0.2502494E+04  0.7818609E-02  0.8402098E-01
       -2   -1    0    0    0  501  0.00000000000E+00  0.00000000000E+00  0.12457290521E+04  0.12457290521E+04  0.25500000920E-02 0.  1.
        2   -1    0    0  501    0  0.00000000000E+00  0.00000000000E+00 -0.12567894326E+04  0.12567894326E+04  0.25500000920E-02 0. -1.
    10030    2    1    2    0    0  0.00000000000E+00  0.00000000000E+00 -0.11060380556E+02  0.25025184847E+04  0.25024940428E+04 0.  0.
        5    1    3    3  502    0  0.92551541455E+03  0.56002020514E+03 -0.63434123466E+03  0.12540383984E+04  0.46999998093E+01 0. -1.
       -5    1    3    3    0  502 -0.92551541455E+03 -0.56002020514E+03  0.62328085411E+03  0.12484800863E+04  0.46999998093E+01 0.  1.
</event>
<event>
 5   0  0.1519145E-06  0.2504409E+04  0.7818609E-02  0.8401417E-01
       -1   -1    0    0    0  501  0.00000000000E+00  0.00000000000E+00  0.87761083352E+03  0.87761083354E+03  0.50400001928E-02 0. -1.
        1   -1    0    0  501    0  0.00000000000E+00  0.00000000000E+00 -0.17866866294E+04  0.17866866295E+04  0.50400001928E-02 0.  1.
    10030    2    1    2    0    0  0.00000000000E+00  0.00000000000E+00 -0.90907579592E+03  0.26642974630E+04  0.25044085467E+04 0.  0.
        4    1    3    3  502    0  0.12943234320E+03  0.89318782041E+03  0.46891011670E+03  0.10170622028E+04  0.12699999809E+01 0. -1.
       -4    1    3    3    0  502 -0.12943234320E+03 -0.89318782041E+03 -0.13779859126E+04  0.16472352602E+04  0.12699999809E+01 0.  1.
</event>
<event>
 5   0  0.1541852E-06  0.2500742E+04  0.7818609E-02  0.8402721E-01
       -1   -1    0    0    0  501  0.00000000000E+00  0.00000000000E+00  0.17510521520E+04  0.17510521520E+04  0.50400001928E-02 0. -1.
        1   -1    0    0  501    0  0.00000000000E+00  0.00000000000E+00 -0.89285041525E+03  0.89285041527E+03  0.50400001928E-02 0.  1.
    10030    2    1    2    0    0  0.00000000000E+00  0.00000000000E+00  0.85820173676E+03  0.26439025673E+04  0.25007420027E+04 0.  0.
        5    1    3    3  502    0  0.11286286270E+04 -0.19086344884E+03 -0.10286799110E+03  0.11492760101E+04  0.46999998093E+01 0.  1.
       -5    1    3    3    0  502 -0.11286286270E+04  0.19086344884E+03  0.96106972786E+03  0.14946265572E+04  0.46999998093E+01 0. -1.
</event>
<event>
 5   0  0.1541852E-06  0.2505840E+04  0.7818609E-02  0.8400908E-01
        1   -1    0    0  501    0  0.00000000000E+00  0.00000000000E+00  0.91978581981E+03  0.91978581982E+03  0.50400001928E-02 0. -1.
       -1   -1    0    0    0  501  0.00000000000E+00  0.00000000000E+00 -0.17067103625E+04  0.17067103625E+04  0.50400001928E-02 0.  1.
    10030    2    1    2    0    0  0.00000000000E+00  0.00000000000E+00 -0.78692454268E+03  0.26264961823E+04  0.25058395719E+04 0.  0.
        5    1    3    3  502    0  0.26068382594E+03  0.71671847581E+02  0.88883840925E+03  0.92905797375E+03  0.46999998093E+01 0. -1.
       -5    1    3    3    0  502 -0.26068382594E+03 -0.71671847581E+02 -0.16757629519E+04  0.16974382086E+04  0.46999998093E+01 0.  1.
</event>
<event>
 5   0  0.1287375E-06  0.2500340E+04  0.7818609E-02  0.8402864E-01
       -3   -1    0    0    0  501  0.00000000000E+00  0.00000000000E+00  0.18423511958E+04  0.18423511986E+04  0.10100000352E+00 0.  1.
        3   -1    0    0  501    0  0.00000000000E+00  0.00000000000E+00 -0.84833179475E+03  0.84833180076E+03  0.10100000352E+00 0. -1.
    10030    2    1    2    0    0  0.00000000000E+00  0.00000000000E+00  0.99401940105E+03  0.26906829993E+04  0.25003400635E+04 0.  0.
        1    1    3    3  502    0 -0.57447003648E+03  0.34826996709E+02  0.16913147954E+04  0.17865537998E+04  0.50400001928E-02 0.  1.
       -1    1    3    3    0  502  0.57447003648E+03 -0.34826996709E+02 -0.69729539431E+03  0.90412919954E+03  0.50400001928E-02 0. -1.
</event>
<event>
 5   0  0.3713394E-06  0.2496405E+04  0.7818609E-02  0.8404267E-01
       -2   -1    0    0    0  501  0.00000000000E+00  0.00000000000E+00  0.12943294104E+04  0.12943294104E+04  0.25500000920E-02 0. -1.
        2   -1    0    0  501    0  0.00000000000E+00  0.00000000000E+00 -0.12037193624E+04  0.12037193624E+04  0.25500000920E-02 0.  1.
    10030    2    1    2    0    0  0.00000000000E+00  0.00000000000E+00  0.90610047952E+02  0.24980487728E+04  0.24964049132E+04 0.  0.
        3    1    3    3  502    0 -0.11092401997E+04  0.22763395134E+03 -0.48018678431E+03  0.12299635744E+04  0.10100000352E+00 0.  1.
       -3    1    3    3    0  502  0.11092401997E+04 -0.22763395134E+03  0.57079683226E+03  0.12680851984E+04  0.10100000352E+00 0. -1.
</event>
<event>
 5   0  0.1541852E-06  0.2500103E+04  0.7818609E-02  0.8402949E-01
        1   -1    0    0  501    0  0.00000000000E+00  0.00000000000E+00  0.15576607386E+04  0.15576607386E+04  0.50400001928E-02 0. -1.
       -1   -1    0    0    0  501  0.00000000000E+00  0.00000000000E+00 -0.10031891141E+04  0.10031891141E+04  0.50400001928E-02 0.  1.
    10030    2    1    2    0    0  0.00000000000E+00  0.00000000000E+00  0.55447162445E+03  0.25608498527E+04  0.25001026350E+04 0.  0.
        5    1    3    3  502    0  0.10040519225E+04 -0.34661014702E+03 -0.39782805913E+03  0.11342610421E+04  0.46999998093E+01 0.  1.
       -5    1    3    3    0  502 -0.10040519225E+04  0.34661014702E+03  0.95229968358E+03  0.14265888106E+04  0.46999998093E+01 0. -1.
</event>
<event>
 5   0  0.1541852E-06  0.2500236E+04  0.7818609E-02  0.8402901E-01
       -1   -1    0    0    0  501  0.00000000000E+00  0.00000000000E+00  0.14407912564E+04  0.14407912564E+04  0.50400001928E-02 0. -1.
        1   -1    0    0  501    0  0.00000000000E+00  0.00000000000E+00 -0.10846786348E+04  0.10846786348E+04  0.50400001928E-02 0.  1.
    10030    2    1    2    0    0  0.00000000000E+00  0.00000000000E+00  0.35611262160E+03  0.25254698913E+04  0.25002363833E+04 0.  0.
        5    1    3    3  502    0  0.40295334959E+03 -0.10123129072E+04  0.79712398313E+03  0.13500287251E+04  0.46999998093E+01 0. -1.
       -5    1    3    3    0  502 -0.40295334959E+03  0.10123129072E+04 -0.44101136154E+03  0.11754411662E+04  0.46999998093E+01 0.  1.
</event>
<event>
 5   0  0.3713394E-06  0.2501524E+04  0.7818609E-02  0.8402443E-01
       -2   -1    0    0    0  501  0.00000000000E+00  0.00000000000E+00  0.11689633772E+04  0.11689633772E+04  0.25500000920E-02 0.  1.
        2   -1    0    0  501    0  0.00000000000E+00  0.00000000000E+00 -0.13382848403E+04  0.13382848404E+04  0.25500000920E-02 0. -1.
    10030    2    1    2    0    0  0.00000000000E+00  0.00000000000E+00 -0.16932146319E+03  0.25072482175E+04  0.25015243086E+04 0.  0.
        3    1    3    3  502    0 -0.62653404358E+03 -0.95968925028E+03 -0.58666363374E+03  0.12875257645E+04  0.10100000352E+00 0. -1.
       -3    1    3    3    0  502  0.62653404358E+03  0.95968925028E+03  0.41734217055E+03  0.12197224530E+04  0.10100000352E+00 0.  1.
</event>
<event>
 5   0  0.3808293E-06  0.2449010E+04  0.7818609E-02  0.8421379E-01
       -2   -1    0    0    0  501  0.00000000000E+00  0.00000000000E+00  0.12344101824E+04  0.12344101824E+04  0.25500000920E-02 0.  1.
        2   -1    0    0  501    0  0.00000000000E+00  0.00000000000E+00 -0.12146794929E+04  0.12146794929E+04  0.25500000920E-02 0. -1.
    10030    2    1    2    0    0  0.00000000000E+00  0.00000000000E+00  0.19730689545E+02  0.24490896753E+04  0.24490101955E+04 0.  0.
        1    1    3    3  502    0  0.25447007191E+03  0.92854697152E+03 -0.74676891043E+03  0.12184491378E+04  0.50400001928E-02 0. -1.
       -1    1    3    3    0  502 -0.25447007191E+03 -0.92854697152E+03  0.76649959998E+03  0.12306405375E+04  0.50400001928E-02 0.  1.
</event>
<event>
 5   0  0.3971759E-06  0.2500494E+04  0.7818609E-02  0.8402810E-01
        2   -1    0    0  501    0  0.00000000000E+00  0.00000000000E+00  0.19684556772E+04  0.19684556772E+04  0.25500000920E-02 0.  1.
       -2   -1    0    0    0  501  0.00000000000E+00  0.00000000000E+00 -0.79408324485E+03  0.79408324486E+03  0.25500000920E-02 0. -1.
    10030    2    1    2    0    0  0.00000000000E+00  0.00000000000E+00  0.11743724323E+04  0.27625389220E+04  0.25004940884E+04 0.  0.
        4    1    3    3  502    0  0.12968605206E+03 -0.10919683962E+04 -0.70054492376E+02  0.11018723588E+04  0.12699999809E+01 0. -1.
       -4    1    3    3    0  502 -0.12968605206E+03  0.10919683962E+04  0.12444269247E+04  0.16606665632E+04  0.12699999809E+01 0.  1.
</event>
<event>
 5   0  0.1501747E-06  0.2501049E+04  0.7818609E-02  0.8402612E-01
       -1   -1    0    0    0  501  0.00000000000E+00  0.00000000000E+00  0.15278095077E+04  0.15278095077E+04  0.50400001928E-02 0.  1.
        1   -1    0    0  501    0  0.00000000000E+00  0.00000000000E+00 -0.10235647361E+04  0.10235647361E+04  0.50400001928E-02 0. -1.
    10030    2    1    2    0    0  0.00000000000E+00  0.00000000000E+00  0.50424477165E+03  0.25513742438E+04  0.25010493282E+04 0.  0.
        2    1    3    3  502    0  0.76819501649E+03 -0.77732793989E+03  0.87217640261E+03  0.13982324509E+04  0.25500000920E-02 0. -1.
       -2    1    3    3    0  502 -0.76819501649E+03  0.77732793989E+03 -0.36793163096E+03  0.11531417929E+04  0.25500000920E-02 0.  1.
</event>
<event>
 5   0  0.1287375E-06  0.2503191E+04  0.7818609E-02  0.8401850E-01
       -4   -1    0    0    0  501  0.00000000000E+00  0.00000000000E+00  0.16310663272E+04  0.16310668216E+04  0.12699999809E+01 0. -1.
        4   -1    0    0  501    0  0.00000000000E+00  0.00000000000E+00 -0.96040823221E+03  0.96040907190E+03  0.12699999809E+01 0.  1.
    10030    2    1    2    0    0  0.00000000000E+00  0.00000000000E+00  0.67065809498E+03  0.25914758935E+04  0.25031909688E+04 0.  0.
        2    1    3    3  502    0  0.72688531074E+03 -0.43699713198E+03 -0.61754731506E+03  0.10491393781E+04  0.25500000920E-02 0.  1.
       -2    1    3    3    0  502 -0.72688531074E+03  0.43699713198E+03  0.12882054100E+04  0.15423365154E+04  0.25500000920E-02 0. -1.
</event>
<event>
 5   0  0.1519145E-06  0.2489334E+04  0.7818609E-02  0.8406795E-01
       -1   -1    0    0    0  501  0.00000000000E+00  0.00000000000E+00  0.14058115443E+04  0.14058115444E+04  0.50400001928E-02 0.  1.
        1   -1    0    0  501    0  0.00000000000E+00  0.00000000000E+00 -0.11019942570E+04  0.11019942570E+04  0.50400001928E-02 0. -1.
    10030    2    1    2    0    0  0.00000000000E+00  0.00000000000E+00  0.30381728736E+03  0.25078058014E+04  0.24893342470E+04 0.  0.
        4    1    3    3  502    0 -0.80335668513E+03  0.72511832021E+03 -0.46748370130E+03  0.11788643543E+04  0.12699999809E+01 0. -1.
       -4    1    3    3    0  502  0.80335668513E+03 -0.72511832021E+03  0.77130098866E+03  0.13289414471E+04  0.12699999809E+01 0.  1.
</event>
<event>
 5   0  0.3808293E-06  0.2501004E+04  0.7818609E-02  0.8402628E-01
        2   -1    0    0  501    0  0.00000000000E+00  0.00000000000E+00  0.97622912664E+03  0.97622912664E+03  0.25500000920E-02 0. -1.
       -2   -1    0    0    0  501  0.00000000000E+00  0.00000000000E+00 -0.16018318195E+04  0.16018318195E+04  0.25500000920E-02 0.  1.
    10030    2    1    2    0    0  0.00000000000E+00  0.00000000000E+00 -0.62560269283E+03  0.25780609461E+04  0.25010037010E+04 0.  0.
        1    1    3    3  502    0  0.10589365626E+04  0.39377222270E+03 -0.86536931908E+03  0.14231188515E+04  0.50400001928E-02 0.  1.
       -1    1    3    3    0  502 -0.10589365626E+04 -0.39377222270E+03  0.23976662626E+03  0.11549420947E+04  0.50400001928E-02 0. -1.
</event>
<event>
 5   0  0.1287375E-06  0.2495765E+04  0.7818609E-02  0.8404496E-01
       -4   -1    0    0    0  501  0.00000000000E+00  0.00000000000E+00  0.16616368397E+04  0.16616373250E+04  0.12699999809E+01 0.  1.
        4   -1    0    0  501    0  0.00000000000E+00  0.00000000000E+00 -0.93715364657E+03  0.93715450710E+03  0.12699999809E+01 0. -1.
    10030    2    1    2    0    0  0.00000000000E+00  0.00000000000E+00  0.72448319314E+03  0.25987918321E+04  0.24957650309E+04 0.  0.
        1    1    3    3  502    0  0.48578748684E+02  0.12391402964E+04  0.50720866973E+03  0.13398093908E+04  0.50400001928E-02 0.  1.
       -1    1    3    3    0  502 -0.48578748684E+02 -0.12391402964E+04  0.21727452341E+03  0.12589824413E+04  0.50400001928E-02 0. -1.
</event>
<event>
 5   0  0.3924441E-06  0.2503204E+04  0.7818609E-02  0.8401845E-01
        2   -1    0    0  501    0  0.00000000000E+00  0.00000000000E+00  0.13688569829E+04  0.13688569830E+04  0.25500000920E-02 0. -1.
       -2   -1    0    0    0  501  0.00000000000E+00  0.00000000000E+00 -0.11443907703E+04  0.11443907703E+04  0.25500000920E-02 0.  1.
    10030    2    1    2    0    0  0.00000000000E+00  0.00000000000E+00  0.22446621269E+03  0.25132477532E+04  0.25032037848E+04 0.  0.
        2    1    3    3  502    0 -0.39928745399E+02  0.12255552745E+04  0.36409270837E+03  0.12791182650E+04  0.25500000920E-02 0. -1.
       -2    1    3    3    0  502  0.39928745399E+02 -0.12255552745E+04 -0.13962649568E+03  0.12341294882E+04  0.25500000920E-02 0.  1.
</event>
<event>
 5   0  0.1553604E-06  0.2498326E+04  0.7818609E-02  0.8403582E-01
       -1   -1    0    0    0  501  0.00000000000E+00  0.00000000000E+00  0.90685442174E+03  0.90685442176E+03  0.50400001928E-02 0. -1.
        1   -1    0    0  501    0  0.00000000000E+00  0.00000000000E+00 -0.17206818532E+04  0.17206818532E+04  0.50400001928E-02 0.  1.
    10030    2    1    2    0    0  0.00000000000E+00  0.00000000000E+00 -0.81382743141E+03  0.26275362749E+04  0.24983257970E+04 0.  0.
        1    1    3    3  502    0  0.11673576982E+04  0.29393679202E+03 -0.75776105326E+03  0.14224361662E+04  0.50400001928E-02 0.  1.
       -1    1    3    3    0  502 -0.11673576982E+04 -0.29393679202E+03 -0.56066378145E+02  0.12051001087E+04  0.50400001928E-02 0. -1.
</event>
<event>
 5   0  0.1519145E-06  0.2501264E+04  0.7818609E-02  0.8402535E-01
       -1   -1    0    0    0  501  0.00000000000E+00  0.00000000000E+00  0.61478100954E+03  0.61478100956E+03  0.50400001928E-02 0.  1.
        1   -1    0    0  501    0  0.00000000000E+00  0.00000000000E+00 -0.25441260230E+04  0.25441260230E+04  0.50400001928E-02 0. -1.
    10030    2    1    2    0    0  0.00000000000E+00  0.00000000000E+00 -0.19293450135E+04  0.31589070326E+04  0.25012639724E+04 0.  0.
        4    1    3    3  502    0 -0.22317587987E+03 -0.86271629011E+03 -0.20728782334E+04  0.22563050889E+04  0.12699999809E+01 0. -1.
       -4    1    3    3    0  502  0.22317587987E+03  0.86271629011E+03  0.14353321999E+03  0.90260194367E+03  0.12699999809E+01 0.  1.
</event>
<event>
 5   0  0.3924441E-06  0.2498022E+04  0.7818609E-02  0.8403691E-01
        2   -1    0    0  501    0  0.00000000000E+00  0.00000000000E+00  0.20872804140E+04  0.20872804140E+04  0.25500000920E-02 0. -1.
       -2   -1    0    0    0  501  0.00000000000E+00  0.00000000000E+00 -0.74739769490E+03  0.74739769491E+03  0.25500000920E-02 0.  1.
    10030    2    1    2    0    0  0.00000000000E+00  0.00000000000E+00  0.13398827191E+04  0.28346781089E+04  0.24980220736E+04 0.  0.
        2    1    3    3  502    0 -0.58911275642E+03  0.87784789478E+03 -0.84793352737E+02  0.10605944931E+04  0.25500000920E-02 0.  1.
       -2    1    3    3    0  502  0.58911275642E+03 -0.87784789478E+03  0.14246760718E+04  0.17740836158E+04  0.25500000920E-02 0. -1.
</event>
<event>
 5   0  0.3814260E-06  0.2506323E+04  0.7818609E-02  0.8400737E-01
        2   -1    0    0  501    0  0.00000000000E+00  0.00000000000E+00  0.21946843909E+04  0.21946843909E+04  0.25500000920E-02 0. -1.
       -2   -1    0    0    0  501  0.00000000000E+00  0.00000000000E+00 -0.71555313165E+03  0.71555313166E+03  0.25500000920E-02 0.  1.
    10030    2    1    2    0    0  0.00000000000E+00  0.00000000000E+00  0.14791312593E+04  0.29102375226E+04  0.25063226360E+04 0.  0.
        5    1    3    3  502    0 -0.41738611083E+03 -0.18386807643E+02 -0.63229370882E+03  0.75786982024E+03  0.46999998093E+01 0.  1.
       -5    1    3    3    0  502  0.41738611083E+03  0.18386807643E+02  0.21114249681E+04  0.21523677024E+04  0.46999998093E+01 0. -1.
</event>
<event>
 5   0  0.1553604E-06  0.2498484E+04  0.7818609E-02  0.8403526E-01
       -1   -1    0    0    0  501  0.00000000000E+00  0.00000000000E+00  0.13808424707E+04  0.13808424707E+04  0.50400001928E-02 0. -1.
        1   -1    0    0  501    0  0.00000000000E+00  0.00000000000E+00 -0.11301836809E+04  0.11301836810E+04  0.50400001928E-02 0.  1.
    10030    2    1    2    0    0  0.00000000000E+00  0.00000000000E+00  0.25065878975E+03  0.25110261517E+04  0.24984840415E+04 0.  0.
        1    1    3    3  502    0 -0.18598370706E+02 -0.37526570912E+03 -0.10720518964E+04  0.11359865846E+04  0.50400001928E-02 0.  1.
       -1    1    3    3    0  502  0.18598370706E+02  0.37526570912E+03  0.13227106861E+04  0.13750395671E+04  0.50400001928E-02 0. -1.
</event>
<event>
 5   0  0.1501747E-06  0.2493151E+04  0.7818609E-02  0.8405430E-01
        1   -1    0    0  501    0  0.00000000000E+00  0.00000000000E+00  0.11111799895E+04  0.11111799895E+04  0.50400001928E-02 0. -1.
       -1   -1    0    0    0  501  0.00000000000E+00  0.00000000000E+00 -0.13984689626E+04  0.13984689626E+04  0.50400001928E-02 0.  1.
    10030    2    1    2    0    0  0.00000000000E+00  0.00000000000E+00 -0.28728897316E+03  0.25096489521E+04  0.24931512005E+04 0.  0.
        2    1    3    3  502    0  0.71008294383E+02 -0.15593790647E+03  0.10992697597E+04  0.11125433983E+04  0.25500000920E-02 0. -1.
       -2    1    3    3    0  502 -0.71008294383E+02  0.15593790647E+03 -0.13865587329E+04  0.13971055537E+04  0.25500000920E-02 0.  1.
</event>
<event>
 5   0  0.3971759E-06  0.2499966E+04  0.7818609E-02  0.8402998E-01
       -2   -1    0    0    0  501  0.00000000000E+00  0.00000000000E+00  0.12872547544E+04  0.12872547544E+04  0.25500000920E-02 0. -1.
        2   -1    0    0  501    0  0.00000000000E+00  0.00000000000E+00 -0.12137905665E+04  0.12137905665E+04  0.25500000920E-02 0.  1.
    10030    2    1    2    0    0  0.00000000000E+00  0.00000000000E+00  0.73464187863E+02  0.25010453209E+04  0.24999661418E+04 0.  0.
        4    1    3    3  502    0 -0.86975831491E+02  0.11546312236E+04  0.50780477359E+03  0.12643596635E+04  0.12699999809E+01 0. -1.
       -4    1    3    3    0  502  0.86975831491E+02 -0.11546312236E+04 -0.43434058573E+03  0.12366856574E+04  0.12699999809E+01 0.  1.
</event>
<event>
 5   0  0.1287375E-06  0.2498667E+04  0.7818609E-02  0.8403461E-01
       -3   -1    0    0    0  501  0.00000000000E+00  0.00000000000E+00  0.64517157717E+03  0.64517158507E+03  0.10100000352E+00 0.  1.
        3   -1    0    0  501    0  0.00000000000E+00  0.00000000000E+00 -0.24192541167E+04  0.24192541188E+04  0.10100000352E+00 0. -1.
    10030    2    1    2    0    0  0.00000000000E+00  0.00000000000E+00 -0.17740825395E+04  0.30644257038E+04  0.24986668520E+04 0.  0.
        2    1    3    3  502    0 -0.47952555618E+03  0.10064124118E+04 -0.15786655261E+04  0.19326136564E+04  0.25500000920E-02 0.  1.
       -2    1    3    3    0  502  0.47952555618E+03 -0.10064124118E+04 -0.19541701344E+03  0.11318120475E+04  0.25500000920E-02 0. -1.
</event>
<event>
 5   0  0.3971759E-06  0.2507494E+04  0.7818609E-02  0.8400321E-01
       -2   -1    0    0    0  501  0.00000000000E+00  0.00000000000E+00  0.85653851198E+03  0.85653851198E+03  0.25500000920E-02 0. -1.
        2   -1    0    0  501    0  0.00000000000E+00  0.00000000000E+00 -0.18351553156E+04  0.18351553156E+04  0.25500000920E-02 0.  1.
    10030    2    1    2    0    0  0.00000000000E+00  0.00000000000E+00 -0.97861680366E+03  0.26916938276E+04  0.25074937314E+04 0.  0.
        4    1    3    3  502    0  0.46565158015E+03  0.95297445608E+03 -0.12069128003E+04  0.16067457261E+04  0.12699999809E+01 0.  1.
       -4    1    3    3    0  502 -0.46565158015E+03 -0.95297445608E+03  0.22829599659E+03  0.10849481015E+04  0.12699999809E+01 0. -1.
</event>
<event>
 5   0  0.3971759E-06  0.2498094E+04  0.7818609E-02  0.8403665E-01
       -2   -1    0    0    0  501  0.00000000000E+00  0.00000000000E+00  0.59009126319E+03  0.59009126320E+03  0.25500000920E-02 0.  1.
        2   -1    0    0  501    0  0.00000000000E+00  0.00000000000E+00 -0.26438595961E+04  0.26438595961E+04  0.25500000920E-02 0. -1.
    10030    2    1    2    0    0  0.00000000000E+00  0.00000000000E+00 -0.20537683329E+04  0.32339508593E+04  0.24980940325E+04 0.  0.
        4    1    3    3  502    0  0.19429245662E+03  0.72578460766E+03 -0.23186028658E+04  0.24373004980E+04  0.12699999809E+01 0. -1.
       -4    1    3    3    0  502 -0.19429245662E+03 -0.72578460766E+03  0.26483453290E+03  0.79665036128E+03  0.12699999809E+01 0.  1.
</event>
<event>
 5   0  0.3814260E-06  0.2509106E+04  0.7818609E-02  0.8399749E-01
       -2   -1    0    0    0  501  0.00000000000E+00  0.00000000000E+00  0.90571588605E+03  0.90571588606E+03  0.25500000920E-02 0. -1.
        2   -1    0    0  501    0  0.00000000000E+00  0.00000000000E+00 -0.17377452903E+04  0.17377452904E+04  0.25500000920E-02 0.  1.
    10030    2    1    2    0    0  0.00000000000E+00  0.00000000000E+00 -0.83202940430E+03  0.26434611764E+04  0.25091062276E+04 0.  0.
        5    1    3    3  502    0 -0.82475046708E+03 -0.94519771070E+03 -0.43330636111E+03  0.13271731379E+04  0.46999998093E+01 0.  1.
       -5    1    3    3    0  502  0.82475046708E+03  0.94519771070E+03 -0.39872304318E+03  0.13162880386E+04  0.46999998093E+01 0. -1.
</event>
<event>
 5   0  0.1501747E-06  0.2502957E+04  0.7818609E-02  0.8401933E-01
        1   -1    0    0  501    0  0.00000000000E+00  0.00000000000E+00  0.12201388167E+04  0.12201388167E+04  0.50400001928E-02 0.  1.
       -1   -1    0    0    0  501  0.00000000000E+00  0.00000000000E+00 -0.12836234025E+04  0.12836234025E+04  0.50400001928E-02 0. -1.
    10030    2    1    2    0    0  0.00000000000E+00  0.00000000000E+00 -0.63484585849E+02  0.25037622192E+04  0.25029572425E+04 0.  0.
        2    1    3    3  502    0 -0.19934146261E+03 -0.10581518689E+04 -0.66973761574E+03  0.12680579129E+04  0.25500000920E-02 0. -1.
       -2    1    3    3    0  502  0.19934146261E+03  0.10581518689E+04  0.60625302989E+03  0.12357043063E+04  0.25500000920E-02 0.  1.
</event>
<event>
 5   0  0.1553604E-06  0.2502051E+04  0.7818609E-02  0.8402255E-01
        1   -1    0    0  501    0  0.00000000000E+00  0.00000000000E+00  0.10824027933E+04  0.10824027933E+04  0.50400001928E-02 0. -1.
       -1   -1    0    0    0  501  0.00000000000E+00  0.00000000000E+00 -0.14459173440E+04  0.14459173440E+04  0.50400001928E-02 0.  1.
    10030    2    1    2    0    0  0.00000000000E+00  0.00000000000E+00 -0.36351455068E+03  0.25283201373E+04  0.25020511362E+04 0.  0.
        1    1    3    3  502    0 -0.81209436898E+03  0.69466810378E+03 -0.83897321084E+03  0.13586526734E+04  0.50400001928E-02 0. -1.
       -1    1    3    3    0  502  0.81209436898E+03 -0.69466810378E+03  0.47545866016E+03  0.11696674639E+04  0.50400001928E-02 0.  1.
</event>
<event>
 5   0  0.1541852E-06  0.2508375E+04  0.7818609E-02  0.8400008E-01
        1   -1    0    0  501    0  0.00000000000E+00  0.00000000000E+00  0.24194347652E+04  0.24194347652E+04  0.50400001928E-02 0. -1.
       -1   -1    0    0    0  501  0.00000000000E+00  0.00000000000E+00 -0.65014610562E+03  0.65014610564E+03  0.50400001928E-02 0.  1.
    10030    2    1    2    0    0  0.00000000000E+00  0.00000000000E+00  0.17692886596E+04  0.30695808708E+04  0.25083748447E+04 0.  0.
        5    1    3    3  502    0 -0.40615482929E+03 -0.41711311889E+03 -0.47475655671E+03  0.75123962718E+03  0.46999998093E+01 0.  1.
       -5    1    3    3    0  502  0.40615482929E+03  0.41711311889E+03  0.22440452163E+04  0.23183412437E+04  0.46999998093E+01 0. -1.
</event>
<event>
 5   0  0.3808293E-06  0.2501017E+04  0.7818609E-02  0.8402623E-01
       -2   -1    0    0    0  501  0.00000000000E+00  0.00000000000E+00  0.15920230811E+04  0.15920230811E+04  0.25500000920E-02 0.  1.
        2   -1    0    0  501    0  0.00000000000E+00  0.00000000000E+00 -0.98225405285E+03  0.98225405286E+03  0.25500000920E-02 0. -1.
    10030    2    1    2    0    0  0.00000000000E+00  0.00000000000E+00  0.60976902823E+03  0.25742771339E+04  0.25010166922E+04 0.  0.
        1    1    3    3  502    0 -0.10440210608E+04  0.43808733389E+03 -0.24158209041E+03  0.11576970216E+04  0.50400001928E-02 0. -1.
       -1    1    3    3    0  502  0.10440210608E+04 -0.43808733389E+03  0.85135111864E+03  0.14165801123E+04  0.50400001928E-02 0.  1.
</event>
<event>
 5   0  0.1287375E-06  0.2460983E+04  0.7818609E-02  0.8417019E-01
        4   -1    0    0  501    0  0.00000000000E+00  0.00000000000E+00  0.11590582666E+04  0.11590589624E+04  0.12699999809E+01 0.  1.
       -4   -1    0    0    0  501  0.00000000000E+00  0.00000000000E+00 -0.13063255366E+04  0.13063261540E+04  0.12699999809E+01 0. -1.
    10030    2    1    2    0    0  0.00000000000E+00  0.00000000000E+00 -0.14726727003E+03  0.24653851164E+04  0.24609827556E+04 0.  0.
        4    1    3    3  502    0 -0.38601639264E+03 -0.15156722490E+03 -0.12342077141E+04  0.13020182693E+04  0.12699999809E+01 0. -1.
       -4    1    3    3    0  502  0.38601639264E+03  0.15156722490E+03  0.10869404441E+04  0.11633668471E+04  0.12699999809E+01 0.  1.
</event>
<event>
 5   0  0.3971759E-06  0.2501708E+04  0.7818609E-02  0.8402377E-01
       -2   -1    0    0    0  501  0.00000000000E+00  0.00000000000E+00  0.77090065859E+03  0.77090065860E+03  0.25500000920E-02 0.  1.
        2   -1    0    0  501    0  0.00000000000E+00  0.00000000000E+00 -0.20296201231E+04  0.20296201231E+04  0.25500000920E-02 0. -1.
    10030    2    1    2    0    0  0.00000000000E+00  0.00000000000E+00 -0.12587194645E+04  0.28005207817E+04  0.25017078084E+04 0.  0.
        4    1    3    3  502    0  0.50677454017E+03 -0.75667659209E+03  0.33052902911E+03  0.96882968140E+03  0.12699999809E+01 0.  1.
       -4    1    3    3    0  502 -0.50677454017E+03  0.75667659209E+03 -0.15892484936E+04  0.18316911003E+04  0.12699999809E+01 0. -1.
</event>
<event>
 5   0  0.1541852E-06  0.2524739E+04  0.7818609E-02  0.8394225E-01
        1   -1    0    0  501    0  0.00000000000E+00  0.00000000000E+00  0.10826191112E+04  0.10826191112E+04  0.50400001928E-02 0.  1.
       -1   -1    0    0    0  501  0.00000000000E+00  0.00000000000E+00 -0.14719646121E+04  0.14719646121E+04  0.50400001928E-02 0. -1.
    10030    2    1    2    0    0  0.00000000000E+00  0.00000000000E+00 -0.38934550084E+03  0.25545837233E+04  0.25247392104E+04 0.  0.
        5    1    3    3  502    0  0.29002808547E+03  0.96751662571E+03 -0.96082239962E+03  0.13940611482E+04  0.46999998093E+01 0. -1.
       -5    1    3    3    0  502 -0.29002808547E+03 -0.96751662571E+03  0.57147689878E+03  0.11605225751E+04  0.46999998093E+01 0.  1.
</event>
<event>
 5   0  0.1553604E-06  0.2504273E+04  0.7818609E-02  0.8401465E-01
        1   -1    0    0  501    0  0.00000000000E+00  0.00000000000E+00  0.11677223351E+04  0.11677223351E+04  0.50400001928E-02 0. -1.
       -1   -1    0    0    0  501  0.00000000000E+00  0.00000000000E+00 -0.13426528511E+04  0.13426528511E+04  0.50400001928E-02 0.  1.
    10030    2    1    2    0    0  0.00000000000E+00  0.00000000000E+00 -0.17493051606E+03  0.25103751862E+04  0.25042729264E+04 0.  0.
        1    1    3    3  502    0  0.11316758424E+04 -0.35583482248E+03  0.31418187137E+03  0.12271996095E+04  0.50400001928E-02 0.  1.
       -1    1    3    3    0  502 -0.11316758424E+04  0.35583482248E+03 -0.48911238743E+03  0.12831755767E+04  0.50400001928E-02 0. -1.
</event>
<event>
 5   0  0.1501747E-06  0.2503792E+04  0.7818609E-02  0.8401636E-01
       -1   -1    0    0    0  501  0.00000000000E+00  0.00000000000E+00  0.10502186989E+04  0.10502186989E+04  0.50400001928E-02 0.  1.
        1   -1    0    0  501    0  0.00000000000E+00  0.00000000000E+00 -0.14923018004E+04  0.14923018004E+04  0.50400001928E-02 0. -1.
    10030    2    1    2    0    0  0.00000000000E+00  0.00000000000E+00 -0.44208310148E+03  0.25425204993E+04  0.25037917287E+04 0.  0.
        2    1    3    3  502    0  0.54160424988E+03  0.29184201264E+03 -0.13281980935E+04  0.14637681167E+04  0.25500000920E-02 0. -1.
       -2    1    3    3    0  502 -0.54160424988E+03 -0.29184201264E+03  0.88611499206E+03  0.10787523826E+04  0.25500000920E-02 0.  1.
</event>
<event>
 5   0  0.1501747E-06  0.2496369E+04  0.7818609E-02  0.8404280E-01
        1   -1    0    0  501    0  0.00000000000E+00  0.00000000000E+00  0.12057995934E+04  0.12057995935E+04  0.50400001928E-02 0.  1.
       -1   -1    0    0    0  501  0.00000000000E+00  0.00000000000E+00 -0.12920588788E+04  0.12920588788E+04  0.50400001928E-02 0. -1.
    10030    2    1    2    0    0  0.00000000000E+00  0.00000000000E+00 -0.86259285313E+02  0.24978584722E+04  0.24963686192E+04 0.  0.
        2    1    3    3  502    0  0.33576389340E+03  0.68161506727E+03 -0.10339870597E+04  0.12831468083E+04  0.25500000920E-02 0. -1.
       -2    1    3    3    0  502 -0.33576389340E+03 -0.68161506727E+03  0.94772777440E+03  0.12147116639E+04  0.25500000920E-02 0.  1.
</event>
<event>
 5   0  0.1541852E-06  0.2500845E+04  0.7818609E-02  0.8402684E-01
       -1   -1    0    0    0  501  0.00000000000E+00  0.00000000000E+00  0.99697731077E+03  0.99697731078E+03  0.50400001928E-02 0. -1.
        1   -1    0    0  501    0  0.00000000000E+00  0.00000000000E+00 -0.15682974787E+04  0.15682974787E+04  0.50400001928E-02 0.  1.
    10030    2    1    2    0    0  0.00000000000E+00  0.00000000000E+00 -0.57132016792E+03  0.25652747895E+04  0.25008454593E+04 0.  0.
        5    1    3    3  502    0  0.36486027618E+03  0.56679684242E+03  0.79463602610E+03  0.10420413551E+04  0.46999998093E+01 0. -1.
       -5    1    3    3    0  502 -0.36486027618E+03 -0.56679684242E+03 -0.13659561940E+04  0.15232334344E+04  0.46999998093E+01 0.  1.
</event>
<event>
 5   0  0.3808293E-06  0.2499533E+04  0.7818609E-02  0.8403152E-01
        2   -1    0    0  501    0  0.00000000000E+00  0.00000000000E+00  0.87186190793E+03  0.87186190793E+03  0.25500000920E-02 0.  1.
       -2   -1    0    0    0  501  0.00000000000E+00  0.00000000000E+00 -0.17914727740E+04  0.17914727740E+04  0.25500000920E-02 0. -1.
    10030    2    1    2    0    0  0.00000000000E+00  0.00000000000E+00 -0.91961086603E+03  0.26633346819E+04  0.24995334530E+04 0.  0.
        1    1    3    3  502    0 -0.35282488899E+03 -0.11914267247E+04 -0.60249863733E+03  0.13809372363E+04  0.50400001928E-02 0.  1.
       -1    1    3    3    0  502  0.35282488899E+03  0.11914267247E+04 -0.31711222870E+03  0.12823974455E+04  0.50400001928E-02 0. -1.
</event>
<event>
 5   0  0.1519145E-06  0.2497642E+04  0.7818609E-02  0.8403826E-01
        1   -1    0    0  501    0  0.00000000000E+00  0.00000000000E+00  0.17056701880E+04  0.17056701881E+04  0.50400001928E-02 0. -1.
       -1   -1    0    0    0  501  0.00000000000E+00  0.00000000000E+00 -0.91433486155E+03  0.91433486156E+03  0.50400001928E-02 0.  1.
    10030    2    1    2    0    0  0.00000000000E+00  0.00000000000E+00  0.79133532650E+03  0.26200050496E+04  0.24976418600E+04 0.  0.
        4    1    3    3  502    0  0.38018068171E+03 -0.69671121321E+03 -0.61572999904E+03  0.10045242207E+04  0.12699999809E+01 0.  1.
       -4    1    3    3    0  502 -0.38018068171E+03  0.69671121321E+03  0.14070653255E+04  0.16154808289E+04  0.12699999809E+01 0. -1.
</event>
<event>
 5   0  0.1553604E-06  0.2493646E+04  0.7818609E-02  0.8405253E-01
        1   -1    0    0  501    0  0.00000000000E+00  0.00000000000E+00  0.15582772272E+04  0.15582772273E+04  0.50400001928E-02 0. -1.
       -1   -1    0    0    0  501  0.00000000000E+00  0.00000000000E+00 -0.99761938807E+03  0.99761938808E+03  0.50400001928E-02 0.  1.
    10030    2    1    2    0    0  0.00000000000E+00  0.00000000000E+00  0.56065783917E+03  0.25558966153E+04  0.24936459844E+04 0.  0.
        1    1    3    3  502    0 -0.35773387169E+03 -0.11818697996E+04  0.45719925152E+03  0.13167463316E+04  0.50400001928E-02 0.  1.
       -1    1    3    3    0  502  0.35773387169E+03  0.11818697996E+04  0.10345858765E+03  0.12391502837E+04  0.50400001928E-02 0. -1.
</event>
<event>
 5   0  0.3971759E-06  0.2501687E+04  0.7818609E-02  0.8402385E-01
       -2   -1    0    0    0  501  0.00000000000E+00  0.00000000000E+00  0.12510380266E+04  0.12510380266E+04  0.25500000920E-02 0.  1.
        2   -1    0    0  501    0  0.00000000000E+00  0.00000000000E+00 -0.12506490559E+04  0.12506490559E+04  0.25500000920E-02 0. -1.
    10030    2    1    2    0    0  0.00000000000E+00  0.00000000000E+00  0.38897070792E+00  0.25016870824E+04  0.25016870522E+04 0.  0.
        4    1    3    3  502    0  0.77263541820E+03  0.20070987537E+03 -0.96279979956E+03  0.12506938116E+04  0.12699999809E+01 0. -1.
       -4    1    3    3    0  502 -0.77263541820E+03 -0.20070987537E+03  0.96318877027E+03  0.12509932708E+04  0.12699999809E+01 0.  1.
</event>
<event>
 5   0  0.1541852E-06  0.2499112E+04  0.7818609E-02  0.8403302E-01
       -1   -1    0    0    0  501  0.00000000000E+00  0.00000000000E+00  0.73090672885E+03  0.73090672887E+03  0.50400001928E-02 0.  1.
        1   -1    0    0  501    0  0.00000000000E+00  0.00000000000E+00 -0.21362370305E+04  0.21362370305E+04  0.50400001928E-02 0. -1.
    10030    2    1    2    0    0  0.00000000000E+00  0.00000000000E+00 -0.14053303017E+04  0.28671437594E+04  0.24991118583E+04 0.  0.
        5    1    3    3  502    0  0.43224337754E+03 -0.59537172104E+03  0.45605332716E+03  0.86562610338E+03  0.46999998093E+01 0.  1.
       -5    1    3    3    0  502 -0.43224337754E+03  0.59537172104E+03 -0.18613836288E+04  0.20015176560E+04  0.46999998093E+01 0. -1.
</event>
<event>
 5   0  0.1541852E-06  0.2489580E+04  0.7818609E-02  0.8406707E-01
       -1   -1    0    0    0  501  0.00000000000E+00  0.00000000000E+00  0.17315619935E+04  0.17315619935E+04  0.50400001928E-02 0. -1.
        1   -1    0    0  501    0  0.00000000000E+00  0.00000000000E+00 -0.89485804809E+03  0.89485804811E+03  0.50400001928E-02 0.  1.
    10030    2    1    2    0    0  0.00000000000E+00  0.00000000000E+00  0.83670394539E+03  0.26264200416E+04  0.24895800334E+04 0.  0.
        5    1    3    3  502    0  0.76119338066E+03  0.83943270599E+03  0.96185609191E+03  0.14863552275E+04  0.46999998093E+01 0. -1.
       -5    1    3    3    0  502 -0.76119338066E+03 -0.83943270599E+03 -0.12515214653E+03  0.11400648141E+04  0.46999998093E+01 0.  1.
</event>
<event>
 5   0  0.1519145E-06  0.2501337E+04  0.7818609E-02  0.8402509E-01
       -1   -1    0    0    0  501  0.00000000000E+00  0.00000000000E+00  0.55245935051E+03  0.55245935053E+03  0.50400001928E-02 0. -1.
        1   -1    0    0  501    0  0.00000000000E+00  0.00000000000E+00 -0.28312878697E+04  0.28312878697E+04  0.50400001928E-02 0.  1.
    10030    2    1    2    0    0  0.00000000000E+00  0.00000000000E+00 -0.22788285192E+04  0.33837472202E+04  0.25013368087E+04 0.  0.
        4    1    3    3  502    0 -0.18405731148E+03  0.12011542228E+04 -0.15396193218E+04  0.19613969078E+04  0.12699999809E+01 0.  1.
       -4    1    3    3    0  502  0.18405731148E+03 -0.12011542228E+04 -0.73920919737E+03  0.14223503124E+04  0.12699999809E+01 0. -1.
</event>
<event>
 5   0  0.3808293E-06  0.2500418E+04  0.7818609E-02  0.8402837E-01
       -2   -1    0    0    0  501  0.00000000000E+00  0.00000000000E+00  0.10594497105E+04  0.10594497105E+04  0.25500000920E-02 0. -1.
        2   -1    0    0  501    0  0.00000000000E+00  0.00000000000E+00 -0.14753153048E+04  0.14753153048E+04  0.25500000920E-02 0.  1.
    10030    2    1    2    0    0  0.00000000000E+00  0.00000000000E+00 -0.41586559429E+03  0.25347650152E+04  0.25004178631E+04 0.  0.
        1    1    3    3  502    0  0.68594526194E+03  0.42913231974E+03 -0.11740970968E+04  0.14258960141E+04  0.50400001928E-02 0.  1.
       -1    1    3    3    0  502 -0.68594526194E+03 -0.42913231974E+03  0.75823150255E+03  0.11088690011E+04  0.50400001928E-02 0. -1.
</event>
<event>
 5   0  0.1519145E-06  0.2499554E+04  0.7818609E-02  0.8403145E-01
        1   -1    0    0  501    0  0.00000000000E+00  0.00000000000E+00  0.23358352400E+04  0.23358352400E+04  0.50400001928E-02 0.  1.
       -1   -1    0    0    0  501  0.00000000000E+00  0.00000000000E+00 -0.66868674802E+03  0.66868674804E+03  0.50400001928E-02 0. -1.
    10030    2    1    2    0    0  0.00000000000E+00  0.00000000000E+00  0.16671484920E+04  0.30045219880E+04  0.24995536166E+04 0.  0.
        4    1    3    3  502    0 -0.17441231293E+02  0.91157861014E+03  0.18610481575E+04  0.20723854893E+04  0.12699999809E+01 0.  1.
       -4    1    3    3    0  502  0.17441231293E+02 -0.91157861014E+03 -0.19389966552E+03  0.93213649870E+03  0.12699999809E+01 0. -1.
</event>
<event>
 5   0  0.3808293E-06  0.2505066E+04  0.7818609E-02  0.8401183E-01
       -2   -1    0    0    0  501  0.00000000000E+00  0.00000000000E+00  0.12471030729E+04  0.12471030729E+04  0.25500000920E-02 0. -1.
        2   -1    0    0  501    0  0.00000000000E+00  0.00000000000E+00 -0.12579867667E+04  0.12579867667E+04  0.25500000920E-02 0.  1.
    10030    2    1    2    0    0  0.00000000000E+00  0.00000000000E+00 -0.10883693832E+02  0.25050898396E+04  0.25050661966E+04 0.  0.
        1    1    3    3  502    0  0.26533384497E+03  0.38276902019E+03 -0.11681759134E+04  0.12575965716E+04  0.50400001928E-02 0.  1.
       -1    1    3    3    0  502 -0.26533384497E+03 -0.38276902019E+03  0.11572922196E+04  0.12474932680E+04  0.50400001928E-02 0. -1.
</event>
<event>
 5   0  0.3713394E-06  0.2490770E+04  0.7818609E-02  0.8406281E-01
       -2   -1    0    0    0  501  0.00000000000E+00  0.00000000000E+00  0.13599013188E+04  0.13599013188E+04  0.25500000920E-02 0.  1.
        2   -1    0    0  501    0  0.00000000000E+00  0.00000000000E+00 -0.11405119873E+04  0.11405119873E+04  0.25500000920E-02 0. -1.
    10030    2    1    2    0    0  0.00000000000E+00  0.00000000000E+00  0.21938933153E+03  0.25004133061E+04  0.24907699658E+04 0.  0.
        3    1    3    3  502    0 -0.11741006064E+04  0.46790384605E+01 -0.30718364421E+03  0.12136292386E+04  0.10100000352E+00 0.  1.
       -3    1    3    3    0  502  0.11741006064E+04 -0.46790384605E+01  0.52657297575E+03  0.12867840675E+04  0.10100000352E+00 0. -1.
</event>
<event>
 5   0  0.3713394E-06  0.2503161E+04  0.7818609E-02  0.8401860E-01
        2   -1    0    0  501    0  0.00000000000E+00  0.00000000000E+00  0.11773516581E+04  0.11773516581E+04  0.25500000920E-02 0. -1.
       -2   -1    0    0    0  501  0.00000000000E+00  0.00000000000E+00 -0.13304892496E+04  0.13304892496E+04  0.25500000920E-02 0.  1.
    10030    2    1    2    0    0  0.00000000000E+00  0.00000000000E+00 -0.15313759158E+03  0.25078409077E+04  0.25031609809E+04 0.  0.
        3    1    3    3  502    0 -0.12451761072E+04 -0.40535170153E+02 -0.19657201635E+03  0.12612482728E+04  0.10100000352E+00 0. -1.
       -3    1    3    3    0  502  0.12451761072E+04  0.40535170153E+02  0.43434424776E+02  0.12465926349E+04  0.10100000352E+00 0.  1.
</event>
<event>
 5   0  0.1553604E-06  0.2497423E+04  0.7818609E-02  0.8403904E-01
       -1   -1    0    0    0  501  0.00000000000E+00  0.00000000000E+00  0.97469134028E+03  0.97469134029E+03  0.50400001928E-02 0. -1.
        1   -1    0    0  501    0  0.00000000000E+00  0.00000000000E+00 -0.15997686269E+04  0.15997686269E+04  0.50400001928E-02 0.  1.
    10030    2    1    2    0    0  0.00000000000E+00  0.00000000000E+00 -0.62507728659E+03  0.25744599672E+04  0.24974231737E+04 0.  0.
        1    1    3    3  502    0 -0.82289621054E+03  0.89165911496E+03 -0.61671082321E+03  0.13610828006E+04  0.50400001928E-02 0.  1.
       -1    1    3    3    0  502  0.82289621054E+03 -0.89165911496E+03 -0.83664633800E+01  0.12133771666E+04  0.50400001928E-02 0. -1.
</event>
<event>
 5   0  0.1541852E-06  0.2495310E+04  0.7818609E-02  0.8404658E-01
       -1   -1    0    0    0  501  0.00000000000E+00  0.00000000000E+00  0.11964536937E+04  0.11964536937E+04  0.50400001928E-02 0.  1.
        1   -1    0    0  501    0  0.00000000000E+00  0.00000000000E+00 -0.13010472773E+04  0.13010472773E+04  0.50400001928E-02 0. -1.
    10030    2    1    2    0    0  0.00000000000E+00  0.00000000000E+00 -0.10459358357E+03  0.24975009711E+04  0.24953098570E+04 0.  0.
        5    1    3    3  502    0 -0.62065720322E+03 -0.10290253785E+04 -0.38801961811E+03  0.12628103213E+04  0.46999998093E+01 0. -1.
       -5    1    3    3    0  502  0.62065720322E+03  0.10290253785E+04  0.28342603455E+03  0.12346906498E+04  0.46999998093E+01 0.  1.
</event>
<event>
 5   0  0.3713394E-06  0.2499777E+04  0.7818609E-02  0.8403065E-01
       -2   -1    0    0    0  501  0.00000000000E+00  0.00000000000E+00  0.82353842367E+03  0.82353842368E+03  0.25500000920E-02 0.  1.
        2   -1    0    0  501    0  0.00000000000E+00  0.00000000000E+00 -0.18969616149E+04  0.18969616149E+04  0.25500000920E-02 0. -1.
    10030    2    1    2    0    0  0.00000000000E+00  0.00000000000E+00 -0.10734231912E+04  0.27205000385E+04  0.24997766125E+04 0.  0.
        3    1    3    3  502    0  0.11998431331E+04 -0.93001620569E+02 -0.90407910283E+03  0.15052016077E+04  0.10100000352E+00 0. -1.
       -3    1    3    3    0  502 -0.11998431331E+04  0.93001620569E+02 -0.16934408836E+03  0.12152984308E+04  0.10100000352E+00 0.  1.
</event>
<event>
 5   0  0.1541852E-06  0.2516859E+04  0.7818609E-02  0.8397004E-01
        1   -1    0    0  501    0  0.00000000000E+00  0.00000000000E+00  0.11646061365E+04  0.11646061365E+04  0.50400001928E-02 0. -1.
       -1   -1    0    0    0  501  0.00000000000E+00  0.00000000000E+00 -0.13598117730E+04  0.13598117730E+04  0.50400001928E-02 0.  1.
    10030    2    1    2    0    0  0.00000000000E+00  0.00000000000E+00 -0.19520563653E+03  0.25244179096E+04  0.25168592614E+04 0.  0.
        5    1    3    3  502    0  0.12383476107E+04  0.99555337627E+02  0.10351614552E+03  0.12466570308E+04  0.46999998093E+01 0. -1.
       -5    1    3    3    0  502 -0.12383476107E+04 -0.99555337627E+02 -0.29872178205E+03  0.12777608787E+04  0.46999998093E+01 0.  1.
</event>
<event>
 5   0  0.3924441E-06  0.2498903E+04  0.7818609E-02  0.8403376E-01
        2   -1    0    0  501    0  0.00000000000E+00  0.00000000000E+00  0.16281596567E+04  0.16281596567E+04  0.25500000920E-02 0. -1.
       -2   -1    0    0    0  501  0.00000000000E+00  0.00000000000E+00 -0.95883052051E+03  0.95883052051E+03  0.25500000920E-02 0.  1.
    10030    2    1    2    0    0  0.00000000000E+00  0.00000000000E+00  0.66932913615E+03  0.25869901772E+04  0.24989030962E+04 0.  0.
        2    1    3    3  502    0  0.42204339478E+03 -0.75520660007E+03 -0.59859594029E+03  0.10520336190E+04  0.25500000920E-02 0.  1.
       -2    1    3    3    0  502 -0.42204339478E+03  0.75520660007E+03  0.12679250764E+04  0.15349565581E+04  0.25500000920E-02 0. -1.
</event>
<event>
 5   0  0.1574896E-06  0.2497174E+04  0.7818609E-02  0.8403993E-01
       -1   -1    0    0    0  501  0.00000000000E+00  0.00000000000E+00  0.71225459428E+03  0.71225459429E+03  0.50400001928E-02 0. -1.
        1   -1    0    0  501    0  0.00000000000E+00  0.00000000000E+00 -0.21887808539E+04  0.21887808539E+04  0.50400001928E-02 0.  1.
    10030    2    1    2    0    0  0.00000000000E+00  0.00000000000E+00 -0.14765262597E+04  0.29010354482E+04  0.24971737778E+04 0.  0.
        3    1    3    3  502    0  0.81346794040E+03 -0.37538254176E+03 -0.17485834571E+04  0.19647356717E+04  0.10100000352E+00 0.  1.
       -3    1    3    3    0  502 -0.81346794040E+03  0.37538254176E+03  0.27205719748E+03  0.93629977658E+03  0.10100000352E+00 0. -1.
</event>
<event>
 5   0  0.1553604E-06  0.2503702E+04  0.7818609E-02  0.8401668E-01
        1   -1    0    0  501    0  0.00000000000E+00  0.00000000000E+00  0.16310883805E+04  0.16310883805E+04  0.50400001928E-02 0. -1.
       -1   -1    0    0    0  501  0.00000000000E+00  0.00000000000E+00 -0.96078820726E+03  0.96078820727E+03  0.50400001928E-02 0.  1.
    10030    2    1    2    0    0  0.00000000000E+00  0.00000000000E+00  0.67030017322E+03  0.25918765878E+04  0.25037016444E+04 0.  0.
        1    1    3    3  502    0 -0.90676621173E+02 -0.50780320927E+03 -0.84565375749E+03  0.99056379227E+03  0.50400001928E-02 0.  1.
       -1    1    3    3    0  502  0.90676621173E+02  0.50780320927E+03  0.15159539307E+04  0.16013127955E+04  0.50400001928E-02 0. -1.
</event>
<event>
 5   0  0.1519145E-06  0.2517148E+04  0.7818609E-02  0.8396902E-01
        1   -1    0    0  501    0  0.00000000000E+00  0.00000000000E+00  0.13211998462E+04  0.13211998462E+04  0.50400001928E-02 0. -1.
       -1   -1    0    0    0  501  0.00000000000E+00  0.00000000000E+00 -0.11989167060E+04  0.11989167060E+04  0.50400001928E-02 0.  1.
    10030    2    1    2    0    0  0.00000000000E+00  0.00000000000E+00  0.12228314021E+03  0.25201165522E+04  0.25171480430E+04 0.  0.
        4    1    3    3  502    0 -0.10362355851E+04  0.36683824379E+03  0.67476932122E+03  0.12898332198E+04  0.12699999809E+01 0. -1.
       -4    1    3    3    0  502  0.10362355851E+04 -0.36683824379E+03 -0.55248618100E+03  0.12302833325E+04  0.12699999809E+01 0.  1.
</event>
<event>
 5   0  0.3971759E-06  0.2499415E+04  0.7818609E-02  0.8403194E-01
       -2   -1    0    0    0  501  0.00000000000E+00  0.00000000000E+00  0.92724982183E+03  0.92724982184E+03  0.25500000920E-02 0. -1.
        2   -1    0    0  501    0  0.00000000000E+00  0.00000000000E+00 -0.16843025769E+04  0.16843025769E+04  0.25500000920E-02 0.  1.
    10030    2    1    2    0    0  0.00000000000E+00  0.00000000000E+00 -0.75705275509E+03  0.26115523988E+04  0.24994153431E+04 0.  0.
        4    1    3    3  502    0  0.16048613416E+02  0.76668188474E+03  0.65251216486E+03  0.10068924513E+04  0.12699999809E+01 0. -1.
       -4    1    3    3    0  502 -0.16048613416E+02 -0.76668188474E+03 -0.14095649200E+04  0.16046599474E+04  0.12699999809E+01 0.  1.
</event>
<event>
 5   0  0.1574896E-06  0.2498294E+04  0.7818609E-02  0.8403594E-01
       -1   -1    0    0    0  501  0.00000000000E+00  0.00000000000E+00  0.91533159373E+03  0.91533159374E+03  0.50400001928E-02 0. -1.
        1   -1    0    0  501    0  0.00000000000E+00  0.00000000000E+00 -0.17047025446E+04  0.17047025446E+04  0.50400001928E-02 0.  1.
    10030    2    1    2    0    0  0.00000000000E+00  0.00000000000E+00 -0.78937095091E+03  0.26200341384E+04  0.24982938955E+04 0.  0.
        3    1    3    3  502    0 -0.32649433655E+02  0.95623804712E+03 -0.12368816830E+04  0.15637562138E+04  0.10100000352E+00 0.  1.
       -3    1    3    3    0  502  0.32649433655E+02 -0.95623804712E+03  0.44751073214E+03  0.10562779245E+04  0.10100000352E+00 0. -1.
</event>
<event>
 5   0  0.1541852E-06  0.2500119E+04  0.7818609E-02  0.8402943E-01
        1   -1    0    0  501    0  0.00000000000E+00  0.00000000000E+00  0.18115465565E+04  0.18115465565E+04  0.50400001928E-02 0. -1.
       -1   -1    0    0    0  501  0.00000000000E+00  0.00000000000E+00 -0.86260491575E+03  0.86260491576E+03  0.50400001928E-02 0.  1.
    10030    2    1    2    0    0  0.00000000000E+00  0.00000000000E+00  0.94894164071E+03  0.26741514722E+04  0.25001191689E+04 0.  0.
        5    1    3    3  502    0  0.19613544283E+03  0.90858383076E+03  0.13684963053E+04  0.16543270285E+04  0.46999998093E+01 0. -1.
       -5    1    3    3    0  502 -0.19613544283E+03 -0.90858383076E+03 -0.41955466463E+03  0.10198244437E+04  0.46999998093E+01 0.  1.
</event>
<event>
 5   0  0.1519145E-06  0.2488935E+04  0.7818609E-02  0.8406938E-01
       -1   -1    0    0    0  501  0.00000000000E+00  0.00000000000E+00  0.79114618798E+03  0.79114618800E+03  0.50400001928E-02 0.  1.
        1   -1    0    0  501    0  0.00000000000E+00  0.00000000000E+00 -0.19575392059E+04  0.19575392059E+04  0.50400001928E-02 0. -1.
    10030    2    1    2    0    0  0.00000000000E+00  0.00000000000E+00 -0.11663930179E+04  0.27486853939E+04  0.24889352588E+04 0.  0.
        4    1    3    3  502    0 -0.72009593765E+03  0.62806958263E+02 -0.17019403435E+04  0.18490769100E+04  0.12699999809E+01 0. -1.
       -4    1    3    3    0  502  0.72009593765E+03 -0.62806958263E+02  0.53554732558E+03  0.89960848388E+03  0.12699999809E+01 0.  1.
</event>
<event>
 5   0  0.3924441E-06  0.2504038E+04  0.7818609E-02  0.8401549E-01
       -2   -1    0    0    0  501  0.00000000000E+00  0.00000000000E+00  0.60102039013E+03  0.60102039014E+03  0.25500000920E-02 0.  1.
        2   -1    0    0  501    0  0.00000000000E+00  0.00000000000E+00 -0.26081495955E+04  0.26081495955E+04  0.25500000920E-02 0. -1.
    10030    2    1    2    0    0  0.00000000000E+00  0.00000000000E+00 -0.20071292054E+04  0.32091699856E+04  0.25040376095E+04 0.  0.
        2    1    3    3  502    0 -0.25649760382E+03  0.85410488019E+02 -0.25702967879E+04  0.25844751015E+04  0.25500000920E-02 0. -1.
       -2    1    3    3    0  502  0.25649760382E+03 -0.85410488019E+02  0.56316758256E+03  0.62469488415E+03  0.25500000920E-02 0.  1.
</event>
<event>
 5   0  0.3971759E-06  0.2499181E+04  0.7818609E-02  0.8403277E-01
        2   -1    0    0  501    0  0.00000000000E+00  0.00000000000E+00  0.18474691537E+04  0.18474691537E+04  0.25500000920E-02 0.  1.
       -2   -1    0    0    0  501  0.00000000000E+00  0.00000000000E+00 -0.84519784719E+03  0.84519784719E+03  0.25500000920E-02 0. -1.
    10030    2    1    2    0    0  0.00000000000E+00  0.00000000000E+00  0.10022713065E+04  0.26926670009E+04  0.24991814271E+04 0.  0.
        4    1    3    3  502    0  0.41945878047E+03 -0.88192129664E+03  0.13410700770E+04  0.16589760114E+04  0.12699999809E+01 0.  1.
       -4    1    3    3    0  502 -0.41945878047E+03  0.88192129664E+03 -0.33879877051E+03  0.10336909895E+04  0.12699999809E+01 0. -1.
</event>
<event>
 5   0  0.3971759E-06  0.2498768E+04  0.7818609E-02  0.8403425E-01
       -2   -1    0    0    0  501  0.00000000000E+00  0.00000000000E+00  0.12858566492E+04  0.12858566492E+04  0.25500000920E-02 0. -1.
        2   -1    0    0  501    0  0.00000000000E+00  0.00000000000E+00 -0.12139456321E+04  0.12139456321E+04  0.25500000920E-02 0.  1.
    10030    2    1    2    0    0  0.00000000000E+00  0.00000000000E+00  0.71911017128E+02  0.24998022813E+04  0.24987677465E+04 0.  0.
        4    1    3    3  502    0 -0.68422886690E+03  0.10006867314E+04  0.33843043990E+03  0.12586023408E+04  0.12699999809E+01 0. -1.
       -4    1    3    3    0  502  0.68422886690E+03 -0.10006867314E+04 -0.26651942277E+03  0.12411999405E+04  0.12699999809E+01 0.  1.
</event>
<event>
 5   0  0.1519145E-06  0.2499561E+04  0.7818609E-02  0.8403142E-01
       -1   -1    0    0    0  501  0.00000000000E+00  0.00000000000E+00  0.93185297178E+03  0.93185297179E+03  0.50400001928E-02 0.  1.
        1   -1    0    0  501    0  0.00000000000E+00  0.00000000000E+00 -0.16761783276E+04  0.16761783276E+04  0.50400001928E-02 0. -1.
    10030    2    1    2    0    0  0.00000000000E+00  0.00000000000E+00 -0.74432535583E+03  0.26080312994E+04  0.24995613662E+04 0.  0.
        4    1    3    3  502    0 -0.53867779761E+03  0.29462339995E+03  0.76364107952E+03  0.97986020874E+03  0.12699999809E+01 0.  1.
       -4    1    3    3    0  502  0.53867779761E+03 -0.29462339995E+03 -0.15079664353E+04  0.16281710907E+04  0.12699999809E+01 0. -1.
</event>
<event>
 5   0  0.3924441E-06  0.2505735E+04  0.7818609E-02  0.8400945E-01
        2   -1    0    0  501    0  0.00000000000E+00  0.00000000000E+00  0.15858407851E+04  0.15858407851E+04  0.25500000920E-02 0. -1.
       -2   -1    0    0    0  501  0.00000000000E+00  0.00000000000E+00 -0.98980762480E+03  0.98980762481E+03  0.25500000920E-02 0.  1.
    10030    2    1    2    0    0  0.00000000000E+00  0.00000000000E+00  0.59603316030E+03  0.25756484099E+04  0.25057352620E+04 0.  0.
        2    1    3    3  502    0  0.69385192103E+03  0.28530601570E+03  0.13294309962E+04  0.15265047607E+04  0.25500000920E-02 0. -1.
       -2    1    3    3    0  502 -0.69385192103E+03 -0.28530601570E+03 -0.73339783589E+03  0.10491436492E+04  0.25500000920E-02 0.  1.
</event>
<event>
 5   0  0.3971759E-06  0.2499529E+04  0.7818609E-02  0.8403153E-01
       -2   -1    0    0    0  501  0.00000000000E+00  0.00000000000E+00  0.73827191678E+03  0.73827191679E+03  0.25500000920E-02 0.  1.
        2   -1    0    0  501    0  0.00000000000E+00  0.00000000000E+00 -0.21156317102E+04  0.21156317102E+04  0.25500000920E-02 0. -1.
    10030    2    1    2    0    0  0.00000000000E+00  0.00000000000E+00 -0.13773597934E+04  0.28539036269E+04  0.24995291380E+04 0.  0.
        4    1    3    3  502    0 -0.38088618254E+03 -0.59803844264E+02 -0.20460303488E+04  0.20820404859E+04  0.12699999809E+01 0. -1.
       -4    1    3    3    0  502  0.38088618254E+03  0.59803844264E+02  0.66867055545E+03  0.77186314102E+03  0.12699999809E+01 0.  1.
</event>
<event>
 5   0  0.3814260E-06  0.2496367E+04  0.7818609E-02  0.8404281E-01
       -2   -1    0    0    0  501  0.00000000000E+00  0.00000000000E+00  0.83434724806E+03  0.83434724806E+03  0.25500000920E-02 0. -1.
        2   -1    0    0  501    0  0.00000000000E+00  0.00000000000E+00 -0.18672827212E+04  0.18672827212E+04  0.25500000920E-02 0.  1.
    10030    2    1    2    0    0  0.00000000000E+00  0.00000000000E+00 -0.10329354731E+04  0.27016299693E+04  0.24963671203E+04 0.  0.
        5    1    3    3  502    0 -0.68642339148E+03  0.23635421002E+03 -0.16152853778E+04  0.17709345914E+04  0.46999998093E+01 0.  1.
       -5    1    3    3    0  502  0.68642339148E+03 -0.23635421002E+03  0.58234990471E+03  0.93069537791E+03  0.46999998093E+01 0. -1.
</event>
<event>
 5   0  0.1501747E-06  0.2497369E+04  0.7818609E-02  0.8403923E-01
        1   -1    0    0  501    0  0.00000000000E+00  0.00000000000E+00  0.66332621690E+03  0.66332621692E+03  0.50400001928E-02 0. -1.
       -1   -1    0    0    0  501  0.00000000000E+00  0.00000000000E+00 -0.23505982377E+04  0.23505982377E+04  0.50400001928E-02 0.  1.
    10030    2    1    2    0    0  0.00000000000E+00  0.00000000000E+00 -0.16872720208E+04  0.30139244547E+04  0.24973693652E+04 0.  0.
        2    1    3    3  502    0  0.78366813134E+03  0.82578688803E+03 -0.22454523557E+03  0.11603793722E+04  0.25500000920E-02 0. -1.
       -2    1    3    3    0  502 -0.78366813134E+03 -0.82578688803E+03 -0.14627267853E+04  0.18535450825E+04  0.25500000920E-02 0.  1.
</event>
<event>
 5   0  0.3814260E-06  0.2496967E+04  0.7818609E-02  0.8404067E-01
       -2   -1    0    0    0  501  0.00000000000E+00  0.00000000000E+00  0.13437960778E+04  0.13437960778E+04  0.25500000920E-02 0. -1.
        2   -1    0    0  501    0  0.00000000000E+00  0.00000000000E+00 -0.11599315728E+04  0.11599315728E+04  0.25500000920E-02 0.  1.
    10030    2    1    2    0    0  0.00000000000E+00  0.00000000000E+00  0.18386450506E+03  0.25037276506E+04  0.24969673590E+04 0.  0.
        5    1    3    3  502    0 -0.13529839809E+03 -0.97538866848E+03 -0.67760938783E+03  0.11953515314E+04  0.46999998093E+01 0. -1.
       -5    1    3    3    0  502  0.13529839809E+03  0.97538866848E+03  0.86147389289E+03  0.13083761192E+04  0.46999998093E+01 0.  1.
</event>
<event>
 5   0  0.1541852E-06  0.2501036E+04  0.7818609E-02  0.8402616E-01
        1   -1    0    0  501    0  0.00000000000E+00  0.00000000000E+00  0.20379176190E+04  0.20379176190E+04  0.50400001928E-02 0. -1.
       -1   -1    0    0    0  501  0.00000000000E+00  0.00000000000E+00 -0.76734981718E+03  0.76734981720E+03  0.50400001928E-02 0.  1.
    10030    2    1    2    0    0  0.00000000000E+00  0.00000000000E+00  0.12705678018E+04  0.28052674362E+04  0.25010363551E+04 0.  0.
        5    1    3    3  502    0 -0.79380380554E+02 -0.68041167254E+03  0.18087339179E+04  0.19341152408E+04  0.46999998093E+01 0. -1.
       -5    1    3    3    0  502  0.79380380554E+02  0.68041167254E+03 -0.53816611612E+03  0.87115219536E+03  0.46999998093E+01 0.  1.
</event>
<event>
 5   0  0.1501747E-06  0.2496075E+04  0.7818609E-02  0.8404385E-01
       -1   -1    0    0    0  501  0.00000000000E+00  0.00000000000E+00  0.15412941975E+04  0.15412941975E+04  0.50400001928E-02 0. -1.
        1   -1    0    0  501    0  0.00000000000E+00  0.00000000000E+00 -0.10105779504E+04  0.10105779505E+04  0.50400001928E-02 0.  1.
    10030    2    1    2    0    0  0.00000000000E+00  0.00000000000E+00  0.53071624703E+03  0.25518721479E+04  0.24960752642E+04 0.  0.
        2    1    3    3  502    0 -0.69656326527E+03 -0.10281316752E+04  0.39199309202E+03  0.13022725169E+04  0.25500000920E-02 0.  1.
       -2    1    3    3    0  502  0.69656326527E+03  0.10281316752E+04  0.13872315501E+03  0.12495996310E+04  0.25500000920E-02 0. -1.
</event>
<event>
 5   0  0.3808293E-06  0.2500838E+04  0.7818609E-02  0.8402687E-01
        2   -1    0    0  501    0  0.00000000000E+00  0.00000000000E+00  0.15529667284E+04  0.15529667284E+04  0.25500000920E-02 0.  1.
       -2   -1    0    0    0  501  0.00000000000E+00  0.00000000000E+00 -0.10068131726E+04  0.10068131726E+04  0.25500000920E-02 0. -1.
    10030    2    1    2    0    0  0.00000000000E+00  0.00000000000E+00  0.54615355578E+03  0.25597799010E+04  0.25008377467E+04 0.  0.
        1    1    3    3  502    0 -0.72951507419E+03  0.19177807721E+03  0.12938661942E+04  0.14976851481E+04  0.50400001928E-02 0.  1.
       -1    1    3    3    0  502  0.72951507419E+03 -0.19177807721E+03 -0.74771263845E+03  0.10620947529E+04  0.50400001928E-02 0. -1.
</event>
<event>
 5   0  0.1519145E-06  0.2471384E+04  0.7818609E-02  0.8413252E-01
        1   -1    0    0  501    0  0.00000000000E+00  0.00000000000E+00  0.13043915285E+04  0.13043915285E+04  0.50400001928E-02 0. -1.
       -1   -1    0    0    0  501  0.00000000000E+00  0.00000000000E+00 -0.11706109699E+04  0.11706109699E+04  0.50400001928E-02 0.  1.
    10030    2    1    2    0    0  0.00000000000E+00  0.00000000000E+00  0.13378055860E+03  0.24750024985E+04  0.24713842538E+04 0.  0.
        4    1    3    3  502    0  0.14698084756E+03 -0.30816801591E+03 -0.11224352633E+04  0.11732149968E+04  0.12699999809E+01 0.  1.
       -4    1    3    3    0  502 -0.14698084756E+03  0.30816801591E+03  0.12562158219E+04  0.13017875017E+04  0.12699999809E+01 0. -1.
</event>
<event>
 5   0  0.3713394E-06  0.2498104E+04  0.7818609E-02  0.8403661E-01
        2   -1    0    0  501    0  0.00000000000E+00  0.00000000000E+00  0.18851728127E+04  0.18851728127E+04  0.25500000920E-02 0. -1.
       -2   -1    0    0    0  501  0.00000000000E+00  0.00000000000E+00 -0.82757997012E+03  0.82757997013E+03  0.25500000920E-02 0.  1.
    10030    2    1    2    0    0  0.00000000000E+00  0.00000000000E+00  0.10575928425E+04  0.27127527828E+04  0.24981042892E+04 0.  0.
        3    1    3    3  502    0  0.18536763354E+03  0.11128374776E+04  0.11109196843E+04  0.15833227613E+04  0.10100000352E+00 0. -1.
       -3    1    3    3    0  502 -0.18536763354E+03 -0.11128374776E+04 -0.53326841777E+02  0.11294300215E+04  0.10100000352E+00 0.  1.
</event>
<event>
 5   0  0.1541852E-06  0.2499474E+04  0.7818609E-02  0.8403173E-01
        1   -1    0    0  501    0  0.00000000000E+00  0.00000000000E+00  0.16947906174E+04  0.16947906175E+04  0.50400001928E-02 0. -1.
       -1   -1    0    0    0  501  0.00000000000E+00  0.00000000000E+00 -0.92155490582E+03  0.92155490583E+03  0.50400001928E-02 0.  1.
    10030    2    1    2    0    0  0.00000000000E+00  0.00000000000E+00  0.77323571162E+03  0.26163455233E+04  0.24994740310E+04 0.  0.
        5    1    3    3  502    0  0.58257396525E+03  0.10178940804E+04 -0.65213011222E+02  0.11746385022E+04  0.46999998093E+01 0.  1.
       -5    1    3    3    0  502 -0.58257396525E+03 -0.10178940804E+04  0.83844872285E+03  0.14417070211E+04  0.46999998093E+01 0. -1.
</event>
<event>
 5   0  0.1574896E-06  0.2496407E+04  0.7818609E-02  0.8404267E-01
        1   -1    0    0  501    0  0.00000000000E+00  0.00000000000E+00  0.25036390792E+04  0.25036390792E+04  0.50400001928E-02 0. -1.
       -1   -1    0    0    0  501  0.00000000000E+00  0.00000000000E+00 -0.62229881246E+03  0.62229881248E+03  0.50400001928E-02 0.  1.
    10030    2    1    2    0    0  0.00000000000E+00  0.00000000000E+00  0.18813402667E+04  0.31259378916E+04  0.24964067183E+04 0.  0.
        3    1    3    3  502    0 -0.39211562765E+03  0.10944599633E+04  0.15095688234E+04  0.19053596299E+04  0.10100000352E+00 0. -1.
       -3    1    3    3    0  502  0.39211562765E+03 -0.10944599633E+04  0.37177144333E+03  0.12205782617E+04  0.10100000352E+00 0.  1.
</event>
<event>
 5   0  0.1287375E-06  0.2501805E+04  0.7818609E-02  0.8402343E-01
        3   -1    0    0  501    0  0.00000000000E+00  0.00000000000E+00  0.14259103717E+04  0.14259103753E+04  0.10100000352E+00 0.  1.
       -3   -1    0    0    0  501  0.00000000000E+00  0.00000000000E+00 -0.10973739770E+04  0.10973739816E+04  0.10100000352E+00 0. -1.
    10030    2    1    2    0    0  0.00000000000E+00  0.00000000000E+00  0.32853639475E+03  0.25232843569E+04  0.25018049051E+04 0.  0.
        3    1    3    3  502    0 -0.71392907306E+03  0.17969370879E+03 -0.85573668938E+03  0.11288356134E+04  0.10100000352E+00 0. -1.
       -3    1    3    3    0  502  0.71392907306E+03 -0.17969370879E+03  0.11842730841E+04  0.13944487435E+04  0.10100000352E+00 0.  1.
</event>
<event>
 5   0  0.3924441E-06  0.2504057E+04  0.7818609E-02  0.8401542E-01
        2   -1    0    0  501    0  0.00000000000E+00  0.00000000000E+00  0.92558431900E+03  0.92558431900E+03  0.25500000920E-02 0. -1.
       -2   -1    0    0    0  501  0.00000000000E+00  0.00000000000E+00 -0.16936057385E+04  0.16936057385E+04  0.25500000920E-02 0.  1.
    10030    2    1    2    0    0  0.00000000000E+00  0.00000000000E+00 -0.76802141949E+03  0.26191900575E+04  0.25040566400E+04 0.  0.
        2    1    3    3  502    0 -0.67296629009E+03  0.25782623215E+01  0.72031929863E+03  0.98577389244E+03  0.25500000920E-02 0. -1.
       -2    1    3    3    0  502  0.67296629009E+03 -0.25782623215E+01 -0.14883407181E+04  0.16334161650E+04  0.25500000920E-02 0.  1.
</event>
<event>
 5   0  0.3814260E-06  0.2503609E+04  0.7818609E-02  0.8401701E-01
        2   -1    0    0  501    0  0.00000000000E+00  0.00000000000E+00  0.22651369334E+04  0.22651369334E+04  0.25500000920E-02 0.  1.
       -2   -1    0    0    0  501  0.00000000000E+00  0.00000000000E+00 -0.69179689748E+03  0.69179689749E+03  0.25500000920E-02 0. -1.
    10030    2    1    2    0    0  0.00000000000E+00  0.00000000000E+00  0.15733400359E+04  0.29569338309E+04  0.25036091571E+04 0.  0.
        5    1    3    3  502    0  0.89087040757E+03  0.99204001852E+02  0.18186705167E+04  0.20275788654E+04  0.46999998093E+01 0.  1.
       -5    1    3    3    0  502 -0.89087040757E+03 -0.99204001852E+02 -0.24533048079E+03  0.92935496549E+03  0.46999998093E+01 0. -1.
</event>
<event>
 5   0  0.1519145E-06  0.2499043E+04  0.7818609E-02  0.8403327E-01
       -1   -1    0    0    0  501  0.00000000000E+00  0.00000000000E+00  0.15395838788E+04  0.15395838788E+04  0.50400001928E-02 0. -1.
        1   -1    0    0  501    0  0.00000000000E+00  0.00000000000E+00 -0.10141076274E+04  0.10141076274E+04  0.50400001928E-02 0.  1.
    10030    2    1    2    0    0  0.00000000000E+00  0.00000000000E+00  0.52547625140E+03  0.25536915062E+04  0.24990428203E+04 0.  0.
        4    1    3    3  502    0 -0.11997660769E+04 -0.34437398388E+03  0.20430317231E+03  0.12648215206E+04  0.12699999809E+01 0.  1.
       -4    1    3    3    0  502  0.11997660769E+04  0.34437398388E+03  0.32117307910E+03  0.12888699855E+04  0.12699999809E+01 0. -1.
</event>
<event>
 5   0  0.3971759E-06  0.2499881E+04  0.7818609E-02  0.8403028E-01
        2   -1    0    0  501    0  0.00000000000E+00  0.00000000000E+00  0.73995970372E+03  0.73995970373E+03  0.25500000920E-02 0.  1.
       -2   -1    0    0    0  501  0.00000000000E+00  0.00000000000E+00 -0.21113999338E+04  0.21113999338E+04  0.25500000920E-02 0. -1.
    10030    2    1    2    0    0  0.00000000000E+00  0.00000000000E+00 -0.13714402301E+04  0.28513596376E+04  0.24998806927E+04 0.  0.
        4    1    3    3  502    0  0.10542152436E+04 -0.53721048916E+03 -0.11453463648E+04  0.16467497678E+04  0.12699999809E+01 0.  1.
       -4    1    3    3    0  502 -0.10542152436E+04  0.53721048916E+03 -0.22609386532E+03  0.12046098698E+04  0.12699999809E+01 0. -1.
</event>
<event>
 5   0  0.1541852E-06  0.2472726E+04  0.7818609E-02  0.8412767E-01
        1   -1    0    0  501    0  0.00000000000E+00  0.00000000000E+00  0.11979396247E+04  0.11979396248E+04  0.50400001928E-02 0.  1.
       -1   -1    0    0    0  501  0.00000000000E+00  0.00000000000E+00 -0.12760183516E+04  0.12760183516E+04  0.50400001928E-02 0. -1.
    10030    2    1    2    0    0  0.00000000000E+00  0.00000000000E+00 -0.78078726818E+02  0.24739579763E+04  0.24727255774E+04 0.  0.
        5    1    3    3  502    0 -0.74775106637E+03  0.41744924342E+03  0.85313110833E+03  0.12088218670E+04  0.46999998093E+01 0.  1.
       -5    1    3    3    0  502  0.74775106637E+03 -0.41744924342E+03 -0.93120983515E+03  0.12651361093E+04  0.46999998093E+01 0. -1.
</event>
<event>
 5   0  0.3924441E-06  0.2498903E+04  0.7818609E-02  0.8403376E-01
        2   -1    0    0  501    0  0.00000000000E+00  0.00000000000E+00  0.10045771745E+04  0.10045771745E+04  0.25500000920E-02 0.  1.
       -2   -1    0    0    0  501  0.00000000000E+00  0.00000000000E+00 -0.15540162098E+04  0.15540162098E+04  0.25500000920E-02 0. -1.
    10030    2    1    2    0    0  0.00000000000E+00  0.00000000000E+00 -0.54943903538E+03  0.25585933843E+04  0.24989031299E+04 0.  0.
        2    1    3    3  502    0 -0.80280819186E+03 -0.84258736372E+03 -0.74019366719E+03  0.13792538285E+04  0.25500000920E-02 0. -1.
       -2    1    3    3    0  502  0.80280819186E+03  0.84258736372E+03  0.19075463182E+03  0.11793395558E+04  0.25500000920E-02 0.  1.
</event>
<event>
 5   0  0.3713394E-06  0.2501061E+04  0.7818609E-02  0.8402607E-01
        2   -1    0    0  501    0  0.00000000000E+00  0.00000000000E+00  0.16818317582E+04  0.16818317582E+04  0.25500000920E-02 0. -1.
       -2   -1    0    0    0  501  0.00000000000E+00  0.00000000000E+00 -0.92983560510E+03  0.92983560511E+03  0.25500000920E-02 0.  1.
    10030    2    1    2    0    0  0.00000000000E+00  0.00000000000E+00  0.75199615307E+03  0.26116673633E+04  0.25010614151E+04 0.  0.
        3    1    3    3  502    0  0.10265669502E+04 -0.18741809559E+03  0.10955748230E+04  0.15130265856E+04  0.10100000352E+00 0. -1.
       -3    1    3    3    0  502 -0.10265669502E+04  0.18741809559E+03 -0.34357866990E+03  0.10986407777E+04  0.10100000352E+00 0.  1.
</event>
<event>
 5   0  0.1501747E-06  0.2520833E+04  0.7818609E-02  0.8395601E-01
        1   -1    0    0  501    0  0.00000000000E+00  0.00000000000E+00  0.11036155217E+04  0.11036155218E+04  0.50400001928E-02 0. -1.
       -1   -1    0    0    0  501  0.00000000000E+00  0.00000000000E+00 -0.14394962269E+04  0.14394962269E+04  0.50400001928E-02 0.  1.
    10030    2    1    2    0    0  0.00000000000E+00  0.00000000000E+00 -0.33588070517E+03  0.25431117487E+04  0.25208334967E+04 0.  0.
        2    1    3    3  502    0 -0.39258010646E+03 -0.48160862619E+03  0.93837530965E+03  0.11254395722E+04  0.25500000920E-02 0. -1.
       -2    1    3    3    0  502  0.39258010646E+03  0.48160862619E+03 -0.12742560148E+04  0.14176721765E+04  0.25500000920E-02 0.  1.
</event>
<event>
 5   0  0.1541852E-06  0.2498585E+04  0.7818609E-02  0.8403490E-01
        1   -1    0    0  501    0  0.00000000000E+00  0.00000000000E+00  0.20296237399E+04  0.20296237399E+04  0.50400001928E-02 0.  1.
       -1   -1    0    0    0  501  0.00000000000E+00  0.00000000000E+00 -0.76897598929E+03  0.76897598931E+03  0.50400001928E-02 0. -1.
    10030    2    1    2    0    0  0.00000000000E+00  0.00000000000E+00  0.12606477506E+04  0.27985997292E+04  0.24985851383E+04 0.  0.
        5    1    3    3  502    0 -0.40356202146E+03 -0.99937136987E+03 -0.77279489706E+02  0.10805552506E+04  0.46999998093E+01 0. -1.
       -5    1    3    3    0  502  0.40356202146E+03  0.99937136987E+03  0.13379272403E+04  0.17180444786E+04  0.46999998093E+01 0.  1.
</event>
<event>
 5   0  0.3713394E-06  0.2555647E+04  0.7818609E-02  0.8383425E-01
        2   -1    0    0  501    0  0.00000000000E+00  0.00000000000E+00  0.17389496492E+04  0.17389496492E+04  0.25500000920E-02 0. -1.
       -2   -1    0    0    0  501  0.00000000000E+00  0.00000000000E+00 -0.93897653395E+03  0.93897653395E+03  0.25500000920E-02 0.  1.
    10030    2    1    2    0    0  0.00000000000E+00  0.00000000000E+00  0.79997311529E+03  0.26779261832E+04  0.25556470135E+04 0.  0.
        3    1    3    3  502    0 -0.53092121256E+03  0.89589947387E+03 -0.37592935520E+03  0.11071748243E+04  0.10100000352E+00 0.  1.
       -3    1    3    3    0  502  0.53092121256E+03 -0.89589947387E+03  0.11759024705E+04  0.15707513589E+04  0.10100000352E+00 0. -1.
</event>
<event>
 5   0  0.3713394E-06  0.2509954E+04  0.7818609E-02  0.8399448E-01
        2   -1    0    0  501    0  0.00000000000E+00  0.00000000000E+00  0.14503525913E+04  0.14503525913E+04  0.25500000920E-02 0.  1.
       -2   -1    0    0    0  501  0.00000000000E+00  0.00000000000E+00 -0.10859203242E+04  0.10859203242E+04  0.25500000920E-02 0. -1.
    10030    2    1    2    0    0  0.00000000000E+00  0.00000000000E+00  0.36443226710E+03  0.25362729155E+04  0.25099540682E+04 0.  0.
        3    1    3    3  502    0 -0.65260623235E+03  0.21031266776E+03  0.12443520811E+04  0.14207527669E+04  0.10100000352E+00 0.  1.
       -3    1    3    3    0  502  0.65260623235E+03 -0.21031266776E+03 -0.87991981396E+03  0.11155201486E+04  0.10100000352E+00 0. -1.
</event>
<event>
 5   0  0.3924441E-06  0.2536725E+04  0.7818609E-02  0.8390018E-01
        2   -1    0    0  501    0  0.00000000000E+00  0.00000000000E+00  0.12884437218E+04  0.12884437219E+04  0.25500000920E-02 0. -1.
       -2   -1    0    0    0  501  0.00000000000E+00  0.00000000000E+00 -0.12485942946E+04  0.12485942946E+04  0.25500000920E-02 0.  1.
    10030    2    1    2    0    0  0.00000000000E+00  0.00000000000E+00  0.39849427272E+02  0.25370380164E+04  0.25367250383E+04 0.  0.
        2    1    3    3  502    0  0.65128268501E+03  0.30962278846E+03 -0.10236157679E+04  0.12521280475E+04  0.25500000920E-02 0.  1.
       -2    1    3    3    0  502 -0.65128268501E+03 -0.30962278846E+03  0.10634651952E+04  0.12849099690E+04  0.25500000920E-02 0. -1.
</event>
<event>
 5   0  0.1553604E-06  0.2492350E+04  0.7818609E-02  0.8405716E-01
        1   -1    0    0  501    0  0.00000000000E+00  0.00000000000E+00  0.98028127829E+03  0.98028127830E+03  0.50400001928E-02 0.  1.
       -1   -1    0    0    0  501  0.00000000000E+00  0.00000000000E+00 -0.15841900992E+04  0.15841900992E+04  0.50400001928E-02 0. -1.
    10030    2    1    2    0    0  0.00000000000E+00  0.00000000000E+00 -0.60390882087E+03  0.25644713775E+04  0.24923498113E+04 0.  0.
        1    1    3    3  502    0  0.47379553796E+03  0.92014098073E+03  0.41225715829E+03  0.11140456009E+04  0.50400001928E-02 0.  1.
       -1    1    3    3    0  502 -0.47379553796E+03 -0.92014098073E+03 -0.10161659792E+04  0.14504257766E+04  0.50400001928E-02 0. -1.
</event>
<event>
 5   0  0.3971759E-06  0.2494549E+04  0.7818609E-02  0.8404930E-01
       -2   -1    0    0    0  501  0.00000000000E+00  0.00000000000E+00  0.12202446925E+04  0.12202446925E+04  0.25500000920E-02 0.  1.
        2   -1    0    0  501    0  0.00000000000E+00  0.00000000000E+00 -0.12749028367E+04  0.12749028367E+04  0.25500000920E-02 0. -1.
    10030    2    1    2    0    0  0.00000000000E+00  0.00000000000E+00 -0.54658144292E+02  0.24951475292E+04  0.24945487928E+04 0.  0.
        4    1    3    3  502    0 -0.96102028957E+03  0.77452778964E+03  0.15226488834E+03  0.12436396194E+04  0.12699999809E+01 0.  1.
       -4    1    3    3    0  502  0.96102028957E+03 -0.77452778964E+03 -0.20692303263E+03  0.12515079098E+04  0.12699999809E+01 0. -1.
</event>
<event>
 5   0  0.3713394E-06  0.2501680E+04  0.7818609E-02  0.8402387E-01
        2   -1    0    0  501    0  0.00000000000E+00  0.00000000000E+00  0.13851178987E+04  0.13851178987E+04  0.25500000920E-02 0. -1.
       -2   -1    0    0    0  501  0.00000000000E+00  0.00000000000E+00 -0.11295792803E+04  0.11295792803E+04  0.25500000920E-02 0.  1.
    10030    2    1    2    0    0  0.00000000000E+00  0.00000000000E+00  0.25553861840E+03  0.25146971789E+04  0.25016798189E+04 0.  0.
        3    1    3    3  502    0 -0.36168149498E+03  0.93866123539E+03 -0.61953847712E+03  0.11814086310E+04  0.10100000352E+00 0.  1.
       -3    1    3    3    0  502  0.36168149498E+03 -0.93866123539E+03  0.87507709552E+03  0.13332885479E+04  0.10100000352E+00 0. -1.
</event>
<event>
 5   0  0.1501747E-06  0.2504828E+04  0.7818609E-02  0.8401267E-01
        1   -1    0    0  501    0  0.00000000000E+00  0.00000000000E+00  0.98209714909E+03  0.98209714910E+03  0.50400001928E-02 0.  1.
       -1   -1    0    0    0  501  0.00000000000E+00  0.00000000000E+00 -0.15971345148E+04  0.15971345149E+04  0.50400001928E-02 0. -1.
    10030    2    1    2    0    0  0.00000000000E+00  0.00000000000E+00 -0.61503736576E+03  0.25792316640E+04  0.25048283404E+04 0.  0.
        2    1    3    3  502    0  0.56599722159E+03 -0.38740546380E+03 -0.13865508660E+04  0.15469192455E+04  0.25500000920E-02 0. -1.
       -2    1    3    3    0  502 -0.56599722159E+03  0.38740546380E+03  0.77151350022E+03  0.10323124184E+04  0.25500000920E-02 0.  1.
</event>
<event>
 5   0  0.1553604E-06  0.2502626E+04  0.7818609E-02  0.8402051E-01
        1   -1    0    0  501    0  0.00000000000E+00  0.00000000000E+00  0.16252602730E+04  0.16252602730E+04  0.50400001928E-02 0. -1.
       -1   -1    0    0    0  501  0.00000000000E+00  0.00000000000E+00 -0.96340499723E+03  0.96340499725E+03  0.50400001928E-02 0.  1.
    10030    2    1    2    0    0  0.00000000000E+00  0.00000000000E+00  0.66185527576E+03  0.25886652702E+04  0.25026257162E+04 0.  0.
        1    1    3    3  502    0 -0.57033050817E+03 -0.35408539416E+03 -0.76137465224E+03  0.10150589717E+04  0.50400001928E-02 0.  1.
       -1    1    3    3    0  502  0.57033050817E+03  0.35408539416E+03  0.14232299280E+04  0.15736062986E+04  0.50400001928E-02 0. -1.
</event>
<event>
 5   0  0.3808293E-06  0.2498623E+04  0.7818609E-02  0.8403476E-01
        2   -1    0    0  501    0  0.00000000000E+00  0.00000000000E+00  0.15378082968E+04  0.15378082968E+04  0.25500000920E-02 0. -1.
       -2   -1    0    0    0  501  0.00000000000E+00  0.00000000000E+00 -0.10149376988E+04  0.10149376988E+04  0.25500000920E-02 0.  1.
    10030    2    1    2    0    0  0.00000000000E+00  0.00000000000E+00  0.52287059805E+03  0.25527459956E+04  0.24986233121E+04 0.  0.
        1    1    3    3  502    0 -0.58274729806E+03 -0.10069111371E+04  0.72661670740E+03  0.13716545815E+04  0.50400001928E-02 0. -1.
       -1    1    3    3    0  502  0.58274729806E+03  0.10069111371E+04 -0.20374610935E+03  0.11810914141E+04  0.50400001928E-02 0.  1.
</event>
<event>
 5   0  0.1541852E-06  0.2496959E+04  0.7818609E-02  0.8404070E-01
        1   -1    0    0  501    0  0.00000000000E+00  0.00000000000E+00  0.16263237132E+04  0.16263237132E+04  0.50400001928E-02 0.  1.
       -1   -1    0    0    0  501  0.00000000000E+00  0.00000000000E+00 -0.95841987888E+03  0.95841987890E+03  0.50400001928E-02 0. -1.
    10030    2    1    2    0    0  0.00000000000E+00  0.00000000000E+00  0.66790383431E+03  0.25847435921E+04  0.24969589314E+04 0.  0.
        5    1    3    3  502    0 -0.48034555434E+03 -0.10785634482E+04 -0.86081841040E+02  0.11838340833E+04  0.46999998093E+01 0. -1.
       -5    1    3    3    0  502  0.48034555434E+03  0.10785634482E+04  0.75398567535E+03  0.14009095088E+04  0.46999998093E+01 0.  1.
</event>
<event>
 5   0  0.1553604E-06  0.2497542E+04  0.7818609E-02  0.8403862E-01
       -1   -1    0    0    0  501  0.00000000000E+00  0.00000000000E+00  0.14564865359E+04  0.14564865359E+04  0.50400001928E-02 0. -1.
        1   -1    0    0  501    0  0.00000000000E+00  0.00000000000E+00 -0.10706786412E+04  0.10706786412E+04  0.50400001928E-02 0.  1.
    10030    2    1    2    0    0  0.00000000000E+00  0.00000000000E+00  0.38580789473E+03  0.25271651771E+04  0.24975420118E+04 0.  0.
        1    1    3    3  502    0 -0.14786996906E+03  0.11145662607E+04 -0.35696175210E+03  0.11796377282E+04  0.50400001928E-02 0.  1.
       -1    1    3    3    0  502  0.14786996906E+03 -0.11145662607E+04  0.74276964684E+03  0.13475274489E+04  0.50400001928E-02 0. -1.
</event>
<event>
 5   0  0.3713394E-06  0.2495815E+04  0.7818609E-02  0.8404478E-01
       -2   -1    0    0    0  501  0.00000000000E+00  0.00000000000E+00  0.18492568068E+04  0.18492568068E+04  0.25500000920E-02 0. -1.
        2   -1    0    0  501    0  0.00000000000E+00  0.00000000000E+00 -0.84210736119E+03  0.84210736120E+03  0.25500000920E-02 0.  1.
    10030    2    1    2    0    0  0.00000000000E+00  0.00000000000E+00  0.10071494456E+04  0.26913641680E+04  0.24958147125E+04 0.  0.
        3    1    3    3  502    0  0.87098553333E+03  0.61045436195E+03  0.12074021147E+04  0.16090650093E+04  0.10100000352E+00 0. -1.
       -3    1    3    3    0  502 -0.87098553333E+03 -0.61045436195E+03 -0.20025266908E+03  0.10822991587E+04  0.10100000352E+00 0.  1.
</event>
<event>
 5   0  0.1553604E-06  0.2491923E+04  0.7818609E-02  0.8405869E-01
       -1   -1    0    0    0  501  0.00000000000E+00  0.00000000000E+00  0.10137676501E+04  0.10137676501E+04  0.50400001928E-02 0. -1.
        1   -1    0    0  501    0  0.00000000000E+00  0.00000000000E+00 -0.15313366538E+04  0.15313366538E+04  0.50400001928E-02 0.  1.
    10030    2    1    2    0    0  0.00000000000E+00  0.00000000000E+00 -0.51756900371E+03  0.25451043040E+04  0.24919226000E+04 0.  0.
        1    1    3    3  502    0  0.34391086703E+02 -0.91681203885E+03  0.60223284765E+03  0.10974568166E+04  0.50400001928E-02 0. -1.
       -1    1    3    3    0  502 -0.34391086703E+02  0.91681203885E+03 -0.11198018514E+04  0.14476474874E+04  0.50400001928E-02 0.  1.
</event>
<event>
 5   0  0.1553604E-06  0.2501028E+04  0.7818609E-02  0.8402619E-01
        1   -1    0    0  501    0  0.00000000000E+00  0.00000000000E+00  0.17845886000E+04  0.17845886000E+04  0.50400001928E-02 0. -1.
       -1   -1    0    0    0  501  0.00000000000E+00  0.00000000000E+00 -0.87627227123E+03  0.87627227125E+03  0.50400001928E-02 0.  1.
    10030    2    1    2    0    0  0.00000000000E+00  0.00000000000E+00  0.90831632872E+03  0.26608608712E+04  0.25010281932E+04 0.  0.
        1    1    3    3  502    0 -0.63289203486E+03  0.58797377293E+02  0.15999102253E+04  0.17215464525E+04  0.50400001928E-02 0. -1.
       -1    1    3    3    0  502  0.63289203486E+03 -0.58797377293E+02 -0.69159389654E+03  0.93931441867E+03  0.50400001928E-02 0.  1.
</event>
<event>
 5   0  0.1501747E-06  0.2496744E+04  0.7818609E-02  0.8404147E-01
        1   -1    0    0  501    0  0.00000000000E+00  0.00000000000E+00  0.14130354163E+04  0.14130354163E+04  0.50400001928E-02 0.  1.
       -1   -1    0    0    0  501  0.00000000000E+00  0.00000000000E+00 -0.11028966760E+04  0.11028966760E+04  0.50400001928E-02 0. -1.
    10030    2    1    2    0    0  0.00000000000E+00  0.00000000000E+00  0.31013874030E+03  0.25159320922E+04  0.24967435300E+04 0.  0.
        2    1    3    3  502    0 -0.65035178735E+03  0.33781497150E+03  0.11734578596E+04  0.13835027107E+04  0.25500000920E-02 0.  1.
       -2    1    3    3    0  502  0.65035178735E+03 -0.33781497150E+03 -0.86331911933E+03  0.11324293815E+04  0.25500000920E-02 0. -1.
</event>
<event>
 5   0  0.3808293E-06  0.2502411E+04  0.7818609E-02  0.8402127E-01
       -2   -1    0    0    0  501  0.00000000000E+00  0.00000000000E+00  0.12554712414E+04  0.12554712414E+04  0.25500000920E-02 0. -1.
        2   -1    0    0  501    0  0.00000000000E+00  0.00000000000E+00 -0.12469539530E+04  0.12469539530E+04  0.25500000920E-02 0.  1.
    10030    2    1    2    0    0  0.00000000000E+00  0.00000000000E+00  0.85172883953E+01  0.25024251944E+04  0.25024106996E+04 0.  0.
        1    1    3    3  502    0 -0.62674675253E+03 -0.86720289526E+01 -0.10786271836E+04  0.12475268723E+04  0.50400001928E-02 0.  1.
       -1    1    3    3    0  502  0.62674675253E+03  0.86720289526E+01  0.10871444720E+04  0.12548983221E+04  0.50400001928E-02 0. -1.
</event>
<event>
 5   0  0.1287375E-06  0.2511369E+04  0.7818609E-02  0.8398946E-01
        3   -1    0    0  501    0  0.00000000000E+00  0.00000000000E+00  0.18059454026E+04  0.18059454054E+04  0.10100000352E+00 0. -1.
       -3   -1    0    0    0  501  0.00000000000E+00  0.00000000000E+00 -0.87308486912E+03  0.87308487496E+03  0.10100000352E+00 0.  1.
    10030    2    1    2    0    0  0.00000000000E+00  0.00000000000E+00  0.93286053347E+03  0.26790302804E+04  0.25113690426E+04 0.  0.
        3    1    3    3  502    0 -0.47540478878E+03 -0.17422703566E+03 -0.75936054821E+03  0.91268462545E+03  0.10100000352E+00 0.  1.
       -3    1    3    3    0  502  0.47540478878E+03  0.17422703566E+03  0.16922210817E+04  0.17663456549E+04  0.10100000352E+00 0. -1.
</event>
<event>
 5   0  0.3713394E-06  0.2509515E+04  0.7818609E-02  0.8399604E-01
       -2   -1    0    0    0  501  0.00000000000E+00  0.00000000000E+00  0.79452751673E+03  0.79452751674E+03  0.25500000920E-02 0.  1.
        2   -1    0    0  501    0  0.00000000000E+00  0.00000000000E+00 -0.19815752656E+04  0.19815752656E+04  0.25500000920E-02 0. -1.
    10030    2    1    2    0    0  0.00000000000E+00  0.00000000000E+00 -0.11870477489E+04  0.27761027824E+04  0.25095147539E+04 0.  0.
        3    1    3    3  502    0  0.54177685145E+03 -0.11627830651E+03  0.65184514735E+03  0.85553778856E+03  0.10100000352E+00 0.  1.
       -3    1    3    3    0  502 -0.54177685145E+03  0.11627830651E+03 -0.18388928962E+04  0.19205649938E+04  0.10100000352E+00 0. -1.
</event>
<event>
 5   0  0.3924441E-06  0.2498389E+04  0.7818609E-02  0.8403560E-01
        2   -1    0    0  501    0  0.00000000000E+00  0.00000000000E+00  0.16989838742E+04  0.16989838742E+04  0.25500000920E-02 0. -1.
       -2   -1    0    0    0  501  0.00000000000E+00  0.00000000000E+00 -0.91848234279E+03  0.91848234279E+03  0.25500000920E-02 0.  1.
    10030    2    1    2    0    0  0.00000000000E+00  0.00000000000E+00  0.78050153141E+03  0.26174662170E+04  0.24983888321E+04 0.  0.
        2    1    3    3  502    0 -0.59842509529E+03  0.78359130898E+03  0.11938549053E+04  0.15483596059E+04  0.25500000920E-02 0. -1.
       -2    1    3    3    0  502  0.59842509529E+03 -0.78359130898E+03 -0.41335337391E+03  0.10691066111E+04  0.25500000920E-02 0.  1.
</event>
<event>
 5   0  0.3808293E-06  0.2506213E+04  0.7818609E-02  0.8400775E-01
        2   -1    0    0  501    0  0.00000000000E+00  0.00000000000E+00  0.20564385361E+04  0.20564385361E+04  0.25500000920E-02 0. -1.
       -2   -1    0    0    0  501  0.00000000000E+00  0.00000000000E+00 -0.76359004055E+03  0.76359004056E+03  0.25500000920E-02 0.  1.
    10030    2    1    2    0    0  0.00000000000E+00  0.00000000000E+00  0.12928484956E+04  0.28200285767E+04  0.25062130677E+04 0.  0.
        1    1    3    3  502    0 -0.23767851237E+02  0.39326110378E+03  0.19849368122E+04  0.20236584087E+04  0.50400001928E-02 0. -1.
       -1    1    3    3    0  502  0.23767851237E+02 -0.39326110378E+03 -0.69208831662E+03  0.79637016803E+03  0.50400001928E-02 0.  1.
</event>
<event>
 5   0  0.3713394E-06  0.2501687E+04  0.7818609E-02  0.8402385E-01
        2   -1    0    0  501    0  0.00000000000E+00  0.00000000000E+00  0.82697478496E+03  0.82697478496E+03  0.25500000920E-02 0.  1.
       -2   -1    0    0    0  501  0.00000000000E+00  0.00000000000E+00 -0.18919678091E+04  0.18919678091E+04  0.25500000920E-02 0. -1.
    10030    2    1    2    0    0  0.00000000000E+00  0.00000000000E+00 -0.10649930241E+04  0.27189425940E+04  0.25016871683E+04 0.  0.
        3    1    3    3  502    0 -0.43413645964E+03  0.11177448359E+04 -0.14551048397E+03  0.12078912595E+04  0.10100000352E+00 0. -1.
       -3    1    3    3    0  502  0.43413645964E+03 -0.11177448359E+04 -0.91948254013E+03  0.15110513345E+04  0.10100000352E+00 0.  1.
</event>
<event>
 5   0  0.1553604E-06  0.2459516E+04  0.7818609E-02  0.8417552E-01
        1   -1    0    0  501    0  0.00000000000E+00  0.00000000000E+00  0.10683357906E+04  0.10683357906E+04  0.50400001928E-02 0.  1.
       -1   -1    0    0    0  501  0.00000000000E+00  0.00000000000E+00 -0.14155700844E+04  0.14155700844E+04  0.50400001928E-02 0. -1.
    10030    2    1    2    0    0  0.00000000000E+00  0.00000000000E+00 -0.34723429382E+03  0.24839058751E+04  0.24595155501E+04 0.  0.
        1    1    3    3  502    0  0.11026299087E+04 -0.52876492698E+03 -0.30498057401E+03  0.12603167118E+04  0.50400001928E-02 0. -1.
       -1    1    3    3    0  502 -0.11026299087E+04  0.52876492698E+03 -0.42253719813E+02  0.12235891632E+04  0.50400001928E-02 0.  1.
</event>
<event>
 5   0  0.1287375E-06  0.2507835E+04  0.7818609E-02  0.8400200E-01
       -3   -1    0    0    0  501  0.00000000000E+00  0.00000000000E+00  0.94032029473E+03  0.94032030016E+03  0.10100000352E+00 0. -1.
        3   -1    0    0  501    0  0.00000000000E+00  0.00000000000E+00 -0.16720997062E+04  0.16720997093E+04  0.10100000352E+00 0.  1.
    10030    2    1    2    0    0  0.00000000000E+00  0.00000000000E+00 -0.73177941147E+03  0.26124200094E+04  0.25078351618E+04 0.  0.
        1    1    3    3  502    0 -0.10967095819E+04 -0.14198350731E+02 -0.99896405474E+03  0.14835439605E+04  0.50400001928E-02 0.  1.
       -1    1    3    3    0  502  0.10967095819E+04  0.14198350731E+02  0.26718464327E+03  0.11288760489E+04  0.50400001928E-02 0. -1.
</event>
<event>
 5   0  0.3971759E-06  0.2507079E+04  0.7818609E-02  0.8400468E-01
        2   -1    0    0  501    0  0.00000000000E+00  0.00000000000E+00  0.25603273094E+04  0.25603273094E+04  0.25500000920E-02 0. -1.
       -2   -1    0    0    0  501  0.00000000000E+00  0.00000000000E+00 -0.61373474572E+03  0.61373474573E+03  0.25500000920E-02 0.  1.
    10030    2    1    2    0    0  0.00000000000E+00  0.00000000000E+00  0.19465925637E+04  0.31740620551E+04  0.25070794405E+04 0.  0.
        4    1    3    3  502    0 -0.50839124950E+03  0.17819513081E+03 -0.45970463847E+03  0.70819851365E+03  0.12699999809E+01 0.  1.
       -4    1    3    3    0  502  0.50839124950E+03 -0.17819513081E+03  0.24062972021E+04  0.24658635415E+04  0.12699999809E+01 0. -1.
</event>
<event>
 5   0  0.3924441E-06  0.2504994E+04  0.7818609E-02  0.8401208E-01
        2   -1    0    0  501    0  0.00000000000E+00  0.00000000000E+00  0.22539246839E+04  0.22539246839E+04  0.25500000920E-02 0.  1.
       -2   -1    0    0    0  501  0.00000000000E+00  0.00000000000E+00 -0.69600786328E+03  0.69600786328E+03  0.25500000920E-02 0. -1.
    10030    2    1    2    0    0  0.00000000000E+00  0.00000000000E+00  0.15579168206E+04  0.29499325472E+04  0.25049944537E+04 0.  0.
        2    1    3    3  502    0 -0.12388987442E+04 -0.58098306453E+02  0.98463375289E+03  0.15835874270E+04  0.25500000920E-02 0.  1.
       -2    1    3    3    0  502  0.12388987442E+04  0.58098306453E+02  0.57328306770E+03  0.13663451201E+04  0.25500000920E-02 0. -1.
</event>
<event>
 5   0  0.1501747E-06  0.2497054E+04  0.7818609E-02  0.8404036E-01
        1   -1    0    0  501    0  0.00000000000E+00  0.00000000000E+00  0.16307256755E+04  0.16307256756E+04  0.50400001928E-02 0. -1.
       -1   -1    0    0    0  501  0.00000000000E+00  0.00000000000E+00 -0.95590554952E+03  0.95590554953E+03  0.50400001928E-02 0.  1.
    10030    2    1    2    0    0  0.00000000000E+00  0.00000000000E+00  0.67482012602E+03  0.25866312251E+04  0.24970540427E+04 0.  0.
        2    1    3    3  502    0  0.83121300120E+02  0.11596412198E+04  0.80886643514E+03  0.14163127547E+04  0.25500000920E-02 0.  1.
       -2    1    3    3    0  502 -0.83121300120E+02 -0.11596412198E+04 -0.13404630912E+03  0.11703184704E+04  0.25500000920E-02 0. -1.
</event>
<event>
 5   0  0.1501747E-06  0.2497204E+04  0.7818609E-02  0.8403982E-01
       -1   -1    0    0    0  501  0.00000000000E+00  0.00000000000E+00  0.10174228591E+04  0.10174228591E+04  0.50400001928E-02 0. -1.
        1   -1    0    0  501    0  0.00000000000E+00  0.00000000000E+00 -0.15323095053E+04  0.15323095053E+04  0.50400001928E-02 0.  1.
    10030    2    1    2    0    0  0.00000000000E+00  0.00000000000E+00 -0.51488664622E+03  0.25497323644E+04  0.24972038105E+04 0.  0.
        2    1    3    3  502    0  0.10199005624E+04  0.63111203494E+03  0.97000190833E+02  0.12032907358E+04  0.25500000920E-02 0.  1.
       -2    1    3    3    0  502 -0.10199005624E+04 -0.63111203494E+03 -0.61188683706E+03  0.13464416286E+04  0.25500000920E-02 0. -1.
</event>
<event>
 5   0  0.3808293E-06  0.2504932E+04  0.7818609E-02  0.8401231E-01
       -2   -1    0    0    0  501  0.00000000000E+00  0.00000000000E+00  0.11129823549E+04  0.11129823549E+04  0.25500000920E-02 0.  1.
        2   -1    0    0  501    0  0.00000000000E+00  0.00000000000E+00 -0.14094300619E+04  0.14094300620E+04  0.25500000920E-02 0. -1.
    10030    2    1    2    0    0  0.00000000000E+00  0.00000000000E+00 -0.29644770706E+03  0.25224124168E+04  0.25049317671E+04 0.  0.
        1    1    3    3  502    0 -0.10732079223E+04 -0.57367006343E+03  0.15015154323E+03  0.12261394994E+04  0.50400001928E-02 0. -1.
       -1    1    3    3    0  502  0.10732079223E+04  0.57367006343E+03 -0.44659925029E+03  0.12962729174E+04  0.50400001928E-02 0.  1.
</event>
<event>
 5   0  0.1553604E-06  0.2498246E+04  0.7818609E-02  0.8403611E-01
       -1   -1    0    0    0  501  0.00000000000E+00  0.00000000000E+00  0.91703171295E+03  0.91703171296E+03  0.50400001928E-02 0. -1.
        1   -1    0    0  501    0  0.00000000000E+00  0.00000000000E+00 -0.17014771052E+04  0.17014771052E+04  0.50400001928E-02 0.  1.
    10030    2    1    2    0    0  0.00000000000E+00  0.00000000000E+00 -0.78444539226E+03  0.26185088182E+04  0.24982461563E+04 0.  0.
        1    1    3    3  502    0  0.59381912475E+03  0.26046063507E+03  0.72680851979E+03  0.97401823382E+03  0.50400001928E-02 0. -1.
       -1    1    3    3    0  502 -0.59381912475E+03 -0.26046063507E+03 -0.15112539120E+04  0.16444905844E+04  0.50400001928E-02 0.  1.
</event>
<event>
 5   0  0.1541852E-06  0.2498637E+04  0.7818609E-02  0.8403471E-01
       -1   -1    0    0    0  501  0.00000000000E+00  0.00000000000E+00  0.79927325071E+03  0.79927325073E+03  0.50400001928E-02 0. -1.
        1   -1    0    0  501    0  0.00000000000E+00  0.00000000000E+00 -0.19527699287E+04  0.19527699287E+04  0.50400001928E-02 0.  1.
    10030    2    1    2    0    0  0.00000000000E+00  0.00000000000E+00 -0.11534966780E+04  0.27520431795E+04  0.24986370436E+04 0.  0.
        5    1    3    3  502    0 -0.10159308867E+04 -0.71141156399E+03 -0.74215436637E+03  0.14453501906E+04  0.46999998093E+01 0.  1.
       -5    1    3    3    0  502  0.10159308867E+04  0.71141156399E+03 -0.41134231165E+03  0.13066929889E+04  0.46999998093E+01 0. -1.
</event>
<event>
 5   0  0.1553604E-06  0.2501971E+04  0.7818609E-02  0.8402284E-01
        1   -1    0    0  501    0  0.00000000000E+00  0.00000000000E+00  0.11120694287E+04  0.11120694287E+04  0.50400001928E-02 0. -1.
       -1   -1    0    0    0  501  0.00000000000E+00  0.00000000000E+00 -0.14072542122E+04  0.14072542122E+04  0.50400001928E-02 0.  1.
    10030    2    1    2    0    0  0.00000000000E+00  0.00000000000E+00 -0.29518478352E+03  0.25193236409E+04  0.25019707334E+04 0.  0.
        1    1    3    3  502    0  0.97899861530E+03  0.60240624415E+03 -0.64460754417E+03  0.13178962242E+04  0.50400001928E-02 0. -1.
       -1    1    3    3    0  502 -0.97899861530E+03 -0.60240624415E+03  0.34942276066E+03  0.12014274166E+04  0.50400001928E-02 0.  1.
</event>
<event>
 5   0  0.1574896E-06  0.2505828E+04  0.7818609E-02  0.8400912E-01
        1   -1    0    0  501    0  0.00000000000E+00  0.00000000000E+00  0.24415916397E+04  0.24415916397E+04  0.50400001928E-02 0. -1.
       -1   -1    0    0    0  501  0.00000000000E+00  0.00000000000E+00 -0.64293846203E+03  0.64293846205E+03  0.50400001928E-02 0.  1.
    10030    2    1    2    0    0  0.00000000000E+00  0.00000000000E+00  0.17986531776E+04  0.30845301017E+04  0.25058277465E+04 0.  0.
        3    1    3    3  502    0 -0.29553490641E+03 -0.96532947189E+03  0.18127086311E+04  0.20748769751E+04  0.10100000352E+00 0. -1.
       -3    1    3    3    0  502  0.29553490641E+03  0.96532947189E+03 -0.14055453453E+02  0.10096531267E+04  0.10100000352E+00 0.  1.
</event>
<event>
 5   0  0.3713394E-06  0.2496529E+04  0.7818609E-02  0.8404223E-01
        2   -1    0    0  501    0  0.00000000000E+00  0.00000000000E+00  0.14047778136E+04  0.14047778136E+04  0.25500000920E-02 0.  1.
       -2   -1    0    0    0  501  0.00000000000E+00  0.00000000000E+00 -0.11091889660E+04  0.11091889660E+04  0.25500000920E-02 0. -1.
    10030    2    1    2    0    0  0.00000000000E+00  0.00000000000E+00  0.29558884759E+03  0.25139667796E+04  0.24965288306E+04 0.  0.
        3    1    3    3  502    0 -0.24873636418E+03 -0.86516241697E+03  0.10185820882E+04  0.13593694373E+04  0.10100000352E+00 0.  1.
       -3    1    3    3    0  502  0.24873636418E+03  0.86516241697E+03 -0.72299324059E+03  0.11545973423E+04  0.10100000352E+00 0. -1.
</event>
<event>
 5   0  0.3808293E-06  0.2495011E+04  0.7818609E-02  0.8404765E-01
       -2   -1    0    0    0  501  0.00000000000E+00  0.00000000000E+00  0.11077824120E+04  0.11077824120E+04  0.25500000920E-02 0. -1.
        2   -1    0    0  501    0  0.00000000000E+00  0.00000000000E+00 -0.14048512692E+04  0.14048512692E+04  0.25500000920E-02 0.  1.
    10030    2    1    2    0    0  0.00000000000E+00  0.00000000000E+00 -0.29706885715E+03  0.25126336812E+04  0.24950106433E+04 0.  0.
        1    1    3    3  502    0 -0.13561732897E+03 -0.42150470943E+03 -0.13230531815E+04  0.13951802755E+04  0.50400001928E-02 0.  1.
       -1    1    3    3    0  502  0.13561732897E+03  0.42150470943E+03  0.10259843244E+04  0.11174534057E+04  0.50400001928E-02 0. -1.
</event>
<event>
 5   0  0.1287375E-06  0.2501100E+04  0.7818609E-02  0.8402594E-01
        3   -1    0    0  501    0  0.00000000000E+00  0.00000000000E+00  0.99275170964E+03  0.99275171478E+03  0.10100000352E+00 0.  1.
       -3   -1    0    0    0  501  0.00000000000E+00  0.00000000000E+00 -0.15752941008E+04  0.15752941040E+04  0.10100000352E+00 0. -1.
    10030    2    1    2    0    0  0.00000000000E+00  0.00000000000E+00 -0.58254239111E+03  0.25680458188E+04  0.25011004958E+04 0.  0.
        5    1    3    3  502    0 -0.36101945969E+03  0.10379682229E+04 -0.90401998307E+03  0.14230204854E+04  0.46999998093E+01 0. -1.
       -5    1    3    3    0  502  0.36101945969E+03 -0.10379682229E+04  0.32147759196E+03  0.11450253334E+04  0.46999998093E+01 0.  1.
</event>
<event>
 5   0  0.3971759E-06  0.2499631E+04  0.7818609E-02  0.8403117E-01
        2   -1    0    0  501    0  0.00000000000E+00  0.00000000000E+00  0.16110580037E+04  0.16110580037E+04  0.25500000920E-02 0. -1.
       -2   -1    0    0    0  501  0.00000000000E+00  0.00000000000E+00 -0.96957293314E+03  0.96957293314E+03  0.25500000920E-02 0.  1.
    10030    2    1    2    0    0  0.00000000000E+00  0.00000000000E+00  0.64148507059E+03  0.25806309369E+04  0.24996305600E+04 0.  0.
        4    1    3    3  502    0 -0.11113859920E+04  0.44079391599E+02 -0.26774168789E+03  0.11440319228E+04  0.12699999809E+01 0.  1.
       -4    1    3    3    0  502  0.11113859920E+04 -0.44079391599E+02  0.90922675848E+03  0.14365990141E+04  0.12699999809E+01 0. -1.
</event>
<event>
 5   0  0.1501747E-06  0.2507280E+04  0.7818609E-02  0.8400397E-01
       -1   -1    0    0    0  501  0.00000000000E+00  0.00000000000E+00  0.12314614121E+04  0.12314614121E+04  0.50400001928E-02 0. -1.
        1   -1    0    0  501    0  0.00000000000E+00  0.00000000000E+00 -0.12762180321E+04  0.12762180321E+04  0.50400001928E-02 0.  1.
    10030    2    1    2    0    0  0.00000000000E+00  0.00000000000E+00 -0.44756619945E+02  0.25076794442E+04  0.25072800083E+04 0.  0.
        2    1    3    3  502    0  0.45571572024E+03  0.88242487285E+03 -0.78752488279E+03  0.12674959230E+04  0.25500000920E-02 0.  1.
       -2    1    3    3    0  502 -0.45571572024E+03 -0.88242487285E+03  0.74276826284E+03  0.12401835212E+04  0.25500000920E-02 0. -1.
</event>
<event>
 5   0  0.3814260E-06  0.2494141E+04  0.7818609E-02  0.8405076E-01
        2   -1    0    0  501    0  0.00000000000E+00  0.00000000000E+00  0.16027447204E+04  0.16027447204E+04  0.25500000920E-02 0. -1.
       -2   -1    0    0    0  501  0.00000000000E+00  0.00000000000E+00 -0.97032567009E+03  0.97032567010E+03  0.25500000920E-02 0.  1.
    10030    2    1    2    0    0  0.00000000000E+00  0.00000000000E+00  0.63241905029E+03  0.25730703905E+04  0.24941406093E+04 0.  0.
        5    1    3    3  502    0  0.82065354357E+03 -0.48751457334E+03 -0.51169500989E+03  0.10830496623E+04  0.46999998093E+01 0.  1.
       -5    1    3    3    0  502 -0.82065354357E+03  0.48751457334E+03  0.11441140602E+04  0.14900207282E+04  0.46999998093E+01 0. -1.
</event>
<event>
 5   0  0.3814260E-06  0.2500534E+04  0.7818609E-02  0.8402795E-01
       -2   -1    0    0    0  501  0.00000000000E+00  0.00000000000E+00  0.10104109741E+04  0.10104109741E+04  0.25500000920E-02 0. -1.
        2   -1    0    0  501    0  0.00000000000E+00  0.00000000000E+00 -0.15470610134E+04  0.15470610134E+04  0.25500000920E-02 0.  1.
    10030    2    1    2    0    0  0.00000000000E+00  0.00000000000E+00 -0.53665003930E+03  0.25574719875E+04  0.25005338834E+04 0.  0.
        5    1    3    3  502    0 -0.52810787998E+03  0.11105642586E+04 -0.37590129920E+02  0.12303194761E+04  0.46999998093E+01 0. -1.
       -5    1    3    3    0  502  0.52810787998E+03 -0.11105642586E+04 -0.49905990938E+03  0.13271525114E+04  0.46999998093E+01 0.  1.
</event>
<event>
 5   0  0.3713394E-06  0.2498896E+04  0.7818609E-02  0.8403379E-01
        2   -1    0    0  501    0  0.00000000000E+00  0.00000000000E+00  0.11584083201E+04  0.11584083201E+04  0.25500000920E-02 0. -1.
       -2   -1    0    0    0  501  0.00000000000E+00  0.00000000000E+00 -0.13476424111E+04  0.13476424111E+04  0.25500000920E-02 0.  1.
    10030    2    1    2    0    0  0.00000000000E+00  0.00000000000E+00 -0.18923409100E+03  0.25060507312E+04  0.24988959015E+04 0.  0.
        3    1    3    3  502    0  0.63483903428E+03 -0.78196698387E+03  0.64684225304E+03  0.11970371230E+04  0.10100000352E+00 0. -1.
       -3    1    3    3    0  502 -0.63483903428E+03  0.78196698387E+03 -0.83607634404E+03  0.13090136082E+04  0.10100000352E+00 0.  1.
</event>
<event>
 5   0  0.3814260E-06  0.2502487E+04  0.7818609E-02  0.8402100E-01
       -2   -1    0    0    0  501  0.00000000000E+00  0.00000000000E+00  0.14610598897E+04  0.14610598897E+04  0.25500000920E-02 0. -1.
        2   -1    0    0  501    0  0.00000000000E+00  0.00000000000E+00 -0.10715580448E+04  0.10715580448E+04  0.25500000920E-02 0.  1.
    10030    2    1    2    0    0  0.00000000000E+00  0.00000000000E+00  0.38950184497E+03  0.25326179345E+04  0.25024871458E+04 0.  0.
        5    1    3    3  502    0 -0.23398537512E+03  0.78606206307E+03 -0.76158471401E+03  0.11192301325E+04  0.46999998093E+01 0.  1.
       -5    1    3    3    0  502  0.23398537512E+03 -0.78606206307E+03  0.11510865590E+04  0.14133878021E+04  0.46999998093E+01 0. -1.
</event>
<event>
 5   0  0.3924441E-06  0.2496900E+04  0.7818609E-02  0.8404091E-01
        2   -1    0    0  501    0  0.00000000000E+00  0.00000000000E+00  0.16244659550E+04  0.16244659550E+04  0.25500000920E-02 0.  1.
       -2   -1    0    0    0  501  0.00000000000E+00  0.00000000000E+00 -0.95947102328E+03  0.95947102328E+03  0.25500000920E-02 0. -1.
    10030    2    1    2    0    0  0.00000000000E+00  0.00000000000E+00  0.66499493172E+03  0.25839369783E+04  0.24969004883E+04 0.  0.
        2    1    3    3  502    0 -0.87341945800E+03  0.35253825887E+03  0.11805021887E+04  0.15102086581E+04  0.25500000920E-02 0.  1.
       -2    1    3    3    0  502  0.87341945800E+03 -0.35253825887E+03 -0.51550725694E+03  0.10737283202E+04  0.25500000920E-02 0. -1.
</event>
<event>
 5   0  0.3814260E-06  0.2496851E+04  0.7818609E-02  0.8404108E-01
        2   -1    0    0  501    0  0.00000000000E+00  0.00000000000E+00  0.11382157308E+04  0.11382157308E+04  0.25500000920E-02 0.  1.
       -2   -1    0    0    0  501  0.00000000000E+00  0.00000000000E+00 -0.13693062207E+04  0.13693062207E+04  0.25500000920E-02 0. -1.
    10030    2    1    2    0    0  0.00000000000E+00  0.00000000000E+00 -0.23109048987E+03  0.25075219515E+04  0.24968507210E+04 0.  0.
        5    1    3    3  502    0 -0.30832531843E+03 -0.10666441487E+04  0.45763877911E+03  0.12009369609E+04  0.46999998093E+01 0.  1.
       -5    1    3    3    0  502  0.30832531843E+03  0.10666441487E+04 -0.68872926898E+03  0.13065849907E+04  0.46999998093E+01 0. -1.
</event>
<event>
 5   0  0.3924441E-06  0.2498734E+04  0.7818609E-02  0.8403437E-01
        2   -1    0    0  501    0  0.00000000000E+00  0.00000000000E+00  0.10983395525E+04  0.10983395525E+04  0.25500000920E-02 0.  1.
       -2   -1    0    0    0  501  0.00000000000E+00  0.00000000000E+00 -0.14211610073E+04  0.14211610073E+04  0.25500000920E-02 0. -1.
    10030    2    1    2    0    0  0.00000000000E+00  0.00000000000E+00 -0.32282145485E+03  0.25195005598E+04  0.24987335551E+04 0.  0.
        2    1    3    3  502    0  0.57467297368E+03 -0.11058302666E+04 -0.25050651465E+03  0.12711660470E+04  0.25500000920E-02 0. -1.
       -2    1    3    3    0  502 -0.57467297368E+03  0.11058302666E+04 -0.72314940197E+02  0.12483345128E+04  0.25500000920E-02 0.  1.
</event>
<event>
 5   0  0.3971759E-06  0.2495972E+04  0.7818609E-02  0.8404422E-01
        2   -1    0    0  501    0  0.00000000000E+00  0.00000000000E+00  0.14501061683E+04  0.14501061683E+04  0.25500000920E-02 0.  1.
       -2   -1    0    0    0  501  0.00000000000E+00  0.00000000000E+00 -0.10740381937E+04  0.10740381937E+04  0.25500000920E-02 0. -1.
    10030    2    1    2    0    0  0.00000000000E+00  0.00000000000E+00  0.37606797456E+03  0.25241443620E+04  0.24959722833E+04 0.  0.
        4    1    3    3  502    0 -0.11698188836E+04 -0.41614442032E+02  0.62565354803E+03  0.13272723749E+04  0.12699999809E+01 0.  1.
       -4    1    3    3    0  502  0.11698188836E+04  0.41614442032E+02 -0.24958557347E+03  0.11968719871E+04  0.12699999809E+01 0. -1.
</event>
<event>
 5   0  0.3808293E-06  0.2500305E+04  0.7818609E-02  0.8402877E-01
        2   -1    0    0  501    0  0.00000000000E+00  0.00000000000E+00  0.12564664495E+04  0.12564664495E+04  0.25500000920E-02 0. -1.
       -2   -1    0    0    0  501  0.00000000000E+00  0.00000000000E+00 -0.12438705263E+04  0.12438705263E+04  0.25500000920E-02 0.  1.
    10030    2    1    2    0    0  0.00000000000E+00  0.00000000000E+00  0.12595923203E+02  0.25003369758E+04  0.25003052484E+04 0.  0.
        1    1    3    3  502    0 -0.35775542655E+03  0.11320568650E+04 -0.38529338728E+03  0.12481957720E+04  0.50400001928E-02 0.  1.
       -1    1    3    3    0  502  0.35775542655E+03 -0.11320568650E+04  0.39788931049E+03  0.12521412038E+04  0.50400001928E-02 0. -1.
</event>
<event>
 5   0  0.1553604E-06  0.2499697E+04  0.7818609E-02  0.8403094E-01
       -1   -1    0    0    0  501  0.00000000000E+00  0.00000000000E+00  0.87551892154E+03  0.87551892155E+03  0.50400001928E-02 0. -1.
        1   -1    0    0  501    0  0.00000000000E+00  0.00000000000E+00 -0.17842228946E+04  0.17842228947E+04  0.50400001928E-02 0.  1.
    10030    2    1    2    0    0  0.00000000000E+00  0.00000000000E+00 -0.90870397311E+03  0.26597418162E+04  0.24996967052E+04 0.  0.
        1    1    3    3  502    0  0.42291169817E+03  0.10591412303E+04 -0.99844952555E+03  0.15157624832E+04  0.50400001928E-02 0. -1.
       -1    1    3    3    0  502 -0.42291169817E+03 -0.10591412303E+04  0.89745552445E+02  0.11439793331E+04  0.50400001928E-02 0.  1.
</event>
<event>
 5   0  0.1541852E-06  0.2498236E+04  0.7818609E-02  0.8403614E-01
        1   -1    0    0  501    0  0.00000000000E+00  0.00000000000E+00  0.12239064453E+04  0.12239064453E+04  0.50400001928E-02 0.  1.
       -1   -1    0    0    0  501  0.00000000000E+00  0.00000000000E+00 -0.12748488377E+04  0.12748488377E+04  0.50400001928E-02 0. -1.
    10030    2    1    2    0    0  0.00000000000E+00  0.00000000000E+00 -0.50942392386E+02  0.24987552830E+04  0.24982359450E+04 0.  0.
        5    1    3    3  502    0  0.11069605055E+04 -0.41548006909E+03 -0.42840524935E+03  0.12575923013E+04  0.46999998093E+01 0. -1.
       -5    1    3    3    0  502 -0.11069605055E+04  0.41548006909E+03  0.37746285697E+03  0.12411629817E+04  0.46999998093E+01 0.  1.
</event>
<event>
 5   0  0.1501747E-06  0.2498449E+04  0.7818609E-02  0.8403538E-01
        1   -1    0    0  501    0  0.00000000000E+00  0.00000000000E+00  0.19898440481E+04  0.19898440481E+04  0.50400001928E-02 0.  1.
       -1   -1    0    0    0  501  0.00000000000E+00  0.00000000000E+00 -0.78426328146E+03  0.78426328148E+03  0.50400001928E-02 0. -1.
    10030    2    1    2    0    0  0.00000000000E+00  0.00000000000E+00  0.12055807666E+04  0.27741073296E+04  0.24984488170E+04 0.  0.
        2    1    3    3  502    0  0.47059635278E+03 -0.91521746216E+03 -0.18349212108E+03  0.10453484055E+04  0.25500000920E-02 0. -1.
       -2    1    3    3    0  502 -0.47059635278E+03  0.91521746216E+03  0.13890728877E+04  0.17287589241E+04  0.25500000920E-02 0.  1.
</event>
<event>
 5   0  0.1541852E-06  0.2493337E+04  0.7818609E-02  0.8405363E-01
       -1   -1    0    0    0  501  0.00000000000E+00  0.00000000000E+00  0.15717286836E+04  0.15717286836E+04  0.50400001928E-02 0.  1.
        1   -1    0    0  501    0  0.00000000000E+00  0.00000000000E+00 -0.98883591093E+03  0.98883591094E+03  0.50400001928E-02 0. -1.
    10030    2    1    2    0    0  0.00000000000E+00  0.00000000000E+00  0.58289277267E+03  0.25605645946E+04  0.24933365313E+04 0.  0.
        5    1    3    3  502    0  0.69005885164E+03 -0.74168653755E+03  0.10375896957E+04  0.14501360644E+04  0.46999998093E+01 0.  1.
       -5    1    3    3    0  502 -0.69005885164E+03  0.74168653755E+03 -0.45469692304E+03  0.11104285301E+04  0.46999998093E+01 0. -1.
</event>
<event>
 5   0  0.3713394E-06  0.2496041E+04  0.7818609E-02  0.8404397E-01
       -2   -1    0    0    0  501  0.00000000000E+00  0.00000000000E+00  0.98132559248E+03  0.98132559248E+03  0.25500000920E-02 0.  1.
        2   -1    0    0  501    0  0.00000000000E+00  0.00000000000E+00 -0.15871954451E+04  0.15871954451E+04  0.25500000920E-02 0. -1.
    10030    2    1    2    0    0  0.00000000000E+00  0.00000000000E+00 -0.60586985264E+03  0.25685210376E+04  0.24960412742E+04 0.  0.
        3    1    3    3  502    0 -0.53499104996E+03 -0.94449519134E+03 -0.93666597709E+03  0.14337467534E+04  0.10100000352E+00 0. -1.
       -3    1    3    3    0  502  0.53499104996E+03  0.94449519134E+03  0.33079612444E+03  0.11347742842E+04  0.10100000352E+00 0.  1.
</event>
<event>
 5   0  0.3971759E-06  0.2501998E+04  0.7818609E-02  0.8402274E-01
        2   -1    0    0  501    0  0.00000000000E+00  0.00000000000E+00  0.88682031117E+03  0.88682031117E+03  0.25500000920E-02 0.  1.
       -2   -1    0    0    0  501  0.00000000000E+00  0.00000000000E+00 -0.17647306899E+04  0.17647306899E+04  0.25500000920E-02 0. -1.
    10030    2    1    2    0    0  0.00000000000E+00  0.00000000000E+00 -0.87791037874E+03  0.26515510011E+04  0.25019984169E+04 0.  0.
        4    1    3    3  502    0 -0.55630036786E+03  0.77083402504E+02 -0.16236212194E+04  0.17180103105E+04  0.12699999809E+01 0. -1.
       -4    1    3    3    0  502  0.55630036786E+03 -0.77083402504E+02  0.74571084062E+03  0.93354069056E+03  0.12699999809E+01 0.  1.
</event>
<event>
 5   0  0.1519145E-06  0.2494028E+04  0.7818609E-02  0.8405116E-01
       -1   -1    0    0    0  501  0.00000000000E+00  0.00000000000E+00  0.10518173393E+04  0.10518173393E+04  0.50400001928E-02 0.  1.
        1   -1    0    0  501    0  0.00000000000E+00  0.00000000000E+00 -0.14784357798E+04  0.14784357798E+04  0.50400001928E-02 0. -1.
    10030    2    1    2    0    0  0.00000000000E+00  0.00000000000E+00 -0.42661844047E+03  0.25302531192E+04  0.24940283786E+04 0.  0.
        4    1    3    3  502    0  0.18825726540E+03  0.75057063901E+03 -0.12053906586E+04  0.14323984554E+04  0.12699999809E+01 0. -1.
       -4    1    3    3    0  502 -0.18825726540E+03 -0.75057063901E+03  0.77877221816E+03  0.10978546638E+04  0.12699999809E+01 0.  1.
</event>
<event>
 5   0  0.1501747E-06  0.2494286E+04  0.7818609E-02  0.8405024E-01
       -1   -1    0    0    0  501  0.00000000000E+00  0.00000000000E+00  0.58592799525E+03  0.58592799527E+03  0.50400001928E-02 0.  1.
        1   -1    0    0  501    0  0.00000000000E+00  0.00000000000E+00 -0.26545338390E+04  0.26545338390E+04  0.50400001928E-02 0. -1.
    10030    2    1    2    0    0  0.00000000000E+00  0.00000000000E+00 -0.20686058437E+04  0.32404618343E+04  0.24942860226E+04 0.  0.
        2    1    3    3  502    0 -0.23507693948E+03 -0.91947125698E+03  0.16870188629E+02  0.94919606149E+03  0.25500000920E-02 0.  1.
       -2    1    3    3    0  502  0.23507693948E+03  0.91947125698E+03 -0.20854760324E+04  0.22912657728E+04  0.25500000920E-02 0. -1.
</event>
<event>
 5   0  0.1501747E-06  0.2493840E+04  0.7818609E-02  0.8405183E-01
        1   -1    0    0  501    0  0.00000000000E+00  0.00000000000E+00  0.12135464753E+04  0.12135464753E+04  0.50400001928E-02 0.  1.
       -1   -1    0    0    0  501  0.00000000000E+00  0.00000000000E+00 -0.12812111347E+04  0.12812111347E+04  0.50400001928E-02 0. -1.
    10030    2    1    2    0    0  0.00000000000E+00  0.00000000000E+00 -0.67664659355E+02  0.24947576100E+04  0.24938398158E+04 0.  0.
        2    1    3    3  502    0 -0.84689521070E+03  0.11215914039E+03  0.87479599744E+03  0.12227343161E+04  0.25500000920E-02 0.  1.
       -2    1    3    3    0  502  0.84689521070E+03 -0.11215914039E+03 -0.94246065680E+03  0.12720232939E+04  0.25500000920E-02 0. -1.
</event>
<event>
 5   0  0.3924441E-06  0.2502181E+04  0.7818609E-02  0.8402209E-01
        2   -1    0    0  501    0  0.00000000000E+00  0.00000000000E+00  0.16211021362E+04  0.16211021362E+04  0.25500000920E-02 0. -1.
       -2   -1    0    0    0  501  0.00000000000E+00  0.00000000000E+00 -0.96553313601E+03  0.96553313601E+03  0.25500000920E-02 0.  1.
    10030    2    1    2    0    0  0.00000000000E+00  0.00000000000E+00  0.65556900019E+03  0.25866352722E+04  0.25021813119E+04 0.  0.
        2    1    3    3  502    0 -0.75537456807E+03 -0.94124554292E+03  0.66859976911E+03  0.13796954597E+04  0.25500000920E-02 0.  1.
       -2    1    3    3    0  502  0.75537456807E+03  0.94124554292E+03 -0.13030768923E+02  0.12069398125E+04  0.25500000920E-02 0. -1.
</event>
<event>
 5   0  0.1553604E-06  0.2501394E+04  0.7818609E-02  0.8402489E-01
        1   -1    0    0  501    0  0.00000000000E+00  0.00000000000E+00  0.15267619496E+04  0.15267619496E+04  0.50400001928E-02 0.  1.
       -1   -1    0    0    0  501  0.00000000000E+00  0.00000000000E+00 -0.10245489862E+04  0.10245489862E+04  0.50400001928E-02 0. -1.
    10030    2    1    2    0    0  0.00000000000E+00  0.00000000000E+00  0.50221296345E+03  0.25513109358E+04  0.25013935377E+04 0.  0.
        1    1    3    3  502    0 -0.68197137035E+03  0.12278737889E+03 -0.81086334344E+03  0.10666119501E+04  0.50400001928E-02 0. -1.
       -1    1    3    3    0  502  0.68197137035E+03 -0.12278737889E+03  0.13130763069E+04  0.14846989857E+04  0.50400001928E-02 0.  1.
</event>
<event>
 5   0  0.1519145E-06  0.2502869E+04  0.7818609E-02  0.8401964E-01
       -1   -1    0    0    0  501  0.00000000000E+00  0.00000000000E+00  0.12823582130E+04  0.12823582130E+04  0.50400001928E-02 0. -1.
        1   -1    0    0  501    0  0.00000000000E+00  0.00000000000E+00 -0.12212568939E+04  0.12212568939E+04  0.50400001928E-02 0.  1.
    10030    2    1    2    0    0  0.00000000000E+00  0.00000000000E+00  0.61101319131E+02  0.25036151069E+04  0.25028693997E+04 0.  0.
        4    1    3    3  502    0  0.83166211153E+03  0.75560086400E+03  0.58161647630E+03  0.12652564451E+04  0.12699999809E+01 0. -1.
       -4    1    3    3    0  502 -0.83166211153E+03 -0.75560086400E+03 -0.52051515717E+03  0.12383586618E+04  0.12699999809E+01 0.  1.
</event>
<event>
 5   0  0.1574896E-06  0.2433513E+04  0.7818609E-02  0.8427062E-01
        1   -1    0    0  501    0  0.00000000000E+00  0.00000000000E+00  0.73685445308E+03  0.73685445310E+03  0.50400001928E-02 0. -1.
       -1   -1    0    0    0  501  0.00000000000E+00  0.00000000000E+00 -0.20092117924E+04  0.20092117924E+04  0.50400001928E-02 0.  1.
    10030    2    1    2    0    0  0.00000000000E+00  0.00000000000E+00 -0.12723573393E+04  0.27460662455E+04  0.24335132270E+04 0.  0.
        3    1    3    3  502    0 -0.36873776610E+03  0.10491937604E+04 -0.79090067954E+02  0.11149127033E+04  0.10100000352E+00 0. -1.
       -3    1    3    3    0  502  0.36873776610E+03 -0.10491937604E+04 -0.11932672714E+04  0.16311535422E+04  0.10100000352E+00 0.  1.
</event>
<event>
 5   0  0.1519145E-06  0.2500571E+04  0.7818609E-02  0.8402782E-01
       -1   -1    0    0    0  501  0.00000000000E+00  0.00000000000E+00  0.14602794679E+04  0.14602794679E+04  0.50400001928E-02 0.  1.
        1   -1    0    0  501    0  0.00000000000E+00  0.00000000000E+00 -0.10704899154E+04  0.10704899154E+04  0.50400001928E-02 0. -1.
    10030    2    1    2    0    0  0.00000000000E+00  0.00000000000E+00  0.38978955248E+03  0.25307693833E+04  0.25005714899E+04 0.  0.
        4    1    3    3  502    0  0.40626831091E+03 -0.74613020172E+03 -0.73348804546E+03  0.11223950036E+04  0.12699999809E+01 0. -1.
       -4    1    3    3    0  502 -0.40626831091E+03  0.74613020172E+03  0.11232775979E+04  0.14083743797E+04  0.12699999809E+01 0.  1.
</event>
<event>
 5   0  0.3971759E-06  0.2519619E+04  0.7818609E-02  0.8396029E-01
       -2   -1    0    0    0  501  0.00000000000E+00  0.00000000000E+00  0.12662208721E+04  0.12662208721E+04  0.25500000920E-02 0. -1.
        2   -1    0    0  501    0  0.00000000000E+00  0.00000000000E+00 -0.12534307831E+04  0.12534307831E+04  0.25500000920E-02 0.  1.
    10030    2    1    2    0    0  0.00000000000E+00  0.00000000000E+00  0.12790088993E+02  0.25196516552E+04  0.25196191928E+04 0.  0.
        4    1    3    3  502    0 -0.87002629083E+03  0.90870677315E+03 -0.60125433861E+02  0.12594881607E+04  0.12699999809E+01 0. -1.
       -4    1    3    3    0  502  0.87002629083E+03 -0.90870677315E+03  0.72915522853E+02  0.12601634944E+04  0.12699999809E+01 0.  1.
</event>
<event>
 5   0  0.3924441E-06  0.2498555E+04  0.7818609E-02  0.8403500E-01
       -2   -1    0    0    0  501  0.00000000000E+00  0.00000000000E+00  0.85648353892E+03  0.85648353892E+03  0.25500000920E-02 0.  1.
        2   -1    0    0  501    0  0.00000000000E+00  0.00000000000E+00 -0.18222118159E+04  0.18222118159E+04  0.25500000920E-02 0. -1.
    10030    2    1    2    0    0  0.00000000000E+00  0.00000000000E+00 -0.96572827694E+03  0.26786953548E+04  0.24985551222E+04 0.  0.
        2    1    3    3  502    0 -0.85095037055E+03 -0.89451067355E+03 -0.27824073174E+03  0.12655764627E+04  0.25500000920E-02 0.  1.
       -2    1    3    3    0  502  0.85095037055E+03  0.89451067355E+03 -0.68748754520E+03  0.14131188920E+04  0.25500000920E-02 0. -1.
</event>
<event>
 5   0  0.3814260E-06  0.2500972E+04  0.7818609E-02  0.8402639E-01
        2   -1    0    0  501    0  0.00000000000E+00  0.00000000000E+00  0.17830224011E+04  0.17830224011E+04  0.25500000920E-02 0.  1.
       -2   -1    0    0    0  501  0.00000000000E+00  0.00000000000E+00 -0.87700253568E+03  0.87700253568E+03  0.25500000920E-02 0. -1.
    10030    2    1    2    0    0  0.00000000000E+00  0.00000000000E+00  0.90601986546E+03  0.26600249368E+04  0.25009719446E+04 0.  0.
        5    1    3    3  502    0  0.68882846747E+03 -0.10417528357E+04  0.51993583659E+03  0.13528078180E+04  0.46999998093E+01 0.  1.
       -5    1    3    3    0  502 -0.68882846747E+03  0.10417528357E+04  0.38608402887E+03  0.13072171188E+04  0.46999998093E+01 0. -1.
</event>
<event>
 5   0  0.3713394E-06  0.2505114E+04  0.7818609E-02  0.8401166E-01
        2   -1    0    0  501    0  0.00000000000E+00  0.00000000000E+00  0.12829216864E+04  0.12829216864E+04  0.25500000920E-02 0. -1.
       -2   -1    0    0    0  501  0.00000000000E+00  0.00000000000E+00 -0.12229108747E+04  0.12229108747E+04  0.25500000920E-02 0.  1.
    10030    2    1    2    0    0  0.00000000000E+00  0.00000000000E+00  0.60010811685E+02  0.25058325612E+04  0.25051138751E+04 0.  0.
        3    1    3    3  502    0 -0.70591786968E+03 -0.10274325785E+04  0.15235619248E+03  0.12558463926E+04  0.10100000352E+00 0. -1.
       -3    1    3    3    0  502  0.70591786968E+03  0.10274325785E+04 -0.92345380799E+02  0.12499861686E+04  0.10100000352E+00 0.  1.
</event>
<event>
 5   0  0.3808293E-06  0.2508757E+04  0.7818609E-02  0.8399872E-01
       -2   -1    0    0    0  501  0.00000000000E+00  0.00000000000E+00  0.10335497782E+04  0.10335497782E+04  0.25500000920E-02 0.  1.
        2   -1    0    0  501    0  0.00000000000E+00  0.00000000000E+00 -0.15223898705E+04  0.15223898705E+04  0.25500000920E-02 0. -1.
    10030    2    1    2    0    0  0.00000000000E+00  0.00000000000E+00 -0.48884009226E+03  0.25559396487E+04  0.25087572326E+04 0.  0.
        1    1    3    3  502    0 -0.26125602824E+03 -0.24341361145E+03 -0.14695163210E+04  0.15122774600E+04  0.50400001928E-02 0. -1.
       -1    1    3    3    0  502  0.26125602824E+03  0.24341361145E+03  0.98067622871E+03  0.10436621887E+04  0.50400001928E-02 0.  1.
</event>
<event>
 5   0  0.1574896E-06  0.2500993E+04  0.7818609E-02  0.8402632E-01
        1   -1    0    0  501    0  0.00000000000E+00  0.00000000000E+00  0.11893518179E+04  0.11893518179E+04  0.50400001928E-02 0.  1.
       -1   -1    0    0    0  501  0.00000000000E+00  0.00000000000E+00 -0.13147848841E+04  0.13147848841E+04  0.50400001928E-02 0. -1.
    10030    2    1    2    0    0  0.00000000000E+00  0.00000000000E+00 -0.12543306616E+03  0.25041367020E+04  0.25009932364E+04 0.  0.
        3    1    3    3  502    0 -0.89892403812E+02 -0.12472207742E+04 -0.52630244574E+02  0.12515631254E+04  0.10100000352E+00 0. -1.
       -3    1    3    3    0  502  0.89892403812E+02  0.12472207742E+04 -0.72802821582E+02  0.12525735767E+04  0.10100000352E+00 0.  1.
</event>
<event>
 5   0  0.1574896E-06  0.2494715E+04  0.7818609E-02  0.8404871E-01
        1   -1    0    0  501    0  0.00000000000E+00  0.00000000000E+00  0.12073779924E+04  0.12073779924E+04  0.50400001928E-02 0. -1.
       -1   -1    0    0    0  501  0.00000000000E+00  0.00000000000E+00 -0.12886609208E+04  0.12886609208E+04  0.50400001928E-02 0.  1.
    10030    2    1    2    0    0  0.00000000000E+00  0.00000000000E+00 -0.81282928392E+02  0.24960389132E+04  0.24947150822E+04 0.  0.
        3    1    3    3  502    0 -0.73445827198E+03 -0.75891930318E+03  0.62342254455E+03  0.12263943661E+04  0.10100000352E+00 0. -1.
       -3    1    3    3    0  502  0.73445827198E+03  0.75891930318E+03 -0.70470547294E+03  0.12696445470E+04  0.10100000352E+00 0.  1.
</event>
<event>
 5   0  0.3814260E-06  0.2498954E+04  0.7818609E-02  0.8403358E-01
        2   -1    0    0  501    0  0.00000000000E+00  0.00000000000E+00  0.20673823584E+04  0.20673823584E+04  0.25500000920E-02 0. -1.
       -2   -1    0    0    0  501  0.00000000000E+00  0.00000000000E+00 -0.75515415220E+03  0.75515415220E+03  0.25500000920E-02 0.  1.
    10030    2    1    2    0    0  0.00000000000E+00  0.00000000000E+00  0.13122282062E+04  0.28225365106E+04  0.24989536787E+04 0.  0.
        5    1    3    3  502    0 -0.54434567985E+03  0.92353645057E+03 -0.68818358552E+02  0.10742391964E+04  0.46999998093E+01 0.  1.
       -5    1    3    3    0  502  0.54434567985E+03 -0.92353645057E+03  0.13810465647E+04  0.17482973142E+04  0.46999998093E+01 0. -1.
</event>
<event>
 5   0  0.1519145E-06  0.2492094E+04  0.7818609E-02  0.8405808E-01
        1   -1    0    0  501    0  0.00000000000E+00  0.00000000000E+00  0.14738080780E+04  0.14738080780E+04  0.50400001928E-02 0.  1.
       -1   -1    0    0    0  501  0.00000000000E+00  0.00000000000E+00 -0.10534839195E+04  0.10534839195E+04  0.50400001928E-02 0. -1.
    10030    2    1    2    0    0  0.00000000000E+00  0.00000000000E+00  0.42032415856E+03  0.25272919975E+04  0.24920939875E+04 0.  0.
        4    1    3    3  502    0  0.37542087994E+03 -0.44440346265E+03 -0.90730681652E+03  0.10777952249E+04  0.12699999809E+01 0. -1.
       -4    1    3    3    0  502 -0.37542087994E+03  0.44440346265E+03  0.13276309751E+04  0.14494967725E+04  0.12699999809E+01 0.  1.
</event>
<event>
 5   0  0.3808293E-06  0.2501136E+04  0.7818609E-02  0.8402581E-01
       -2   -1    0    0    0  501  0.00000000000E+00  0.00000000000E+00  0.88702698076E+03  0.88702698077E+03  0.25500000920E-02 0. -1.
        2   -1    0    0  501    0  0.00000000000E+00  0.00000000000E+00 -0.17631031232E+04  0.17631031232E+04  0.25500000920E-02 0.  1.
    10030    2    1    2    0    0  0.00000000000E+00  0.00000000000E+00 -0.87607614241E+03  0.26501301039E+04  0.25011357741E+04 0.  0.
        1    1    3    3  502    0 -0.48883711225E+03 -0.10635795137E+04  0.28361944362E+02  0.11708832154E+04  0.50400001928E-02 0. -1.
       -1    1    3    3    0  502  0.48883711225E+03  0.10635795137E+04 -0.90443808677E+03  0.14792468885E+04  0.50400001928E-02 0.  1.
</event>
<event>
 5   0  0.3713394E-06  0.2496969E+04  0.7818609E-02  0.8404066E-01
        2   -1    0    0  501    0  0.00000000000E+00  0.00000000000E+00  0.14241795499E+04  0.14241795499E+04  0.25500000920E-02 0. -1.
       -2   -1    0    0    0  501  0.00000000000E+00  0.00000000000E+00 -0.10944643571E+04  0.10944643571E+04  0.25500000920E-02 0.  1.
    10030    2    1    2    0    0  0.00000000000E+00  0.00000000000E+00  0.32971519282E+03  0.25186439071E+04  0.24969691673E+04 0.  0.
        3    1    3    3  502    0  0.21112825773E+03 -0.53683720050E+03 -0.95197731644E+03  0.11131173084E+04  0.10100000352E+00 0.  1.
       -3    1    3    3    0  502 -0.21112825773E+03  0.53683720050E+03  0.12816925093E+04  0.14055265987E+04  0.10100000352E+00 0. -1.
</event>
<event>
 5   0  0.1574896E-06  0.2513238E+04  0.7818609E-02  0.8398285E-01
        1   -1    0    0  501    0  0.00000000000E+00  0.00000000000E+00  0.88871947401E+03  0.88871947402E+03  0.50400001928E-02 0. -1.
       -1   -1    0    0    0  501  0.00000000000E+00  0.00000000000E+00 -0.17768162707E+04  0.17768162707E+04  0.50400001928E-02 0.  1.
    10030    2    1    2    0    0  0.00000000000E+00  0.00000000000E+00 -0.88809679671E+03  0.26655357447E+04  0.25132379287E+04 0.  0.
        3    1    3    3  502    0  0.61474712285E+02 -0.91761530550E+03  0.46416945967E+03  0.10301700280E+04  0.10100000352E+00 0. -1.
       -3    1    3    3    0  502 -0.61474712285E+02  0.91761530550E+03 -0.13522662564E+04  0.16353657167E+04  0.10100000352E+00 0.  1.
</event>
<event>
 5   0  0.3713394E-06  0.2485986E+04  0.7818609E-02  0.8407995E-01
       -2   -1    0    0    0  501  0.00000000000E+00  0.00000000000E+00  0.15983724464E+04  0.15983724464E+04  0.25500000920E-02 0. -1.
        2   -1    0    0  501    0  0.00000000000E+00  0.00000000000E+00 -0.96662779853E+03  0.96662779854E+03  0.25500000920E-02 0.  1.
    10030    2    1    2    0    0  0.00000000000E+00  0.00000000000E+00  0.63174464786E+03  0.25650002449E+04  0.24859857112E+04 0.  0.
        3    1    3    3  502    0 -0.83886371370E+03  0.20145859594E+03 -0.60741773660E+03  0.10550991484E+04  0.10100000352E+00 0.  1.
       -3    1    3    3    0  502  0.83886371370E+03 -0.20145859594E+03  0.12391623845E+04  0.15099010965E+04  0.10100000352E+00 0. -1.
</event>
<event>
 5   0  0.3808293E-06  0.2532440E+04  0.7818609E-02  0.8391519E-01
        2   -1    0    0  501    0  0.00000000000E+00  0.00000000000E+00  0.21884213056E+04  0.21884213056E+04  0.25500000920E-02 0. -1.
       -2   -1    0    0    0  501  0.00000000000E+00  0.00000000000E+00 -0.73263476876E+03  0.73263476877E+03  0.25500000920E-02 0.  1.
    10030    2    1    2    0    0  0.00000000000E+00  0.00000000000E+00  0.14557865368E+04  0.29210560743E+04  0.25324403544E+04 0.  0.
        1    1    3    3  502    0 -0.81171430483E+03  0.55200371099E+03  0.16504592602E+04  0.19203135106E+04  0.50400001928E-02 0. -1.
       -1    1    3    3    0  502  0.81171430483E+03 -0.55200371099E+03 -0.19467272334E+03  0.10007425637E+04  0.50400001928E-02 0.  1.
</event>
<event>
 5   0  0.1501747E-06  0.2494017E+04  0.7818609E-02  0.8405120E-01
       -1   -1    0    0    0  501  0.00000000000E+00  0.00000000000E+00  0.86896720495E+03  0.86896720496E+03  0.50400001928E-02 0. -1.
        1   -1    0    0  501    0  0.00000000000E+00  0.00000000000E+00 -0.17895150160E+04  0.17895150160E+04  0.50400001928E-02 0.  1.
    10030    2    1    2    0    0  0.00000000000E+00  0.00000000000E+00 -0.92054781106E+03  0.26584822210E+04  0.24940167295E+04 0.  0.
        2    1    3    3  502    0  0.11850685793E+04  0.35987207191E+03 -0.61523744313E+03  0.13829000533E+04  0.25500000920E-02 0. -1.
       -2    1    3    3    0  502 -0.11850685793E+04 -0.35987207191E+03 -0.30531036793E+03  0.12755821677E+04  0.25500000920E-02 0.  1.
</event>
<event>
 5   0  0.3971759E-06  0.2502665E+04  0.7818609E-02  0.8402037E-01
       -2   -1    0    0    0  501  0.00000000000E+00  0.00000000000E+00  0.76459338599E+03  0.76459338599E+03  0.25500000920E-02 0. -1.
        2   -1    0    0  501    0  0.00000000000E+00  0.00000000000E+00 -0.20479284299E+04  0.20479284299E+04  0.25500000920E-02 0.  1.
    10030    2    1    2    0    0  0.00000000000E+00  0.00000000000E+00 -0.12833350439E+04  0.28125218159E+04  0.25026646060E+04 0.  0.
        4    1    3    3  502    0  0.93410361204E+03 -0.41005924203E+03 -0.14560488589E+04  0.17778577087E+04  0.12699999809E+01 0.  1.
       -4    1    3    3    0  502 -0.93410361204E+03  0.41005924203E+03  0.17271381495E+03  0.10346641072E+04  0.12699999809E+01 0. -1.
</event>
<event>
 5   0  0.3924441E-06  0.2484052E+04  0.7818609E-02  0.8408689E-01
        2   -1    0    0  501    0  0.00000000000E+00  0.00000000000E+00  0.26319402284E+04  0.26319402284E+04  0.25500000920E-02 0. -1.
       -2   -1    0    0    0  501  0.00000000000E+00  0.00000000000E+00 -0.58611829457E+03  0.58611829458E+03  0.25500000920E-02 0.  1.
    10030    2    1    2    0    0  0.00000000000E+00  0.00000000000E+00  0.20458219338E+04  0.32180585230E+04  0.24840517854E+04 0.  0.
        2    1    3    3  502    0 -0.65668075134E+03  0.42180437132E+02 -0.34173606953E+03  0.74147983094E+03  0.25500000920E-02 0.  1.
       -2    1    3    3    0  502  0.65668075134E+03 -0.42180437132E+02  0.23875580033E+04  0.24765786920E+04  0.25500000920E-02 0. -1.
</event>
<event>
 5   0  0.1574896E-06  0.2503542E+04  0.7818609E-02  0.8401725E-01
        1   -1    0    0  501    0  0.00000000000E+00  0.00000000000E+00  0.15707850466E+04  0.15707850466E+04  0.50400001928E-02 0.  1.
       -1   -1    0    0    0  501  0.00000000000E+00  0.00000000000E+00 -0.99754634811E+03  0.99754634812E+03  0.50400001928E-02 0. -1.
    10030    2    1    2    0    0  0.00000000000E+00  0.00000000000E+00  0.57323869850E+03  0.25683313947E+04  0.25035422001E+04 0.  0.
        3    1    3    3  502    0 -0.82825276788E+03  0.13207214546E+03  0.12399061673E+04  0.14969345386E+04  0.10100000352E+00 0.  1.
       -3    1    3    3    0  502  0.82825276788E+03 -0.13207214546E+03 -0.66666746878E+03  0.10713968561E+04  0.10100000352E+00 0. -1.
</event>
<event>
 5   0  0.1519145E-06  0.2496736E+04  0.7818609E-02  0.8404149E-01
        1   -1    0    0  501    0  0.00000000000E+00  0.00000000000E+00  0.12071134192E+04  0.12071134192E+04  0.50400001928E-02 0.  1.
       -1   -1    0    0    0  501  0.00000000000E+00  0.00000000000E+00 -0.12910324534E+04  0.12910324534E+04  0.50400001928E-02 0. -1.
    10030    2    1    2    0    0  0.00000000000E+00  0.00000000000E+00 -0.83919034170E+02  0.24981458726E+04  0.24967359485E+04 0.  0.
        4    1    3    3  502    0 -0.30975125999E+03  0.80929974054E+03 -0.94108205744E+03  0.12792767351E+04  0.12699999809E+01 0. -1.
       -4    1    3    3    0  502  0.30975125999E+03 -0.80929974054E+03  0.85716302327E+03  0.12188691375E+04  0.12699999809E+01 0.  1.
</event>
<event>
 5   0  0.1541852E-06  0.2500368E+04  0.7818609E-02  0.8402854E-01
       -1   -1    0    0    0  501  0.00000000000E+00  0.00000000000E+00  0.15680881917E+04  0.15680881917E+04  0.50400001928E-02 0.  1.
        1   -1    0    0  501    0  0.00000000000E+00  0.00000000000E+00 -0.99672997922E+03  0.99672997924E+03  0.50400001928E-02 0. -1.
    10030    2    1    2    0    0  0.00000000000E+00  0.00000000000E+00  0.57135821252E+03  0.25648181710E+04  0.25003683815E+04 0.  0.
        5    1    3    3  502    0  0.13499898806E+03  0.50976133529E+03 -0.87705388066E+03  0.10233899283E+04  0.46999998093E+01 0. -1.
       -5    1    3    3    0  502 -0.13499898806E+03 -0.50976133529E+03  0.14484120932E+04  0.15414282427E+04  0.46999998093E+01 0.  1.
</event>
<event>
 5   0  0.1519145E-06  0.2494838E+04  0.7818609E-02  0.8404827E-01
        1   -1    0    0  501    0  0.00000000000E+00  0.00000000000E+00  0.15891352047E+04  0.15891352047E+04  0.50400001928E-02 0. -1.
       -1   -1    0    0    0  501  0.00000000000E+00  0.00000000000E+00 -0.97918327291E+03  0.97918327292E+03  0.50400001928E-02 0.  1.
    10030    2    1    2    0    0  0.00000000000E+00  0.00000000000E+00  0.60995193176E+03  0.25683184776E+04  0.24948383601E+04 0.  0.
        4    1    3    3  502    0  0.20230252685E+03 -0.34468213368E+03  0.15214394714E+04  0.15730580929E+04  0.12699999809E+01 0. -1.
       -4    1    3    3    0  502 -0.20230252685E+03  0.34468213368E+03 -0.91148753960E+03  0.99526038472E+03  0.12699999809E+01 0.  1.
</event>
<event>
 5   0  0.1553604E-06  0.2529185E+04  0.7818609E-02  0.8392661E-01
        1   -1    0    0  501    0  0.00000000000E+00  0.00000000000E+00  0.26960989764E+04  0.26960989764E+04  0.50400001928E-02 0.  1.
       -1   -1    0    0    0  501  0.00000000000E+00  0.00000000000E+00 -0.59315112443E+03  0.59315112445E+03  0.50400001928E-02 0. -1.
    10030    2    1    2    0    0  0.00000000000E+00  0.00000000000E+00  0.21029478519E+04  0.32892501008E+04  0.25291849592E+04 0.  0.
        1    1    3    3  502    0 -0.22121602099E+03 -0.37882839426E+02  0.26699904254E+04  0.26794067458E+04  0.50400001928E-02 0.  1.
       -1    1    3    3    0  502  0.22121602099E+03  0.37882839426E+02 -0.56704257350E+03  0.60984335502E+03  0.50400001928E-02 0. -1.
</event>
<event>
 5   0  0.3814260E-06  0.2501668E+04  0.7818609E-02  0.8402392E-01
        2   -1    0    0  501    0  0.00000000000E+00  0.00000000000E+00  0.17652381208E+04  0.17652381208E+04  0.25500000920E-02 0. -1.
       -2   -1    0    0    0  501  0.00000000000E+00  0.00000000000E+00 -0.88633115071E+03  0.88633115071E+03  0.25500000920E-02 0.  1.
    10030    2    1    2    0    0  0.00000000000E+00  0.00000000000E+00  0.87890697005E+03  0.26515692715E+04  0.25016678715E+04 0.  0.
        5    1    3    3  502    0  0.10033626330E+03 -0.11762986133E+04  0.13873312691E+01  0.11805802845E+04  0.46999998093E+01 0.  1.
       -5    1    3    3    0  502 -0.10033626330E+03  0.11762986133E+04  0.87751963878E+03  0.14709889870E+04  0.46999998093E+01 0. -1.
</event>
<event>
 5   0  0.1519145E-06  0.2509668E+04  0.7818609E-02  0.8399549E-01
       -1   -1    0    0    0  501  0.00000000000E+00  0.00000000000E+00  0.91963715588E+03  0.91963715589E+03  0.50400001928E-02 0.  1.
        1   -1    0    0  501    0  0.00000000000E+00  0.00000000000E+00 -0.17122056224E+04  0.17122056224E+04  0.50400001928E-02 0. -1.
    10030    2    1    2    0    0  0.00000000000E+00  0.00000000000E+00 -0.79256846650E+03  0.26318427783E+04  0.25096676345E+04 0.  0.
        4    1    3    3  502    0  0.59217100596E+03  0.52700367679E+03 -0.14163702441E+04  0.16231160331E+04  0.12699999809E+01 0. -1.
       -4    1    3    3    0  502 -0.59217100596E+03 -0.52700367679E+03  0.62380177764E+03  0.10087267451E+04  0.12699999809E+01 0.  1.
</event>
<event>
 5   0  0.1501747E-06  0.2479637E+04  0.7818609E-02  0.8410276E-01
        1   -1    0    0  501    0  0.00000000000E+00  0.00000000000E+00  0.18757156795E+04  0.18757156795E+04  0.50400001928E-02 0.  1.
       -1   -1    0    0    0  501  0.00000000000E+00  0.00000000000E+00 -0.81950055268E+03  0.81950055270E+03  0.50400001928E-02 0. -1.
    10030    2    1    2    0    0  0.00000000000E+00  0.00000000000E+00  0.10562151268E+04  0.26952162322E+04  0.24796370993E+04 0.  0.
        2    1    3    3  502    0  0.54638435311E+03 -0.39880931467E+03 -0.60124605469E+03  0.90503124204E+03  0.25500000920E-02 0. -1.
       -2    1    3    3    0  502 -0.54638435311E+03  0.39880931467E+03  0.16574611815E+04  0.17901849901E+04  0.25500000920E-02 0.  1.
</event>
<event>
 5   0  0.3713394E-06  0.2503318E+04  0.7818609E-02  0.8401805E-01
        2   -1    0    0  501    0  0.00000000000E+00  0.00000000000E+00  0.12739038569E+04  0.12739038569E+04  0.25500000920E-02 0.  1.
       -2   -1    0    0    0  501  0.00000000000E+00  0.00000000000E+00 -0.12298021267E+04  0.12298021267E+04  0.25500000920E-02 0. -1.
    10030    2    1    2    0    0  0.00000000000E+00  0.00000000000E+00  0.44101730193E+02  0.25037059836E+04  0.25033175367E+04 0.  0.
        3    1    3    3  502    0 -0.65897254158E+03 -0.15590911447E+03 -0.10307744383E+04  0.12333079159E+04  0.10100000352E+00 0. -1.
       -3    1    3    3    0  502  0.65897254158E+03  0.15590911447E+03  0.10748761685E+04  0.12703980677E+04  0.10100000352E+00 0.  1.
</event>
<event>
 5   0  0.3713394E-06  0.2499665E+04  0.7818609E-02  0.8403105E-01
        2   -1    0    0  501    0  0.00000000000E+00  0.00000000000E+00  0.12902869439E+04  0.12902869440E+04  0.25500000920E-02 0. -1.
       -2   -1    0    0    0  501  0.00000000000E+00  0.00000000000E+00 -0.12106466236E+04  0.12106466236E+04  0.25500000920E-02 0.  1.
    10030    2    1    2    0    0  0.00000000000E+00  0.00000000000E+00  0.79640320374E+02  0.25009335675E+04  0.24996652033E+04 0.  0.
        3    1    3    3  502    0 -0.12303390180E+04  0.19487247513E+03  0.14171554597E+03  0.12537115645E+04  0.10100000352E+00 0.  1.
       -3    1    3    3    0  502  0.12303390180E+04 -0.19487247513E+03 -0.62075225592E+02  0.12472220030E+04  0.10100000352E+00 0. -1.
</event>
<event>
 5   0  0.1541852E-06  0.2501965E+04  0.7818609E-02  0.8402286E-01
       -1   -1    0    0    0  501  0.00000000000E+00  0.00000000000E+00  0.10876144060E+04  0.10876144061E+04  0.50400001928E-02 0.  1.
        1   -1    0    0  501    0  0.00000000000E+00  0.00000000000E+00 -0.14388893625E+04  0.14388893625E+04  0.50400001928E-02 0. -1.
    10030    2    1    2    0    0  0.00000000000E+00  0.00000000000E+00 -0.35127495647E+03  0.25265037686E+04  0.25019646675E+04 0.  0.
        5    1    3    3  502    0  0.29580514529E+03  0.91380380277E+03  0.63372004293E+03  0.11507220589E+04  0.46999998093E+01 0.  1.
       -5    1    3    3    0  502 -0.29580514529E+03 -0.91380380277E+03 -0.98499499940E+03  0.13757817097E+04  0.46999998093E+01 0. -1.
</event>
<event>
 5   0  0.3814260E-06  0.2497514E+04  0.7818609E-02  0.8403872E-01
       -2   -1    0    0    0  501  0.00000000000E+00  0.00000000000E+00  0.17048621230E+04  0.17048621230E+04  0.25500000920E-02 0. -1.
        2   -1    0    0  501    0  0.00000000000E+00  0.00000000000E+00 -0.91467443347E+03  0.91467443347E+03  0.25500000920E-02 0.  1.
    10030    2    1    2    0    0  0.00000000000E+00  0.00000000000E+00  0.79018768951E+03  0.26195365565E+04  0.24975138010E+04 0.  0.
        5    1    3    3  502    0  0.26624540377E+03 -0.12194215389E+04  0.43566446591E+03  0.13220064756E+04  0.46999998093E+01 0.  1.
       -5    1    3    3    0  502 -0.26624540377E+03  0.12194215389E+04  0.35452322360E+03  0.12975300809E+04  0.46999998093E+01 0. -1.
</event>
<event>
 5   0  0.3713394E-06  0.2508718E+04  0.7818609E-02  0.8399886E-01
        2   -1    0    0  501    0  0.00000000000E+00  0.00000000000E+00  0.21881788960E+04  0.21881788960E+04  0.25500000920E-02 0. -1.
       -2   -1    0    0    0  501  0.00000000000E+00  0.00000000000E+00 -0.71905271103E+03  0.71905271104E+03  0.25500000920E-02 0.  1.
    10030    2    1    2    0    0  0.00000000000E+00  0.00000000000E+00  0.14691261849E+04  0.29072316070E+04  0.25087175747E+04 0.  0.
        3    1    3    3  502    0 -0.10348134062E+04  0.44901297754E+02  0.15544545918E+04  0.18679357591E+04  0.10100000352E+00 0. -1.
       -3    1    3    3    0  502  0.10348134062E+04 -0.44901297754E+02 -0.85328406872E+02  0.10392958478E+04  0.10100000352E+00 0.  1.
</event>
<event>
 5   0  0.1574896E-06  0.2502047E+04  0.7818609E-02  0.8402257E-01
        1   -1    0    0  501    0  0.00000000000E+00  0.00000000000E+00  0.16318449602E+04  0.16318449602E+04  0.50400001928E-02 0.  1.
       -1   -1    0    0    0  501  0.00000000000E+00  0.00000000000E+00 -0.95907353097E+03  0.95907353098E+03  0.50400001928E-02 0. -1.
    10030    2    1    2    0    0  0.00000000000E+00  0.00000000000E+00  0.67277142921E+03  0.25909184912E+04  0.25020466087E+04 0.  0.
        3    1    3    3  502    0 -0.16722318647E+02  0.86575905978E+03 -0.59859216927E+03  0.10526780043E+04  0.10100000352E+00 0. -1.
       -3    1    3    3    0  502  0.16722318647E+02 -0.86575905978E+03  0.12713635985E+04  0.15382404868E+04  0.10100000352E+00 0.  1.
</event>
<event>
 5   0  0.1574896E-06  0.2500348E+04  0.7818609E-02  0.8402861E-01
        1   -1    0    0  501    0  0.00000000000E+00  0.00000000000E+00  0.12684986155E+04  0.12684986156E+04  0.50400001928E-02 0. -1.
       -1   -1    0    0    0  501  0.00000000000E+00  0.00000000000E+00 -0.12321144892E+04  0.12321144892E+04  0.50400001928E-02 0.  1.
    10030    2    1    2    0    0  0.00000000000E+00  0.00000000000E+00  0.36384126317E+02  0.25006131048E+04  0.25003483948E+04 0.  0.
        3    1    3    3  502    0  0.10790681088E+04  0.62417273856E+03 -0.76453691835E+02  0.12489294489E+04  0.10100000352E+00 0. -1.
       -3    1    3    3    0  502 -0.10790681088E+04 -0.62417273856E+03  0.11283781815E+03  0.12516836559E+04  0.10100000352E+00 0.  1.
</event>
<event>
 5   0  0.1519145E-06  0.2487413E+04  0.7818609E-02  0.8407484E-01
       -1   -1    0    0    0  501  0.00000000000E+00  0.00000000000E+00  0.13796003081E+04  0.13796003081E+04  0.50400001928E-02 0. -1.
        1   -1    0    0  501    0  0.00000000000E+00  0.00000000000E+00 -0.11211982058E+04  0.11211982058E+04  0.50400001928E-02 0.  1.
    10030    2    1    2    0    0  0.00000000000E+00  0.00000000000E+00  0.25840210226E+03  0.25007985139E+04  0.24874126238E+04 0.  0.
        4    1    3    3  502    0 -0.11497325626E+04 -0.42212172435E+03 -0.88138286315E+02  0.12279420532E+04  0.12699999809E+01 0.  1.
       -4    1    3    3    0  502  0.11497325626E+04  0.42212172435E+03  0.34654038857E+03  0.12728564607E+04  0.12699999809E+01 0. -1.
</event>
<event>
 5   0  0.3713394E-06  0.2499851E+04  0.7818609E-02  0.8403039E-01
       -2   -1    0    0    0  501  0.00000000000E+00  0.00000000000E+00  0.66815791735E+03  0.66815791735E+03  0.25500000920E-02 0. -1.
        2   -1    0    0  501    0  0.00000000000E+00  0.00000000000E+00 -0.23382406494E+04  0.23382406494E+04  0.25500000920E-02 0.  1.
    10030    2    1    2    0    0  0.00000000000E+00  0.00000000000E+00 -0.16700827320E+04  0.30063985667E+04  0.24998511976E+04 0.  0.
        3    1    3    3  502    0  0.18540080483E+03  0.11968219752E+04 -0.12068035640E+04  0.17097166873E+04  0.10100000352E+00 0.  1.
       -3    1    3    3    0  502 -0.18540080483E+03 -0.11968219752E+04 -0.46327916804E+03  0.12966818794E+04  0.10100000352E+00 0. -1.
</event>
<event>
 5   0  0.1501747E-06  0.2504794E+04  0.7818609E-02  0.8401280E-01
        1   -1    0    0  501    0  0.00000000000E+00  0.00000000000E+00  0.10218392441E+04  0.10218392441E+04  0.50400001928E-02 0.  1.
       -1   -1    0    0    0  501  0.00000000000E+00  0.00000000000E+00 -0.15349759711E+04  0.15349759711E+04  0.50400001928E-02 0. -1.
    10030    2    1    2    0    0  0.00000000000E+00  0.00000000000E+00 -0.51313672702E+03  0.25568152152E+04  0.25047943516E+04 0.  0.
        2    1    3    3  502    0 -0.11090116389E+04  0.11336976776E+03 -0.83915733236E+03  0.13953295482E+04  0.25500000920E-02 0. -1.
       -2    1    3    3    0  502  0.11090116389E+04 -0.11336976776E+03  0.32602060535E+03  0.11614856670E+04  0.25500000920E-02 0.  1.
</event>
<event>
 5   0  0.3924441E-06  0.2491127E+04  0.7818609E-02  0.8406154E-01
        2   -1    0    0  501    0  0.00000000000E+00  0.00000000000E+00  0.13651341542E+04  0.13651341542E+04  0.25500000920E-02 0. -1.
       -2   -1    0    0    0  501  0.00000000000E+00  0.00000000000E+00 -0.11364655705E+04  0.11364655705E+04  0.25500000920E-02 0.  1.
    10030    2    1    2    0    0  0.00000000000E+00  0.00000000000E+00  0.22866858371E+03  0.25015997248E+04  0.24911266250E+04 0.  0.
        2    1    3    3  502    0 -0.46654797601E+02 -0.33275146782E+03 -0.10900945310E+04  0.11407042982E+04  0.25500000920E-02 0.  1.
       -2    1    3    3    0  502  0.46654797601E+02  0.33275146782E+03  0.13187631147E+04  0.13608954266E+04  0.25500000920E-02 0. -1.
</event>
<event>
 5   0  0.3713394E-06  0.2503665E+04  0.7818609E-02  0.8401681E-01
       -2   -1    0    0    0  501  0.00000000000E+00  0.00000000000E+00  0.12332948481E+04  0.12332948481E+04  0.25500000920E-02 0.  1.
        2   -1    0    0  501    0  0.00000000000E+00  0.00000000000E+00 -0.12706484235E+04  0.12706484235E+04  0.25500000920E-02 0. -1.
    10030    2    1    2    0    0  0.00000000000E+00  0.00000000000E+00 -0.37353575381E+02  0.25039432716E+04  0.25036646377E+04 0.  0.
        3    1    3    3  502    0  0.18814545117E+03 -0.10694505243E+04  0.60425769281E+03  0.12426787615E+04  0.10100000352E+00 0. -1.
       -3    1    3    3    0  502 -0.18814545117E+03  0.10694505243E+04 -0.64161126819E+03  0.12612645101E+04  0.10100000352E+00 0.  1.
</event>
<event>
 5   0  0.1519145E-06  0.2502360E+04  0.7818609E-02  0.8402145E-01
       -1   -1    0    0    0  501  0.00000000000E+00  0.00000000000E+00  0.73521562042E+03  0.73521562044E+03  0.50400001928E-02 0.  1.
        1   -1    0    0  501    0  0.00000000000E+00  0.00000000000E+00 -0.21292416036E+04  0.21292416036E+04  0.50400001928E-02 0. -1.
    10030    2    1    2    0    0  0.00000000000E+00  0.00000000000E+00 -0.13940259831E+04  0.28644572240E+04  0.25023602352E+04 0.  0.
        4    1    3    3  502    0  0.10871826711E+04  0.11436282554E+03 -0.33680654183E+00  0.10931819348E+04  0.12699999809E+01 0.  1.
       -4    1    3    3    0  502 -0.10871826711E+04 -0.11436282554E+03 -0.13936891766E+04  0.17712752892E+04  0.12699999809E+01 0. -1.
</event>
<event>
 5   0  0.1553604E-06  0.2500519E+04  0.7818609E-02  0.8402801E-01
       -1   -1    0    0    0  501  0.00000000000E+00  0.00000000000E+00  0.13426057911E+04  0.13426057911E+04  0.50400001928E-02 0.  1.
        1   -1    0    0  501    0  0.00000000000E+00  0.00000000000E+00 -0.11642644615E+04  0.11642644615E+04  0.50400001928E-02 0. -1.
    10030    2    1    2    0    0  0.00000000000E+00  0.00000000000E+00  0.17834132961E+03  0.25068702526E+04  0.25005185130E+04 0.  0.
        1    1    3    3  502    0  0.11296925448E+04 -0.10210551607E+03  0.61635565355E+03  0.12909396090E+04  0.50400001928E-02 0.  1.
       -1    1    3    3    0  502 -0.11296925448E+04  0.10210551607E+03 -0.43801432393E+03  0.12159306437E+04  0.50400001928E-02 0. -1.
</event>
<event>
 5   0  0.3713394E-06  0.2491417E+04  0.7818609E-02  0.8406050E-01
       -2   -1    0    0    0  501  0.00000000000E+00  0.00000000000E+00  0.14509728098E+04  0.14509728098E+04  0.25500000920E-02 0.  1.
        2   -1    0    0  501    0  0.00000000000E+00  0.00000000000E+00 -0.10694821164E+04  0.10694821164E+04  0.25500000920E-02 0. -1.
    10030    2    1    2    0    0  0.00000000000E+00  0.00000000000E+00  0.38149069339E+03  0.25204549263E+04  0.24914168431E+04 0.  0.
        3    1    3    3  502    0 -0.41034403383E+03  0.10053506820E+04 -0.42684283288E+03  0.11667506307E+04  0.10100000352E+00 0. -1.
       -3    1    3    3    0  502  0.41034403383E+03 -0.10053506820E+04  0.80833352626E+03  0.13537042956E+04  0.10100000352E+00 0.  1.
</event>
<event>
 5   0  0.3814260E-06  0.2501191E+04  0.7818609E-02  0.8402561E-01
       -2   -1    0    0    0  501  0.00000000000E+00  0.00000000000E+00  0.79246154130E+03  0.79246154131E+03  0.25500000920E-02 0.  1.
        2   -1    0    0  501    0  0.00000000000E+00  0.00000000000E+00 -0.19735839268E+04  0.19735839268E+04  0.25500000920E-02 0. -1.
    10030    2    1    2    0    0  0.00000000000E+00  0.00000000000E+00 -0.11811223855E+04  0.27660454681E+04  0.25011912046E+04 0.  0.
        5    1    3    3  502    0 -0.94706745980E+03  0.62491917591E+02 -0.14911161202E+04  0.17675665156E+04  0.46999998093E+01 0. -1.
       -5    1    3    3    0  502  0.94706745980E+03 -0.62491917591E+02  0.30999373465E+03  0.99847895255E+03  0.46999998093E+01 0.  1.
</event>
<event>
 5   0  0.1574896E-06  0.2499789E+04  0.7818609E-02  0.8403061E-01
        1   -1    0    0  501    0  0.00000000000E+00  0.00000000000E+00  0.13913452611E+04  0.13913452611E+04  0.50400001928E-02 0. -1.
       -1   -1    0    0    0  501  0.00000000000E+00  0.00000000000E+00 -0.11228243394E+04  0.11228243394E+04  0.50400001928E-02 0.  1.
    10030    2    1    2    0    0  0.00000000000E+00  0.00000000000E+00  0.26852092171E+03  0.25141696006E+04  0.24997890501E+04 0.  0.
        3    1    3    3  502    0 -0.72220910906E+03  0.91029591103E+03 -0.32883560735E+03  0.12076247388E+04  0.10100000352E+00 0.  1.
       -3    1    3    3    0  502  0.72220910906E+03 -0.91029591103E+03  0.59735652906E+03  0.13065448618E+04  0.10100000352E+00 0. -1.
</event>
<event>
 5   0  0.1519145E-06  0.2494152E+04  0.7818609E-02  0.8405072E-01
        1   -1    0    0  501    0  0.00000000000E+00  0.00000000000E+00  0.18966490998E+04  0.18966490998E+04  0.50400001928E-02 0.  1.
       -1   -1    0    0    0  501  0.00000000000E+00  0.00000000000E+00 -0.81997148763E+03  0.81997148764E+03  0.50400001928E-02 0. -1.
    10030    2    1    2    0    0  0.00000000000E+00  0.00000000000E+00  0.10766776122E+04  0.27166205874E+04  0.24941517066E+04 0.  0.
        4    1    3    3  502    0  0.73713350241E+03  0.49321425593E+01 -0.55726830489E+03  0.92408857959E+03  0.12699999809E+01 0. -1.
       -4    1    3    3    0  502 -0.73713350241E+03 -0.49321425593E+01  0.16339459171E+04  0.17925320078E+04  0.12699999809E+01 0.  1.
</event>
<event>
 5   0  0.1501747E-06  0.2498856E+04  0.7818609E-02  0.8403393E-01
       -1   -1    0    0    0  501  0.00000000000E+00  0.00000000000E+00  0.16909137789E+04  0.16909137790E+04  0.50400001928E-02 0. -1.
        1   -1    0    0  501    0  0.00000000000E+00  0.00000000000E+00 -0.92321122612E+03  0.92321122614E+03  0.50400001928E-02 0.  1.
    10030    2    1    2    0    0  0.00000000000E+00  0.00000000000E+00  0.76770255282E+03  0.26141250051E+04  0.24988562049E+04 0.  0.
        2    1    3    3  502    0 -0.53969232499E+03 -0.36105577700E+03  0.15005373572E+04  0.16350050276E+04  0.25500000920E-02 0. -1.
       -2    1    3    3    0  502  0.53969232499E+03  0.36105577700E+03 -0.73283480442E+03  0.97911997750E+03  0.25500000920E-02 0.  1.
</event>
<event>
 5   0  0.3971759E-06  0.2498194E+04  0.7818609E-02  0.8403629E-01
        2   -1    0    0  501    0  0.00000000000E+00  0.00000000000E+00  0.17091765344E+04  0.17091765344E+04  0.25500000920E-02 0.  1.
       -2   -1    0    0    0  501  0.00000000000E+00  0.00000000000E+00 -0.91286224679E+03  0.91286224680E+03  0.25500000920E-02 0. -1.
    10030    2    1    2    0    0  0.00000000000E+00  0.00000000000E+00  0.79631428763E+03  0.26220387812E+04  0.24981935324E+04 0.  0.
        4    1    3    3  502    0  0.84129113852E+03 -0.88645689895E+03  0.12716271623E+03  0.12287182683E+04  0.12699999809E+01 0.  1.
       -4    1    3    3    0  502 -0.84129113852E+03  0.88645689895E+03  0.66915157140E+03  0.13933205130E+04  0.12699999809E+01 0. -1.
</event>
<event>
 5   0  0.1541852E-06  0.2498992E+04  0.7818609E-02  0.8403345E-01
        1   -1    0    0  501    0  0.00000000000E+00  0.00000000000E+00  0.45939872451E+03  0.45939872454E+03  0.50400001928E-02 0.  1.
       -1   -1    0    0    0  501  0.00000000000E+00  0.00000000000E+00 -0.33984428990E+04  0.33984428990E+04  0.50400001928E-02 0. -1.
    10030    2    1    2    0    0  0.00000000000E+00  0.00000000000E+00 -0.29390441744E+04  0.38578416235E+04  0.24989920633E+04 0.  0.
        5    1    3    3  502    0 -0.32237824645E+02 -0.12371194610E+04 -0.12034109581E+04  0.17261876671E+04  0.46999998093E+01 0. -1.
       -5    1    3    3    0  502  0.32237824645E+02  0.12371194610E+04 -0.17356332164E+04  0.21316539564E+04  0.46999998093E+01 0.  1.
</event>
<event>
 5   0  0.3814260E-06  0.2502522E+04  0.7818609E-02  0.8402088E-01
       -2   -1    0    0    0  501  0.00000000000E+00  0.00000000000E+00  0.10713133285E+04  0.10713133285E+04  0.25500000920E-02 0. -1.
        2   -1    0    0  501    0  0.00000000000E+00  0.00000000000E+00 -0.14614342124E+04  0.14614342124E+04  0.25500000920E-02 0.  1.
    10030    2    1    2    0    0  0.00000000000E+00  0.00000000000E+00 -0.39012088388E+03  0.25327475409E+04  0.25025218883E+04 0.  0.
        5    1    3    3  502    0  0.13955801491E+03 -0.73977354786E+03 -0.12065769225E+04  0.14221783649E+04  0.46999998093E+01 0.  1.
       -5    1    3    3    0  502 -0.13955801491E+03  0.73977354786E+03  0.81645603861E+03  0.11105691760E+04  0.46999998093E+01 0. -1.
</event>
<event>
 5   0  0.1501747E-06  0.2499300E+04  0.7818609E-02  0.8403235E-01
       -1   -1    0    0    0  501  0.00000000000E+00  0.00000000000E+00  0.13002745978E+04  0.13002745978E+04  0.50400001928E-02 0. -1.
        1   -1    0    0  501    0  0.00000000000E+00  0.00000000000E+00 -0.12009967204E+04  0.12009967204E+04  0.50400001928E-02 0.  1.
    10030    2    1    2    0    0  0.00000000000E+00  0.00000000000E+00  0.99277877425E+02  0.25012713182E+04  0.24993003242E+04 0.  0.
        2    1    3    3  502    0 -0.34139296665E+03  0.59500679391E+03 -0.99571497127E+03  0.12091445515E+04  0.25500000920E-02 0.  1.
       -2    1    3    3    0  502  0.34139296665E+03 -0.59500679391E+03  0.10949928487E+04  0.12921267667E+04  0.25500000920E-02 0. -1.
</event>
<event>
 5   0  0.3808293E-06  0.2496377E+04  0.7818609E-02  0.8404277E-01
       -2   -1    0    0    0  501  0.00000000000E+00  0.00000000000E+00  0.20264947816E+04  0.20264947816E+04  0.25500000920E-02 0.  1.
        2   -1    0    0  501    0  0.00000000000E+00  0.00000000000E+00 -0.76880256074E+03  0.76880256074E+03  0.25500000920E-02 0. -1.
    10030    2    1    2    0    0  0.00000000000E+00  0.00000000000E+00  0.12576922209E+04  0.27952973424E+04  0.24963768765E+04 0.  0.
        1    1    3    3  502    0 -0.45256409178E+03 -0.15724825010E+03 -0.66174213681E+03  0.81697241384E+03  0.50400001928E-02 0. -1.
       -1    1    3    3    0  502  0.45256409178E+03  0.15724825010E+03  0.19194343577E+04  0.19783249285E+04  0.50400001928E-02 0.  1.
</event>
<event>
 5   0  0.1541852E-06  0.2529556E+04  0.7818609E-02  0.8392531E-01
       -1   -1    0    0    0  501  0.00000000000E+00  0.00000000000E+00  0.10170499770E+04  0.10170499770E+04  0.50400001928E-02 0. -1.
        1   -1    0    0  501    0  0.00000000000E+00  0.00000000000E+00 -0.15728461090E+04  0.15728461091E+04  0.50400001928E-02 0.  1.
    10030    2    1    2    0    0  0.00000000000E+00  0.00000000000E+00 -0.55579613202E+03  0.25898960861E+04  0.25295557706E+04 0.  0.
        5    1    3    3  502    0 -0.16166285644E+03  0.69025033996E+03 -0.13502896301E+04  0.15250851078E+04  0.46999998093E+01 0.  1.
       -5    1    3    3    0  502  0.16166285644E+03 -0.69025033996E+03  0.79449349808E+03  0.10648109783E+04  0.46999998093E+01 0. -1.
</event>
<event>
 5   0  0.1501747E-06  0.2496162E+04  0.7818609E-02  0.8404354E-01
       -1   -1    0    0    0  501  0.00000000000E+00  0.00000000000E+00  0.13086152768E+04  0.13086152768E+04  0.50400001928E-02 0.  1.
        1   -1    0    0  501    0  0.00000000000E+00  0.00000000000E+00 -0.11903467718E+04  0.11903467718E+04  0.50400001928E-02 0. -1.
    10030    2    1    2    0    0  0.00000000000E+00  0.00000000000E+00  0.11826850497E+03  0.24989620486E+04  0.24961618299E+04 0.  0.
        2    1    3    3  502    0 -0.17680957409E+03 -0.76879777166E+03 -0.90910857716E+03  0.12036569463E+04  0.25500000920E-02 0. -1.
       -2    1    3    3    0  502  0.17680957409E+03  0.76879777166E+03  0.10273770821E+04  0.12953051023E+04  0.25500000920E-02 0.  1.
</event>
<event>
 5   0  0.3924441E-06  0.2487826E+04  0.7818609E-02  0.8407335E-01
       -2   -1    0    0    0  501  0.00000000000E+00  0.00000000000E+00  0.12847293695E+04  0.12847293695E+04  0.25500000920E-02 0. -1.
        2   -1    0    0  501    0  0.00000000000E+00  0.00000000000E+00 -0.12043935882E+04  0.12043935882E+04  0.25500000920E-02 0.  1.
    10030    2    1    2    0    0  0.00000000000E+00  0.00000000000E+00  0.80335781238E+02  0.24891229577E+04  0.24878262119E+04 0.  0.
        2    1    3    3  502    0  0.55370461836E+03  0.10209979821E+04 -0.40536650916E+03  0.12301819746E+04  0.25500000920E-02 0.  1.
       -2    1    3    3    0  502 -0.55370461836E+03 -0.10209979821E+04  0.48570229040E+03  0.12589409831E+04  0.25500000920E-02 0. -1.
</event>
<event>
 5   0  0.3924441E-06  0.2501437E+04  0.7818609E-02  0.8402474E-01
        2   -1    0    0  501    0  0.00000000000E+00  0.00000000000E+00  0.12894798359E+04  0.12894798360E+04  0.25500000920E-02 0.  1.
       -2   -1    0    0    0  501  0.00000000000E+00  0.00000000000E+00 -0.12131227221E+04  0.12131227221E+04  0.25500000920E-02 0. -1.
    10030    2    1    2    0    0  0.00000000000E+00  0.00000000000E+00  0.76357113886E+02  0.25026025580E+04  0.25014374177E+04 0.  0.
        2    1    3    3  502    0  0.42952739081E+03  0.11476192136E+04  0.28884196044E+03  0.12589492909E+04  0.25500000920E-02 0.  1.
       -2    1    3    3    0  502 -0.42952739081E+03 -0.11476192136E+04 -0.21248484655E+03  0.12436532671E+04  0.25500000920E-02 0. -1.
</event>
<event>
 5   0  0.3971759E-06  0.2497833E+04  0.7818609E-02  0.8403758E-01
       -2   -1    0    0    0  501  0.00000000000E+00  0.00000000000E+00  0.17845073134E+04  0.17845073134E+04  0.25500000920E-02 0.  1.
        2   -1    0    0  501    0  0.00000000000E+00  0.00000000000E+00 -0.87407451290E+03  0.87407451290E+03  0.25500000920E-02 0. -1.
    10030    2    1    2    0    0  0.00000000000E+00  0.00000000000E+00  0.91043280050E+03  0.26585818263E+04  0.24978329494E+04 0.  0.
        4    1    3    3  502    0  0.10691622791E+04 -0.35044351272E+03 -0.12177033566E+03  0.11317014899E+04  0.12699999809E+01 0. -1.
       -4    1    3    3    0  502 -0.10691622791E+04  0.35044351272E+03  0.10322031362E+04  0.15268803364E+04  0.12699999809E+01 0.  1.
</event>
<event>
 5   0  0.3924441E-06  0.2499952E+04  0.7818609E-02  0.8403003E-01
       -2   -1    0    0    0  501  0.00000000000E+00  0.00000000000E+00  0.73779201514E+03  0.73779201514E+03  0.25500000920E-02 0.  1.
        2   -1    0    0  501    0  0.00000000000E+00  0.00000000000E+00 -0.21177237935E+04  0.21177237935E+04  0.25500000920E-02 0. -1.
    10030    2    1    2    0    0  0.00000000000E+00  0.00000000000E+00 -0.13799317783E+04  0.28555158086E+04  0.24999517636E+04 0.  0.
        2    1    3    3  502    0  0.82080245280E+03 -0.48313879528E+03  0.23467480863E+03  0.98092406834E+03  0.25500000920E-02 0.  1.
       -2    1    3    3    0  502 -0.82080245280E+03  0.48313879528E+03 -0.16146065870E+04  0.18745917403E+04  0.25500000920E-02 0. -1.
</event>
<event>
 5   0  0.3924441E-06  0.2503263E+04  0.7818609E-02  0.8401824E-01
       -2   -1    0    0    0  501  0.00000000000E+00  0.00000000000E+00  0.11944571365E+04  0.11944571365E+04  0.25500000920E-02 0.  1.
        2   -1    0    0  501    0  0.00000000000E+00  0.00000000000E+00 -0.13115429343E+04  0.13115429343E+04  0.25500000920E-02 0. -1.
    10030    2    1    2    0    0  0.00000000000E+00  0.00000000000E+00 -0.11708579786E+03  0.25060000708E+04  0.25032633243E+04 0.  0.
        2    1    3    3  502    0 -0.72828038228E+03  0.59115241187E+03 -0.88813961440E+03  0.12917606063E+04  0.25500000920E-02 0. -1.
       -2    1    3    3    0  502  0.72828038228E+03 -0.59115241187E+03  0.77105381654E+03  0.12142394646E+04  0.25500000920E-02 0.  1.
</event>
<event>
 5   0  0.3713394E-06  0.2501026E+04  0.7818609E-02  0.8402620E-01
       -2   -1    0    0    0  501  0.00000000000E+00  0.00000000000E+00  0.15043517123E+04  0.15043517123E+04  0.25500000920E-02 0.  1.
        2   -1    0    0  501    0  0.00000000000E+00  0.00000000000E+00 -0.10395056809E+04  0.10395056809E+04  0.25500000920E-02 0. -1.
    10030    2    1    2    0    0  0.00000000000E+00  0.00000000000E+00  0.46484603138E+03  0.25438573931E+04  0.25010255104E+04 0.  0.
        3    1    3    3  502    0 -0.29475182829E+03  0.11834519888E+04 -0.48614714164E+02  0.12205739022E+04  0.10100000352E+00 0. -1.
       -3    1    3    3    0  502  0.29475182829E+03 -0.11834519888E+04  0.51346074555E+03  0.13232834910E+04  0.10100000352E+00 0.  1.
</event>
<event>
 5   0  0.1519145E-06  0.2496165E+04  0.7818609E-02  0.8404353E-01
       -1   -1    0    0    0  501  0.00000000000E+00  0.00000000000E+00  0.11877250433E+04  0.11877250433E+04  0.50400001928E-02 0. -1.
        1   -1    0    0  501    0  0.00000000000E+00  0.00000000000E+00 -0.13115074196E+04  0.13115074197E+04  0.50400001928E-02 0.  1.
    10030    2    1    2    0    0  0.00000000000E+00  0.00000000000E+00 -0.12378237639E+03  0.24992324629E+04  0.24961652243E+04 0.  0.
        4    1    3    3  502    0  0.12352082005E+04 -0.16711068169E+03  0.17740156823E+01  0.12464630113E+04  0.12699999809E+01 0. -1.
       -4    1    3    3    0  502 -0.12352082005E+04  0.16711068169E+03 -0.12555639208E+03  0.12527694516E+04  0.12699999809E+01 0.  1.
</event>
<event>
 5   0  0.1553604E-06  0.2500118E+04  0.7818609E-02  0.8402943E-01
       -1   -1    0    0    0  501  0.00000000000E+00  0.00000000000E+00  0.67477870735E+03  0.67477870737E+03  0.50400001928E-02 0.  1.
        1   -1    0    0  501    0  0.00000000000E+00  0.00000000000E+00 -0.23157927074E+04  0.23157927074E+04  0.50400001928E-02 0. -1.
    10030    2    1    2    0    0  0.00000000000E+00  0.00000000000E+00 -0.16410140001E+04  0.29905714148E+04  0.25001180849E+04 0.  0.
        1    1    3    3  502    0  0.53493342959E+03 -0.10352065645E+04 -0.27912686445E+03  0.11982145933E+04  0.50400001928E-02 0.  1.
       -1    1    3    3    0  502 -0.53493342959E+03  0.10352065645E+04 -0.13618871356E+04  0.17923568214E+04  0.50400001928E-02 0. -1.
</event>
<event>
 5   0  0.1574896E-06  0.2499927E+04  0.7818609E-02  0.8403011E-01
       -1   -1    0    0    0  501  0.00000000000E+00  0.00000000000E+00  0.12784624671E+04  0.12784624671E+04  0.50400001928E-02 0. -1.
        1   -1    0    0  501    0  0.00000000000E+00  0.00000000000E+00 -0.12221000000E+04  0.12221000000E+04  0.50400001928E-02 0.  1.
    10030    2    1    2    0    0  0.00000000000E+00  0.00000000000E+00  0.56362467075E+02  0.25005624671E+04  0.24999271838E+04 0.  0.
        3    1    3    3  502    0 -0.93896746736E+02 -0.38025951680E+03 -0.11591313927E+04  0.12235193071E+04  0.10100000352E+00 0.  1.
       -3    1    3    3    0  502  0.93896746736E+02  0.38025951680E+03  0.12154938598E+04  0.12770431600E+04  0.10100000352E+00 0. -1.
</event>
<event>
 5   0  0.1501747E-06  0.2489443E+04  0.7818609E-02  0.8406756E-01
       -1   -1    0    0    0  501  0.00000000000E+00  0.00000000000E+00  0.84255842065E+03  0.84255842067E+03  0.50400001928E-02 0. -1.
        1   -1    0    0  501    0  0.00000000000E+00  0.00000000000E+00 -0.18388422485E+04  0.18388422485E+04  0.50400001928E-02 0.  1.
    10030    2    1    2    0    0  0.00000000000E+00  0.00000000000E+00 -0.99628382786E+03  0.26814006692E+04  0.24894433280E+04 0.  0.
        2    1    3    3  502    0 -0.69133663958E+03  0.80236128654E+03  0.20619321956E+03  0.10790021442E+04  0.25500000920E-02 0. -1.
       -2    1    3    3    0  502  0.69133663958E+03 -0.80236128654E+03 -0.12024770474E+04  0.16023985250E+04  0.25500000920E-02 0.  1.
</event>
<event>
 5   0  0.1574896E-06  0.2479510E+04  0.7818609E-02  0.8410322E-01
        1   -1    0    0  501    0  0.00000000000E+00  0.00000000000E+00  0.18578373022E+04  0.18578373022E+04  0.50400001928E-02 0. -1.
       -1   -1    0    0    0  501  0.00000000000E+00  0.00000000000E+00 -0.82730216376E+03  0.82730216377E+03  0.50400001928E-02 0.  1.
    10030    2    1    2    0    0  0.00000000000E+00  0.00000000000E+00  0.10305351385E+04  0.26851394660E+04  0.24795102904E+04 0.  0.
        3    1    3    3  502    0 -0.96290001215E+03 -0.62931472278E+03  0.10159747447E+04  0.15347371585E+04  0.10100000352E+00 0. -1.
       -3    1    3    3    0  502  0.96290001215E+03  0.62931472278E+03  0.14560393737E+02  0.11504023074E+04  0.10100000352E+00 0.  1.
</event>
<event>
 5   0  0.3971759E-06  0.2498709E+04  0.7818609E-02  0.8403446E-01
        2   -1    0    0  501    0  0.00000000000E+00  0.00000000000E+00  0.11948491279E+04  0.11948491279E+04  0.25500000920E-02 0.  1.
       -2   -1    0    0    0  501  0.00000000000E+00  0.00000000000E+00 -0.13063460909E+04  0.13063460909E+04  0.25500000920E-02 0. -1.
    10030    2    1    2    0    0  0.00000000000E+00  0.00000000000E+00 -0.11149696298E+03  0.25011952188E+04  0.24987088565E+04 0.  0.
        4    1    3    3  502    0 -0.80131410181E+03  0.26731565588E+03 -0.97716588752E+03  0.12916720692E+04  0.12699999809E+01 0. -1.
       -4    1    3    3    0  502  0.80131410181E+03 -0.26731565588E+03  0.86566892454E+03  0.12095231496E+04  0.12699999809E+01 0.  1.
</event>
<event>
 5   0  0.3971759E-06  0.2500869E+04  0.7818609E-02  0.8402676E-01
        2   -1    0    0  501    0  0.00000000000E+00  0.00000000000E+00  0.28492873001E+04  0.28492873001E+04  0.25500000920E-02 0. -1.
       -2   -1    0    0    0  501  0.00000000000E+00  0.00000000000E+00 -0.54876423344E+03  0.54876423345E+03  0.25500000920E-02 0.  1.
    10030    2    1    2    0    0  0.00000000000E+00  0.00000000000E+00  0.23005230667E+04  0.33980515336E+04  0.25008694177E+04 0.  0.
        4    1    3    3  502    0  0.45158556621E+03  0.62676202735E+03 -0.18575835370E+03  0.79452371985E+03  0.12699999809E+01 0.  1.
       -4    1    3    3    0  502 -0.45158556621E+03 -0.62676202735E+03  0.24862814204E+04  0.26035278137E+04  0.12699999809E+01 0. -1.
</event>
<event>
 5   0  0.3924441E-06  0.2500756E+04  0.7818609E-02  0.8402716E-01
       -2   -1    0    0    0  501  0.00000000000E+00  0.00000000000E+00  0.98759213538E+03  0.98759213539E+03  0.25500000920E-02 0.  1.
        2   -1    0    0  501    0  0.00000000000E+00  0.00000000000E+00 -0.15830881880E+04  0.15830881880E+04  0.25500000920E-02 0. -1.
    10030    2    1    2    0    0  0.00000000000E+00  0.00000000000E+00 -0.59549605263E+03  0.25706803234E+04  0.25007562409E+04 0.  0.
        2    1    3    3  502    0 -0.88670139703E+02 -0.47868943541E+03  0.88616672298E+03  0.10110872515E+04  0.25500000920E-02 0.  1.
       -2    1    3    3    0  502  0.88670139703E+02  0.47868943541E+03 -0.14816627756E+04  0.15595930719E+04  0.25500000920E-02 0. -1.
</event>
<event>
 5   0  0.1287375E-06  0.2498648E+04  0.7818609E-02  0.8403467E-01
        3   -1    0    0  501    0  0.00000000000E+00  0.00000000000E+00  0.20584276623E+04  0.20584276647E+04  0.10100000352E+00 0.  1.
       -3   -1    0    0    0  501  0.00000000000E+00  0.00000000000E+00 -0.75825374863E+03  0.75825375536E+03  0.10100000352E+00 0. -1.
    10030    2    1    2    0    0  0.00000000000E+00  0.00000000000E+00  0.13001739136E+04  0.28166814201E+04  0.24986480378E+04 0.  0.
        1    1    3    3  502    0 -0.60626465447E+02 -0.96569629563E+03  0.15409720130E+04  0.18195712815E+04  0.50400001928E-02 0.  1.
       -1    1    3    3    0  502  0.60626465447E+02  0.96569629563E+03 -0.24079809938E+03  0.99711013855E+03  0.50400001928E-02 0. -1.
</event>
<event>
 5   0  0.1519145E-06  0.2494454E+04  0.7818609E-02  0.8404964E-01
        1   -1    0    0  501    0  0.00000000000E+00  0.00000000000E+00  0.20147144998E+04  0.20147144998E+04  0.50400001928E-02 0.  1.
       -1   -1    0    0    0  501  0.00000000000E+00  0.00000000000E+00 -0.77210701347E+03  0.77210701348E+03  0.50400001928E-02 0. -1.
    10030    2    1    2    0    0  0.00000000000E+00  0.00000000000E+00  0.12426074864E+04  0.27868215133E+04  0.24944540048E+04 0.  0.
        4    1    3    3  502    0 -0.90309241967E+03  0.39794548753E+03  0.14733431607E+04  0.17733240571E+04  0.12699999809E+01 0.  1.
       -4    1    3    3    0  502  0.90309241967E+03 -0.39794548753E+03 -0.23073567429E+03  0.10134974562E+04  0.12699999809E+01 0. -1.
</event>
<event>
 5   0  0.1574896E-06  0.2499269E+04  0.7818609E-02  0.8403246E-01
        1   -1    0    0  501    0  0.00000000000E+00  0.00000000000E+00  0.18352408984E+04  0.18352408984E+04  0.50400001928E-02 0. -1.
       -1   -1    0    0    0  501  0.00000000000E+00  0.00000000000E+00 -0.85088908547E+03  0.85088908548E+03  0.50400001928E-02 0.  1.
    10030    2    1    2    0    0  0.00000000000E+00  0.00000000000E+00  0.98435181295E+03  0.26861299839E+04  0.24992690529E+04 0.  0.
        3    1    3    3  502    0  0.55854163953E+02 -0.22941467193E+03 -0.82669656036E+03  0.85975461176E+03  0.10100000352E+00 0.  1.
       -3    1    3    3    0  502 -0.55854163953E+02  0.22941467193E+03  0.18110483733E+04  0.18263753721E+04  0.10100000352E+00 0. -1.
</event>
<event>
 5   0  0.1519145E-06  0.2498026E+04  0.7818609E-02  0.8403689E-01
        1   -1    0    0  501    0  0.00000000000E+00  0.00000000000E+00  0.11605523819E+04  0.11605523819E+04  0.50400001928E-02 0. -1.
       -1   -1    0    0    0  501  0.00000000000E+00  0.00000000000E+00 -0.13442160667E+04  0.13442160667E+04  0.50400001928E-02 0.  1.
    10030    2    1    2    0    0  0.00000000000E+00  0.00000000000E+00 -0.18366368478E+03  0.25047684487E+04  0.24980257469E+04 0.  0.
        4    1    3    3  502    0 -0.52088361510E+03  0.71341701592E+03  0.79358504118E+03  0.11874604876E+04  0.12699999809E+01 0. -1.
       -4    1    3    3    0  502  0.52088361510E+03 -0.71341701592E+03 -0.97724872596E+03  0.13173079611E+04  0.12699999809E+01 0.  1.
</event>
<event>
 5   0  0.1519145E-06  0.2538538E+04  0.7818609E-02  0.8389383E-01
       -1   -1    0    0    0  501  0.00000000000E+00  0.00000000000E+00  0.11282567052E+04  0.11282567053E+04  0.50400001928E-02 0. -1.
        1   -1    0    0  501    0  0.00000000000E+00  0.00000000000E+00 -0.14279051936E+04  0.14279051936E+04  0.50400001928E-02 0.  1.
    10030    2    1    2    0    0  0.00000000000E+00  0.00000000000E+00 -0.29964848833E+03  0.25561618988E+04  0.25385378541E+04 0.  0.
        4    1    3    3  502    0 -0.11736513877E+04 -0.44765486820E+03  0.33620510856E+02  0.12565764651E+04  0.12699999809E+01 0. -1.
       -4    1    3    3    0  502  0.11736513877E+04  0.44765486820E+03 -0.33326899919E+03  0.12995854338E+04  0.12699999809E+01 0.  1.
</event>
<event>
 5   0  0.3713394E-06  0.2498949E+04  0.7818609E-02  0.8403360E-01
       -2   -1    0    0    0  501  0.00000000000E+00  0.00000000000E+00  0.14778881608E+04  0.14778881608E+04  0.25500000920E-02 0. -1.
        2   -1    0    0  501    0  0.00000000000E+00  0.00000000000E+00 -0.10563630747E+04  0.10563630747E+04  0.25500000920E-02 0.  1.
    10030    2    1    2    0    0  0.00000000000E+00  0.00000000000E+00  0.42152508603E+03  0.25342512355E+04  0.24989489644E+04 0.  0.
        3    1    3    3  502    0  0.96924708783E+03 -0.54432720694E+03 -0.36778277664E+03  0.11708954720E+04  0.10100000352E+00 0.  1.
       -3    1    3    3    0  502 -0.96924708783E+03  0.54432720694E+03  0.78930786266E+03  0.13633557635E+04  0.10100000352E+00 0. -1.
</event>
<event>
 5   0  0.3924441E-06  0.2505706E+04  0.7818609E-02  0.8400956E-01
        2   -1    0    0  501    0  0.00000000000E+00  0.00000000000E+00  0.18724154803E+04  0.18724154803E+04  0.25500000920E-02 0. -1.
       -2   -1    0    0    0  501  0.00000000000E+00  0.00000000000E+00 -0.83829726149E+03  0.83829726150E+03  0.25500000920E-02 0.  1.
    10030    2    1    2    0    0  0.00000000000E+00  0.00000000000E+00  0.10341182188E+04  0.27107127418E+04  0.25057061037E+04 0.  0.
        2    1    3    3  502    0  0.58454499502E+02  0.14674388921E+03  0.18616000906E+04  0.18682894837E+04  0.25500000920E-02 0. -1.
       -2    1    3    3    0  502 -0.58454499502E+02 -0.14674388921E+03 -0.82748187183E+03  0.84242325807E+03  0.25500000920E-02 0.  1.
</event>
<event>
 5   0  0.3713394E-06  0.2506392E+04  0.7818609E-02  0.8400712E-01
       -2   -1    0    0    0  501  0.00000000000E+00  0.00000000000E+00  0.15765118294E+04  0.15765118294E+04  0.25500000920E-02 0. -1.
        2   -1    0    0  501    0  0.00000000000E+00  0.00000000000E+00 -0.99618707823E+03  0.99618707824E+03  0.25500000920E-02 0.  1.
    10030    2    1    2    0    0  0.00000000000E+00  0.00000000000E+00  0.58032475118E+03  0.25726989077E+04  0.25063923980E+04 0.  0.
        3    1    3    3  502    0 -0.23040996553E+02  0.47385631921E+03 -0.90045016267E+03  0.10177824937E+04  0.10100000352E+00 0.  1.
       -3    1    3    3    0  502  0.23040996553E+02 -0.47385631921E+03  0.14807749138E+04  0.15549164140E+04  0.10100000352E+00 0. -1.
</event>
<event>
 5   0  0.3814260E-06  0.2502200E+04  0.7818609E-02  0.8402202E-01
       -2   -1    0    0    0  501  0.00000000000E+00  0.00000000000E+00  0.87166304582E+03  0.87166304582E+03  0.25500000920E-02 0.  1.
        2   -1    0    0  501    0  0.00000000000E+00  0.00000000000E+00 -0.17957072385E+04  0.17957072385E+04  0.25500000920E-02 0. -1.
    10030    2    1    2    0    0  0.00000000000E+00  0.00000000000E+00 -0.92404419264E+03  0.26673702843E+04  0.25022003444E+04 0.  0.
        5    1    3    3  502    0  0.95154863543E+03  0.31153559872E+03  0.33764897499E+03  0.10566589588E+04  0.46999998093E+01 0.  1.
       -5    1    3    3    0  502 -0.95154863543E+03 -0.31153559872E+03 -0.12616931676E+04  0.16107113255E+04  0.46999998093E+01 0. -1.
</event>
<event>
 5   0  0.1541852E-06  0.2502216E+04  0.7818609E-02  0.8402196E-01
        1   -1    0    0  501    0  0.00000000000E+00  0.00000000000E+00  0.84800995845E+03  0.84800995846E+03  0.50400001928E-02 0. -1.
       -1   -1    0    0    0  501  0.00000000000E+00  0.00000000000E+00 -0.18458174645E+04  0.18458174645E+04  0.50400001928E-02 0.  1.
    10030    2    1    2    0    0  0.00000000000E+00  0.00000000000E+00 -0.99780750602E+03  0.26938274229E+04  0.25022162907E+04 0.  0.
        5    1    3    3  502    0 -0.40027917350E+03 -0.11313753084E+04 -0.87955540197E+03  0.14879090363E+04  0.46999998093E+01 0. -1.
       -5    1    3    3    0  502  0.40027917350E+03  0.11313753084E+04 -0.11825210405E+03  0.12059183866E+04  0.46999998093E+01 0.  1.
</event>
<event>
 5   0  0.1501747E-06  0.2505926E+04  0.7818609E-02  0.8400877E-01
        1   -1    0    0  501    0  0.00000000000E+00  0.00000000000E+00  0.22190381819E+04  0.22190381819E+04  0.50400001928E-02 0. -1.
       -1   -1    0    0    0  501  0.00000000000E+00  0.00000000000E+00 -0.70747603597E+03  0.70747603599E+03  0.50400001928E-02 0.  1.
    10030    2    1    2    0    0  0.00000000000E+00  0.00000000000E+00  0.15115621459E+04  0.29265142179E+04  0.25059260457E+04 0.  0.
        2    1    3    3  502    0  0.32025226224E+02  0.92224794105E+03 -0.23402536025E+03  0.95201614962E+03  0.25500000920E-02 0.  1.
       -2    1    3    3    0  502 -0.32025226224E+02 -0.92224794105E+03  0.17455875062E+04  0.19744980683E+04  0.25500000920E-02 0. -1.
</event>
<event>
 5   0  0.1541852E-06  0.2502111E+04  0.7818609E-02  0.8402234E-01
       -1   -1    0    0    0  501  0.00000000000E+00  0.00000000000E+00  0.83302050945E+03  0.83302050946E+03  0.50400001928E-02 0. -1.
        1   -1    0    0  501    0  0.00000000000E+00  0.00000000000E+00 -0.18788724569E+04  0.18788724569E+04  0.50400001928E-02 0.  1.
    10030    2    1    2    0    0  0.00000000000E+00  0.00000000000E+00 -0.10458519475E+04  0.27118929664E+04  0.25021105422E+04 0.  0.
        5    1    3    3  502    0  0.96717729114E+03  0.19670163101E+03 -0.13561417774E+04  0.16772793609E+04  0.46999998093E+01 0.  1.
       -5    1    3    3    0  502 -0.96717729114E+03 -0.19670163101E+03  0.31028982991E+03  0.10346136055E+04  0.46999998093E+01 0. -1.
</event>
<event>
 5   0  0.3924441E-06  0.2504325E+04  0.7818609E-02  0.8401447E-01
        2   -1    0    0  501    0  0.00000000000E+00  0.00000000000E+00  0.11282627441E+04  0.11282627441E+04  0.25500000920E-02 0.  1.
       -2   -1    0    0    0  501  0.00000000000E+00  0.00000000000E+00 -0.13896677811E+04  0.13896677811E+04  0.25500000920E-02 0. -1.
    10030    2    1    2    0    0  0.00000000000E+00  0.00000000000E+00 -0.26140503705E+03  0.25179305252E+04  0.25043245669E+04 0.  0.
        2    1    3    3  502    0  0.30843864966E+00  0.68507739270E+03 -0.11845283162E+04  0.13683707323E+04  0.25500000920E-02 0. -1.
       -2    1    3    3    0  502 -0.30843864966E+00 -0.68507739270E+03  0.92312327910E+03  0.11495597929E+04  0.25500000920E-02 0.  1.
</event>
<event>
 5   0  0.3808293E-06  0.2501035E+04  0.7818609E-02  0.8402617E-01
       -2   -1    0    0    0  501  0.00000000000E+00  0.00000000000E+00  0.97762955317E+03  0.97762955317E+03  0.25500000920E-02 0. -1.
        2   -1    0    0  501    0  0.00000000000E+00  0.00000000000E+00 -0.15995771046E+04  0.15995771046E+04  0.25500000920E-02 0.  1.
    10030    2    1    2    0    0  0.00000000000E+00  0.00000000000E+00 -0.62194755141E+03  0.25772066578E+04  0.25010348658E+04 0.  0.
        1    1    3    3  502    0 -0.21549661621E+03 -0.51587399003E+03  0.84167744360E+03  0.10104383624E+04  0.50400001928E-02 0. -1.
       -1    1    3    3    0  502  0.21549661621E+03  0.51587399003E+03 -0.14636249950E+04  0.15667682953E+04  0.50400001928E-02 0.  1.
</event>
<event>
 5   0  0.3808293E-06  0.2468972E+04  0.7818609E-02  0.8414124E-01
        2   -1    0    0  501    0  0.00000000000E+00  0.00000000000E+00  0.96671490057E+03  0.96671490058E+03  0.25500000920E-02 0. -1.
       -2   -1    0    0    0  501  0.00000000000E+00  0.00000000000E+00 -0.15764268019E+04  0.15764268019E+04  0.25500000920E-02 0.  1.
    10030    2    1    2    0    0  0.00000000000E+00  0.00000000000E+00 -0.60971190132E+03  0.25431417025E+04  0.24689716718E+04 0.  0.
        1    1    3    3  502    0 -0.23367966986E+03  0.90890228716E+03  0.52126361155E+03  0.10735107398E+04  0.50400001928E-02 0. -1.
       -1    1    3    3    0  502  0.23367966986E+03 -0.90890228716E+03 -0.11309755129E+04  0.14696309627E+04  0.50400001928E-02 0.  1.
</event>
<event>
 5   0  0.3713394E-06  0.2493494E+04  0.7818609E-02  0.8405307E-01
       -2   -1    0    0    0  501  0.00000000000E+00  0.00000000000E+00  0.89855146147E+03  0.89855146147E+03  0.25500000920E-02 0.  1.
        2   -1    0    0  501    0  0.00000000000E+00  0.00000000000E+00 -0.17298706409E+04  0.17298706409E+04  0.25500000920E-02 0. -1.
    10030    2    1    2    0    0  0.00000000000E+00  0.00000000000E+00 -0.83131917946E+03  0.26284221024E+04  0.24934937678E+04 0.  0.
        3    1    3    3  502    0 -0.21461546978E+03 -0.12104147856E+04 -0.19653091895E+03  0.12449048821E+04  0.10100000352E+00 0.  1.
       -3    1    3    3    0  502  0.21461546978E+03  0.12104147856E+04 -0.63478826051E+03  0.13835172203E+04  0.10100000352E+00 0. -1.
</event>
<event>
 5   0  0.1519145E-06  0.2501127E+04  0.7818609E-02  0.8402584E-01
        1   -1    0    0  501    0  0.00000000000E+00  0.00000000000E+00  0.92445306055E+03  0.92445306056E+03  0.50400001928E-02 0.  1.
       -1   -1    0    0    0  501  0.00000000000E+00  0.00000000000E+00 -0.16917133037E+04  0.16917133037E+04  0.50400001928E-02 0. -1.
    10030    2    1    2    0    0  0.00000000000E+00  0.00000000000E+00 -0.76726024319E+03  0.26161663643E+04  0.25011273788E+04 0.  0.
        4    1    3    3  502    0  0.17013901326E+03 -0.93104701675E+03  0.47134645177E+03  0.10573386032E+04  0.12699999809E+01 0.  1.
       -4    1    3    3    0  502 -0.17013901326E+03  0.93104701675E+03 -0.12386066950E+04  0.15588277611E+04  0.12699999809E+01 0. -1.
</event>
<event>
 5   0  0.3713394E-06  0.2499232E+04  0.7818609E-02  0.8403259E-01
       -2   -1    0    0    0  501  0.00000000000E+00  0.00000000000E+00  0.11020326307E+04  0.11020326307E+04  0.25500000920E-02 0. -1.
        2   -1    0    0  501    0  0.00000000000E+00  0.00000000000E+00 -0.14169638762E+04  0.14169638762E+04  0.25500000920E-02 0.  1.
    10030    2    1    2    0    0  0.00000000000E+00  0.00000000000E+00 -0.31493124555E+03  0.25189965069E+04  0.24992322246E+04 0.  0.
        3    1    3    3  502    0  0.50452470371E+03  0.63188468447E+03  0.80281062039E+03  0.11394421150E+04  0.10100000352E+00 0. -1.
       -3    1    3    3    0  502 -0.50452470371E+03 -0.63188468447E+03 -0.11177418659E+04  0.13795543919E+04  0.10100000352E+00 0.  1.
</event>
<event>
 5   0  0.1501747E-06  0.2500942E+04  0.7818609E-02  0.8402650E-01
       -1   -1    0    0    0  501  0.00000000000E+00  0.00000000000E+00  0.14505583281E+04  0.14505583281E+04  0.50400001928E-02 0. -1.
        1   -1    0    0  501    0  0.00000000000E+00  0.00000000000E+00 -0.10779832738E+04  0.10779832738E+04  0.50400001928E-02 0.  1.
    10030    2    1    2    0    0  0.00000000000E+00  0.00000000000E+00  0.37257505429E+03  0.25285416019E+04  0.25009419149E+04 0.  0.
        2    1    3    3  502    0 -0.10603247111E+03 -0.16712580646E+03 -0.10620462994E+04  0.10803315520E+04  0.25500000920E-02 0.  1.
       -2    1    3    3    0  502  0.10603247111E+03  0.16712580646E+03  0.14346213537E+04  0.14482100499E+04  0.25500000920E-02 0. -1.
</event>
<event>
 5   0  0.1287375E-06  0.2501717E+04  0.7818609E-02  0.8402374E-01
        4   -1    0    0  501    0  0.00000000000E+00  0.00000000000E+00  0.97688028325E+03  0.97688110879E+03  0.12699999809E+01 0.  1.
       -4   -1    0    0    0  501  0.00000000000E+00  0.00000000000E+00 -0.16016761344E+04  0.16016766379E+04  0.12699999809E+01 0. -1.
    10030    2    1    2    0    0  0.00000000000E+00  0.00000000000E+00 -0.62479585114E+03  0.25785577467E+04  0.25017174496E+04 0.  0.
        5    1    3    3  502    0  0.12023790143E+04  0.15728003047E+03 -0.62870009415E+03  0.13659202760E+04  0.46999998093E+01 0. -1.
       -5    1    3    3    0  502 -0.12023790143E+04 -0.15728003047E+03  0.39042430124E+01  0.12126374706E+04  0.46999998093E+01 0.  1.
</event>
<event>
 5   0  0.3713394E-06  0.2500187E+04  0.7818609E-02  0.8402919E-01
        2   -1    0    0  501    0  0.00000000000E+00  0.00000000000E+00  0.12050712774E+04  0.12050712774E+04  0.25500000920E-02 0. -1.
       -2   -1    0    0    0  501  0.00000000000E+00  0.00000000000E+00 -0.12967979426E+04  0.12967979426E+04  0.25500000920E-02 0.  1.
    10030    2    1    2    0    0  0.00000000000E+00  0.00000000000E+00 -0.91726665190E+02  0.25018692201E+04  0.25001871556E+04 0.  0.
        3    1    3    3  502    0 -0.76486248147E+03 -0.61965811719E+03  0.72520237515E+03  0.12226648326E+04  0.10100000352E+00 0. -1.
       -3    1    3    3    0  502  0.76486248147E+03  0.61965811719E+03 -0.81692904034E+03  0.12792043875E+04  0.10100000352E+00 0.  1.
</event>
<event>
 5   0  0.1501747E-06  0.2502557E+04  0.7818609E-02  0.8402075E-01
        1   -1    0    0  501    0  0.00000000000E+00  0.00000000000E+00  0.16213343814E+04  0.16213343814E+04  0.50400001928E-02 0. -1.
       -1   -1    0    0    0  501  0.00000000000E+00  0.00000000000E+00 -0.96568438890E+03  0.96568438891E+03  0.50400001928E-02 0.  1.
    10030    2    1    2    0    0  0.00000000000E+00  0.00000000000E+00  0.65564999252E+03  0.25870187703E+04  0.25025565339E+04 0.  0.
        2    1    3    3  502    0  0.59959380380E+03 -0.62383234504E+03  0.12622219969E+04  0.15303215002E+04  0.25500000920E-02 0. -1.
       -2    1    3    3    0  502 -0.59959380380E+03  0.62383234504E+03 -0.60657200441E+03  0.10566972702E+04  0.25500000920E-02 0.  1.
</event>
<event>
 5   0  0.1501747E-06  0.2501800E+04  0.7818609E-02  0.8402345E-01
        1   -1    0    0  501    0  0.00000000000E+00  0.00000000000E+00  0.18688784310E+04  0.18688784310E+04  0.50400001928E-02 0. -1.
       -1   -1    0    0    0  501  0.00000000000E+00  0.00000000000E+00 -0.83726711968E+03  0.83726711969E+03  0.50400001928E-02 0.  1.
    10030    2    1    2    0    0  0.00000000000E+00  0.00000000000E+00  0.10316113113E+04  0.27061455507E+04  0.25017997210E+04 0.  0.
        2    1    3    3  502    0 -0.39601461536E+03 -0.37635247886E+03 -0.70139948139E+03  0.88906130071E+03  0.25500000920E-02 0.  1.
       -2    1    3    3    0  502  0.39601461536E+03  0.37635247886E+03  0.17330107927E+04  0.18170842500E+04  0.25500000920E-02 0. -1.
</event>
<event>
 5   0  0.1541852E-06  0.2520767E+04  0.7818609E-02  0.8395624E-01
       -1   -1    0    0    0  501  0.00000000000E+00  0.00000000000E+00  0.62665792058E+03  0.62665792060E+03  0.50400001928E-02 0. -1.
        1   -1    0    0  501    0  0.00000000000E+00  0.00000000000E+00 -0.25349816855E+04  0.25349816855E+04  0.50400001928E-02 0.  1.
    10030    2    1    2    0    0  0.00000000000E+00  0.00000000000E+00 -0.19083237649E+04  0.31616396061E+04  0.25207668292E+04 0.  0.
        5    1    3    3  502    0  0.11605246238E+04 -0.37235248561E+03 -0.13568491671E+04  0.18238765113E+04  0.46999998093E+01 0.  1.
       -5    1    3    3    0  502 -0.11605246238E+04  0.37235248561E+03 -0.55147459777E+03  0.13377630948E+04  0.46999998093E+01 0. -1.
</event>
<event>
 5   0  0.3924441E-06  0.2501722E+04  0.7818609E-02  0.8402372E-01
       -2   -1    0    0    0  501  0.00000000000E+00  0.00000000000E+00  0.33037116361E+04  0.33037116361E+04  0.25500000920E-02 0.  1.
        2   -1    0    0  501    0  0.00000000000E+00  0.00000000000E+00 -0.47360449454E+03  0.47360449455E+03  0.25500000920E-02 0. -1.
    10030    2    1    2    0    0  0.00000000000E+00  0.00000000000E+00  0.28301071416E+04  0.37773161307E+04  0.25017215509E+04 0.  0.
        2    1    3    3  502    0  0.10211451262E+04  0.68855013754E+03  0.17452116948E+04  0.21360249344E+04  0.25500000920E-02 0. -1.
       -2    1    3    3    0  502 -0.10211451262E+04 -0.68855013754E+03  0.10848954467E+04  0.16412911963E+04  0.25500000920E-02 0.  1.
</event>
<event>
 5   0  0.3924441E-06  0.2500334E+04  0.7818609E-02  0.8402867E-01
        2   -1    0    0  501    0  0.00000000000E+00  0.00000000000E+00  0.22401101253E+04  0.22401101253E+04  0.25500000920E-02 0. -1.
       -2   -1    0    0    0  501  0.00000000000E+00  0.00000000000E+00 -0.69769650063E+03  0.69769650063E+03  0.25500000920E-02 0.  1.
    10030    2    1    2    0    0  0.00000000000E+00  0.00000000000E+00  0.15424136247E+04  0.29378066259E+04  0.25003335741E+04 0.  0.
        2    1    3    3  502    0  0.14577129158E+03 -0.42239980608E+03  0.21430750152E+04  0.21891645408E+04  0.25500000920E-02 0. -1.
       -2    1    3    3    0  502 -0.14577129158E+03  0.42239980608E+03 -0.60066139054E+03  0.74864208519E+03  0.25500000920E-02 0.  1.
</event>
<event>
 5   0  0.1574896E-06  0.2495713E+04  0.7818609E-02  0.8404515E-01
       -1   -1    0    0    0  501  0.00000000000E+00  0.00000000000E+00  0.11156273669E+04  0.11156273670E+04  0.50400001928E-02 0. -1.
        1   -1    0    0  501    0  0.00000000000E+00  0.00000000000E+00 -0.13957575723E+04  0.13957575723E+04  0.50400001928E-02 0.  1.
    10030    2    1    2    0    0  0.00000000000E+00  0.00000000000E+00 -0.28013020534E+03  0.25113849393E+04  0.24957125999E+04 0.  0.
        3    1    3    3  502    0  0.11580188594E+03  0.95430260371E+03 -0.94070072167E+03  0.13449986596E+04  0.10100000352E+00 0.  1.
       -3    1    3    3    0  502 -0.11580188594E+03 -0.95430260371E+03  0.66057051633E+03  0.11663862797E+04  0.10100000352E+00 0. -1.
</event>
<event>
 5   0  0.3971759E-06  0.2497718E+04  0.7818609E-02  0.8403799E-01
        2   -1    0    0  501    0  0.00000000000E+00  0.00000000000E+00  0.24122504220E+04  0.24122504220E+04  0.25500000920E-02 0. -1.
       -2   -1    0    0    0  501  0.00000000000E+00  0.00000000000E+00 -0.64655365163E+03  0.64655365164E+03  0.25500000920E-02 0.  1.
    10030    2    1    2    0    0  0.00000000000E+00  0.00000000000E+00  0.17656967703E+04  0.30588040736E+04  0.24977184141E+04 0.  0.
        4    1    3    3  502    0  0.36109363901E+03  0.11637699493E+04  0.54769391214E+03  0.13359338851E+04  0.12699999809E+01 0.  1.
       -4    1    3    3    0  502 -0.36109363901E+03 -0.11637699493E+04  0.12180028582E+04  0.17228701885E+04  0.12699999809E+01 0. -1.
</event>
<event>
 5   0  0.1553604E-06  0.2497913E+04  0.7818609E-02  0.8403729E-01
       -1   -1    0    0    0  501  0.00000000000E+00  0.00000000000E+00  0.14700613292E+04  0.14700613293E+04  0.50400001928E-02 0.  1.
        1   -1    0    0  501    0  0.00000000000E+00  0.00000000000E+00 -0.10611073755E+04  0.10611073755E+04  0.50400001928E-02 0. -1.
    10030    2    1    2    0    0  0.00000000000E+00  0.00000000000E+00  0.40895395375E+03  0.25311687048E+04  0.24979134644E+04 0.  0.
        1    1    3    3  502    0  0.24507479748E+03  0.63407098620E+03  0.12661783971E+04  0.14371205257E+04  0.50400001928E-02 0.  1.
       -1    1    3    3    0  502 -0.24507479748E+03 -0.63407098620E+03 -0.85722444337E+03  0.10940481791E+04  0.50400001928E-02 0. -1.
</event>
<event>
 5   0  0.3924441E-06  0.2502518E+04  0.7818609E-02  0.8402089E-01
       -2   -1    0    0    0  501  0.00000000000E+00  0.00000000000E+00  0.10226375034E+04  0.10226375034E+04  0.25500000920E-02 0.  1.
        2   -1    0    0  501    0  0.00000000000E+00  0.00000000000E+00 -0.15309916061E+04  0.15309916061E+04  0.25500000920E-02 0. -1.
    10030    2    1    2    0    0  0.00000000000E+00  0.00000000000E+00 -0.50835410271E+03  0.25536291096E+04  0.25025182787E+04 0.  0.
        2    1    3    3  502    0 -0.99313349995E+03 -0.21133160087E+03  0.49197131467E+03  0.11282778774E+04  0.25500000920E-02 0. -1.
       -2    1    3    3    0  502  0.99313349995E+03  0.21133160087E+03 -0.10003254174E+04  0.14253512321E+04  0.25500000920E-02 0.  1.
</event>
<event>
 5   0  0.1541852E-06  0.2500484E+04  0.7818609E-02  0.8402813E-01
        1   -1    0    0  501    0  0.00000000000E+00  0.00000000000E+00  0.13888977989E+04  0.13888977990E+04  0.50400001928E-02 0.  1.
       -1   -1    0    0    0  501  0.00000000000E+00  0.00000000000E+00 -0.11254282286E+04  0.11254282286E+04  0.50400001928E-02 0. -1.
    10030    2    1    2    0    0  0.00000000000E+00  0.00000000000E+00  0.26346957039E+03  0.25143260275E+04  0.25004837848E+04 0.  0.
        5    1    3    3  502    0 -0.52652732171E+03  0.10633021363E+04  0.52792131874E+03  0.12986783521E+04  0.46999998093E+01 0. -1.
       -5    1    3    3    0  502  0.52652732171E+03 -0.10633021363E+04 -0.26445174835E+03  0.12156476754E+04  0.46999998093E+01 0.  1.
</event>
<event>
 5   0  0.3808293E-06  0.2497578E+04  0.7818609E-02  0.8403849E-01
        2   -1    0    0  501    0  0.00000000000E+00  0.00000000000E+00  0.16692869374E+04  0.16692869374E+04  0.25500000920E-02 0. -1.
       -2   -1    0    0    0  501  0.00000000000E+00  0.00000000000E+00 -0.93421579895E+03  0.93421579895E+03  0.25500000920E-02 0.  1.
    10030    2    1    2    0    0  0.00000000000E+00  0.00000000000E+00  0.73507113844E+03  0.26035027363E+04  0.24975782109E+04 0.  0.
        1    1    3    3  502    0  0.77765771304E+03 -0.71581225654E+03 -0.32575429565E+03  0.11060083935E+04  0.50400001928E-02 0.  1.
       -1    1    3    3    0  502 -0.77765771304E+03  0.71581225654E+03  0.10608254341E+04  0.14974943429E+04  0.50400001928E-02 0. -1.
</event>
<event>
 5   0  0.1287375E-06  0.2505050E+04  0.7818609E-02  0.8401189E-01
       -4   -1    0    0    0  501  0.00000000000E+00  0.00000000000E+00  0.17529930998E+04  0.17529935599E+04  0.12699999809E+01 0.  1.
        4   -1    0    0  501    0  0.00000000000E+00  0.00000000000E+00 -0.89493626524E+03  0.89493716636E+03  0.12699999809E+01 0. -1.
    10030    2    1    2    0    0  0.00000000000E+00  0.00000000000E+00  0.85805683458E+03  0.26479307262E+04  0.25050500194E+04 0.  0.
        5    1    3    3  502    0 -0.42732423677E+03 -0.11607112124E+04  0.63761664613E+03  0.13915579756E+04  0.46999998093E+01 0. -1.
       -5    1    3    3    0  502  0.42732423677E+03  0.11607112124E+04  0.22044018846E+03  0.12563727507E+04  0.46999998093E+01 0.  1.
</event>
<event>
 5   0  0.1553604E-06  0.2503519E+04  0.7818609E-02  0.8401733E-01
       -1   -1    0    0    0  501  0.00000000000E+00  0.00000000000E+00  0.12069538618E+04  0.12069538618E+04  0.50400001928E-02 0. -1.
        1   -1    0    0  501    0  0.00000000000E+00  0.00000000000E+00 -0.12982281214E+04  0.12982281214E+04  0.50400001928E-02 0.  1.
    10030    2    1    2    0    0  0.00000000000E+00  0.00000000000E+00 -0.91274259614E+02  0.25051819833E+04  0.25035186796E+04 0.  0.
        1    1    3    3  502    0  0.32846492111E+03 -0.59171058014E+03  0.10081013496E+04  0.12141988907E+04  0.50400001928E-02 0. -1.
       -1    1    3    3    0  502 -0.32846492111E+03  0.59171058014E+03 -0.10993756093E+04  0.12909830926E+04  0.50400001928E-02 0.  1.
</event>
<event>
 5   0  0.1519145E-06  0.2502418E+04  0.7818609E-02  0.8402125E-01
        1   -1    0    0  501    0  0.00000000000E+00  0.00000000000E+00  0.90454001073E+03  0.90454001074E+03  0.50400001928E-02 0. -1.
       -1   -1    0    0    0  501  0.00000000000E+00  0.00000000000E+00 -0.17307401513E+04  0.17307401513E+04  0.50400001928E-02 0.  1.
    10030    2    1    2    0    0  0.00000000000E+00  0.00000000000E+00 -0.82620014056E+03  0.26352801620E+04  0.25024178029E+04 0.  0.
        4    1    3    3  502    0  0.74091386824E+03  0.37282042162E+03 -0.13996265919E+04  0.16269310485E+04  0.12699999809E+01 0.  1.
       -4    1    3    3    0  502 -0.74091386824E+03 -0.37282042162E+03  0.57342645129E+03  0.10083491136E+04  0.12699999809E+01 0. -1.
</event>
<event>
 5   0  0.1519145E-06  0.2497046E+04  0.7818609E-02  0.8404039E-01
        1   -1    0    0  501    0  0.00000000000E+00  0.00000000000E+00  0.13222805066E+04  0.13222805066E+04  0.50400001928E-02 0.  1.
       -1   -1    0    0    0  501  0.00000000000E+00  0.00000000000E+00 -0.11788800168E+04  0.11788800169E+04  0.50400001928E-02 0. -1.
    10030    2    1    2    0    0  0.00000000000E+00  0.00000000000E+00  0.14340048976E+03  0.25011605235E+04  0.24970463079E+04 0.  0.
        4    1    3    3  502    0 -0.53085034542E+03 -0.40871243872E+03 -0.98358224539E+03  0.11900771375E+04  0.12699999809E+01 0. -1.
       -4    1    3    3    0  502  0.53085034542E+03  0.40871243872E+03  0.11269827352E+04  0.13110833860E+04  0.12699999809E+01 0.  1.
</event>
<event>
 5   0  0.3924441E-06  0.2499792E+04  0.7818609E-02  0.8403060E-01
       -2   -1    0    0    0  501  0.00000000000E+00  0.00000000000E+00  0.56568803368E+03  0.56568803369E+03  0.25500000920E-02 0.  1.
        2   -1    0    0  501    0  0.00000000000E+00  0.00000000000E+00 -0.27616625807E+04  0.27616625807E+04  0.25500000920E-02 0. -1.
    10030    2    1    2    0    0  0.00000000000E+00  0.00000000000E+00 -0.21959745470E+04  0.33273506144E+04  0.24997915713E+04 0.  0.
        2    1    3    3  502    0  0.74857082514E+03 -0.39661327121E+03  0.12526190868E+03  0.85635910278E+03  0.25500000920E-02 0.  1.
       -2    1    3    3    0  502 -0.74857082514E+03  0.39661327121E+03 -0.23212364557E+04  0.24709915116E+04  0.25500000920E-02 0. -1.
</event>
<event>
 5   0  0.3924441E-06  0.2501188E+04  0.7818609E-02  0.8402562E-01
       -2   -1    0    0    0  501  0.00000000000E+00  0.00000000000E+00  0.11125669352E+04  0.11125669352E+04  0.25500000920E-02 0.  1.
        2   -1    0    0  501    0  0.00000000000E+00  0.00000000000E+00 -0.14057450095E+04  0.14057450095E+04  0.25500000920E-02 0. -1.
    10030    2    1    2    0    0  0.00000000000E+00  0.00000000000E+00 -0.29317807430E+03  0.25183119448E+04  0.25011880513E+04 0.  0.
        2    1    3    3  502    0 -0.66722617269E+03 -0.96959403856E+03 -0.57219102288E+03  0.13087039130E+04  0.25500000920E-02 0. -1.
       -2    1    3    3    0  502  0.66722617269E+03  0.96959403856E+03  0.27901294858E+03  0.12096080318E+04  0.25500000920E-02 0.  1.
</event>
<event>
 5   0  0.3971759E-06  0.2466550E+04  0.7818609E-02  0.8415000E-01
       -2   -1    0    0    0  501  0.00000000000E+00  0.00000000000E+00  0.14135050873E+04  0.14135050873E+04  0.25500000920E-02 0.  1.
        2   -1    0    0  501    0  0.00000000000E+00  0.00000000000E+00 -0.10760250364E+04  0.10760250364E+04  0.25500000920E-02 0. -1.
    10030    2    1    2    0    0  0.00000000000E+00  0.00000000000E+00  0.33748005091E+03  0.24895301237E+04  0.24665497060E+04 0.  0.
        4    1    3    3  502    0  0.93985526539E+02 -0.88033520674E+03  0.10353088505E+04  0.13622369046E+04  0.12699999809E+01 0.  1.
       -4    1    3    3    0  502 -0.93985526539E+02  0.88033520674E+03 -0.69782879958E+03  0.11272932191E+04  0.12699999809E+01 0. -1.
</event>
<event>
 5   0  0.3814260E-06  0.2499304E+04  0.7818609E-02  0.8403234E-01
       -2   -1    0    0    0  501  0.00000000000E+00  0.00000000000E+00  0.10935369823E+04  0.10935369823E+04  0.25500000920E-02 0. -1.
        2   -1    0    0  501    0  0.00000000000E+00  0.00000000000E+00 -0.14280542515E+04  0.14280542515E+04  0.25500000920E-02 0.  1.
    10030    2    1    2    0    0  0.00000000000E+00  0.00000000000E+00 -0.33451726921E+03  0.25215912339E+04  0.24993040126E+04 0.  0.
        5    1    3    3  502    0  0.11905292237E+04 -0.29929580227E+02  0.21473676809E+03  0.12101196560E+04  0.46999998093E+01 0.  1.
       -5    1    3    3    0  502 -0.11905292237E+04  0.29929580227E+02 -0.54925403730E+03  0.13114715779E+04  0.46999998093E+01 0. -1.
</event>
<event>
 5   0  0.3924441E-06  0.2503080E+04  0.7818609E-02  0.8401889E-01
       -2   -1    0    0    0  501  0.00000000000E+00  0.00000000000E+00  0.12024752260E+04  0.12024752260E+04  0.25500000920E-02 0. -1.
        2   -1    0    0  501    0  0.00000000000E+00  0.00000000000E+00 -0.13026066302E+04  0.13026066302E+04  0.25500000920E-02 0.  1.
    10030    2    1    2    0    0  0.00000000000E+00  0.00000000000E+00 -0.10013140420E+03  0.25050818562E+04  0.25030798645E+04 0.  0.
        2    1    3    3  502    0 -0.32920154944E+02 -0.12468023190E+04 -0.15384262330E+03  0.12566890276E+04  0.25500000920E-02 0.  1.
       -2    1    3    3    0  502  0.32920154944E+02  0.12468023190E+04  0.53711219098E+02  0.12483928286E+04  0.25500000920E-02 0. -1.
</event>
<event>
 5   0  0.3808293E-06  0.2502252E+04  0.7818609E-02  0.8402184E-01
        2   -1    0    0  501    0  0.00000000000E+00  0.00000000000E+00  0.27833638231E+04  0.27833638231E+04  0.25500000920E-02 0. -1.
       -2   -1    0    0    0  501  0.00000000000E+00  0.00000000000E+00 -0.56238303985E+03  0.56238303986E+03  0.25500000920E-02 0.  1.
    10030    2    1    2    0    0  0.00000000000E+00  0.00000000000E+00  0.22209807832E+04  0.33457468629E+04  0.25022522717E+04 0.  0.
        1    1    3    3  502    0 -0.12840702951E+03  0.12424465314E+04  0.12064902051E+04  0.17366002314E+04  0.50400001928E-02 0. -1.
       -1    1    3    3    0  502  0.12840702951E+03 -0.12424465314E+04  0.10144905781E+04  0.16091466315E+04  0.50400001928E-02 0.  1.
</event>
<event>
 5   0  0.3971759E-06  0.2500350E+04  0.7818609E-02  0.8402861E-01
       -2   -1    0    0    0  501  0.00000000000E+00  0.00000000000E+00  0.10416179429E+04  0.10416179429E+04  0.25500000920E-02 0.  1.
        2   -1    0    0  501    0  0.00000000000E+00  0.00000000000E+00 -0.15004899287E+04  0.15004899287E+04  0.25500000920E-02 0. -1.
    10030    2    1    2    0    0  0.00000000000E+00  0.00000000000E+00 -0.45887198578E+03  0.25421078715E+04  0.25003497618E+04 0.  0.
        4    1    3    3  502    0  0.51663206156E+02 -0.30809184969E+03  0.10012954456E+04  0.10488964949E+04  0.12699999809E+01 0.  1.
       -4    1    3    3    0  502 -0.51663206156E+02  0.30809184969E+03 -0.14601674314E+04  0.14932113766E+04  0.12699999809E+01 0. -1.
</event>
<event>
 5   0  0.3971759E-06  0.2500528E+04  0.7818609E-02  0.8402798E-01
       -2   -1    0    0    0  501  0.00000000000E+00  0.00000000000E+00  0.11154499544E+04  0.11154499544E+04  0.25500000920E-02 0. -1.
        2   -1    0    0  501    0  0.00000000000E+00  0.00000000000E+00 -0.14013712765E+04  0.14013712765E+04  0.25500000920E-02 0.  1.
    10030    2    1    2    0    0  0.00000000000E+00  0.00000000000E+00 -0.28592132207E+03  0.25168212309E+04  0.25005275655E+04 0.  0.
        4    1    3    3  502    0  0.12485584328E+04 -0.28788863440E+02 -0.20191668846E+03  0.12651082645E+04  0.12699999809E+01 0. -1.
       -4    1    3    3    0  502 -0.12485584328E+04  0.28788863440E+02 -0.84004633606E+02  0.12517129664E+04  0.12699999809E+01 0.  1.
</event>
<event>
 5   0  0.3814260E-06  0.2500565E+04  0.7818609E-02  0.8402784E-01
       -2   -1    0    0    0  501  0.00000000000E+00  0.00000000000E+00  0.80518453305E+03  0.80518453305E+03  0.25500000920E-02 0.  1.
        2   -1    0    0  501    0  0.00000000000E+00  0.00000000000E+00 -0.19414267188E+04  0.19414267188E+04  0.25500000920E-02 0. -1.
    10030    2    1    2    0    0  0.00000000000E+00  0.00000000000E+00 -0.11362421858E+04  0.27466112519E+04  0.25005653489E+04 0.  0.
        5    1    3    3  502    0  0.36100680256E+03 -0.10058192372E+04  0.14472565007E+03  0.10784089452E+04  0.46999998093E+01 0.  1.
       -5    1    3    3    0  502 -0.36100680256E+03  0.10058192372E+04 -0.12809678358E+04  0.16682023066E+04  0.46999998093E+01 0. -1.
</event>
<event>
 5   0  0.1519145E-06  0.2491396E+04  0.7818609E-02  0.8406057E-01
       -1   -1    0    0    0  501  0.00000000000E+00  0.00000000000E+00  0.15966513668E+04  0.15966513668E+04  0.50400001928E-02 0.  1.
        1   -1    0    0  501    0  0.00000000000E+00  0.00000000000E+00 -0.97188635628E+03  0.97188635630E+03  0.50400001928E-02 0. -1.
    10030    2    1    2    0    0  0.00000000000E+00  0.00000000000E+00  0.62476501051E+03  0.25685377231E+04  0.24913961380E+04 0.  0.
        4    1    3    3  502    0  0.43118233911E+03  0.10891407006E+04 -0.12455180049E+03  0.11779899996E+04  0.12699999809E+01 0.  1.
       -4    1    3    3    0  502 -0.43118233911E+03 -0.10891407006E+04  0.74931681099E+03  0.13905477235E+04  0.12699999809E+01 0. -1.
</event>
<event>
 5   0  0.3814260E-06  0.2496627E+04  0.7818609E-02  0.8404188E-01
        2   -1    0    0  501    0  0.00000000000E+00  0.00000000000E+00  0.17670413583E+04  0.17670413583E+04  0.25500000920E-02 0.  1.
       -2   -1    0    0    0  501  0.00000000000E+00  0.00000000000E+00 -0.88186181736E+03  0.88186181737E+03  0.25500000920E-02 0. -1.
    10030    2    1    2    0    0  0.00000000000E+00  0.00000000000E+00  0.88517954098E+03  0.26489031757E+04  0.24966267672E+04 0.  0.
        5    1    3    3  502    0 -0.46138168482E+03  0.37912222974E+03  0.16056516201E+04  0.17131100196E+04  0.46999998093E+01 0.  1.
       -5    1    3    3    0  502  0.46138168482E+03 -0.37912222974E+03 -0.72047207913E+03  0.93579315609E+03  0.46999998093E+01 0. -1.
</event>
<event>
 5   0  0.3713394E-06  0.2495809E+04  0.7818609E-02  0.8404480E-01
        2   -1    0    0  501    0  0.00000000000E+00  0.00000000000E+00  0.15737024992E+04  0.15737024992E+04  0.25500000920E-02 0. -1.
       -2   -1    0    0    0  501  0.00000000000E+00  0.00000000000E+00 -0.98955531708E+03  0.98955531708E+03  0.25500000920E-02 0.  1.
    10030    2    1    2    0    0  0.00000000000E+00  0.00000000000E+00  0.58414718207E+03  0.25632578162E+04  0.24958090276E+04 0.  0.
        3    1    3    3  502    0  0.13681827160E+03  0.24271664663E+03 -0.95720197268E+03  0.99692840099E+03  0.10100000352E+00 0.  1.
       -3    1    3    3    0  502 -0.13681827160E+03 -0.24271664663E+03  0.15413491548E+04  0.15663294152E+04  0.10100000352E+00 0. -1.
</event>
<event>
 5   0  0.1501747E-06  0.2485113E+04  0.7818609E-02  0.8408308E-01
        1   -1    0    0  501    0  0.00000000000E+00  0.00000000000E+00  0.12713186837E+04  0.12713186838E+04  0.50400001928E-02 0.  1.
       -1   -1    0    0    0  501  0.00000000000E+00  0.00000000000E+00 -0.12144451703E+04  0.12144451703E+04  0.50400001928E-02 0. -1.
    10030    2    1    2    0    0  0.00000000000E+00  0.00000000000E+00  0.56873513445E+02  0.24857638541E+04  0.24851131446E+04 0.  0.
        2    1    3    3  502    0 -0.11775594050E+04  0.15818191627E+03  0.39223401658E+03  0.12512054966E+04  0.25500000920E-02 0.  1.
       -2    1    3    3    0  502  0.11775594050E+04 -0.15818191627E+03 -0.33536050314E+03  0.12345583575E+04  0.25500000920E-02 0. -1.
</event>
<event>
 5   0  0.1553604E-06  0.2514556E+04  0.7818609E-02  0.8397818E-01
        1   -1    0    0  501    0  0.00000000000E+00  0.00000000000E+00  0.12664948025E+04  0.12664948025E+04  0.50400001928E-02 0. -1.
       -1   -1    0    0    0  501  0.00000000000E+00  0.00000000000E+00 -0.12481285156E+04  0.12481285156E+04  0.50400001928E-02 0.  1.
    10030    2    1    2    0    0  0.00000000000E+00  0.00000000000E+00  0.18366286869E+02  0.25146233181E+04  0.25145562454E+04 0.  0.
        1    1    3    3  502    0  0.10032831647E+04  0.21980373603E+03  0.73436280431E+03  0.12626082208E+04  0.50400001928E-02 0. -1.
       -1    1    3    3    0  502 -0.10032831647E+04 -0.21980373603E+03 -0.71599651744E+03  0.12520150973E+04  0.50400001928E-02 0.  1.
</event>
<event>
 5   0  0.1541852E-06  0.2497265E+04  0.7818609E-02  0.8403961E-01
        1   -1    0    0  501    0  0.00000000000E+00  0.00000000000E+00  0.16761627816E+04  0.16761627817E+04  0.50400001928E-02 0. -1.
       -1   -1    0    0    0  501  0.00000000000E+00  0.00000000000E+00 -0.93014983865E+03  0.93014983866E+03  0.50400001928E-02 0.  1.
    10030    2    1    2    0    0  0.00000000000E+00  0.00000000000E+00  0.74601294299E+03  0.26063126203E+04  0.24972645362E+04 0.  0.
        5    1    3    3  502    0  0.11057289914E+02 -0.65725912254E+03 -0.73492785423E+03  0.98602883261E+03  0.46999998093E+01 0.  1.
       -5    1    3    3    0  502 -0.11057289914E+02  0.65725912254E+03  0.14809407972E+04  0.16202837877E+04  0.46999998093E+01 0. -1.
</event>
<event>
 5   0  0.1541852E-06  0.2498237E+04  0.7818609E-02  0.8403614E-01
        1   -1    0    0  501    0  0.00000000000E+00  0.00000000000E+00  0.12817021916E+04  0.12817021916E+04  0.50400001928E-02 0.  1.
       -1   -1    0    0    0  501  0.00000000000E+00  0.00000000000E+00 -0.12173634003E+04  0.12173634004E+04  0.50400001928E-02 0. -1.
    10030    2    1    2    0    0  0.00000000000E+00  0.00000000000E+00  0.64338791244E+02  0.24990655920E+04  0.24982372491E+04 0.  0.
        5    1    3    3  502    0  0.79047487270E+03 -0.89666178624E+03  0.39481182429E+03  0.12588690757E+04  0.46999998093E+01 0. -1.
       -5    1    3    3    0  502 -0.79047487270E+03  0.89666178624E+03 -0.33047303305E+03  0.12401965162E+04  0.46999998093E+01 0.  1.
</event>
<event>
 5   0  0.3808293E-06  0.2502269E+04  0.7818609E-02  0.8402178E-01
        2   -1    0    0  501    0  0.00000000000E+00  0.00000000000E+00  0.24053343474E+04  0.24053343474E+04  0.25500000920E-02 0. -1.
       -2   -1    0    0    0  501  0.00000000000E+00  0.00000000000E+00 -0.65077747824E+03  0.65077747825E+03  0.25500000920E-02 0.  1.
    10030    2    1    2    0    0  0.00000000000E+00  0.00000000000E+00  0.17545568691E+04  0.30561118256E+04  0.25022689071E+04 0.  0.
        1    1    3    3  502    0  0.60326757302E+03 -0.88147386806E+03  0.81617935159E+02  0.10712560068E+04  0.50400001928E-02 0.  1.
       -1    1    3    3    0  502 -0.60326757302E+03  0.88147386806E+03  0.16729389340E+04  0.19848558188E+04  0.50400001928E-02 0. -1.
</event>
<event>
 5   0  0.3808293E-06  0.2505205E+04  0.7818609E-02  0.8401133E-01
       -2   -1    0    0    0  501  0.00000000000E+00  0.00000000000E+00  0.11608775659E+04  0.11608775659E+04  0.25500000920E-02 0.  1.
        2   -1    0    0  501    0  0.00000000000E+00  0.00000000000E+00 -0.13515754615E+04  0.13515754615E+04  0.25500000920E-02 0. -1.
    10030    2    1    2    0    0  0.00000000000E+00  0.00000000000E+00 -0.19069789558E+03  0.25124530275E+04  0.25052054861E+04 0.  0.
        1    1    3    3  502    0  0.11163225798E+04 -0.45512764879E+03  0.24577674575E+03  0.12303347055E+04  0.50400001928E-02 0. -1.
       -1    1    3    3    0  502 -0.11163225798E+04  0.45512764879E+03 -0.43647464133E+03  0.12821183219E+04  0.50400001928E-02 0.  1.
</event>
<event>
 5   0  0.1519145E-06  0.2545946E+04  0.7818609E-02  0.8386798E-01
        1   -1    0    0  501    0  0.00000000000E+00  0.00000000000E+00  0.85071699635E+03  0.85071699637E+03  0.50400001928E-02 0.  1.
       -1   -1    0    0    0  501  0.00000000000E+00  0.00000000000E+00 -0.19048167214E+04  0.19048167215E+04  0.50400001928E-02 0. -1.
    10030    2    1    2    0    0  0.00000000000E+00  0.00000000000E+00 -0.10540997251E+04  0.27555337178E+04  0.25459457653E+04 0.  0.
        4    1    3    3  502    0  0.51451788889E+03 -0.89714017786E+03  0.27625579073E+03  0.10704709391E+04  0.12699999809E+01 0.  1.
       -4    1    3    3    0  502 -0.51451788889E+03  0.89714017786E+03 -0.13303555158E+04  0.16850627787E+04  0.12699999809E+01 0. -1.
</event>
<event>
 5   0  0.3924441E-06  0.2500876E+04  0.7818609E-02  0.8402674E-01
        2   -1    0    0  501    0  0.00000000000E+00  0.00000000000E+00  0.13650660352E+04  0.13650660353E+04  0.25500000920E-02 0.  1.
       -2   -1    0    0    0  501  0.00000000000E+00  0.00000000000E+00 -0.11454354448E+04  0.11454354448E+04  0.25500000920E-02 0. -1.
    10030    2    1    2    0    0  0.00000000000E+00  0.00000000000E+00  0.21963059044E+03  0.25105014801E+04  0.25008758636E+04 0.  0.
        2    1    3    3  502    0 -0.31337209541E+03  0.52635524990E+03  0.12041225324E+04  0.13509859334E+04  0.25500000920E-02 0.  1.
       -2    1    3    3    0  502  0.31337209541E+03 -0.52635524990E+03 -0.98449194191E+03  0.11595155467E+04  0.25500000920E-02 0. -1.
</event>
<event>
 5   0  0.1287375E-06  0.2493616E+04  0.7818609E-02  0.8405263E-01
        3   -1    0    0  501    0  0.00000000000E+00  0.00000000000E+00  0.10155432053E+04  0.10155432103E+04  0.10100000352E+00 0.  1.
       -3   -1    0    0    0  501  0.00000000000E+00  0.00000000000E+00 -0.15307377336E+04  0.15307377369E+04  0.10100000352E+00 0. -1.
    10030    2    1    2    0    0  0.00000000000E+00  0.00000000000E+00 -0.51519452825E+03  0.25462809472E+04  0.24936161012E+04 0.  0.
        5    1    3    3  502    0 -0.11529856191E+04  0.22440087535E+03  0.16929512586E+03  0.11867664135E+04  0.46999998093E+01 0.  1.
       -5    1    3    3    0  502  0.11529856191E+04 -0.22440087535E+03 -0.68448965411E+03  0.13595145337E+04  0.46999998093E+01 0. -1.
</event>
<event>
 5   0  0.3814260E-06  0.2500875E+04  0.7818609E-02  0.8402674E-01
       -2   -1    0    0    0  501  0.00000000000E+00  0.00000000000E+00  0.12028392002E+04  0.12028392002E+04  0.25500000920E-02 0. -1.
        2   -1    0    0  501    0  0.00000000000E+00  0.00000000000E+00 -0.12999197748E+04  0.12999197748E+04  0.25500000920E-02 0.  1.
    10030    2    1    2    0    0  0.00000000000E+00  0.00000000000E+00 -0.97080574561E+02  0.25027589750E+04  0.25008754166E+04 0.  0.
        5    1    3    3  502    0 -0.39092169037E+03  0.48388301711E+03  0.10369931519E+04  0.12092722726E+04  0.46999998093E+01 0. -1.
       -5    1    3    3    0  502  0.39092169037E+03 -0.48388301711E+03 -0.11340737265E+04  0.12934867024E+04  0.46999998093E+01 0.  1.
</event>
<event>
 5   0  0.3814260E-06  0.2518588E+04  0.7818609E-02  0.8396393E-01
        2   -1    0    0  501    0  0.00000000000E+00  0.00000000000E+00  0.13144075765E+04  0.13144075765E+04  0.25500000920E-02 0.  1.
       -2   -1    0    0    0  501  0.00000000000E+00  0.00000000000E+00 -0.12064914062E+04  0.12064914062E+04  0.25500000920E-02 0. -1.
    10030    2    1    2    0    0  0.00000000000E+00  0.00000000000E+00  0.10791617032E+03  0.25208989827E+04  0.25185880531E+04 0.  0.
        5    1    3    3  502    0 -0.89964761635E+01  0.12458375891E+04 -0.12953257118E+03  0.12525945122E+04  0.46999998093E+01 0.  1.
       -5    1    3    3    0  502  0.89964761635E+01 -0.12458375891E+04  0.23744874151E+03  0.12683044705E+04  0.46999998093E+01 0. -1.
</event>
<event>
 5   0  0.1553604E-06  0.2501827E+04  0.7818609E-02  0.8402335E-01
       -1   -1    0    0    0  501  0.00000000000E+00  0.00000000000E+00  0.65056448035E+03  0.65056448037E+03  0.50400001928E-02 0. -1.
        1   -1    0    0  501    0  0.00000000000E+00  0.00000000000E+00 -0.24052711950E+04  0.24052711950E+04  0.50400001928E-02 0.  1.
    10030    2    1    2    0    0  0.00000000000E+00  0.00000000000E+00 -0.17547067146E+04  0.30558356754E+04  0.25018265368E+04 0.  0.
        1    1    3    3  502    0  0.92981762034E+03  0.39577719131E+03 -0.17778995198E+04  0.20450249619E+04  0.50400001928E-02 0.  1.
       -1    1    3    3    0  502 -0.92981762034E+03 -0.39577719131E+03  0.23192805151E+02  0.10108107135E+04  0.50400001928E-02 0. -1.
</event>
<event>
 5   0  0.1519145E-06  0.2427624E+04  0.7818609E-02  0.8429233E-01
        1   -1    0    0  501    0  0.00000000000E+00  0.00000000000E+00  0.14798725012E+04  0.14798725012E+04  0.50400001928E-02 0. -1.
       -1   -1    0    0    0  501  0.00000000000E+00  0.00000000000E+00 -0.99558544563E+03  0.99558544564E+03  0.50400001928E-02 0.  1.
    10030    2    1    2    0    0  0.00000000000E+00  0.00000000000E+00  0.48428705562E+03  0.24754579469E+04  0.24276239607E+04 0.  0.
        4    1    3    3  502    0  0.66901417768E+03 -0.94042396436E+03  0.62553150851E+03  0.13127332112E+04  0.12699999809E+01 0. -1.
       -4    1    3    3    0  502 -0.66901417768E+03  0.94042396436E+03 -0.14124445289E+03  0.11627247357E+04  0.12699999809E+01 0.  1.
</event>
<event>
 5   0  0.3713394E-06  0.2504848E+04  0.7818609E-02  0.8401260E-01
       -2   -1    0    0    0  501  0.00000000000E+00  0.00000000000E+00  0.12055914832E+04  0.12055914832E+04  0.25500000920E-02 0.  1.
        2   -1    0    0  501    0  0.00000000000E+00  0.00000000000E+00 -0.13010757521E+04  0.13010757521E+04  0.25500000920E-02 0. -1.
    10030    2    1    2    0    0  0.00000000000E+00  0.00000000000E+00 -0.95484268855E+02  0.25066672353E+04  0.25048479760E+04 0.  0.
        3    1    3    3  502    0 -0.13987887578E+03 -0.81373320216E+03 -0.99014687324E+03  0.12892318120E+04  0.10100000352E+00 0. -1.
       -3    1    3    3    0  502  0.13987887578E+03  0.81373320216E+03  0.89466260438E+03  0.12174354234E+04  0.10100000352E+00 0.  1.
</event>
<event>
 5   0  0.3808293E-06  0.2493591E+04  0.7818609E-02  0.8405272E-01
        2   -1    0    0  501    0  0.00000000000E+00  0.00000000000E+00  0.21352981444E+04  0.21352981444E+04  0.25500000920E-02 0.  1.
       -2   -1    0    0    0  501  0.00000000000E+00  0.00000000000E+00 -0.72800068572E+03  0.72800068572E+03  0.25500000920E-02 0. -1.
    10030    2    1    2    0    0  0.00000000000E+00  0.00000000000E+00  0.14072974586E+04  0.28632988301E+04  0.24935905946E+04 0.  0.
        1    1    3    3  502    0  0.50153366800E+03 -0.99278660472E+03  0.13504964498E+04  0.17495719258E+04  0.50400001928E-02 0.  1.
       -1    1    3    3    0  502 -0.50153366800E+03  0.99278660472E+03  0.56801008830E+02  0.11137269043E+04  0.50400001928E-02 0. -1.
</event>
<event>
 5   0  0.3814260E-06  0.2506952E+04  0.7818609E-02  0.8400513E-01
        2   -1    0    0  501    0  0.00000000000E+00  0.00000000000E+00  0.15539298058E+04  0.15539298058E+04  0.25500000920E-02 0. -1.
       -2   -1    0    0    0  501  0.00000000000E+00  0.00000000000E+00 -0.10111153990E+04  0.10111153990E+04  0.25500000920E-02 0.  1.
    10030    2    1    2    0    0  0.00000000000E+00  0.00000000000E+00  0.54281440675E+03  0.25650452048E+04  0.25069522178E+04 0.  0.
        5    1    3    3  502    0  0.10769340094E+04  0.12313955062E+03  0.91546178605E+03  0.14188173178E+04  0.46999998093E+01 0. -1.
       -5    1    3    3    0  502 -0.10769340094E+04 -0.12313955062E+03 -0.37264737930E+03  0.11462278870E+04  0.46999998093E+01 0.  1.
</event>
<event>
 5   0  0.1501747E-06  0.2502917E+04  0.7818609E-02  0.8401947E-01
        1   -1    0    0  501    0  0.00000000000E+00  0.00000000000E+00  0.73618593556E+03  0.73618593558E+03  0.50400001928E-02 0. -1.
       -1   -1    0    0    0  501  0.00000000000E+00  0.00000000000E+00 -0.21273819647E+04  0.21273819647E+04  0.50400001928E-02 0.  1.
    10030    2    1    2    0    0  0.00000000000E+00  0.00000000000E+00 -0.13911960292E+04  0.28635679003E+04  0.25029172436E+04 0.  0.
        2    1    3    3  502    0  0.10993239265E+04  0.36378934409E+03 -0.12386416744E+04  0.16956087343E+04  0.25500000920E-02 0.  1.
       -2    1    3    3    0  502 -0.10993239265E+04 -0.36378934409E+03 -0.15255435481E+03  0.11679591660E+04  0.25500000920E-02 0. -1.
</event>
<event>
 5   0  0.3713394E-06  0.2491848E+04  0.7818609E-02  0.8405896E-01
       -2   -1    0    0    0  501  0.00000000000E+00  0.00000000000E+00  0.11818562205E+04  0.11818562205E+04  0.25500000920E-02 0.  1.
        2   -1    0    0  501    0  0.00000000000E+00  0.00000000000E+00 -0.13134645796E+04  0.13134645796E+04  0.25500000920E-02 0. -1.
    10030    2    1    2    0    0  0.00000000000E+00  0.00000000000E+00 -0.13160835903E+03  0.24953208001E+04  0.24918477352E+04 0.  0.
        3    1    3    3  502    0  0.75901542375E+03  0.71367825033E+03 -0.75004652269E+03  0.12837487507E+04  0.10100000352E+00 0.  1.
       -3    1    3    3    0  502 -0.75901542375E+03 -0.71367825033E+03  0.61843816365E+03  0.12115720494E+04  0.10100000352E+00 0. -1.
</event>
<event>
 5   0  0.3971759E-06  0.2498935E+04  0.7818609E-02  0.8403365E-01
       -2   -1    0    0    0  501  0.00000000000E+00  0.00000000000E+00  0.11384145142E+04  0.11384145143E+04  0.25500000920E-02 0. -1.
        2   -1    0    0  501    0  0.00000000000E+00  0.00000000000E+00 -0.13713537421E+04  0.13713537421E+04  0.25500000920E-02 0.  1.
    10030    2    1    2    0    0  0.00000000000E+00  0.00000000000E+00 -0.23293922782E+03  0.25097682563E+04  0.24989349765E+04 0.  0.
        4    1    3    3  502    0  0.30048350990E+03  0.29276230181E+03 -0.12985030985E+04  0.13645922522E+04  0.12699999809E+01 0.  1.
       -4    1    3    3    0  502 -0.30048350990E+03 -0.29276230181E+03  0.10655638707E+04  0.11451760041E+04  0.12699999809E+01 0. -1.
</event>
<event>
 5   0  0.1287375E-06  0.2499509E+04  0.7818609E-02  0.8403160E-01
        3   -1    0    0  501    0  0.00000000000E+00  0.00000000000E+00  0.13015372277E+04  0.13015372317E+04  0.10100000352E+00 0.  1.
       -3   -1    0    0    0  501  0.00000000000E+00  0.00000000000E+00 -0.12000321134E+04  0.12000321177E+04  0.10100000352E+00 0. -1.
    10030    2    1    2    0    0  0.00000000000E+00  0.00000000000E+00  0.10150511431E+03  0.25015693493E+04  0.24995091361E+04 0.  0.
        4    1    3    3  502    0  0.19544356864E+03  0.93677766121E+03  0.85523989705E+03  0.12834280149E+04  0.12699999809E+01 0.  1.
       -4    1    3    3    0  502 -0.19544356864E+03 -0.93677766121E+03 -0.75373478273E+03  0.12181413344E+04  0.12699999809E+01 0. -1.
</event>
<event>
 5   0  0.3713394E-06  0.2472618E+04  0.7818609E-02  0.8412806E-01
        2   -1    0    0  501    0  0.00000000000E+00  0.00000000000E+00  0.13680519641E+04  0.13680519641E+04  0.25500000920E-02 0. -1.
       -2   -1    0    0    0  501  0.00000000000E+00  0.00000000000E+00 -0.11172528272E+04  0.11172528272E+04  0.25500000920E-02 0.  1.
    10030    2    1    2    0    0  0.00000000000E+00  0.00000000000E+00  0.25079913682E+03  0.24853047913E+04  0.24726179848E+04 0.  0.
        3    1    3    3  502    0  0.92320240757E+03  0.82227622659E+03  0.12101411840E+03  0.12422098475E+04  0.10100000352E+00 0. -1.
       -3    1    3    3    0  502 -0.92320240757E+03 -0.82227622659E+03  0.12978501842E+03  0.12430949438E+04  0.10100000352E+00 0.  1.
</event>
<event>
 5   0  0.3971759E-06  0.2500404E+04  0.7818609E-02  0.8402842E-01
        2   -1    0    0  501    0  0.00000000000E+00  0.00000000000E+00  0.56560751371E+03  0.56560751371E+03  0.25500000920E-02 0.  1.
       -2   -1    0    0    0  501  0.00000000000E+00  0.00000000000E+00 -0.27634095593E+04  0.27634095593E+04  0.25500000920E-02 0. -1.
    10030    2    1    2    0    0  0.00000000000E+00  0.00000000000E+00 -0.21978020456E+04  0.33290170730E+04  0.25004041355E+04 0.  0.
        4    1    3    3  502    0 -0.19823000841E+02  0.46735718714E+03  0.44470265865E+03  0.64542835330E+03  0.12699999809E+01 0.  1.
       -4    1    3    3    0  502  0.19823000841E+02 -0.46735718714E+03 -0.26425047043E+04  0.26835887197E+04  0.12699999809E+01 0. -1.
</event>
<event>
 5   0  0.3808293E-06  0.2499377E+04  0.7818609E-02  0.8403208E-01
       -2   -1    0    0    0  501  0.00000000000E+00  0.00000000000E+00  0.90862085449E+03  0.90862085449E+03  0.25500000920E-02 0.  1.
        2   -1    0    0  501    0  0.00000000000E+00  0.00000000000E+00 -0.17187818240E+04  0.17187818240E+04  0.25500000920E-02 0. -1.
    10030    2    1    2    0    0  0.00000000000E+00  0.00000000000E+00 -0.81016096949E+03  0.26274026785E+04  0.24993767300E+04 0.  0.
        1    1    3    3  502    0 -0.79295772442E+03  0.41524880914E+03  0.51166053032E+03  0.10310237750E+04  0.50400001928E-02 0.  1.
       -1    1    3    3    0  502  0.79295772442E+03 -0.41524880914E+03 -0.13218214998E+04  0.15963789035E+04  0.50400001928E-02 0. -1.
</event>
<event>
 5   0  0.1519145E-06  0.2500030E+04  0.7818609E-02  0.8402975E-01
       -1   -1    0    0    0  501  0.00000000000E+00  0.00000000000E+00  0.21649804279E+04  0.21649804279E+04  0.50400001928E-02 0.  1.
        1   -1    0    0  501    0  0.00000000000E+00  0.00000000000E+00 -0.72173309163E+03  0.72173309165E+03  0.50400001928E-02 0. -1.
    10030    2    1    2    0    0  0.00000000000E+00  0.00000000000E+00  0.14432473362E+04  0.28867135195E+04  0.25000304139E+04 0.  0.
        4    1    3    3  502    0  0.32343552355E+03 -0.37644158282E+03  0.20463380193E+04  0.21056637208E+04  0.12699999809E+01 0.  1.
       -4    1    3    3    0  502 -0.32343552355E+03  0.37644158282E+03 -0.60309068304E+03  0.78104979870E+03  0.12699999809E+01 0. -1.
</event>
<event>
 5   0  0.3713394E-06  0.2502680E+04  0.7818609E-02  0.8402031E-01
       -2   -1    0    0    0  501  0.00000000000E+00  0.00000000000E+00  0.14105917506E+04  0.14105917506E+04  0.25500000920E-02 0.  1.
        2   -1    0    0  501    0  0.00000000000E+00  0.00000000000E+00 -0.11100674011E+04  0.11100674011E+04  0.25500000920E-02 0. -1.
    10030    2    1    2    0    0  0.00000000000E+00  0.00000000000E+00  0.30052434949E+03  0.25206591517E+04  0.25026800982E+04 0.  0.
        3    1    3    3  502    0 -0.11321902388E+04 -0.35484251686E+03  0.55071622101E+03  0.13080735128E+04  0.10100000352E+00 0.  1.
       -3    1    3    3    0  502  0.11321902388E+04  0.35484251686E+03 -0.25019187153E+03  0.12125856388E+04  0.10100000352E+00 0. -1.
</event>
<event>
 5   0  0.3814260E-06  0.2497203E+04  0.7818609E-02  0.8403983E-01
       -2   -1    0    0    0  501  0.00000000000E+00  0.00000000000E+00  0.14734748852E+04  0.14734748852E+04  0.25500000920E-02 0.  1.
        2   -1    0    0  501    0  0.00000000000E+00  0.00000000000E+00 -0.10580471985E+04  0.10580471985E+04  0.25500000920E-02 0. -1.
    10030    2    1    2    0    0  0.00000000000E+00  0.00000000000E+00  0.41542768668E+03  0.25315220837E+04  0.24972032151E+04 0.  0.
        5    1    3    3  502    0  0.23240002874E+03 -0.97230193722E+03 -0.55063298167E+03  0.11413148562E+04  0.46999998093E+01 0. -1.
       -5    1    3    3    0  502 -0.23240002874E+03  0.97230193722E+03  0.96606066835E+03  0.13902072275E+04  0.46999998093E+01 0.  1.
</event>
<event>
 5   0  0.1574896E-06  0.2499489E+04  0.7818609E-02  0.8403168E-01
        1   -1    0    0  501    0  0.00000000000E+00  0.00000000000E+00  0.13206958486E+04  0.13206958486E+04  0.50400001928E-02 0. -1.
       -1   -1    0    0    0  501  0.00000000000E+00  0.00000000000E+00 -0.11826044976E+04  0.11826044976E+04  0.50400001928E-02 0.  1.
    10030    2    1    2    0    0  0.00000000000E+00  0.00000000000E+00  0.13809135103E+03  0.25033003462E+04  0.24994886281E+04 0.  0.
        3    1    3    3  502    0  0.56086447317E+03  0.74057033170E+03 -0.76820015204E+03  0.12054645815E+04  0.10100000352E+00 0. -1.
       -3    1    3    3    0  502 -0.56086447317E+03 -0.74057033170E+03  0.90629150306E+03  0.12978357647E+04  0.10100000352E+00 0.  1.
</event>
<event>
 5   0  0.1519145E-06  0.2510444E+04  0.7818609E-02  0.8399274E-01
        1   -1    0    0  501    0  0.00000000000E+00  0.00000000000E+00  0.22181258315E+04  0.22181258315E+04  0.50400001928E-02 0.  1.
       -1   -1    0    0    0  501  0.00000000000E+00  0.00000000000E+00 -0.71032164141E+03  0.71032164143E+03  0.50400001928E-02 0. -1.
    10030    2    1    2    0    0  0.00000000000E+00  0.00000000000E+00  0.15078041900E+04  0.29284474729E+04  0.25104444081E+04 0.  0.
        4    1    3    3  502    0  0.77971458075E+03  0.14870018956E+03 -0.38037966482E+03  0.88020274717E+03  0.12699999809E+01 0. -1.
       -4    1    3    3    0  502 -0.77971458075E+03 -0.14870018956E+03  0.18881838549E+04  0.20482447257E+04  0.12699999809E+01 0.  1.
</event>
<event>
 5   0  0.3971759E-06  0.2493492E+04  0.7818609E-02  0.8405308E-01
       -2   -1    0    0    0  501  0.00000000000E+00  0.00000000000E+00  0.11021030844E+04  0.11021030844E+04  0.25500000920E-02 0.  1.
        2   -1    0    0  501    0  0.00000000000E+00  0.00000000000E+00 -0.14103718350E+04  0.14103718350E+04  0.25500000920E-02 0. -1.
    10030    2    1    2    0    0  0.00000000000E+00  0.00000000000E+00 -0.30826875067E+03  0.25124749194E+04  0.24934916479E+04 0.  0.
        4    1    3    3  502    0 -0.18755916229E+03  0.12320938478E+04 -0.18815303400E+03  0.12604113877E+04  0.12699999809E+01 0.  1.
       -4    1    3    3    0  502  0.18755916229E+03 -0.12320938478E+04 -0.12011571667E+03  0.12520635317E+04  0.12699999809E+01 0. -1.
</event>
<event>
 5   0  0.1574896E-06  0.2491445E+04  0.7818609E-02  0.8406040E-01
       -1   -1    0    0    0  501  0.00000000000E+00  0.00000000000E+00  0.87470078256E+03  0.87470078258E+03  0.50400001928E-02 0.  1.
        1   -1    0    0  501    0  0.00000000000E+00  0.00000000000E+00 -0.17741203431E+04  0.17741203431E+04  0.50400001928E-02 0. -1.
    10030    2    1    2    0    0  0.00000000000E+00  0.00000000000E+00 -0.89941956053E+03  0.26488211257E+04  0.24914449241E+04 0.  0.
        3    1    3    3  502    0 -0.18253646581E+03 -0.29888257054E+03  0.82128541100E+03  0.89283822098E+03  0.10100000352E+00 0.  1.
       -3    1    3    3    0  502  0.18253646581E+03  0.29888257054E+03 -0.17207049715E+04  0.17559829047E+04  0.10100000352E+00 0. -1.
</event>
<event>
 5   0  0.3814260E-06  0.2528710E+04  0.7818609E-02  0.8392828E-01
       -2   -1    0    0    0  501  0.00000000000E+00  0.00000000000E+00  0.84917734532E+03  0.84917734532E+03  0.25500000920E-02 0.  1.
        2   -1    0    0  501    0  0.00000000000E+00  0.00000000000E+00 -0.18825196001E+04  0.18825196001E+04  0.25500000920E-02 0. -1.
    10030    2    1    2    0    0  0.00000000000E+00  0.00000000000E+00 -0.10333422548E+04  0.27316969454E+04  0.25287095496E+04 0.  0.
        5    1    3    3  502    0  0.51765564897E+02 -0.79722243111E+03 -0.15752988922E+04  0.17663046080E+04  0.46999998093E+01 0. -1.
       -5    1    3    3    0  502 -0.51765564897E+02  0.79722243111E+03  0.54195663742E+03  0.96539233745E+03  0.46999998093E+01 0.  1.
</event>
<event>
 5   0  0.3924441E-06  0.2499547E+04  0.7818609E-02  0.8403147E-01
        2   -1    0    0  501    0  0.00000000000E+00  0.00000000000E+00  0.15892199653E+04  0.15892199653E+04  0.25500000920E-02 0.  1.
       -2   -1    0    0    0  501  0.00000000000E+00  0.00000000000E+00 -0.98283066654E+03  0.98283066654E+03  0.25500000920E-02 0. -1.
    10030    2    1    2    0    0  0.00000000000E+00  0.00000000000E+00  0.60638929873E+03  0.25720506318E+04  0.24995472532E+04 0.  0.
        2    1    3    3  502    0 -0.22882938222E+03 -0.62698044983E+03 -0.78408449699E+03  0.10296872676E+04  0.25500000920E-02 0. -1.
       -2    1    3    3    0  502  0.22882938222E+03  0.62698044983E+03  0.13904737957E+04  0.15423633642E+04  0.25500000920E-02 0.  1.
</event>
<event>
 5   0  0.3814260E-06  0.2500977E+04  0.7818609E-02  0.8402637E-01
       -2   -1    0    0    0  501  0.00000000000E+00  0.00000000000E+00  0.15662144342E+04  0.15662144342E+04  0.25500000920E-02 0.  1.
        2   -1    0    0  501    0  0.00000000000E+00  0.00000000000E+00 -0.99840862030E+03  0.99840862030E+03  0.25500000920E-02 0. -1.
    10030    2    1    2    0    0  0.00000000000E+00  0.00000000000E+00  0.56780581391E+03  0.25646230545E+04  0.25009774028E+04 0.  0.
        5    1    3    3  502    0  0.36915661365E+03  0.80727374709E+03  0.11870733950E+04  0.14822728639E+04  0.46999998093E+01 0. -1.
       -5    1    3    3    0  502 -0.36915661365E+03 -0.80727374709E+03 -0.61926758104E+03  0.10823501906E+04  0.46999998093E+01 0.  1.
</event>
<event>
 5   0  0.1541852E-06  0.2509211E+04  0.7818609E-02  0.8399711E-01
        1   -1    0    0  501    0  0.00000000000E+00  0.00000000000E+00  0.18091209494E+04  0.18091209494E+04  0.50400001928E-02 0.  1.
       -1   -1    0    0    0  501  0.00000000000E+00  0.00000000000E+00 -0.87005528546E+03  0.87005528547E+03  0.50400001928E-02 0. -1.
    10030    2    1    2    0    0  0.00000000000E+00  0.00000000000E+00  0.93906566389E+03  0.26791762348E+04  0.25092112259E+04 0.  0.
        5    1    3    3  502    0  0.30151773505E+02 -0.87398757486E+03 -0.49098480910E+03  0.10029215240E+04  0.46999998093E+01 0. -1.
       -5    1    3    3    0  502 -0.30151773505E+02  0.87398757486E+03  0.14300504730E+04  0.16762547109E+04  0.46999998093E+01 0.  1.
</event>
<event>
 5   0  0.1519145E-06  0.2497763E+04  0.7818609E-02  0.8403783E-01
       -1   -1    0    0    0  501  0.00000000000E+00  0.00000000000E+00  0.74716038574E+03  0.74716038576E+03  0.50400001928E-02 0. -1.
        1   -1    0    0  501    0  0.00000000000E+00  0.00000000000E+00 -0.20875097919E+04  0.20875097919E+04  0.50400001928E-02 0.  1.
    10030    2    1    2    0    0  0.00000000000E+00  0.00000000000E+00 -0.13403494062E+04  0.28346701777E+04  0.24977626960E+04 0.  0.
        4    1    3    3  502    0  0.43228280428E+03 -0.10419789622E+04 -0.12782801146E+04  0.17048725010E+04  0.12699999809E+01 0.  1.
       -4    1    3    3    0  502 -0.43228280428E+03  0.10419789622E+04 -0.62069291636E+02  0.11297976767E+04  0.12699999809E+01 0. -1.
</event>
<event>
 5   0  0.3713394E-06  0.2501824E+04  0.7818609E-02  0.8402336E-01
        2   -1    0    0  501    0  0.00000000000E+00  0.00000000000E+00  0.22483567319E+04  0.22483567319E+04  0.25500000920E-02 0. -1.
       -2   -1    0    0    0  501  0.00000000000E+00  0.00000000000E+00 -0.69596666149E+03  0.69596666150E+03  0.25500000920E-02 0.  1.
    10030    2    1    2    0    0  0.00000000000E+00  0.00000000000E+00  0.15523900704E+04  0.29443233934E+04  0.25018243972E+04 0.  0.
        3    1    3    3  502    0 -0.68800226753E+03  0.46236792961E+03  0.18787224281E+04  0.20534676025E+04  0.10100000352E+00 0. -1.
       -3    1    3    3    0  502  0.68800226753E+03 -0.46236792961E+03 -0.32633235763E+03  0.89085579096E+03  0.10100000352E+00 0.  1.
</event>
<event>
 5   0  0.1501747E-06  0.2514177E+04  0.7818609E-02  0.8397952E-01
       -1   -1    0    0    0  501  0.00000000000E+00  0.00000000000E+00  0.21074895816E+04  0.21074895816E+04  0.50400001928E-02 0.  1.
        1   -1    0    0  501    0  0.00000000000E+00  0.00000000000E+00 -0.74983583513E+03  0.74983583515E+03  0.50400001928E-02 0. -1.
    10030    2    1    2    0    0  0.00000000000E+00  0.00000000000E+00  0.13576537465E+04  0.28573254168E+04  0.25141767722E+04 0.  0.
        2    1    3    3  502    0 -0.11314927823E+04  0.12869369919E+03  0.73779646854E+02  0.11411754558E+04  0.25500000920E-02 0. -1.
       -2    1    3    3    0  502  0.11314927823E+04 -0.12869369919E+03  0.12838740996E+04  0.17161499609E+04  0.25500000920E-02 0.  1.
</event>
<event>
 5   0  0.3971759E-06  0.2502164E+04  0.7818609E-02  0.8402215E-01
        2   -1    0    0  501    0  0.00000000000E+00  0.00000000000E+00  0.12609207727E+04  0.12609207727E+04  0.25500000920E-02 0.  1.
       -2   -1    0    0    0  501  0.00000000000E+00  0.00000000000E+00 -0.12413203122E+04  0.12413203122E+04  0.25500000920E-02 0. -1.
    10030    2    1    2    0    0  0.00000000000E+00  0.00000000000E+00  0.19600460435E+02  0.25022410849E+04  0.25021643169E+04 0.  0.
        4    1    3    3  502    0 -0.99672292597E+03 -0.48712477713E+03 -0.56854079178E+03  0.12465903034E+04  0.12699999809E+01 0. -1.
       -4    1    3    3    0  502  0.99672292597E+03  0.48712477713E+03  0.58814125221E+03  0.12556507815E+04  0.12699999809E+01 0.  1.
</event>
<event>
 5   0  0.1519145E-06  0.2501479E+04  0.7818609E-02  0.8402459E-01
       -1   -1    0    0    0  501  0.00000000000E+00  0.00000000000E+00  0.73253572435E+03  0.73253572436E+03  0.50400001928E-02 0.  1.
        1   -1    0    0  501    0  0.00000000000E+00  0.00000000000E+00 -0.21355269105E+04  0.21355269105E+04  0.50400001928E-02 0. -1.
    10030    2    1    2    0    0  0.00000000000E+00  0.00000000000E+00 -0.14029911861E+04  0.28680626348E+04  0.25014793641E+04 0.  0.
        4    1    3    3  502    0  0.21218232772E+03 -0.65346958216E+03 -0.18997899925E+04  0.20202097573E+04  0.12699999809E+01 0. -1.
       -4    1    3    3    0  502 -0.21218232772E+03  0.65346958216E+03  0.49679880639E+03  0.84785287753E+03  0.12699999809E+01 0.  1.
</event>
<event>
 5   0  0.1553604E-06  0.2493675E+04  0.7818609E-02  0.8405242E-01
       -1   -1    0    0    0  501  0.00000000000E+00  0.00000000000E+00  0.10590947765E+04  0.10590947765E+04  0.50400001928E-02 0. -1.
        1   -1    0    0  501    0  0.00000000000E+00  0.00000000000E+00 -0.14678602780E+04  0.14678602780E+04  0.50400001928E-02 0.  1.
    10030    2    1    2    0    0  0.00000000000E+00  0.00000000000E+00 -0.40876550155E+03  0.25269550546E+04  0.24936745202E+04 0.  0.
        1    1    3    3  502    0  0.38388543034E+03  0.48712598965E+03  0.89169200520E+03  0.10861741967E+04  0.50400001928E-02 0.  1.
       -1    1    3    3    0  502 -0.38388543034E+03 -0.48712598965E+03 -0.13004575068E+04  0.14407808578E+04  0.50400001928E-02 0. -1.
</event>
<event>
 5   0  0.1541852E-06  0.2499183E+04  0.7818609E-02  0.8403277E-01
       -1   -1    0    0    0  501  0.00000000000E+00  0.00000000000E+00  0.12487870912E+04  0.12487870912E+04  0.50400001928E-02 0.  1.
        1   -1    0    0  501    0  0.00000000000E+00  0.00000000000E+00 -0.12503962898E+04  0.12503962898E+04  0.50400001928E-02 0. -1.
    10030    2    1    2    0    0  0.00000000000E+00  0.00000000000E+00 -0.16091985301E+01  0.24991833810E+04  0.24991828630E+04 0.  0.
        5    1    3    3  502    0  0.82017190279E+03 -0.35249166342E+03  0.87356640305E+03  0.12490286920E+04  0.46999998093E+01 0.  1.
       -5    1    3    3    0  502 -0.82017190279E+03  0.35249166342E+03 -0.87517560158E+03  0.12501546890E+04  0.46999998093E+01 0. -1.
</event>
<event>
 5   0  0.1574896E-06  0.2497556E+04  0.7818609E-02  0.8403857E-01
       -1   -1    0    0    0  501  0.00000000000E+00  0.00000000000E+00  0.11559311972E+04  0.11559311972E+04  0.50400001928E-02 0. -1.
        1   -1    0    0  501    0  0.00000000000E+00  0.00000000000E+00 -0.13490827177E+04  0.13490827177E+04  0.50400001928E-02 0.  1.
    10030    2    1    2    0    0  0.00000000000E+00  0.00000000000E+00 -0.19315152046E+03  0.25050139149E+04  0.24975562464E+04 0.  0.
        3    1    3    3  502    0 -0.63988084695E+03 -0.45944398251E+03 -0.10684430549E+04  0.13274437251E+04  0.10100000352E+00 0.  1.
       -3    1    3    3    0  502  0.63988084695E+03  0.45944398251E+03  0.87529153449E+03  0.11775701898E+04  0.10100000352E+00 0. -1.
</event>
<event>
 5   0  0.3924441E-06  0.2500935E+04  0.7818609E-02  0.8402652E-01
       -2   -1    0    0    0  501  0.00000000000E+00  0.00000000000E+00  0.12201094857E+04  0.12201094857E+04  0.25500000920E-02 0. -1.
        2   -1    0    0  501    0  0.00000000000E+00  0.00000000000E+00 -0.12815811762E+04  0.12815811762E+04  0.25500000920E-02 0.  1.
    10030    2    1    2    0    0  0.00000000000E+00  0.00000000000E+00 -0.61471690470E+02  0.25016906619E+04  0.25009353049E+04 0.  0.
        2    1    3    3  502    0  0.43493506026E+03 -0.10154420700E+04 -0.61689768113E+03  0.12652485341E+04  0.25500000920E-02 0.  1.
       -2    1    3    3    0  502 -0.43493506026E+03  0.10154420700E+04  0.55542599066E+03  0.12364421277E+04  0.25500000920E-02 0. -1.
</event>
<event>
 5   0  0.1519145E-06  0.2507834E+04  0.7818609E-02  0.8400200E-01
        1   -1    0    0  501    0  0.00000000000E+00  0.00000000000E+00  0.97052490334E+03  0.97052490335E+03  0.50400001928E-02 0. -1.
       -1   -1    0    0    0  501  0.00000000000E+00  0.00000000000E+00 -0.16200589162E+04  0.16200589162E+04  0.50400001928E-02 0.  1.
    10030    2    1    2    0    0  0.00000000000E+00  0.00000000000E+00 -0.64953401288E+03  0.25905838196E+04  0.25078337450E+04 0.  0.
        4    1    3    3  502    0 -0.33347752915E+03  0.21756908320E+03 -0.15530179640E+04  0.16032498177E+04  0.12699999809E+01 0.  1.
       -4    1    3    3    0  502  0.33347752915E+03 -0.21756908320E+03  0.90348395115E+03  0.98733400189E+03  0.12699999809E+01 0. -1.
</event>
<event>
 5   0  0.3814260E-06  0.2491068E+04  0.7818609E-02  0.8406175E-01
       -2   -1    0    0    0  501  0.00000000000E+00  0.00000000000E+00  0.66341568879E+03  0.66341568880E+03  0.25500000920E-02 0.  1.
        2   -1    0    0  501    0  0.00000000000E+00  0.00000000000E+00 -0.23384356176E+04  0.23384356176E+04  0.25500000920E-02 0. -1.
    10030    2    1    2    0    0  0.00000000000E+00  0.00000000000E+00 -0.16750199288E+04  0.30018513064E+04  0.24910679445E+04 0.  0.
        5    1    3    3  502    0 -0.75216312309E+03  0.98804281043E+03 -0.72095749399E+03  0.14358898834E+04  0.46999998093E+01 0.  1.
       -5    1    3    3    0  502  0.75216312309E+03 -0.98804281043E+03 -0.95406243483E+03  0.15659614231E+04  0.46999998093E+01 0. -1.
</event>
<event>
 5   0  0.3971759E-06  0.2499710E+04  0.7818609E-02  0.8403089E-01
        2   -1    0    0  501    0  0.00000000000E+00  0.00000000000E+00  0.10842000634E+04  0.10842000634E+04  0.25500000920E-02 0.  1.
       -2   -1    0    0    0  501  0.00000000000E+00  0.00000000000E+00 -0.14408200999E+04  0.14408200999E+04  0.25500000920E-02 0. -1.
    10030    2    1    2    0    0  0.00000000000E+00  0.00000000000E+00 -0.35662003644E+03  0.25250201633E+04  0.24997097781E+04 0.  0.
        4    1    3    3  502    0 -0.89416725200E+02 -0.10560527628E+04  0.49088779096E+03  0.11679962435E+04  0.12699999809E+01 0.  1.
       -4    1    3    3    0  502  0.89416725200E+02  0.10560527628E+04 -0.84750782740E+03  0.13570239198E+04  0.12699999809E+01 0. -1.
</event>
<event>
 5   0  0.1553604E-06  0.2498726E+04  0.7818609E-02  0.8403440E-01
        1   -1    0    0  501    0  0.00000000000E+00  0.00000000000E+00  0.11099780841E+04  0.11099780841E+04  0.50400001928E-02 0.  1.
       -1   -1    0    0    0  501  0.00000000000E+00  0.00000000000E+00 -0.14062506278E+04  0.14062506278E+04  0.50400001928E-02 0. -1.
    10030    2    1    2    0    0  0.00000000000E+00  0.00000000000E+00 -0.29627254368E+03  0.25162287119E+04  0.24987255772E+04 0.  0.
        1    1    3    3  502    0  0.51032485665E+03 -0.39142610587E+03  0.93046956298E+03  0.11311142574E+04  0.50400001928E-02 0.  1.
       -1    1    3    3    0  502 -0.51032485665E+03  0.39142610587E+03 -0.12267421067E+04  0.13851144545E+04  0.50400001928E-02 0. -1.
</event>
<event>
 5   0  0.3814260E-06  0.2497719E+04  0.7818609E-02  0.8403799E-01
        2   -1    0    0  501    0  0.00000000000E+00  0.00000000000E+00  0.13700485795E+04  0.13700485795E+04  0.25500000920E-02 0. -1.
       -2   -1    0    0    0  501  0.00000000000E+00  0.00000000000E+00 -0.11383902127E+04  0.11383902127E+04  0.25500000920E-02 0.  1.
    10030    2    1    2    0    0  0.00000000000E+00  0.00000000000E+00  0.23165836681E+03  0.25084387923E+04  0.24977188744E+04 0.  0.
        5    1    3    3  502    0  0.47547247401E+03  0.60147160205E+03  0.11058519730E+04  0.13456495970E+04  0.46999998093E+01 0. -1.
       -5    1    3    3    0  502 -0.47547247401E+03 -0.60147160205E+03 -0.87419360621E+03  0.11627891953E+04  0.46999998093E+01 0.  1.
</event>
<event>
 5   0  0.3808293E-06  0.2510528E+04  0.7818609E-02  0.8399245E-01
        2   -1    0    0  501    0  0.00000000000E+00  0.00000000000E+00  0.23245538542E+04  0.23245538542E+04  0.25500000920E-02 0. -1.
       -2   -1    0    0    0  501  0.00000000000E+00  0.00000000000E+00 -0.67784512872E+03  0.67784512873E+03  0.25500000920E-02 0.  1.
    10030    2    1    2    0    0  0.00000000000E+00  0.00000000000E+00  0.16467087255E+04  0.30023989829E+04  0.25105278381E+04 0.  0.
        1    1    3    3  502    0 -0.29393587113E+03  0.49889596582E+03  0.21552887932E+04  0.22317180071E+04  0.50400001928E-02 0.  1.
       -1    1    3    3    0  502  0.29393587113E+03 -0.49889596582E+03 -0.50858006779E+03  0.77068097578E+03  0.50400001928E-02 0. -1.
</event>
<event>
 5   0  0.3713394E-06  0.2491149E+04  0.7818609E-02  0.8406145E-01
        2   -1    0    0  501    0  0.00000000000E+00  0.00000000000E+00  0.23837214082E+04  0.23837214082E+04  0.25500000920E-02 0.  1.
       -2   -1    0    0    0  501  0.00000000000E+00  0.00000000000E+00 -0.65085472566E+03  0.65085472566E+03  0.25500000920E-02 0. -1.
    10030    2    1    2    0    0  0.00000000000E+00  0.00000000000E+00  0.17328666825E+04  0.30345761338E+04  0.24911494079E+04 0.  0.
        3    1    3    3  502    0 -0.75065608430E+03  0.80247866407E+03  0.15197429666E+03  0.11093028262E+04  0.10100000352E+00 0. -1.
       -3    1    3    3    0  502  0.75065608430E+03 -0.80247866407E+03  0.15808923858E+04  0.19252733076E+04  0.10100000352E+00 0.  1.
</event>
<event>
 5   0  0.1553604E-06  0.2500640E+04  0.7818609E-02  0.8402758E-01
        1   -1    0    0  501    0  0.00000000000E+00  0.00000000000E+00  0.15451329186E+04  0.15451329186E+04  0.50400001928E-02 0. -1.
       -1   -1    0    0    0  501  0.00000000000E+00  0.00000000000E+00 -0.10117573363E+04  0.10117573363E+04  0.50400001928E-02 0.  1.
    10030    2    1    2    0    0  0.00000000000E+00  0.00000000000E+00  0.53337558232E+03  0.25568902549E+04  0.25006395710E+04 0.  0.
        1    1    3    3  502    0  0.10639292030E+03 -0.12417010816E+04  0.16363101394E+03  0.12569471502E+04  0.50400001928E-02 0. -1.
       -1    1    3    3    0  502 -0.10639292030E+03  0.12417010816E+04  0.36974456838E+03  0.12999431047E+04  0.50400001928E-02 0.  1.
</event>
<event>
 5   0  0.1501747E-06  0.2496573E+04  0.7818609E-02  0.8404207E-01
        1   -1    0    0  501    0  0.00000000000E+00  0.00000000000E+00  0.11912148908E+04  0.11912148908E+04  0.50400001928E-02 0. -1.
       -1   -1    0    0    0  501  0.00000000000E+00  0.00000000000E+00 -0.13080927723E+04  0.13080927723E+04  0.50400001928E-02 0.  1.
    10030    2    1    2    0    0  0.00000000000E+00  0.00000000000E+00 -0.11687788155E+03  0.24993076631E+04  0.24965733227E+04 0.  0.
        2    1    3    3  502    0 -0.46114485831E+03  0.17974875567E+03  0.10887897293E+04  0.11960047116E+04  0.25500000920E-02 0. -1.
       -2    1    3    3    0  502  0.46114485831E+03 -0.17974875567E+03 -0.12056676109E+04  0.13033029515E+04  0.25500000920E-02 0.  1.
</event>
<event>
 5   0  0.3808293E-06  0.2500719E+04  0.7818609E-02  0.8402729E-01
        2   -1    0    0  501    0  0.00000000000E+00  0.00000000000E+00  0.13502696502E+04  0.13502696502E+04  0.25500000920E-02 0. -1.
       -2   -1    0    0    0  501  0.00000000000E+00  0.00000000000E+00 -0.11578421989E+04  0.11578421989E+04  0.25500000920E-02 0.  1.
    10030    2    1    2    0    0  0.00000000000E+00  0.00000000000E+00  0.19242745125E+03  0.25081118491E+04  0.25007192412E+04 0.  0.
        1    1    3    3  502    0  0.64852436550E+03  0.82028915139E+03 -0.59133526582E+03  0.12013057651E+04  0.50400001928E-02 0.  1.
       -1    1    3    3    0  502 -0.64852436550E+03 -0.82028915139E+03  0.78376271707E+03  0.13068060840E+04  0.50400001928E-02 0. -1.
</event>
<event>
 5   0  0.3713394E-06  0.2488372E+04  0.7818609E-02  0.8407140E-01
        2   -1    0    0  501    0  0.00000000000E+00  0.00000000000E+00  0.15726213248E+04  0.15726213248E+04  0.25500000920E-02 0. -1.
       -2   -1    0    0    0  501  0.00000000000E+00  0.00000000000E+00 -0.98434272772E+03  0.98434272773E+03  0.25500000920E-02 0.  1.
    10030    2    1    2    0    0  0.00000000000E+00  0.00000000000E+00  0.58827859707E+03  0.25569640525E+04  0.24883716479E+04 0.  0.
        3    1    3    3  502    0 -0.12500980599E+03  0.98390780418E+03 -0.47776417118E+03  0.11008908357E+04  0.10100000352E+00 0.  1.
       -3    1    3    3    0  502  0.12500980599E+03 -0.98390780418E+03  0.10660427682E+04  0.14560732168E+04  0.10100000352E+00 0. -1.
</event>
<event>
 5   0  0.1541852E-06  0.2499210E+04  0.7818609E-02  0.8403267E-01
        1   -1    0    0  501    0  0.00000000000E+00  0.00000000000E+00  0.11250213570E+04  0.11250213570E+04  0.50400001928E-02 0.  1.
       -1   -1    0    0    0  501  0.00000000000E+00  0.00000000000E+00 -0.13879844189E+04  0.13879844189E+04  0.50400001928E-02 0. -1.
    10030    2    1    2    0    0  0.00000000000E+00  0.00000000000E+00 -0.26296306193E+03  0.25130057758E+04  0.24992095665E+04 0.  0.
        5    1    3    3  502    0 -0.38299392229E+03 -0.11076029942E+04 -0.56748939533E+03  0.13021271217E+04  0.46999998093E+01 0. -1.
       -5    1    3    3    0  502  0.38299392229E+03  0.11076029942E+04  0.30452633341E+03  0.12108786541E+04  0.46999998093E+01 0.  1.
</event>
<event>
 5   0  0.3713394E-06  0.2502414E+04  0.7818609E-02  0.8402126E-01
       -2   -1    0    0    0  501  0.00000000000E+00  0.00000000000E+00  0.11460256586E+04  0.11460256586E+04  0.25500000920E-02 0. -1.
        2   -1    0    0  501    0  0.00000000000E+00  0.00000000000E+00 -0.13660415625E+04  0.13660415625E+04  0.25500000920E-02 0.  1.
    10030    2    1    2    0    0  0.00000000000E+00  0.00000000000E+00 -0.22001590394E+03  0.25120672211E+04  0.25024137798E+04 0.  0.
        3    1    3    3  502    0  0.40198475169E+03 -0.73812326494E+03  0.82044461858E+03  0.11745412199E+04  0.10100000352E+00 0. -1.
       -3    1    3    3    0  502 -0.40198475169E+03  0.73812326494E+03 -0.10404605225E+04  0.13375260012E+04  0.10100000352E+00 0.  1.
</event>
<event>
 5   0  0.1519145E-06  0.2450800E+04  0.7818609E-02  0.8420726E-01
       -1   -1    0    0    0  501  0.00000000000E+00  0.00000000000E+00  0.96088776612E+03  0.96088776613E+03  0.50400001928E-02 0.  1.
        1   -1    0    0  501    0  0.00000000000E+00  0.00000000000E+00 -0.15627267683E+04  0.15627267683E+04  0.50400001928E-02 0. -1.
    10030    2    1    2    0    0  0.00000000000E+00  0.00000000000E+00 -0.60183900217E+03  0.25236145344E+04  0.24507998967E+04 0.  0.
        4    1    3    3  502    0  0.96824727824E+03  0.68538291684E+03 -0.61721146521E+03  0.13372375033E+04  0.12699999809E+01 0. -1.
       -4    1    3    3    0  502 -0.96824727824E+03 -0.68538291684E+03  0.15372463032E+02  0.11863770311E+04  0.12699999809E+01 0.  1.
</event>
<event>
 5   0  0.1519145E-06  0.2498655E+04  0.7818609E-02  0.8403465E-01
       -1   -1    0    0    0  501  0.00000000000E+00  0.00000000000E+00  0.97583115237E+03  0.97583115238E+03  0.50400001928E-02 0. -1.
        1   -1    0    0  501    0  0.00000000000E+00  0.00000000000E+00 -0.15994764141E+04  0.15994764141E+04  0.50400001928E-02 0.  1.
    10030    2    1    2    0    0  0.00000000000E+00  0.00000000000E+00 -0.62364526174E+03  0.25753075665E+04  0.24986547680E+04 0.  0.
        4    1    3    3  502    0  0.12378394374E+04  0.16460453612E+03 -0.35142229945E+03  0.12972433740E+04  0.12699999809E+01 0. -1.
       -4    1    3    3    0  502 -0.12378394374E+04 -0.16460453612E+03 -0.27222296229E+03  0.12780641925E+04  0.12699999809E+01 0.  1.
</event>
<event>
 5   0  0.3713394E-06  0.2515457E+04  0.7818609E-02  0.8397499E-01
       -2   -1    0    0    0  501  0.00000000000E+00  0.00000000000E+00  0.11054962410E+04  0.11054962410E+04  0.25500000920E-02 0. -1.
        2   -1    0    0  501    0  0.00000000000E+00  0.00000000000E+00 -0.14309240505E+04  0.14309240505E+04  0.25500000920E-02 0.  1.
    10030    2    1    2    0    0  0.00000000000E+00  0.00000000000E+00 -0.32542780949E+03  0.25364202915E+04  0.25154571425E+04 0.  0.
        3    1    3    3  502    0 -0.56979049124E+02 -0.10988674440E+04 -0.77699101141E+03  0.13470231303E+04  0.10100000352E+00 0.  1.
       -3    1    3    3    0  502  0.56979049124E+02  0.10988674440E+04  0.45156320192E+03  0.11893971612E+04  0.10100000352E+00 0. -1.
</event>
<event>
 5   0  0.1541852E-06  0.2496767E+04  0.7818609E-02  0.8404138E-01
       -1   -1    0    0    0  501  0.00000000000E+00  0.00000000000E+00  0.76548583874E+03  0.76548583876E+03  0.50400001928E-02 0. -1.
        1   -1    0    0  501    0  0.00000000000E+00  0.00000000000E+00 -0.20359117975E+04  0.20359117975E+04  0.50400001928E-02 0.  1.
    10030    2    1    2    0    0  0.00000000000E+00  0.00000000000E+00 -0.12704259588E+04  0.28013976363E+04  0.24967672298E+04 0.  0.
        5    1    3    3  502    0 -0.43875908973E+03 -0.11239845208E+04 -0.27583892819E+03  0.12377236954E+04  0.46999998093E+01 0. -1.
       -5    1    3    3    0  502  0.43875908973E+03  0.11239845208E+04 -0.99458703062E+03  0.15636739409E+04  0.46999998093E+01 0.  1.
</event>
<event>
 5   0  0.1553604E-06  0.2504380E+04  0.7818609E-02  0.8401427E-01
       -1   -1    0    0    0  501  0.00000000000E+00  0.00000000000E+00  0.22247457202E+04  0.22247457202E+04  0.50400001928E-02 0.  1.
        1   -1    0    0  501    0  0.00000000000E+00  0.00000000000E+00 -0.70479058711E+03  0.70479058713E+03  0.50400001928E-02 0. -1.
    10030    2    1    2    0    0  0.00000000000E+00  0.00000000000E+00  0.15199551331E+04  0.29295363073E+04  0.25043800369E+04 0.  0.
        1    1    3    3  502    0  0.49427559906E+03  0.66290135541E+03  0.18599506974E+04  0.20354761535E+04  0.50400001928E-02 0.  1.
       -1    1    3    3    0  502 -0.49427559906E+03 -0.66290135541E+03 -0.33999556431E+03  0.89406015379E+03  0.50400001928E-02 0. -1.
</event>
<event>
 5   0  0.1519145E-06  0.2510084E+04  0.7818609E-02  0.8399402E-01
        1   -1    0    0  501    0  0.00000000000E+00  0.00000000000E+00  0.19869646169E+04  0.19869646169E+04  0.50400001928E-02 0. -1.
       -1   -1    0    0    0  501  0.00000000000E+00  0.00000000000E+00 -0.79273177457E+03  0.79273177459E+03  0.50400001928E-02 0.  1.
    10030    2    1    2    0    0  0.00000000000E+00  0.00000000000E+00  0.11942328423E+04  0.27796963915E+04  0.25100836534E+04 0.  0.
        4    1    3    3  502    0 -0.62841248130E+02  0.41685059668E+03  0.19062135114E+04  0.19522717553E+04  0.12699999809E+01 0. -1.
       -4    1    3    3    0  502  0.62841248130E+02 -0.41685059668E+03 -0.71198066914E+03  0.82742463617E+03  0.12699999809E+01 0.  1.
</event>
<event>
 5   0  0.3924441E-06  0.2498065E+04  0.7818609E-02  0.8403675E-01
        2   -1    0    0  501    0  0.00000000000E+00  0.00000000000E+00  0.14589004459E+04  0.14589004459E+04  0.25500000920E-02 0. -1.
       -2   -1    0    0    0  501  0.00000000000E+00  0.00000000000E+00 -0.10693545687E+04  0.10693545687E+04  0.25500000920E-02 0.  1.
    10030    2    1    2    0    0  0.00000000000E+00  0.00000000000E+00  0.38954587717E+03  0.25282550145E+04  0.24980647366E+04 0.  0.
        2    1    3    3  502    0  0.81246197320E+03  0.94680585753E+03  0.25504147900E+03  0.12734135015E+04  0.25500000920E-02 0.  1.
       -2    1    3    3    0  502 -0.81246197320E+03 -0.94680585753E+03  0.13450439816E+03  0.12548415131E+04  0.25500000920E-02 0. -1.
</event>
<event>
 5   0  0.3924441E-06  0.2479743E+04  0.7818609E-02  0.8410238E-01
        2   -1    0    0  501    0  0.00000000000E+00  0.00000000000E+00  0.13890524239E+04  0.13890524239E+04  0.25500000920E-02 0. -1.
       -2   -1    0    0    0  501  0.00000000000E+00  0.00000000000E+00 -0.11067125290E+04  0.11067125290E+04  0.25500000920E-02 0.  1.
    10030    2    1    2    0    0  0.00000000000E+00  0.00000000000E+00  0.28233989497E+03  0.24957649529E+04  0.24797433101E+04 0.  0.
        2    1    3    3  502    0  0.54837450288E+03  0.29767604683E+03  0.12195195782E+04  0.13698735803E+04  0.25500000920E-02 0. -1.
       -2    1    3    3    0  502 -0.54837450288E+03 -0.29767604683E+03 -0.93717968323E+03  0.11258913726E+04  0.25500000920E-02 0.  1.
</event>
<event>
 5   0  0.3924441E-06  0.2501421E+04  0.7818609E-02  0.8402480E-01
        2   -1    0    0  501    0  0.00000000000E+00  0.00000000000E+00  0.13862860581E+04  0.13862860581E+04  0.25500000920E-02 0. -1.
       -2   -1    0    0    0  501  0.00000000000E+00  0.00000000000E+00 -0.11283938003E+04  0.11283938003E+04  0.25500000920E-02 0.  1.
    10030    2    1    2    0    0  0.00000000000E+00  0.00000000000E+00  0.25789225778E+03  0.25146798585E+04  0.25014208710E+04 0.  0.
        2    1    3    3  502    0  0.27612464249E+03  0.11478430454E+04 -0.28614456133E+03  0.12147704248E+04  0.25500000920E-02 0. -1.
       -2    1    3    3    0  502 -0.27612464249E+03 -0.11478430454E+04  0.54403681911E+03  0.12999094336E+04  0.25500000920E-02 0.  1.
</event>
<event>
 5   0  0.1501747E-06  0.2504316E+04  0.7818609E-02  0.8401449E-01
        1   -1    0    0  501    0  0.00000000000E+00  0.00000000000E+00  0.20433732284E+04  0.20433732284E+04  0.50400001928E-02 0.  1.
       -1   -1    0    0    0  501  0.00000000000E+00  0.00000000000E+00 -0.76730975281E+03  0.76730975283E+03  0.50400001928E-02 0. -1.
    10030    2    1    2    0    0  0.00000000000E+00  0.00000000000E+00  0.12760634756E+04  0.28106829812E+04  0.25043164391E+04 0.  0.
        2    1    3    3  502    0 -0.53637225003E+03  0.98781106283E+03  0.18776818660E+02  0.11241968046E+04  0.25500000920E-02 0. -1.
       -2    1    3    3    0  502  0.53637225003E+03 -0.98781106283E+03  0.12572866569E+04  0.16864861767E+04  0.25500000920E-02 0.  1.
</event>
<event>
 5   0  0.1519145E-06  0.2455307E+04  0.7818609E-02  0.8419083E-01
       -1   -1    0    0    0  501  0.00000000000E+00  0.00000000000E+00  0.16650419382E+04  0.16650419382E+04  0.50400001928E-02 0.  1.
        1   -1    0    0  501    0  0.00000000000E+00  0.00000000000E+00 -0.90516255908E+03  0.90516255910E+03  0.50400001928E-02 0. -1.
    10030    2    1    2    0    0  0.00000000000E+00  0.00000000000E+00  0.75987937913E+03  0.25702044973E+04  0.24553074120E+04 0.  0.
        4    1    3    3  502    0  0.94378278018E+03  0.69868169400E+03  0.50612798704E+01  0.11742696774E+04  0.12699999809E+01 0. -1.
       -4    1    3    3    0  502 -0.94378278018E+03 -0.69868169400E+03  0.75481809926E+03  0.13959348200E+04  0.12699999809E+01 0.  1.
</event>
<event>
 5   0  0.1574896E-06  0.2502612E+04  0.7818609E-02  0.8402056E-01
       -1   -1    0    0    0  501  0.00000000000E+00  0.00000000000E+00  0.13344390875E+04  0.13344390875E+04  0.50400001928E-02 0.  1.
        1   -1    0    0  501    0  0.00000000000E+00  0.00000000000E+00 -0.11733519064E+04  0.11733519064E+04  0.50400001928E-02 0. -1.
    10030    2    1    2    0    0  0.00000000000E+00  0.00000000000E+00  0.16108718111E+03  0.25077909938E+04  0.25026119533E+04 0.  0.
        3    1    3    3  502    0  0.36508469470E+03  0.11351196907E+04 -0.29969270426E+03  0.12294711358E+04  0.10100000352E+00 0. -1.
       -3    1    3    3    0  502 -0.36508469470E+03 -0.11351196907E+04  0.46077988536E+03  0.12783198581E+04  0.10100000352E+00 0.  1.
</event>
<event>
 5   0  0.3814260E-06  0.2495803E+04  0.7818609E-02  0.8404482E-01
        2   -1    0    0  501    0  0.00000000000E+00  0.00000000000E+00  0.12349172020E+04  0.12349172020E+04  0.25500000920E-02 0. -1.
       -2   -1    0    0    0  501  0.00000000000E+00  0.00000000000E+00 -0.12610221772E+04  0.12610221772E+04  0.25500000920E-02 0.  1.
    10030    2    1    2    0    0  0.00000000000E+00  0.00000000000E+00 -0.26104975240E+02  0.24959393793E+04  0.24958028598E+04 0.  0.
        5    1    3    3  502    0 -0.10075155408E+04 -0.13724943177E+03  0.71038940267E+03  0.12404032268E+04  0.46999998093E+01 0. -1.
       -5    1    3    3    0  502  0.10075155408E+04  0.13724943177E+03 -0.73649437791E+03  0.12555361525E+04  0.46999998093E+01 0.  1.
</event>
<event>
 5   0  0.1519145E-06  0.2542435E+04  0.7818609E-02  0.8388022E-01
       -1   -1    0    0    0  501  0.00000000000E+00  0.00000000000E+00  0.13052375816E+04  0.13052375816E+04  0.50400001928E-02 0.  1.
        1   -1    0    0  501    0  0.00000000000E+00  0.00000000000E+00 -0.12380844065E+04  0.12380844065E+04  0.50400001928E-02 0. -1.
    10030    2    1    2    0    0  0.00000000000E+00  0.00000000000E+00  0.67153175159E+02  0.25433219881E+04  0.25424352865E+04 0.  0.
        4    1    3    3  502    0  0.90476845784E+03  0.51532108576E+03 -0.69594512426E+03  0.12523989031E+04  0.12699999809E+01 0.  1.
       -4    1    3    3    0  502 -0.90476845784E+03 -0.51532108576E+03  0.76309829942E+03  0.12909230849E+04  0.12699999809E+01 0. -1.
</event>
<event>
 5   0  0.3814260E-06  0.2507494E+04  0.7818609E-02  0.8400321E-01
        2   -1    0    0  501    0  0.00000000000E+00  0.00000000000E+00  0.16193919591E+04  0.16193919591E+04  0.25500000920E-02 0.  1.
       -2   -1    0    0    0  501  0.00000000000E+00  0.00000000000E+00 -0.97066172882E+03  0.97066172882E+03  0.25500000920E-02 0. -1.
    10030    2    1    2    0    0  0.00000000000E+00  0.00000000000E+00  0.64873023028E+03  0.25900536879E+04  0.25074942063E+04 0.  0.
        5    1    3    3  502    0  0.44130262095E+03  0.14979478860E+03  0.15265910764E+04  0.15961481405E+04  0.46999998093E+01 0.  1.
       -5    1    3    3    0  502 -0.44130262095E+03 -0.14979478860E+03 -0.87786084613E+03  0.99390554738E+03  0.46999998093E+01 0. -1.
</event>
<event>
 5   0  0.1519145E-06  0.2502833E+04  0.7818609E-02  0.8401977E-01
        1   -1    0    0  501    0  0.00000000000E+00  0.00000000000E+00  0.23852234510E+04  0.23852234510E+04  0.50400001928E-02 0.  1.
       -1   -1    0    0    0  501  0.00000000000E+00  0.00000000000E+00 -0.65656028008E+03  0.65656028010E+03  0.50400001928E-02 0. -1.
    10030    2    1    2    0    0  0.00000000000E+00  0.00000000000E+00  0.17286631709E+04  0.30417837311E+04  0.25028327767E+04 0.  0.
        4    1    3    3  502    0 -0.10627586729E+04  0.14170319110E+03  0.16486761789E+04  0.19666394044E+04  0.12699999809E+01 0.  1.
       -4    1    3    3    0  502  0.10627586729E+04 -0.14170319110E+03  0.79986991951E+02  0.10751443266E+04  0.12699999809E+01 0. -1.
</event>
<event>
 5   0  0.1541852E-06  0.2487586E+04  0.7818609E-02  0.8407422E-01
       -1   -1    0    0    0  501  0.00000000000E+00  0.00000000000E+00  0.96516468424E+03  0.96516468425E+03  0.50400001928E-02 0. -1.
        1   -1    0    0  501    0  0.00000000000E+00  0.00000000000E+00 -0.16028565216E+04  0.16028565216E+04  0.50400001928E-02 0.  1.
    10030    2    1    2    0    0  0.00000000000E+00  0.00000000000E+00 -0.63769183733E+03  0.25680212058E+04  0.24875855833E+04 0.  0.
        5    1    3    3  502    0  0.15058784988E+03  0.13238963930E+03 -0.15860530743E+04  0.15986838843E+04  0.46999998093E+01 0.  1.
       -5    1    3    3    0  502 -0.15058784988E+03 -0.13238963930E+03  0.94836123701E+03  0.96933732157E+03  0.46999998093E+01 0. -1.
</event>
<event>
 5   0  0.1574896E-06  0.2499886E+04  0.7818609E-02  0.8403026E-01
        1   -1    0    0  501    0  0.00000000000E+00  0.00000000000E+00  0.90033787017E+03  0.90033787018E+03  0.50400001928E-02 0. -1.
       -1   -1    0    0    0  501  0.00000000000E+00  0.00000000000E+00 -0.17353018533E+04  0.17353018533E+04  0.50400001928E-02 0.  1.
    10030    2    1    2    0    0  0.00000000000E+00  0.00000000000E+00 -0.83496398314E+03  0.26356397235E+04  0.24998863772E+04 0.  0.
        3    1    3    3  502    0  0.11140352768E+04  0.31172708546E+03  0.81627691698E+02  0.11597031793E+04  0.10100000352E+00 0. -1.
       -3    1    3    3    0  502 -0.11140352768E+04 -0.31172708546E+03 -0.91659167484E+03  0.14759365442E+04  0.10100000352E+00 0.  1.
</event>
<event>
 5   0  0.1574896E-06  0.2509188E+04  0.7818609E-02  0.8399719E-01
        1   -1    0    0  501    0  0.00000000000E+00  0.00000000000E+00  0.14716076850E+04  0.14716076850E+04  0.50400001928E-02 0.  1.
       -1   -1    0    0    0  501  0.00000000000E+00  0.00000000000E+00 -0.10695828973E+04  0.10695828973E+04  0.50400001928E-02 0. -1.
    10030    2    1    2    0    0  0.00000000000E+00  0.00000000000E+00  0.40202478772E+03  0.25411905823E+04  0.25091882443E+04 0.  0.
        3    1    3    3  502    0 -0.94144371504E+03  0.58632446111E+03 -0.39290872511E+03  0.11766349981E+04  0.10100000352E+00 0. -1.
       -3    1    3    3    0  502  0.94144371504E+03 -0.58632446111E+03  0.79493351283E+03  0.13645555842E+04  0.10100000352E+00 0.  1.
</event>
<event>
 5   0  0.3971759E-06  0.2504831E+04  0.7818609E-02  0.8401266E-01
        2   -1    0    0  501    0  0.00000000000E+00  0.00000000000E+00  0.18851417330E+04  0.18851417330E+04  0.25500000920E-02 0. -1.
       -2   -1    0    0    0  501  0.00000000000E+00  0.00000000000E+00 -0.83205677981E+03  0.83205677982E+03  0.25500000920E-02 0.  1.
    10030    2    1    2    0    0  0.00000000000E+00  0.00000000000E+00  0.10530849532E+04  0.27171985128E+04  0.25048312996E+04 0.  0.
        4    1    3    3  502    0  0.16298527940E+03  0.12177946353E+04  0.26314926481E+03  0.12565178565E+04  0.12699999809E+01 0. -1.
       -4    1    3    3    0  502 -0.16298527940E+03 -0.12177946353E+04  0.78993568840E+03  0.14606806564E+04  0.12699999809E+01 0.  1.
</event>
<event>
 5   0  0.3924441E-06  0.2512562E+04  0.7818609E-02  0.8398524E-01
        2   -1    0    0  501    0  0.00000000000E+00  0.00000000000E+00  0.11972041337E+04  0.11972041337E+04  0.25500000920E-02 0. -1.
       -2   -1    0    0    0  501  0.00000000000E+00  0.00000000000E+00 -0.13182730304E+04  0.13182730304E+04  0.25500000920E-02 0.  1.
    10030    2    1    2    0    0  0.00000000000E+00  0.00000000000E+00 -0.12106889671E+03  0.25154771641E+04  0.25125619765E+04 0.  0.
        2    1    3    3  502    0 -0.12352557884E+04  0.22785212023E+03 -0.38865168826E+02  0.12566956484E+04  0.25500000920E-02 0.  1.
       -2    1    3    3    0  502  0.12352557884E+04 -0.22785212023E+03 -0.82203727887E+02  0.12587815157E+04  0.25500000920E-02 0. -1.
</event>
<event>
 5   0  0.1574896E-06  0.2498135E+04  0.7818609E-02  0.8403650E-01
        1   -1    0    0  501    0  0.00000000000E+00  0.00000000000E+00  0.19209444054E+04  0.19209444054E+04  0.50400001928E-02 0. -1.
       -1   -1    0    0    0  501  0.00000000000E+00  0.00000000000E+00 -0.81218858656E+03  0.81218858658E+03  0.50400001928E-02 0.  1.
    10030    2    1    2    0    0  0.00000000000E+00  0.00000000000E+00  0.11087558188E+04  0.27331329920E+04  0.24981346013E+04 0.  0.
        3    1    3    3  502    0  0.92367260993E+03 -0.47583591918E+03  0.13128279216E+04  0.16742485103E+04  0.10100000352E+00 0. -1.
       -3    1    3    3    0  502 -0.92367260993E+03  0.47583591918E+03 -0.20407210271E+03  0.10588844817E+04  0.10100000352E+00 0.  1.
</event>
<event>
 5   0  0.3713394E-06  0.2501592E+04  0.7818609E-02  0.8402419E-01
       -2   -1    0    0    0  501  0.00000000000E+00  0.00000000000E+00  0.89642244111E+03  0.89642244112E+03  0.25500000920E-02 0.  1.
        2   -1    0    0  501    0  0.00000000000E+00  0.00000000000E+00 -0.17452607232E+04  0.17452607232E+04  0.25500000920E-02 0. -1.
    10030    2    1    2    0    0  0.00000000000E+00  0.00000000000E+00 -0.84883828205E+03  0.26416831643E+04  0.25015921953E+04 0.  0.
        3    1    3    3  502    0  0.88090579740E+03  0.70023500407E+03  0.15220635978E+03  0.11355575155E+04  0.10100000352E+00 0.  1.
       -3    1    3    3    0  502 -0.88090579740E+03 -0.70023500407E+03 -0.10010446418E+04  0.15061256488E+04  0.10100000352E+00 0. -1.
</event>
<event>
 5   0  0.1553604E-06  0.2495747E+04  0.7818609E-02  0.8404502E-01
        1   -1    0    0  501    0  0.00000000000E+00  0.00000000000E+00  0.15910944202E+04  0.15910944203E+04  0.50400001928E-02 0. -1.
       -1   -1    0    0    0  501  0.00000000000E+00  0.00000000000E+00 -0.97869003622E+03  0.97869003623E+03  0.50400001928E-02 0.  1.
    10030    2    1    2    0    0  0.00000000000E+00  0.00000000000E+00  0.61240438403E+03  0.25697844565E+04  0.24957469870E+04 0.  0.
        1    1    3    3  502    0 -0.69274872345E+02  0.83810203975E+03  0.12554924390E+04  0.15111172361E+04  0.50400001928E-02 0. -1.
       -1    1    3    3    0  502  0.69274872345E+02 -0.83810203975E+03 -0.64308805496E+03  0.10586672203E+04  0.50400001928E-02 0.  1.
</event>
<event>
 5   0  0.1519145E-06  0.2498274E+04  0.7818609E-02  0.8403601E-01
       -1   -1    0    0    0  501  0.00000000000E+00  0.00000000000E+00  0.83821765466E+03  0.83821765467E+03  0.50400001928E-02 0.  1.
        1   -1    0    0  501    0  0.00000000000E+00  0.00000000000E+00 -0.18615013530E+04  0.18615013531E+04  0.50400001928E-02 0. -1.
    10030    2    1    2    0    0  0.00000000000E+00  0.00000000000E+00 -0.10232836984E+04  0.26997190077E+04  0.24982740429E+04 0.  0.
        4    1    3    3  502    0 -0.10443002642E+03 -0.87149489822E+03 -0.14720891359E+04  0.17139011129E+04  0.12699999809E+01 0. -1.
       -4    1    3    3    0  502  0.10443002642E+03  0.87149489822E+03  0.44880543750E+03  0.98581789478E+03  0.12699999809E+01 0.  1.
</event>
<event>
 5   0  0.1541852E-06  0.2498155E+04  0.7818609E-02  0.8403643E-01
        1   -1    0    0  501    0  0.00000000000E+00  0.00000000000E+00  0.13341260258E+04  0.13341260258E+04  0.50400001928E-02 0.  1.
       -1   -1    0    0    0  501  0.00000000000E+00  0.00000000000E+00 -0.11694503806E+04  0.11694503806E+04  0.50400001928E-02 0. -1.
    10030    2    1    2    0    0  0.00000000000E+00  0.00000000000E+00  0.16467564512E+03  0.25035764064E+04  0.24981546699E+04 0.  0.
        5    1    3    3  502    0  0.11722263499E+04  0.31191747847E+03  0.38091893481E+03  0.12714277226E+04  0.46999998093E+01 0.  1.
       -5    1    3    3    0  502 -0.11722263499E+04 -0.31191747847E+03 -0.21624328969E+03  0.12321486839E+04  0.46999998093E+01 0. -1.
</event>
<event>
 5   0  0.3713394E-06  0.2511457E+04  0.7818609E-02  0.8398915E-01
        2   -1    0    0  501    0  0.00000000000E+00  0.00000000000E+00  0.18906401316E+04  0.18906401316E+04  0.25500000920E-02 0.  1.
       -2   -1    0    0    0  501  0.00000000000E+00  0.00000000000E+00 -0.83403198789E+03  0.83403198789E+03  0.25500000920E-02 0. -1.
    10030    2    1    2    0    0  0.00000000000E+00  0.00000000000E+00  0.10566081437E+04  0.27246721195E+04  0.25114572243E+04 0.  0.
        3    1    3    3  502    0 -0.11633120995E+04 -0.35568983129E+03  0.86626998251E+03  0.14933967958E+04  0.10100000352E+00 0.  1.
       -3    1    3    3    0  502  0.11633120995E+04  0.35568983129E+03  0.19033816121E+03  0.12312753237E+04  0.10100000352E+00 0. -1.
</event>
<event>
 5   0  0.1553604E-06  0.2501364E+04  0.7818609E-02  0.8402500E-01
       -1   -1    0    0    0  501  0.00000000000E+00  0.00000000000E+00  0.13815678408E+04  0.13815678408E+04  0.50400001928E-02 0.  1.
        1   -1    0    0  501    0  0.00000000000E+00  0.00000000000E+00 -0.11321956520E+04  0.11321956520E+04  0.50400001928E-02 0. -1.
    10030    2    1    2    0    0  0.00000000000E+00  0.00000000000E+00  0.24937218879E+03  0.25137634928E+04  0.25013637099E+04 0.  0.
        1    1    3    3  502    0 -0.49854013443E+03  0.86175536216E+03 -0.63606089229E+03  0.11814135722E+04  0.50400001928E-02 0. -1.
       -1    1    3    3    0  502  0.49854013443E+03 -0.86175536216E+03  0.88543308108E+03  0.13323499206E+04  0.50400001928E-02 0.  1.
</event>
<event>
 5   0  0.3808293E-06  0.2512411E+04  0.7818609E-02  0.8398577E-01
       -2   -1    0    0    0  501  0.00000000000E+00  0.00000000000E+00  0.10300868130E+04  0.10300868131E+04  0.25500000920E-02 0. -1.
        2   -1    0    0  501    0  0.00000000000E+00  0.00000000000E+00 -0.15319603417E+04  0.15319603417E+04  0.25500000920E-02 0.  1.
    10030    2    1    2    0    0  0.00000000000E+00  0.00000000000E+00 -0.50187352862E+03  0.25620471547E+04  0.25124109107E+04 0.  0.
        1    1    3    3  502    0 -0.30134743017E+03  0.12194487405E+04 -0.23700517289E+03  0.12782945499E+04  0.50400001928E-02 0.  1.
       -1    1    3    3    0  502  0.30134743017E+03 -0.12194487405E+04 -0.26486835574E+03  0.12837526048E+04  0.50400001928E-02 0. -1.
</event>
<event>
 5   0  0.1519145E-06  0.2499618E+04  0.7818609E-02  0.8403122E-01
       -1   -1    0    0    0  501  0.00000000000E+00  0.00000000000E+00  0.98584609329E+03  0.98584609330E+03  0.50400001928E-02 0.  1.
        1   -1    0    0  501    0  0.00000000000E+00  0.00000000000E+00 -0.15844487335E+04  0.15844487335E+04  0.50400001928E-02 0. -1.
    10030    2    1    2    0    0  0.00000000000E+00  0.00000000000E+00 -0.59860264024E+03  0.25702948268E+04  0.24996180460E+04 0.  0.
        4    1    3    3  502    0 -0.79662966046E+02  0.46411972161E+03  0.89113196833E+03  0.10079043119E+04  0.12699999809E+01 0.  1.
       -4    1    3    3    0  502  0.79662966046E+02 -0.46411972161E+03 -0.14897346086E+04  0.15623905149E+04  0.12699999809E+01 0. -1.
</event>
<event>
 5   0  0.1541852E-06  0.2501766E+04  0.7818609E-02  0.8402357E-01
       -1   -1    0    0    0  501  0.00000000000E+00  0.00000000000E+00  0.13686073778E+04  0.13686073778E+04  0.50400001928E-02 0. -1.
        1   -1    0    0  501    0  0.00000000000E+00  0.00000000000E+00 -0.11432845685E+04  0.11432845686E+04  0.50400001928E-02 0.  1.
    10030    2    1    2    0    0  0.00000000000E+00  0.00000000000E+00  0.22532280928E+03  0.25118919464E+04  0.25017655330E+04 0.  0.
        5    1    3    3  502    0  0.13347489670E+02 -0.56860624810E+03 -0.10059371392E+04  0.11556049666E+04  0.46999998093E+01 0.  1.
       -5    1    3    3    0  502 -0.13347489670E+02  0.56860624810E+03  0.12312599485E+04  0.13562869798E+04  0.46999998093E+01 0. -1.
</event>
<event>
 5   0  0.1501747E-06  0.2457401E+04  0.7818609E-02  0.8418321E-01
       -1   -1    0    0    0  501  0.00000000000E+00  0.00000000000E+00  0.72191234639E+03  0.72191234641E+03  0.50400001928E-02 0. -1.
        1   -1    0    0  501    0  0.00000000000E+00  0.00000000000E+00 -0.20912577982E+04  0.20912577982E+04  0.50400001928E-02 0.  1.
    10030    2    1    2    0    0  0.00000000000E+00  0.00000000000E+00 -0.13693454518E+04  0.28131701446E+04  0.24574009230E+04 0.  0.
        2    1    3    3  502    0 -0.38627025094E+03  0.32635128127E+03 -0.19666132543E+04  0.20305855208E+04  0.25500000920E-02 0.  1.
       -2    1    3    3    0  502  0.38627025094E+03 -0.32635128127E+03  0.59726780245E+03  0.78258462379E+03  0.25500000920E-02 0. -1.
</event>
<event>
 5   0  0.1519145E-06  0.2502589E+04  0.7818609E-02  0.8402064E-01
       -1   -1    0    0    0  501  0.00000000000E+00  0.00000000000E+00  0.60710688488E+03  0.60710688490E+03  0.50400001928E-02 0.  1.
        1   -1    0    0  501    0  0.00000000000E+00  0.00000000000E+00 -0.25790147448E+04  0.25790147448E+04  0.50400001928E-02 0. -1.
    10030    2    1    2    0    0  0.00000000000E+00  0.00000000000E+00 -0.19719078599E+04  0.31861216297E+04  0.25025887459E+04 0.  0.
        4    1    3    3  502    0 -0.10367489292E+04 -0.69708717739E+03 -0.10755909838E+04  0.16485376709E+04  0.12699999809E+01 0.  1.
       -4    1    3    3    0  502  0.10367489292E+04  0.69708717739E+03 -0.89631687611E+03  0.15375839588E+04  0.12699999809E+01 0. -1.
</event>
<event>
 5   0  0.1541852E-06  0.2506764E+04  0.7818609E-02  0.8400580E-01
        1   -1    0    0  501    0  0.00000000000E+00  0.00000000000E+00  0.16940790796E+04  0.16940790796E+04  0.50400001928E-02 0.  1.
       -1   -1    0    0    0  501  0.00000000000E+00  0.00000000000E+00 -0.92732792407E+03  0.92732792408E+03  0.50400001928E-02 0. -1.
    10030    2    1    2    0    0  0.00000000000E+00  0.00000000000E+00  0.76675115552E+03  0.26214070037E+04  0.25067643177E+04 0.  0.
        5    1    3    3  502    0 -0.11798281039E+04  0.16831587100E+03  0.78922272923E+03  0.14294121846E+04  0.46999998093E+01 0.  1.
       -5    1    3    3    0  502  0.11798281039E+04 -0.16831587100E+03 -0.22471573712E+02  0.11919948191E+04  0.46999998093E+01 0. -1.
</event>
<event>
 5   0  0.3924441E-06  0.2500074E+04  0.7818609E-02  0.8402959E-01
        2   -1    0    0  501    0  0.00000000000E+00  0.00000000000E+00  0.13858321721E+04  0.13858321721E+04  0.25500000920E-02 0.  1.
       -2   -1    0    0    0  501  0.00000000000E+00  0.00000000000E+00 -0.11275483475E+04  0.11275483475E+04  0.25500000920E-02 0. -1.
    10030    2    1    2    0    0  0.00000000000E+00  0.00000000000E+00  0.25828382465E+03  0.25133805196E+04  0.25000742193E+04 0.  0.
        2    1    3    3  502    0  0.18137401357E+03  0.11875105605E+04 -0.21840736506E+03  0.12209748733E+04  0.25500000920E-02 0. -1.
       -2    1    3    3    0  502 -0.18137401357E+03 -0.11875105605E+04  0.47669118971E+03  0.12924056463E+04  0.25500000920E-02 0.  1.
</event>
<event>
 5   0  0.1553604E-06  0.2513117E+04  0.7818609E-02  0.8398327E-01
        1   -1    0    0  501    0  0.00000000000E+00  0.00000000000E+00  0.15170719463E+04  0.15170719463E+04  0.50400001928E-02 0. -1.
       -1   -1    0    0    0  501  0.00000000000E+00  0.00000000000E+00 -0.10407810541E+04  0.10407810541E+04  0.50400001928E-02 0.  1.
    10030    2    1    2    0    0  0.00000000000E+00  0.00000000000E+00  0.47629089216E+03  0.25578530004E+04  0.25131173784E+04 0.  0.
        1    1    3    3  502    0  0.97593703804E+03  0.39621382263E+03  0.93554422444E+03  0.14087872413E+04  0.50400001928E-02 0. -1.
       -1    1    3    3    0  502 -0.97593703804E+03 -0.39621382263E+03 -0.45925333228E+03  0.11490657591E+04  0.50400001928E-02 0.  1.
</event>
<event>
 5   0  0.1553604E-06  0.2500916E+04  0.7818609E-02  0.8402659E-01
        1   -1    0    0  501    0  0.00000000000E+00  0.00000000000E+00  0.96028032826E+03  0.96028032827E+03  0.50400001928E-02 0.  1.
       -1   -1    0    0    0  501  0.00000000000E+00  0.00000000000E+00 -0.16283219628E+04  0.16283219628E+04  0.50400001928E-02 0. -1.
    10030    2    1    2    0    0  0.00000000000E+00  0.00000000000E+00 -0.66804163453E+03  0.25886022911E+04  0.25009162713E+04 0.  0.
        1    1    3    3  502    0 -0.53925083570E+03  0.76390264540E+03  0.52533391139E+03  0.10725271250E+04  0.50400001928E-02 0.  1.
       -1    1    3    3    0  502  0.53925083570E+03 -0.76390264540E+03 -0.11933755459E+04  0.15160751660E+04  0.50400001928E-02 0. -1.
</event>
<event>
 5   0  0.1553604E-06  0.2501772E+04  0.7818609E-02  0.8402354E-01
       -1   -1    0    0    0  501  0.00000000000E+00  0.00000000000E+00  0.14426649502E+04  0.14426649502E+04  0.50400001928E-02 0. -1.
        1   -1    0    0  501    0  0.00000000000E+00  0.00000000000E+00 -0.10846012060E+04  0.10846012060E+04  0.50400001928E-02 0.  1.
    10030    2    1    2    0    0  0.00000000000E+00  0.00000000000E+00  0.35806374421E+03  0.25272661562E+04  0.25017722877E+04 0.  0.
        1    1    3    3  502    0  0.38038144419E+03 -0.45024383986E+03  0.12935911977E+04  0.14215441411E+04  0.50400001928E-02 0. -1.
       -1    1    3    3    0  502 -0.38038144419E+03  0.45024383986E+03 -0.93552745346E+03  0.11057220151E+04  0.50400001928E-02 0.  1.
</event>
<event>
 5   0  0.3971759E-06  0.2488126E+04  0.7818609E-02  0.8407228E-01
        2   -1    0    0  501    0  0.00000000000E+00  0.00000000000E+00  0.17219843711E+04  0.17219843711E+04  0.25500000920E-02 0. -1.
       -2   -1    0    0    0  501  0.00000000000E+00  0.00000000000E+00 -0.89878454403E+03  0.89878454404E+03  0.25500000920E-02 0.  1.
    10030    2    1    2    0    0  0.00000000000E+00  0.00000000000E+00  0.82319982704E+03  0.26207689151E+04  0.24881261526E+04 0.  0.
        4    1    3    3  502    0 -0.52048864341E+03 -0.93871676895E+03 -0.25089268361E+03  0.11022914097E+04  0.12699999809E+01 0.  1.
       -4    1    3    3    0  502  0.52048864341E+03  0.93871676895E+03  0.10740925106E+04  0.15184775054E+04  0.12699999809E+01 0. -1.
</event>
<event>
 5   0  0.1574896E-06  0.2499461E+04  0.7818609E-02  0.8403177E-01
        1   -1    0    0  501    0  0.00000000000E+00  0.00000000000E+00  0.10479673205E+04  0.10479673205E+04  0.50400001928E-02 0. -1.
       -1   -1    0    0    0  501  0.00000000000E+00  0.00000000000E+00 -0.14903391320E+04  0.14903391321E+04  0.50400001928E-02 0.  1.
    10030    2    1    2    0    0  0.00000000000E+00  0.00000000000E+00 -0.44237181158E+03  0.25383064525E+04  0.24994613074E+04 0.  0.
        3    1    3    3  502    0  0.15284362837E+03  0.42910142389E+03 -0.14030324399E+04  0.14751234675E+04  0.10100000352E+00 0.  1.
       -3    1    3    3    0  502 -0.15284362837E+03 -0.42910142389E+03  0.96066062831E+03  0.10631829850E+04  0.10100000352E+00 0. -1.
</event>
<event>
 5   0  0.3971759E-06  0.2491557E+04  0.7818609E-02  0.8406000E-01
       -2   -1    0    0    0  501  0.00000000000E+00  0.00000000000E+00  0.83479938997E+03  0.83479938997E+03  0.25500000920E-02 0.  1.
        2   -1    0    0  501    0  0.00000000000E+00  0.00000000000E+00 -0.18590864163E+04  0.18590864163E+04  0.25500000920E-02 0. -1.
    10030    2    1    2    0    0  0.00000000000E+00  0.00000000000E+00 -0.10242870263E+04  0.26938858062E+04  0.24915571085E+04 0.  0.
        4    1    3    3  502    0  0.66645261014E+03 -0.55172958620E+03  0.45696788725E+03  0.97846097558E+03  0.12699999809E+01 0.  1.
       -4    1    3    3    0  502 -0.66645261014E+03  0.55172958620E+03 -0.14812549135E+04  0.17154248307E+04  0.12699999809E+01 0. -1.
</event>
<event>
 5   0  0.3713394E-06  0.2503703E+04  0.7818609E-02  0.8401668E-01
        2   -1    0    0  501    0  0.00000000000E+00  0.00000000000E+00  0.21316723185E+04  0.21316723185E+04  0.25500000920E-02 0.  1.
       -2   -1    0    0    0  501  0.00000000000E+00  0.00000000000E+00 -0.73516544859E+03  0.73516544859E+03  0.25500000920E-02 0. -1.
    10030    2    1    2    0    0  0.00000000000E+00  0.00000000000E+00  0.13965068699E+04  0.28668377671E+04  0.25037027270E+04 0.  0.
        3    1    3    3  502    0 -0.58217197707E+03  0.85976081330E+03 -0.10247122413E+03  0.10433662966E+04  0.10100000352E+00 0.  1.
       -3    1    3    3    0  502  0.58217197707E+03 -0.85976081330E+03  0.14989780941E+04  0.18234714705E+04  0.10100000352E+00 0. -1.
</event>
<event>
 5   0  0.3808293E-06  0.2501953E+04  0.7818609E-02  0.8402290E-01
       -2   -1    0    0    0  501  0.00000000000E+00  0.00000000000E+00  0.60855724976E+03  0.60855724977E+03  0.25500000920E-02 0.  1.
        2   -1    0    0  501    0  0.00000000000E+00  0.00000000000E+00 -0.25715616925E+04  0.25715616925E+04  0.25500000920E-02 0. -1.
    10030    2    1    2    0    0  0.00000000000E+00  0.00000000000E+00 -0.19630044427E+04  0.31801189422E+04  0.25019532459E+04 0.  0.
        1    1    3    3  502    0 -0.46462025581E+03 -0.43915934697E+02 -0.24567699732E+04  0.25007037595E+04  0.50400001928E-02 0. -1.
       -1    1    3    3    0  502  0.46462025581E+03  0.43915934697E+02  0.49376553049E+03  0.67941518276E+03  0.50400001928E-02 0.  1.
</event>
<event>
 5   0  0.3971759E-06  0.2505635E+04  0.7818609E-02  0.8400981E-01
       -2   -1    0    0    0  501  0.00000000000E+00  0.00000000000E+00  0.13740058919E+04  0.13740058919E+04  0.25500000920E-02 0. -1.
        2   -1    0    0  501    0  0.00000000000E+00  0.00000000000E+00 -0.11423182130E+04  0.11423182130E+04  0.25500000920E-02 0.  1.
    10030    2    1    2    0    0  0.00000000000E+00  0.00000000000E+00  0.23168767892E+03  0.25163241049E+04  0.25056352129E+04 0.  0.
        4    1    3    3  502    0 -0.49817874774E+03  0.12190018271E+03  0.12637460027E+04  0.13638538380E+04  0.12699999809E+01 0. -1.
       -4    1    3    3    0  502  0.49817874774E+03 -0.12190018271E+03 -0.10320583238E+04  0.11524702668E+04  0.12699999809E+01 0.  1.
</event>
<event>
 5   0  0.1574896E-06  0.2491321E+04  0.7818609E-02  0.8406084E-01
       -1   -1    0    0    0  501  0.00000000000E+00  0.00000000000E+00  0.89228440500E+03  0.89228440501E+03  0.50400001928E-02 0.  1.
        1   -1    0    0  501    0  0.00000000000E+00  0.00000000000E+00 -0.17389856534E+04  0.17389856534E+04  0.50400001928E-02 0. -1.
    10030    2    1    2    0    0  0.00000000000E+00  0.00000000000E+00 -0.84670124839E+03  0.26312700584E+04  0.24913207574E+04 0.  0.
        3    1    3    3  502    0 -0.12435750030E+04 -0.37654350986E+02 -0.48822701790E+03  0.13365112305E+04  0.10100000352E+00 0. -1.
       -3    1    3    3    0  502  0.12435750030E+04  0.37654350986E+02 -0.35847423049E+03  0.12947588279E+04  0.10100000352E+00 0.  1.
</event>
<event>
 5   0  0.3713394E-06  0.2497660E+04  0.7818609E-02  0.8403820E-01
        2   -1    0    0  501    0  0.00000000000E+00  0.00000000000E+00  0.21325285166E+04  0.21325285166E+04  0.25500000920E-02 0. -1.
       -2   -1    0    0    0  501  0.00000000000E+00  0.00000000000E+00 -0.73132724075E+03  0.73132724075E+03  0.25500000920E-02 0.  1.
    10030    2    1    2    0    0  0.00000000000E+00  0.00000000000E+00  0.14012012758E+04  0.28638557573E+04  0.24976598614E+04 0.  0.
        3    1    3    3  502    0 -0.83382671074E+03 -0.60044927609E+03 -0.11322982067E+03  0.10337443200E+04  0.10100000352E+00 0.  1.
       -3    1    3    3    0  502  0.83382671074E+03  0.60044927609E+03  0.15144310965E+04  0.18301114373E+04  0.10100000352E+00 0. -1.
</event>
<event>
 5   0  0.1574896E-06  0.2504984E+04  0.7818609E-02  0.8401212E-01
       -1   -1    0    0    0  501  0.00000000000E+00  0.00000000000E+00  0.85399154125E+03  0.85399154127E+03  0.50400001928E-02 0.  1.
        1   -1    0    0  501    0  0.00000000000E+00  0.00000000000E+00 -0.18369465385E+04  0.18369465385E+04  0.50400001928E-02 0. -1.
    10030    2    1    2    0    0  0.00000000000E+00  0.00000000000E+00 -0.98295499724E+03  0.26909380798E+04  0.25049844755E+04 0.  0.
        3    1    3    3  502    0  0.17931723955E+03 -0.12391073194E+04 -0.52861513223E+03  0.13590348008E+04  0.10100000352E+00 0. -1.
       -3    1    3    3    0  502 -0.17931723955E+03  0.12391073194E+04 -0.45433986501E+03  0.13319032790E+04  0.10100000352E+00 0.  1.
</event>
<event>
 5   0  0.3971759E-06  0.2497225E+04  0.7818609E-02  0.8403975E-01
        2   -1    0    0  501    0  0.00000000000E+00  0.00000000000E+00  0.20751598825E+04  0.20751598825E+04  0.25500000920E-02 0. -1.
       -2   -1    0    0    0  501  0.00000000000E+00  0.00000000000E+00 -0.75128327288E+03  0.75128327289E+03  0.25500000920E-02 0.  1.
    10030    2    1    2    0    0  0.00000000000E+00  0.00000000000E+00  0.13238766096E+04  0.28264431554E+04  0.24972247863E+04 0.  0.
        4    1    3    3  502    0  0.38039141734E+03  0.15638979262E+03  0.19962909794E+04  0.20382185077E+04  0.12699999809E+01 0. -1.
       -4    1    3    3    0  502 -0.38039141734E+03 -0.15638979262E+03 -0.67241436981E+03  0.78822464771E+03  0.12699999809E+01 0.  1.
</event>
<event>
 5   0  0.3924441E-06  0.2502403E+04  0.7818609E-02  0.8402130E-01
       -2   -1    0    0    0  501  0.00000000000E+00  0.00000000000E+00  0.92757628556E+03  0.92757628557E+03  0.25500000920E-02 0. -1.
        2   -1    0    0  501    0  0.00000000000E+00  0.00000000000E+00 -0.16877367927E+04  0.16877367927E+04  0.25500000920E-02 0.  1.
    10030    2    1    2    0    0  0.00000000000E+00  0.00000000000E+00 -0.76016050717E+03  0.26153130783E+04  0.25024025457E+04 0.  0.
        2    1    3    3  502    0 -0.29958561595E+03  0.96952752407E+03  0.38490927622E+03  0.10853065522E+04  0.25500000920E-02 0. -1.
       -2    1    3    3    0  502  0.29958561595E+03 -0.96952752407E+03 -0.11450697834E+04  0.15300065261E+04  0.25500000920E-02 0.  1.
</event>
<event>
 5   0  0.3808293E-06  0.2505883E+04  0.7818609E-02  0.8400893E-01
       -2   -1    0    0    0  501  0.00000000000E+00  0.00000000000E+00  0.56553952621E+03  0.56553952621E+03  0.25500000920E-02 0.  1.
        2   -1    0    0  501    0  0.00000000000E+00  0.00000000000E+00 -0.27758661593E+04  0.27758661593E+04  0.25500000920E-02 0. -1.
    10030    2    1    2    0    0  0.00000000000E+00  0.00000000000E+00 -0.22103266331E+04  0.33414056855E+04  0.25058827048E+04 0.  0.
        1    1    3    3  502    0 -0.84917422654E+03  0.32250812679E+03 -0.22558969204E+04  0.24319085662E+04  0.50400001928E-02 0. -1.
       -1    1    3    3    0  502  0.84917422654E+03 -0.32250812679E+03  0.45570287344E+02  0.90949711928E+03  0.50400001928E-02 0.  1.
</event>
<event>
 5   0  0.3713394E-06  0.2495795E+04  0.7818609E-02  0.8404485E-01
       -2   -1    0    0    0  501  0.00000000000E+00  0.00000000000E+00  0.58018805049E+03  0.58018805049E+03  0.25500000920E-02 0. -1.
        2   -1    0    0  501    0  0.00000000000E+00  0.00000000000E+00 -0.26840401467E+04  0.26840401467E+04  0.25500000920E-02 0.  1.
    10030    2    1    2    0    0  0.00000000000E+00  0.00000000000E+00 -0.21038520962E+04  0.32642281972E+04  0.24957948795E+04 0.  0.
        3    1    3    3  502    0  0.48237882290E+03  0.63231346423E+03 -0.23096376303E+04  0.24427311844E+04  0.10100000352E+00 0.  1.
       -3    1    3    3    0  502 -0.48237882290E+03 -0.63231346423E+03  0.20578553405E+03  0.82149701281E+03  0.10100000352E+00 0. -1.
</event>
<event>
 5   0  0.3924441E-06  0.2499417E+04  0.7818609E-02  0.8403193E-01
        2   -1    0    0  501    0  0.00000000000E+00  0.00000000000E+00  0.13457092970E+04  0.13457092970E+04  0.25500000920E-02 0. -1.
       -2   -1    0    0    0  501  0.00000000000E+00  0.00000000000E+00 -0.11605563408E+04  0.11605563408E+04  0.25500000920E-02 0.  1.
    10030    2    1    2    0    0  0.00000000000E+00  0.00000000000E+00  0.18515295622E+03  0.25062656378E+04  0.24994170981E+04 0.  0.
        2    1    3    3  502    0 -0.52486653010E+02  0.12312024512E+04 -0.11573569808E+03  0.12377435423E+04  0.25500000920E-02 0.  1.
       -2    1    3    3    0  502  0.52486653010E+02 -0.12312024512E+04  0.30088865429E+03  0.12685220955E+04  0.25500000920E-02 0. -1.
</event>
<event>
 5   0  0.1501747E-06  0.2496142E+04  0.7818609E-02  0.8404361E-01
        1   -1    0    0  501    0  0.00000000000E+00  0.00000000000E+00  0.94066131550E+03  0.94066131551E+03  0.50400001928E-02 0.  1.
       -1   -1    0    0    0  501  0.00000000000E+00  0.00000000000E+00 -0.16559422402E+04  0.16559422402E+04  0.50400001928E-02 0. -1.
    10030    2    1    2    0    0  0.00000000000E+00  0.00000000000E+00 -0.71528092470E+03  0.25966035557E+04  0.24961416675E+04 0.  0.
        2    1    3    3  502    0  0.77135339217E+03  0.77739354300E+03 -0.98036010329E+03  0.14698410487E+04  0.25500000920E-02 0. -1.
       -2    1    3    3    0  502 -0.77135339217E+03 -0.77739354300E+03  0.26507917859E+03  0.11267625070E+04  0.25500000920E-02 0.  1.
</event>
<event>
 5   0  0.1501747E-06  0.2500166E+04  0.7818609E-02  0.8402926E-01
       -1   -1    0    0    0  501  0.00000000000E+00  0.00000000000E+00  0.99390108812E+03  0.99390108813E+03  0.50400001928E-02 0.  1.
        1   -1    0    0  501    0  0.00000000000E+00  0.00000000000E+00 -0.15722965228E+04  0.15722965228E+04  0.50400001928E-02 0. -1.
    10030    2    1    2    0    0  0.00000000000E+00  0.00000000000E+00 -0.57839543466E+03  0.25661976109E+04  0.25001657744E+04 0.  0.
        2    1    3    3  502    0  0.24141599715E+03  0.95658839602E+03 -0.10771740254E+04  0.14607008332E+04  0.25500000920E-02 0. -1.
       -2    1    3    3    0  502 -0.24141599715E+03 -0.95658839602E+03  0.49877859070E+03  0.11054967778E+04  0.25500000920E-02 0.  1.
</event>
<event>
 5   0  0.1519145E-06  0.2501779E+04  0.7818609E-02  0.8402352E-01
       -1   -1    0    0    0  501  0.00000000000E+00  0.00000000000E+00  0.12597705286E+04  0.12597705286E+04  0.50400001928E-02 0. -1.
        1   -1    0    0  501    0  0.00000000000E+00  0.00000000000E+00 -0.12420711265E+04  0.12420711265E+04  0.50400001928E-02 0.  1.
    10030    2    1    2    0    0  0.00000000000E+00  0.00000000000E+00  0.17699402070E+02  0.25018416551E+04  0.25017790466E+04 0.  0.
        4    1    3    3  502    0  0.28302132274E+03  0.10435922459E+04 -0.62008347442E+03  0.12464714088E+04  0.12699999809E+01 0.  1.
       -4    1    3    3    0  502 -0.28302132274E+03 -0.10435922459E+04  0.63778287649E+03  0.12553702463E+04  0.12699999809E+01 0. -1.
</event>
<event>
 5   0  0.1541852E-06  0.2499510E+04  0.7818609E-02  0.8403160E-01
        1   -1    0    0  501    0  0.00000000000E+00  0.00000000000E+00  0.20375031408E+04  0.20375031408E+04  0.50400001928E-02 0. -1.
       -1   -1    0    0    0  501  0.00000000000E+00  0.00000000000E+00 -0.76656927915E+03  0.76656927917E+03  0.50400001928E-02 0.  1.
    10030    2    1    2    0    0  0.00000000000E+00  0.00000000000E+00  0.12709338616E+04  0.28040724200E+04  0.24995098031E+04 0.  0.
        5    1    3    3  502    0  0.90502355481E+03 -0.67475340743E+03  0.12369970890E+04  0.16746771879E+04  0.46999998093E+01 0.  1.
       -5    1    3    3    0  502 -0.90502355481E+03  0.67475340743E+03  0.33936772639E+02  0.11293952320E+04  0.46999998093E+01 0. -1.
</event>
<event>
 5   0  0.1541852E-06  0.2504228E+04  0.7818609E-02  0.8401481E-01
       -1   -1    0    0    0  501  0.00000000000E+00  0.00000000000E+00  0.81221157635E+03  0.81221157636E+03  0.50400001928E-02 0.  1.
        1   -1    0    0  501    0  0.00000000000E+00  0.00000000000E+00 -0.19302726247E+04  0.19302726248E+04  0.50400001928E-02 0. -1.
    10030    2    1    2    0    0  0.00000000000E+00  0.00000000000E+00 -0.11180610484E+04  0.27424842011E+04  0.25042282415E+04 0.  0.
        5    1    3    3  502    0 -0.22492538098E+02  0.20121945125E+03 -0.19122161933E+04  0.19229113453E+04  0.46999998093E+01 0. -1.
       -5    1    3    3    0  502  0.22492538098E+02 -0.20121945125E+03  0.79415514491E+03  0.81957285584E+03  0.46999998093E+01 0.  1.
</event>
<event>
 5   0  0.3713394E-06  0.2452111E+04  0.7818609E-02  0.8420248E-01
       -2   -1    0    0    0  501  0.00000000000E+00  0.00000000000E+00  0.15373850020E+04  0.15373850020E+04  0.25500000920E-02 0.  1.
        2   -1    0    0  501    0  0.00000000000E+00  0.00000000000E+00 -0.97777204903E+03  0.97777204903E+03  0.25500000920E-02 0. -1.
    10030    2    1    2    0    0  0.00000000000E+00  0.00000000000E+00  0.55961295293E+03  0.25151570510E+04  0.24521109955E+04 0.  0.
        3    1    3    3  502    0 -0.10367433879E+04  0.16695033933E+03  0.92893062331E+03  0.14020061987E+04  0.10100000352E+00 0.  1.
       -3    1    3    3    0  502  0.10367433879E+04 -0.16695033933E+03 -0.36931767038E+03  0.11131508523E+04  0.10100000352E+00 0. -1.
</event>
<event>
 5   0  0.3713394E-06  0.2468005E+04  0.7818609E-02  0.8414473E-01
       -2   -1    0    0    0  501  0.00000000000E+00  0.00000000000E+00  0.98798673866E+03  0.98798673867E+03  0.25500000920E-02 0.  1.
        2   -1    0    0  501    0  0.00000000000E+00  0.00000000000E+00 -0.15412778522E+04  0.15412778522E+04  0.25500000920E-02 0. -1.
    10030    2    1    2    0    0  0.00000000000E+00  0.00000000000E+00 -0.55329111352E+03  0.25292645909E+04  0.24680049259E+04 0.  0.
        3    1    3    3  502    0  0.44114231096E+03  0.37780675650E+03 -0.13924393070E+04  0.15087185681E+04  0.10100000352E+00 0. -1.
       -3    1    3    3    0  502 -0.44114231096E+03 -0.37780675650E+03  0.83914819348E+03  0.10205460228E+04  0.10100000352E+00 0.  1.
</event>
<event>
 5   0  0.1541852E-06  0.2485634E+04  0.7818609E-02  0.8408121E-01
        1   -1    0    0  501    0  0.00000000000E+00  0.00000000000E+00  0.13244566612E+04  0.13244566612E+04  0.50400001928E-02 0.  1.
       -1   -1    0    0    0  501  0.00000000000E+00  0.00000000000E+00 -0.11662097756E+04  0.11662097756E+04  0.50400001928E-02 0. -1.
    10030    2    1    2    0    0  0.00000000000E+00  0.00000000000E+00  0.15824688555E+03  0.24906664368E+04  0.24856341691E+04 0.  0.
        5    1    3    3  502    0  0.93882539133E+03  0.69815919783E+03  0.49920104593E+03  0.12720232526E+04  0.46999998093E+01 0.  1.
       -5    1    3    3    0  502 -0.93882539133E+03 -0.69815919783E+03 -0.34095416039E+03  0.12186431842E+04  0.46999998093E+01 0. -1.
</event>
<event>
 5   0  0.3808293E-06  0.2491407E+04  0.7818609E-02  0.8406053E-01
        2   -1    0    0  501    0  0.00000000000E+00  0.00000000000E+00  0.18121911908E+04  0.18121911908E+04  0.25500000920E-02 0. -1.
       -2   -1    0    0    0  501  0.00000000000E+00  0.00000000000E+00 -0.85629864662E+03  0.85629864663E+03  0.25500000920E-02 0.  1.
    10030    2    1    2    0    0  0.00000000000E+00  0.00000000000E+00  0.95589254419E+03  0.26684898374E+04  0.24914067224E+04 0.  0.
        1    1    3    3  502    0  0.71136207520E+03  0.13210958194E+03 -0.60817492167E+03  0.94518023628E+03  0.50400001928E-02 0.  1.
       -1    1    3    3    0  502 -0.71136207520E+03 -0.13210958194E+03  0.15640674659E+04  0.17233096012E+04  0.50400001928E-02 0. -1.
</event>
<event>
 5   0  0.1501747E-06  0.2501061E+04  0.7818609E-02  0.8402608E-01
       -1   -1    0    0    0  501  0.00000000000E+00  0.00000000000E+00  0.97622752917E+03  0.97622752918E+03  0.50400001928E-02 0.  1.
        1   -1    0    0  501    0  0.00000000000E+00  0.00000000000E+00 -0.16019076575E+04  0.16019076576E+04  0.50400001928E-02 0. -1.
    10030    2    1    2    0    0  0.00000000000E+00  0.00000000000E+00 -0.62568012838E+03  0.25781351867E+04  0.25010608585E+04 0.  0.
        2    1    3    3  502    0  0.35453335564E+03 -0.49911930492E+03 -0.14368615522E+04  0.15618530984E+04  0.25500000920E-02 0. -1.
       -2    1    3    3    0  502 -0.35453335564E+03  0.49911930492E+03  0.81118142379E+03  0.10162820884E+04  0.25500000920E-02 0.  1.
</event>
<event>
 5   0  0.3713394E-06  0.2497083E+04  0.7818609E-02  0.8404025E-01
        2   -1    0    0  501    0  0.00000000000E+00  0.00000000000E+00  0.15460181047E+04  0.15460181047E+04  0.25500000920E-02 0. -1.
       -2   -1    0    0    0  501  0.00000000000E+00  0.00000000000E+00 -0.10083038607E+04  0.10083038607E+04  0.25500000920E-02 0.  1.
    10030    2    1    2    0    0  0.00000000000E+00  0.00000000000E+00  0.53771424409E+03  0.25543219654E+04  0.24970831173E+04 0.  0.
        3    1    3    3  502    0 -0.56955884589E+03  0.32443141449E+02  0.14049025525E+04  0.15163116529E+04  0.10100000352E+00 0. -1.
       -3    1    3    3    0  502  0.56955884589E+03 -0.32443141449E+02 -0.86718830845E+03  0.10380103125E+04  0.10100000352E+00 0.  1.
</event>
<event>
 5   0  0.3971759E-06  0.2497325E+04  0.7818609E-02  0.8403939E-01
       -2   -1    0    0    0  501  0.00000000000E+00  0.00000000000E+00  0.17253937304E+04  0.17253937304E+04  0.25500000920E-02 0. -1.
        2   -1    0    0  501    0  0.00000000000E+00  0.00000000000E+00 -0.90365316425E+03  0.90365316425E+03  0.25500000920E-02 0.  1.
    10030    2    1    2    0    0  0.00000000000E+00  0.00000000000E+00  0.82174056615E+03  0.26290468947E+04  0.24973245717E+04 0.  0.
        4    1    3    3  502    0  0.99468866524E+03  0.46005923627E+03  0.10408448058E+04  0.15114296425E+04  0.12699999809E+01 0.  1.
       -4    1    3    3    0  502 -0.99468866524E+03 -0.46005923627E+03 -0.21910423961E+03  0.11176172522E+04  0.12699999809E+01 0. -1.
</event>
<event>
 5   0  0.3814260E-06  0.2504609E+04  0.7818609E-02  0.8401345E-01
       -2   -1    0    0    0  501  0.00000000000E+00  0.00000000000E+00  0.13359575329E+04  0.13359575329E+04  0.25500000920E-02 0. -1.
        2   -1    0    0  501    0  0.00000000000E+00  0.00000000000E+00 -0.11738897934E+04  0.11738897934E+04  0.25500000920E-02 0.  1.
    10030    2    1    2    0    0  0.00000000000E+00  0.00000000000E+00  0.16206773952E+03  0.25098473264E+04  0.25046092808E+04 0.  0.
        5    1    3    3  502    0  0.36588573419E+03 -0.11040009429E+04 -0.38421543701E+03  0.12248812368E+04  0.46999998093E+01 0.  1.
       -5    1    3    3    0  502 -0.36588573419E+03  0.11040009429E+04  0.54628317653E+03  0.12849660895E+04  0.46999998093E+01 0. -1.
</event>
<event>
 5   0  0.1553604E-06  0.2503748E+04  0.7818609E-02  0.8401652E-01
        1   -1    0    0  501    0  0.00000000000E+00  0.00000000000E+00  0.17524947061E+04  0.17524947061E+04  0.50400001928E-02 0. -1.
       -1   -1    0    0    0  501  0.00000000000E+00  0.00000000000E+00 -0.89426126263E+03  0.89426126264E+03  0.50400001928E-02 0.  1.
    10030    2    1    2    0    0  0.00000000000E+00  0.00000000000E+00  0.85823344344E+03  0.26467559687E+04  0.25037476939E+04 0.  0.
        1    1    3    3  502    0  0.14383229739E+03 -0.20973132556E+02 -0.88531062149E+03  0.89716358520E+03  0.50400001928E-02 0.  1.
       -1    1    3    3    0  502 -0.14383229739E+03  0.20973132556E+02  0.17435440649E+04  0.17495923835E+04  0.50400001928E-02 0. -1.
</event>
<event>
 5   0  0.1574896E-06  0.2501277E+04  0.7818609E-02  0.8402531E-01
       -1   -1    0    0    0  501  0.00000000000E+00  0.00000000000E+00  0.12406405437E+04  0.12406405437E+04  0.50400001928E-02 0. -1.
        1   -1    0    0  501    0  0.00000000000E+00  0.00000000000E+00 -0.12607173878E+04  0.12607173878E+04  0.50400001928E-02 0.  1.
    10030    2    1    2    0    0  0.00000000000E+00  0.00000000000E+00 -0.20076844066E+02  0.25013579315E+04  0.25012773581E+04 0.  0.
        3    1    3    3  502    0 -0.72660537269E+03 -0.44587649519E+02 -0.10270046439E+04  0.12588415210E+04  0.10100000352E+00 0.  1.
       -3    1    3    3    0  502  0.72660537269E+03  0.44587649519E+02  0.10069277999E+04  0.12425164105E+04  0.10100000352E+00 0. -1.
</event>
<event>
 5   0  0.1519145E-06  0.2502100E+04  0.7818609E-02  0.8402238E-01
       -1   -1    0    0    0  501  0.00000000000E+00  0.00000000000E+00  0.13697366227E+04  0.13697366227E+04  0.50400001928E-02 0.  1.
        1   -1    0    0  501    0  0.00000000000E+00  0.00000000000E+00 -0.11426475158E+04  0.11426475159E+04  0.50400001928E-02 0. -1.
    10030    2    1    2    0    0  0.00000000000E+00  0.00000000000E+00  0.22708910685E+03  0.25123841386E+04  0.25021000374E+04 0.  0.
        4    1    3    3  502    0 -0.13079019335E+03  0.94314563686E+02  0.13592577617E+04  0.13687894605E+04  0.12699999809E+01 0.  1.
       -4    1    3    3    0  502  0.13079019335E+03 -0.94314563686E+02 -0.11321686549E+04  0.11435946780E+04  0.12699999809E+01 0. -1.
</event>
<event>
 5   0  0.1541852E-06  0.2497083E+04  0.7818609E-02  0.8404026E-01
       -1   -1    0    0    0  501  0.00000000000E+00  0.00000000000E+00  0.15811553351E+04  0.15811553352E+04  0.50400001928E-02 0. -1.
        1   -1    0    0  501    0  0.00000000000E+00  0.00000000000E+00 -0.98589660735E+03  0.98589660736E+03  0.50400001928E-02 0.  1.
    10030    2    1    2    0    0  0.00000000000E+00  0.00000000000E+00  0.59525872780E+03  0.25670519425E+04  0.24970828426E+04 0.  0.
        5    1    3    3  502    0 -0.89180911984E+03 -0.15377404034E+03  0.11818844061E+04  0.14885707243E+04  0.46999998093E+01 0. -1.
       -5    1    3    3    0  502  0.89180911984E+03  0.15377404034E+03 -0.58662567831E+03  0.10784812183E+04  0.46999998093E+01 0.  1.
</event>
<event>
 5   0  0.3713394E-06  0.2571074E+04  0.7818609E-02  0.8378094E-01
       -2   -1    0    0    0  501  0.00000000000E+00  0.00000000000E+00  0.79284099053E+03  0.79284099053E+03  0.25500000920E-02 0.  1.
        2   -1    0    0  501    0  0.00000000000E+00  0.00000000000E+00 -0.20844091916E+04  0.20844091916E+04  0.25500000920E-02 0. -1.
    10030    2    1    2    0    0  0.00000000000E+00  0.00000000000E+00 -0.12915682011E+04  0.28772501821E+04  0.25710737431E+04 0.  0.
        3    1    3    3  502    0 -0.33388114171E+03  0.54663080242E+03 -0.18931112880E+04  0.19985375178E+04  0.10100000352E+00 0. -1.
       -3    1    3    3    0  502  0.33388114171E+03 -0.54663080242E+03  0.60154308691E+03  0.87871266439E+03  0.10100000352E+00 0.  1.
</event>
<event>
 5   0  0.1501747E-06  0.2498806E+04  0.7818609E-02  0.8403411E-01
       -1   -1    0    0    0  501  0.00000000000E+00  0.00000000000E+00  0.72652591834E+03  0.72652591836E+03  0.50400001928E-02 0.  1.
        1   -1    0    0  501    0  0.00000000000E+00  0.00000000000E+00 -0.21485915401E+04  0.21485915401E+04  0.50400001928E-02 0. -1.
    10030    2    1    2    0    0  0.00000000000E+00  0.00000000000E+00 -0.14220656218E+04  0.28751174585E+04  0.24988056682E+04 0.  0.
        2    1    3    3  502    0 -0.86089013906E+03  0.41211824217E+03  0.21663225233E+03  0.97872509410E+03  0.25500000920E-02 0.  1.
       -2    1    3    3    0  502  0.86089013906E+03 -0.41211824217E+03 -0.16386978741E+04  0.18963923644E+04  0.25500000920E-02 0. -1.
</event>
<event>
 5   0  0.1519145E-06  0.2511510E+04  0.7818609E-02  0.8398896E-01
        1   -1    0    0  501    0  0.00000000000E+00  0.00000000000E+00  0.14599428251E+04  0.14599428251E+04  0.50400001928E-02 0.  1.
       -1   -1    0    0    0  501  0.00000000000E+00  0.00000000000E+00 -0.10801253073E+04  0.10801253073E+04  0.50400001928E-02 0. -1.
    10030    2    1    2    0    0  0.00000000000E+00  0.00000000000E+00  0.37981751782E+03  0.25400681324E+04  0.25115104560E+04 0.  0.
        4    1    3    3  502    0  0.30478524620E+03 -0.93684424527E+03  0.97744670917E+03  0.13877949663E+04  0.12699999809E+01 0.  1.
       -4    1    3    3    0  502 -0.30478524620E+03  0.93684424527E+03 -0.59762919135E+03  0.11522731662E+04  0.12699999809E+01 0. -1.
</event>
<event>
 5   0  0.1574896E-06  0.2502238E+04  0.7818609E-02  0.8402189E-01
        1   -1    0    0  501    0  0.00000000000E+00  0.00000000000E+00  0.12472418462E+04  0.12472418462E+04  0.50400001928E-02 0. -1.
       -1   -1    0    0    0  501  0.00000000000E+00  0.00000000000E+00 -0.12550078682E+04  0.12550078682E+04  0.50400001928E-02 0.  1.
    10030    2    1    2    0    0  0.00000000000E+00  0.00000000000E+00 -0.77660219615E+01  0.25022497144E+04  0.25022376630E+04 0.  0.
        3    1    3    3  502    0  0.80814300969E+01 -0.38329205904E+03  0.11870552201E+04  0.12474286424E+04  0.10100000352E+00 0. -1.
       -3    1    3    3    0  502 -0.80814300969E+01  0.38329205904E+03 -0.11948212421E+04  0.12548210720E+04  0.10100000352E+00 0.  1.
</event>
<event>
 5   0  0.1519145E-06  0.2498987E+04  0.7818609E-02  0.8403347E-01
       -1   -1    0    0    0  501  0.00000000000E+00  0.00000000000E+00  0.94126134979E+03  0.94126134980E+03  0.50400001928E-02 0. -1.
        1   -1    0    0  501    0  0.00000000000E+00  0.00000000000E+00 -0.16586611922E+04  0.16586611922E+04  0.50400001928E-02 0.  1.
    10030    2    1    2    0    0  0.00000000000E+00  0.00000000000E+00 -0.71739984239E+03  0.25999225420E+04  0.24989867328E+04 0.  0.
        4    1    3    3  502    0 -0.11890518491E+04  0.22465556505E+03 -0.34809676658E+02  0.12105898353E+04  0.12699999809E+01 0. -1.
       -4    1    3    3    0  502  0.11890518491E+04 -0.22465556505E+03 -0.68259016574E+03  0.13893327067E+04  0.12699999809E+01 0.  1.
</event>
<event>
 5   0  0.3924441E-06  0.2499758E+04  0.7818609E-02  0.8403072E-01
       -2   -1    0    0    0  501  0.00000000000E+00  0.00000000000E+00  0.12831064263E+04  0.12831064263E+04  0.25500000920E-02 0.  1.
        2   -1    0    0  501    0  0.00000000000E+00  0.00000000000E+00 -0.12175117100E+04  0.12175117100E+04  0.25500000920E-02 0. -1.
    10030    2    1    2    0    0  0.00000000000E+00  0.00000000000E+00  0.65594716311E+02  0.25006181363E+04  0.24997576677E+04 0.  0.
        2    1    3    3  502    0 -0.19023856134E+03 -0.11617777780E+04 -0.38720283487E+03  0.12392918748E+04  0.25500000920E-02 0. -1.
       -2    1    3    3    0  502  0.19023856134E+03  0.11617777780E+04  0.45279755118E+03  0.12613262615E+04  0.25500000920E-02 0.  1.
</event>
<event>
 5   0  0.3814260E-06  0.2501514E+04  0.7818609E-02  0.8402446E-01
       -2   -1    0    0    0  501  0.00000000000E+00  0.00000000000E+00  0.12205916231E+04  0.12205916231E+04  0.25500000920E-02 0. -1.
        2   -1    0    0  501    0  0.00000000000E+00  0.00000000000E+00 -0.12816681038E+04  0.12816681038E+04  0.25500000920E-02 0.  1.
    10030    2    1    2    0    0  0.00000000000E+00  0.00000000000E+00 -0.61076480670E+02  0.25022597269E+04  0.25015142223E+04 0.  0.
        5    1    3    3  502    0 -0.30628514321E+03 -0.11920453197E+04  0.19221316669E+03  0.12456928291E+04  0.46999998093E+01 0. -1.
       -5    1    3    3    0  502  0.30628514321E+03  0.11920453197E+04 -0.25328964736E+03  0.12565668978E+04  0.46999998093E+01 0.  1.
</event>
<event>
 5   0  0.3713394E-06  0.2499140E+04  0.7818609E-02  0.8403292E-01
        2   -1    0    0  501    0  0.00000000000E+00  0.00000000000E+00  0.13652427047E+04  0.13652427047E+04  0.25500000920E-02 0. -1.
       -2   -1    0    0    0  501  0.00000000000E+00  0.00000000000E+00 -0.11436980213E+04  0.11436980213E+04  0.25500000920E-02 0.  1.
    10030    2    1    2    0    0  0.00000000000E+00  0.00000000000E+00  0.22154468340E+03  0.25089407259E+04  0.24991401560E+04 0.  0.
        3    1    3    3  502    0  0.42273171191E+03  0.11519970600E+04 -0.12600430865E+03  0.12335624924E+04  0.10100000352E+00 0.  1.
       -3    1    3    3    0  502 -0.42273171191E+03 -0.11519970600E+04  0.34754899205E+03  0.12753782336E+04  0.10100000352E+00 0. -1.
</event>
<event>
 5   0  0.3814260E-06  0.2498758E+04  0.7818609E-02  0.8403428E-01
       -2   -1    0    0    0  501  0.00000000000E+00  0.00000000000E+00  0.10201138037E+04  0.10201138038E+04  0.25500000920E-02 0. -1.
        2   -1    0    0  501    0  0.00000000000E+00  0.00000000000E+00 -0.15301698634E+04  0.15301698634E+04  0.25500000920E-02 0.  1.
    10030    2    1    2    0    0  0.00000000000E+00  0.00000000000E+00 -0.51005605964E+03  0.25502836671E+04  0.24987576111E+04 0.  0.
        5    1    3    3  502    0  0.10653636601E+04 -0.65261864714E+03 -0.25891215467E+03  0.12759186575E+04  0.46999998093E+01 0. -1.
       -5    1    3    3    0  502 -0.10653636601E+04  0.65261864714E+03 -0.25114390498E+03  0.12743650096E+04  0.46999998093E+01 0.  1.
</event>
<event>
 5   0  0.1519145E-06  0.2502303E+04  0.7818609E-02  0.8402165E-01
        1   -1    0    0  501    0  0.00000000000E+00  0.00000000000E+00  0.16033789024E+04  0.16033789025E+04  0.50400001928E-02 0.  1.
       -1   -1    0    0    0  501  0.00000000000E+00  0.00000000000E+00 -0.97630116329E+03  0.97630116330E+03  0.50400001928E-02 0. -1.
    10030    2    1    2    0    0  0.00000000000E+00  0.00000000000E+00  0.62707773916E+03  0.25796800658E+04  0.25023034889E+04 0.  0.
        4    1    3    3  502    0  0.20010049364E+03  0.27943869189E+03  0.15537570066E+04  0.15913166368E+04  0.12699999809E+01 0.  1.
       -4    1    3    3    0  502 -0.20010049364E+03 -0.27943869189E+03 -0.92667926745E+03  0.98836342896E+03  0.12699999809E+01 0. -1.
</event>
<event>
 5   0  0.1541852E-06  0.2499020E+04  0.7818609E-02  0.8403335E-01
        1   -1    0    0  501    0  0.00000000000E+00  0.00000000000E+00  0.13126674982E+04  0.13126674982E+04  0.50400001928E-02 0. -1.
       -1   -1    0    0    0  501  0.00000000000E+00  0.00000000000E+00 -0.11893913520E+04  0.11893913520E+04  0.50400001928E-02 0.  1.
    10030    2    1    2    0    0  0.00000000000E+00  0.00000000000E+00  0.12327614623E+03  0.25020588502E+04  0.24990201043E+04 0.  0.
        5    1    3    3  502    0 -0.72071579872E+03  0.82007520394E+03 -0.54680037055E+03  0.12210517343E+04  0.46999998093E+01 0.  1.
       -5    1    3    3    0  502  0.72071579872E+03 -0.82007520394E+03  0.67007651678E+03  0.12810071159E+04  0.46999998093E+01 0. -1.
</event>
<event>
 5   0  0.1574896E-06  0.2511027E+04  0.7818609E-02  0.8399068E-01
        1   -1    0    0  501    0  0.00000000000E+00  0.00000000000E+00  0.29102532677E+04  0.29102532677E+04  0.50400001928E-02 0.  1.
       -1   -1    0    0    0  501  0.00000000000E+00  0.00000000000E+00 -0.54164139798E+03  0.54164139801E+03  0.50400001928E-02 0. -1.
    10030    2    1    2    0    0  0.00000000000E+00  0.00000000000E+00  0.23686118697E+04  0.34518946657E+04  0.25110266016E+04 0.  0.
        3    1    3    3  502    0  0.88518134328E+03  0.27445429505E+03  0.23486994052E+04  0.25249277369E+04  0.10100000352E+00 0.  1.
       -3    1    3    3    0  502 -0.88518134328E+03 -0.27445429505E+03  0.19912464496E+02  0.92696692875E+03  0.10100000352E+00 0. -1.
</event>
<event>
 5   0  0.1541852E-06  0.2496884E+04  0.7818609E-02  0.8404096E-01
        1   -1    0    0  501    0  0.00000000000E+00  0.00000000000E+00  0.15394033088E+04  0.15394033089E+04  0.50400001928E-02 0. -1.
       -1   -1    0    0    0  501  0.00000000000E+00  0.00000000000E+00 -0.10124749941E+04  0.10124749941E+04  0.50400001928E-02 0.  1.
    10030    2    1    2    0    0  0.00000000000E+00  0.00000000000E+00  0.52692831472E+03  0.25518783030E+04  0.24968839429E+04 0.  0.
        5    1    3    3  502    0 -0.11559111766E+04 -0.39331181393E+03 -0.25775308890E+01  0.12210051453E+04  0.46999998093E+01 0.  1.
       -5    1    3    3    0  502  0.11559111766E+04  0.39331181393E+03  0.52950584561E+03  0.13308731577E+04  0.46999998093E+01 0. -1.
</event>
<event>
 5   0  0.3924441E-06  0.2499149E+04  0.7818609E-02  0.8403289E-01
        2   -1    0    0  501    0  0.00000000000E+00  0.00000000000E+00  0.19816870910E+04  0.19816870910E+04  0.25500000920E-02 0. -1.
       -2   -1    0    0    0  501  0.00000000000E+00  0.00000000000E+00 -0.78793296220E+03  0.78793296220E+03  0.25500000920E-02 0.  1.
    10030    2    1    2    0    0  0.00000000000E+00  0.00000000000E+00  0.11937541288E+04  0.27696200532E+04  0.24991491190E+04 0.  0.
        2    1    3    3  502    0 -0.46366958069E+03  0.71869937672E+03  0.16064685904E+04  0.18199614299E+04  0.25500000920E-02 0. -1.
       -2    1    3    3    0  502  0.46366958069E+03 -0.71869937672E+03 -0.41271446158E+03  0.94965862338E+03  0.25500000920E-02 0.  1.
</event>
<event>
 5   0  0.3713394E-06  0.2502453E+04  0.7818609E-02  0.8402112E-01
        2   -1    0    0  501    0  0.00000000000E+00  0.00000000000E+00  0.26601467176E+04  0.26601467176E+04  0.25500000920E-02 0. -1.
       -2   -1    0    0    0  501  0.00000000000E+00  0.00000000000E+00 -0.58852680858E+03  0.58852680859E+03  0.25500000920E-02 0.  1.
    10030    2    1    2    0    0  0.00000000000E+00  0.00000000000E+00  0.20716199090E+04  0.32486735262E+04  0.25024529231E+04 0.  0.
        3    1    3    3  502    0  0.94952542870E+03 -0.52860505432E+03  0.23077601169E+03  0.11109812874E+04  0.10100000352E+00 0.  1.
       -3    1    3    3    0  502 -0.94952542870E+03  0.52860505432E+03  0.18408438973E+04  0.21376922388E+04  0.10100000352E+00 0. -1.
</event>
<event>
 5   0  0.3713394E-06  0.2498539E+04  0.7818609E-02  0.8403506E-01
       -2   -1    0    0    0  501  0.00000000000E+00  0.00000000000E+00  0.11494276312E+04  0.11494276312E+04  0.25500000920E-02 0. -1.
        2   -1    0    0  501    0  0.00000000000E+00  0.00000000000E+00 -0.13577839261E+04  0.13577839261E+04  0.25500000920E-02 0.  1.
    10030    2    1    2    0    0  0.00000000000E+00  0.00000000000E+00 -0.20835629491E+03  0.25072115573E+04  0.24985390627E+04 0.  0.
        3    1    3    3  502    0  0.12294506316E+04  0.20051496707E+03 -0.94085877823E+01  0.12457301631E+04  0.10100000352E+00 0. -1.
       -3    1    3    3    0  502 -0.12294506316E+04 -0.20051496707E+03 -0.19894770713E+03  0.12614813942E+04  0.10100000352E+00 0.  1.
</event>
<event>
 5   0  0.1501747E-06  0.2505492E+04  0.7818609E-02  0.8401032E-01
       -1   -1    0    0    0  501  0.00000000000E+00  0.00000000000E+00  0.95303407453E+03  0.95303407455E+03  0.50400001928E-02 0.  1.
        1   -1    0    0  501    0  0.00000000000E+00  0.00000000000E+00 -0.16467121832E+04  0.16467121832E+04  0.50400001928E-02 0. -1.
    10030    2    1    2    0    0  0.00000000000E+00  0.00000000000E+00 -0.69367810863E+03  0.25997462577E+04  0.25054922243E+04 0.  0.
        2    1    3    3  502    0  0.36242457721E+03 -0.61390842930E+03  0.72202819966E+03  0.10146722894E+04  0.25500000920E-02 0.  1.
       -2    1    3    3    0  502 -0.36242457721E+03  0.61390842930E+03 -0.14157063083E+04  0.15850739683E+04  0.25500000920E-02 0. -1.
</event>
<event>
 5   0  0.3971759E-06  0.2503196E+04  0.7818609E-02  0.8401848E-01
       -2   -1    0    0    0  501  0.00000000000E+00  0.00000000000E+00  0.15390509059E+04  0.15390509059E+04  0.25500000920E-02 0.  1.
        2   -1    0    0  501    0  0.00000000000E+00  0.00000000000E+00 -0.10178337054E+04  0.10178337054E+04  0.25500000920E-02 0. -1.
    10030    2    1    2    0    0  0.00000000000E+00  0.00000000000E+00  0.52121720048E+03  0.25568846113E+04  0.25031962659E+04 0.  0.
        4    1    3    3  502    0  0.23563612388E+03  0.13193606410E+03 -0.98771809213E+03  0.10239727293E+04  0.12699999809E+01 0. -1.
       -4    1    3    3    0  502 -0.23563612388E+03 -0.13193606410E+03  0.15089352926E+04  0.15329118820E+04  0.12699999809E+01 0.  1.
</event>
<event>
 5   0  0.3713394E-06  0.2517427E+04  0.7818609E-02  0.8396803E-01
       -2   -1    0    0    0  501  0.00000000000E+00  0.00000000000E+00  0.10244744445E+04  0.10244744445E+04  0.25500000920E-02 0. -1.
        2   -1    0    0  501    0  0.00000000000E+00  0.00000000000E+00 -0.15465091556E+04  0.15465091556E+04  0.25500000920E-02 0.  1.
    10030    2    1    2    0    0  0.00000000000E+00  0.00000000000E+00 -0.52203471108E+03  0.25709836001E+04  0.25174265495E+04 0.  0.
        3    1    3    3  502    0 -0.38228186308E+03  0.52464350253E+03 -0.13623703660E+04  0.15091200257E+04  0.10100000352E+00 0.  1.
       -3    1    3    3    0  502  0.38228186308E+03 -0.52464350253E+03  0.84033565488E+03  0.10618635744E+04  0.10100000352E+00 0. -1.
</event>
<event>
 5   0  0.3713394E-06  0.2501860E+04  0.7818609E-02  0.8402323E-01
        2   -1    0    0  501    0  0.00000000000E+00  0.00000000000E+00  0.14930768543E+04  0.14930768543E+04  0.25500000920E-02 0.  1.
       -2   -1    0    0    0  501  0.00000000000E+00  0.00000000000E+00 -0.10480546513E+04  0.10480546513E+04  0.25500000920E-02 0. -1.
    10030    2    1    2    0    0  0.00000000000E+00  0.00000000000E+00  0.44502220297E+03  0.25411315056E+04  0.25018602215E+04 0.  0.
        3    1    3    3  502    0  0.52895592262E+02  0.83407837865E+03 -0.72287376202E+03  0.11050027925E+04  0.10100000352E+00 0. -1.
       -3    1    3    3    0  502 -0.52895592262E+02 -0.83407837865E+03  0.11678959650E+04  0.14361287131E+04  0.10100000352E+00 0.  1.
</event>
<event>
 5   0  0.3713394E-06  0.2502091E+04  0.7818609E-02  0.8402241E-01
        2   -1    0    0  501    0  0.00000000000E+00  0.00000000000E+00  0.98765711613E+03  0.98765711614E+03  0.25500000920E-02 0.  1.
       -2   -1    0    0    0  501  0.00000000000E+00  0.00000000000E+00 -0.15846744474E+04  0.15846744474E+04  0.25500000920E-02 0. -1.
    10030    2    1    2    0    0  0.00000000000E+00  0.00000000000E+00 -0.59701733130E+03  0.25723315636E+04  0.25020911213E+04 0.  0.
        3    1    3    3  502    0 -0.19344400981E+03  0.11348685635E+04 -0.80191561054E+03  0.14030024583E+04  0.10100000352E+00 0.  1.
       -3    1    3    3    0  502  0.19344400981E+03 -0.11348685635E+04  0.20489827924E+03  0.11693291053E+04  0.10100000352E+00 0. -1.
</event>
<event>
 5   0  0.3814260E-06  0.2505750E+04  0.7818609E-02  0.8400940E-01
        2   -1    0    0  501    0  0.00000000000E+00  0.00000000000E+00  0.16239530490E+04  0.16239530490E+04  0.25500000920E-02 0.  1.
       -2   -1    0    0    0  501  0.00000000000E+00  0.00000000000E+00 -0.96658939636E+03  0.96658939636E+03  0.25500000920E-02 0. -1.
    10030    2    1    2    0    0  0.00000000000E+00  0.00000000000E+00  0.65736365261E+03  0.25905424453E+04  0.25057500253E+04 0.  0.
        5    1    3    3  502    0  0.22569210536E+01 -0.12424975688E+04  0.49496097606E+03  0.13374654239E+04  0.46999998093E+01 0. -1.
       -5    1    3    3    0  502 -0.22569210536E+01  0.12424975688E+04  0.16240267655E+03  0.12530770214E+04  0.46999998093E+01 0.  1.
</event>
<event>
 5   0  0.1574896E-06  0.2497542E+04  0.7818609E-02  0.8403862E-01
       -1   -1    0    0    0  501  0.00000000000E+00  0.00000000000E+00  0.77308585528E+03  0.77308585530E+03  0.50400001928E-02 0. -1.
        1   -1    0    0  501    0  0.00000000000E+00  0.00000000000E+00 -0.20171477540E+04  0.20171477540E+04  0.50400001928E-02 0.  1.
    10030    2    1    2    0    0  0.00000000000E+00  0.00000000000E+00 -0.12440618987E+04  0.27902336093E+04  0.24975415085E+04 0.  0.
        3    1    3    3  502    0  0.39523444743E+03 -0.60032700749E+03  0.51883257011E+03  0.88644798514E+03  0.10100000352E+00 0. -1.
       -3    1    3    3    0  502 -0.39523444743E+03  0.60032700749E+03 -0.17628944688E+04  0.19037856242E+04  0.10100000352E+00 0.  1.
</event>
<event>
 5   0  0.1501747E-06  0.2504214E+04  0.7818609E-02  0.8401486E-01
        1   -1    0    0  501    0  0.00000000000E+00  0.00000000000E+00  0.15280825041E+04  0.15280825041E+04  0.50400001928E-02 0.  1.
       -1   -1    0    0    0  501  0.00000000000E+00  0.00000000000E+00 -0.10259736403E+04  0.10259736403E+04  0.50400001928E-02 0. -1.
    10030    2    1    2    0    0  0.00000000000E+00  0.00000000000E+00  0.50210886378E+03  0.25540561444E+04  0.25042143434E+04 0.  0.
        2    1    3    3  502    0  0.59343314558E+03 -0.10857127954E+04  0.44680463895E+03  0.13155111393E+04  0.25500000920E-02 0. -1.
       -2    1    3    3    0  502 -0.59343314558E+03  0.10857127954E+04  0.55304224831E+02  0.12385450051E+04  0.25500000920E-02 0.  1.
</event>
<event>
 5   0  0.1519145E-06  0.2489389E+04  0.7818609E-02  0.8406776E-01
        1   -1    0    0  501    0  0.00000000000E+00  0.00000000000E+00  0.23311171269E+04  0.23311171269E+04  0.50400001928E-02 0. -1.
       -1   -1    0    0    0  501  0.00000000000E+00  0.00000000000E+00 -0.66460162721E+03  0.66460162723E+03  0.50400001928E-02 0.  1.
    10030    2    1    2    0    0  0.00000000000E+00  0.00000000000E+00  0.16665154997E+04  0.29957187542E+04  0.24893888694E+04 0.  0.
        4    1    3    3  502    0 -0.73231541750E+03 -0.99139458517E+03  0.62442956216E+03  0.13816884545E+04  0.12699999809E+01 0.  1.
       -4    1    3    3    0  502  0.73231541750E+03  0.99139458517E+03  0.10420859376E+04  0.16140302997E+04  0.12699999809E+01 0. -1.
</event>
<event>
 5   0  0.3713394E-06  0.2494167E+04  0.7818609E-02  0.8405066E-01
       -2   -1    0    0    0  501  0.00000000000E+00  0.00000000000E+00  0.13149620316E+04  0.13149620316E+04  0.25500000920E-02 0. -1.
        2   -1    0    0  501    0  0.00000000000E+00  0.00000000000E+00 -0.11827091564E+04  0.11827091564E+04  0.25500000920E-02 0.  1.
    10030    2    1    2    0    0  0.00000000000E+00  0.00000000000E+00  0.13225287512E+03  0.24976711880E+04  0.24941673040E+04 0.  0.
        3    1    3    3  502    0  0.76373121521E+03 -0.70727853496E+01  0.10533522529E+04  0.13011096696E+04  0.10100000352E+00 0. -1.
       -3    1    3    3    0  502 -0.76373121521E+03  0.70727853496E+01 -0.92109937780E+03  0.11965615184E+04  0.10100000352E+00 0.  1.
</event>
<event>
 5   0  0.3713394E-06  0.2499925E+04  0.7818609E-02  0.8403012E-01
       -2   -1    0    0    0  501  0.00000000000E+00  0.00000000000E+00  0.11126298023E+04  0.11126298023E+04  0.25500000920E-02 0.  1.
        2   -1    0    0  501    0  0.00000000000E+00  0.00000000000E+00 -0.14042461269E+04  0.14042461269E+04  0.25500000920E-02 0. -1.
    10030    2    1    2    0    0  0.00000000000E+00  0.00000000000E+00 -0.29161632462E+03  0.25168759292E+04  0.24999248714E+04 0.  0.
        3    1    3    3  502    0 -0.25690383415E+03  0.35665087087E+03 -0.13238734269E+04  0.13949337921E+04  0.10100000352E+00 0. -1.
       -3    1    3    3    0  502  0.25690383415E+03 -0.35665087087E+03  0.10322571023E+04  0.11219421371E+04  0.10100000352E+00 0.  1.
</event>
<event>
 5   0  0.3808293E-06  0.2503420E+04  0.7818609E-02  0.8401768E-01
        2   -1    0    0  501    0  0.00000000000E+00  0.00000000000E+00  0.88267598812E+03  0.88267598812E+03  0.25500000920E-02 0.  1.
       -2   -1    0    0    0  501  0.00000000000E+00  0.00000000000E+00 -0.17750312774E+04  0.17750312774E+04  0.25500000920E-02 0. -1.
    10030    2    1    2    0    0  0.00000000000E+00  0.00000000000E+00 -0.89235528925E+03  0.26577072655E+04  0.25034196506E+04 0.  0.
        1    1    3    3  502    0  0.71258955665E+03  0.13117934220E+02 -0.15385856363E+04  0.16956419777E+04  0.50400001928E-02 0. -1.
       -1    1    3    3    0  502 -0.71258955665E+03 -0.13117934220E+02  0.64623034704E+03  0.96206528776E+03  0.50400001928E-02 0.  1.
</event>
<event>
 5   0  0.1553604E-06  0.2501378E+04  0.7818609E-02  0.8402495E-01
       -1   -1    0    0    0  501  0.00000000000E+00  0.00000000000E+00  0.14454236413E+04  0.14454236413E+04  0.50400001928E-02 0.  1.
        1   -1    0    0  501    0  0.00000000000E+00  0.00000000000E+00 -0.10821903075E+04  0.10821903075E+04  0.50400001928E-02 0. -1.
    10030    2    1    2    0    0  0.00000000000E+00  0.00000000000E+00  0.36323333386E+03  0.25276139488E+04  0.25013783839E+04 0.  0.
        1    1    3    3  502    0  0.60962860592E+03  0.10443682478E+04 -0.14090392412E+03  0.12174588248E+04  0.50400001928E-02 0.  1.
       -1    1    3    3    0  502 -0.60962860592E+03 -0.10443682478E+04  0.50413725797E+03  0.13101551241E+04  0.50400001928E-02 0. -1.
</event>
<event>
 5   0  0.3924441E-06  0.2490629E+04  0.7818609E-02  0.8406331E-01
        2   -1    0    0  501    0  0.00000000000E+00  0.00000000000E+00  0.15636018509E+04  0.15636018509E+04  0.25500000920E-02 0.  1.
       -2   -1    0    0    0  501  0.00000000000E+00  0.00000000000E+00 -0.99181821829E+03  0.99181821829E+03  0.25500000920E-02 0. -1.
    10030    2    1    2    0    0  0.00000000000E+00  0.00000000000E+00  0.57178363258E+03  0.25554200692E+04  0.24906294802E+04 0.  0.
        2    1    3    3  502    0  0.79431918548E+02 -0.10735544841E+04 -0.35647812379E+03  0.11339776509E+04  0.25500000920E-02 0. -1.
       -2    1    3    3    0  502 -0.79431918548E+02  0.10735544841E+04  0.92826175637E+03  0.14214424182E+04  0.25500000920E-02 0.  1.
</event>
<event>
 5   0  0.3713394E-06  0.2496879E+04  0.7818609E-02  0.8404098E-01
       -2   -1    0    0    0  501  0.00000000000E+00  0.00000000000E+00  0.17316877254E+04  0.17316877254E+04  0.25500000920E-02 0.  1.
        2   -1    0    0  501    0  0.00000000000E+00  0.00000000000E+00 -0.90004774044E+03  0.90004774044E+03  0.25500000920E-02 0. -1.
    10030    2    1    2    0    0  0.00000000000E+00  0.00000000000E+00  0.83163998500E+03  0.26317354659E+04  0.24968793519E+04 0.  0.
        3    1    3    3  502    0 -0.36573354921E+03 -0.93260358709E+03  0.12011041226E+04  0.15640209728E+04  0.10100000352E+00 0.  1.
       -3    1    3    3    0  502  0.36573354921E+03  0.93260358709E+03 -0.36946413761E+03  0.10677144931E+04  0.10100000352E+00 0. -1.
</event>
<event>
 5   0  0.1553604E-06  0.2501079E+04  0.7818609E-02  0.8402601E-01
       -1   -1    0    0    0  501  0.00000000000E+00  0.00000000000E+00  0.12088417572E+04  0.12088417572E+04  0.50400001928E-02 0. -1.
        1   -1    0    0  501    0  0.00000000000E+00  0.00000000000E+00 -0.12936757440E+04  0.12936757440E+04  0.50400001928E-02 0.  1.
    10030    2    1    2    0    0  0.00000000000E+00  0.00000000000E+00 -0.84833986847E+02  0.25025175012E+04  0.25010791748E+04 0.  0.
        1    1    3    3  502    0  0.43826431110E+03 -0.37014666698E+03  0.10694218842E+04  0.12135680153E+04  0.50400001928E-02 0. -1.
       -1    1    3    3    0  502 -0.43826431110E+03  0.37014666698E+03 -0.11542558710E+04  0.12889494859E+04  0.50400001928E-02 0.  1.
</event>
<event>
 5   0  0.3971759E-06  0.2473764E+04  0.7818609E-02  0.8412392E-01
        2   -1    0    0  501    0  0.00000000000E+00  0.00000000000E+00  0.18806331213E+04  0.18806331213E+04  0.25500000920E-02 0.  1.
       -2   -1    0    0    0  501  0.00000000000E+00  0.00000000000E+00 -0.81349048300E+03  0.81349048301E+03  0.25500000920E-02 0. -1.
    10030    2    1    2    0    0  0.00000000000E+00  0.00000000000E+00  0.10671426383E+04  0.26941236043E+04  0.24737640520E+04 0.  0.
        4    1    3    3  502    0  0.10924550561E+04 -0.24004191691E+02 -0.97569519623E+02  0.10970668506E+04  0.12699999809E+01 0. -1.
       -4    1    3    3    0  502 -0.10924550561E+04  0.24004191691E+02  0.11647121579E+04  0.15970567537E+04  0.12699999809E+01 0.  1.
</event>
<event>
 5   0  0.1287375E-06  0.2509690E+04  0.7818609E-02  0.8399542E-01
       -3   -1    0    0    0  501  0.00000000000E+00  0.00000000000E+00  0.79904977706E+03  0.79904978345E+03  0.10100000352E+00 0. -1.
        3   -1    0    0  501    0  0.00000000000E+00  0.00000000000E+00 -0.19706358155E+04  0.19706358180E+04  0.10100000352E+00 0.  1.
    10030    2    1    2    0    0  0.00000000000E+00  0.00000000000E+00 -0.11715860384E+04  0.27696856015E+04  0.25096901175E+04 0.  0.
        4    1    3    3  502    0  0.79082947736E+03 -0.34309563136E+03 -0.15921307459E+04  0.18105269397E+04  0.12699999809E+01 0.  1.
       -4    1    3    3    0  502 -0.79082947736E+03  0.34309563136E+03  0.42054470751E+03  0.95915866176E+03  0.12699999809E+01 0. -1.
</event>
<event>
 5   0  0.3814260E-06  0.2501671E+04  0.7818609E-02  0.8402391E-01
       -2   -1    0    0    0  501  0.00000000000E+00  0.00000000000E+00  0.57469033579E+03  0.57469033580E+03  0.25500000920E-02 0. -1.
        2   -1    0    0  501    0  0.00000000000E+00  0.00000000000E+00 -0.27224906909E+04  0.27224906909E+04  0.25500000920E-02 0.  1.
    10030    2    1    2    0    0  0.00000000000E+00  0.00000000000E+00 -0.21478003552E+04  0.32971810267E+04  0.25016707132E+04 0.  0.
        5    1    3    3  502    0  0.79428287733E+03 -0.84912369284E+03 -0.16817082191E+04  0.20445197380E+04  0.46999998093E+01 0.  1.
       -5    1    3    3    0  502 -0.79428287733E+03  0.84912369284E+03 -0.46609213603E+03  0.12526612887E+04  0.46999998093E+01 0. -1.
</event>
<event>
 5   0  0.3971759E-06  0.2499191E+04  0.7818609E-02  0.8403274E-01
        2   -1    0    0  501    0  0.00000000000E+00  0.00000000000E+00  0.88383071284E+03  0.88383071284E+03  0.25500000920E-02 0. -1.
       -2   -1    0    0    0  501  0.00000000000E+00  0.00000000000E+00 -0.17667287273E+04  0.17667287273E+04  0.25500000920E-02 0.  1.
    10030    2    1    2    0    0  0.00000000000E+00  0.00000000000E+00 -0.88289801450E+03  0.26505594402E+04  0.24991911575E+04 0.  0.
        4    1    3    3  502    0 -0.25217813674E+03 -0.11371544745E+03  0.85094761098E+03  0.89478403270E+03  0.12699999809E+01 0. -1.
       -4    1    3    3    0  502  0.25217813674E+03  0.11371544745E+03 -0.17338456255E+04  0.17557754075E+04  0.12699999809E+01 0.  1.
</event>
<event>
 5   0  0.3713394E-06  0.2499980E+04  0.7818609E-02  0.8402993E-01
       -2   -1    0    0    0  501  0.00000000000E+00  0.00000000000E+00  0.68111492040E+03  0.68111492041E+03  0.25500000920E-02 0.  1.
        2   -1    0    0  501    0  0.00000000000E+00  0.00000000000E+00 -0.22939957966E+04  0.22939957966E+04  0.25500000920E-02 0. -1.
    10030    2    1    2    0    0  0.00000000000E+00  0.00000000000E+00 -0.16128808762E+04  0.29751107170E+04  0.24999798115E+04 0.  0.
        3    1    3    3  502    0 -0.12194369038E+02  0.79782954111E+03 -0.19514887988E+04  0.21083143080E+04  0.10100000352E+00 0. -1.
       -3    1    3    3    0  502  0.12194369038E+02 -0.79782954111E+03  0.33860792256E+03  0.86679640904E+03  0.10100000352E+00 0.  1.
</event>
<event>
 5   0  0.3814260E-06  0.2492468E+04  0.7818609E-02  0.8405674E-01
       -2   -1    0    0    0  501  0.00000000000E+00  0.00000000000E+00  0.81371398227E+03  0.81371398228E+03  0.25500000920E-02 0. -1.
        2   -1    0    0  501    0  0.00000000000E+00  0.00000000000E+00 -0.19086548506E+04  0.19086548506E+04  0.25500000920E-02 0.  1.
    10030    2    1    2    0    0  0.00000000000E+00  0.00000000000E+00 -0.10949408683E+04  0.27223688329E+04  0.24924679651E+04 0.  0.
        5    1    3    3  502    0  0.56944550736E+03  0.57040222003E+03 -0.15856428394E+04  0.17787389304E+04  0.46999998093E+01 0.  1.
       -5    1    3    3    0  502 -0.56944550736E+03 -0.57040222003E+03  0.49070197105E+03  0.94362990248E+03  0.46999998093E+01 0. -1.
</event>
<event>
 5   0  0.3971759E-06  0.2503428E+04  0.7818609E-02  0.8401765E-01
       -2   -1    0    0    0  501  0.00000000000E+00  0.00000000000E+00  0.10807269933E+04  0.10807269933E+04  0.25500000920E-02 0.  1.
        2   -1    0    0  501    0  0.00000000000E+00  0.00000000000E+00 -0.14497531053E+04  0.14497531053E+04  0.25500000920E-02 0. -1.
    10030    2    1    2    0    0  0.00000000000E+00  0.00000000000E+00 -0.36902611195E+03  0.25304800986E+04  0.25034275021E+04 0.  0.
        4    1    3    3  502    0  0.32815024119E+03 -0.78530123428E+03  0.74323146635E+03  0.11299447928E+04  0.12699999809E+01 0.  1.
       -4    1    3    3    0  502 -0.32815024119E+03  0.78530123428E+03 -0.11122575783E+04  0.14005353058E+04  0.12699999809E+01 0. -1.
</event>
<event>
 5   0  0.3713394E-06  0.2503445E+04  0.7818609E-02  0.8401759E-01
       -2   -1    0    0    0  501  0.00000000000E+00  0.00000000000E+00  0.15844812679E+04  0.15844812679E+04  0.25500000920E-02 0.  1.
        2   -1    0    0  501    0  0.00000000000E+00  0.00000000000E+00 -0.98884712124E+03  0.98884712124E+03  0.25500000920E-02 0. -1.
    10030    2    1    2    0    0  0.00000000000E+00  0.00000000000E+00  0.59563414663E+03  0.25733283891E+04  0.25034454181E+04 0.  0.
        3    1    3    3  502    0 -0.28044124857E+01 -0.55204902102E+03 -0.85694972415E+03  0.10193766852E+04  0.10100000352E+00 0. -1.
       -3    1    3    3    0  502  0.28044124857E+01  0.55204902102E+03  0.14525838708E+04  0.15539517039E+04  0.10100000352E+00 0.  1.
</event>
<event>
 5   0  0.1541852E-06  0.2496777E+04  0.7818609E-02  0.8404135E-01
        1   -1    0    0  501    0  0.00000000000E+00  0.00000000000E+00  0.11932591179E+04  0.11932591180E+04  0.50400001928E-02 0. -1.
       -1   -1    0    0    0  501  0.00000000000E+00  0.00000000000E+00 -0.13060649751E+04  0.13060649751E+04  0.50400001928E-02 0.  1.
    10030    2    1    2    0    0  0.00000000000E+00  0.00000000000E+00 -0.11280585717E+03  0.24993240931E+04  0.24967770747E+04 0.  0.
        5    1    3    3  502    0 -0.26685246741E+03 -0.11828057778E+04 -0.35371113375E+03  0.12630809173E+04  0.46999998093E+01 0.  1.
       -5    1    3    3    0  502  0.26685246741E+03  0.11828057778E+04  0.24090527658E+03  0.12362431758E+04  0.46999998093E+01 0. -1.
</event>
<event>
 5   0  0.3808293E-06  0.2505021E+04  0.7818609E-02  0.8401199E-01
       -2   -1    0    0    0  501  0.00000000000E+00  0.00000000000E+00  0.10873875842E+04  0.10873875842E+04  0.25500000920E-02 0.  1.
        2   -1    0    0  501    0  0.00000000000E+00  0.00000000000E+00 -0.14427077031E+04  0.14427077031E+04  0.25500000920E-02 0. -1.
    10030    2    1    2    0    0  0.00000000000E+00  0.00000000000E+00 -0.35532011894E+03  0.25300952873E+04  0.25050209132E+04 0.  0.
        1    1    3    3  502    0 -0.44950478495E+03  0.30910691355E+03 -0.13164121453E+04  0.14249710776E+04  0.50400001928E-02 0. -1.
       -1    1    3    3    0  502  0.44950478495E+03 -0.30910691355E+03  0.96109202634E+03  0.11051242097E+04  0.50400001928E-02 0.  1.
</event>
<event>
 5   0  0.1574896E-06  0.2499894E+04  0.7818609E-02  0.8403023E-01
        1   -1    0    0  501    0  0.00000000000E+00  0.00000000000E+00  0.18552555916E+04  0.18552555916E+04  0.50400001928E-02 0. -1.
       -1   -1    0    0    0  501  0.00000000000E+00  0.00000000000E+00 -0.84213092873E+03  0.84213092875E+03  0.50400001928E-02 0.  1.
    10030    2    1    2    0    0  0.00000000000E+00  0.00000000000E+00  0.10131246629E+04  0.26973865204E+04  0.24998944893E+04 0.  0.
        3    1    3    3  502    0 -0.55675484582E+03 -0.11177709490E+04  0.56546676124E+03  0.13708174645E+04  0.10100000352E+00 0. -1.
       -3    1    3    3    0  502  0.55675484582E+03  0.11177709490E+04  0.44765790163E+03  0.13265690558E+04  0.10100000352E+00 0.  1.
</event>
<event>
 5   0  0.3971759E-06  0.2499633E+04  0.7818609E-02  0.8403116E-01
       -2   -1    0    0    0  501  0.00000000000E+00  0.00000000000E+00  0.82902177178E+03  0.82902177178E+03  0.25500000920E-02 0. -1.
        2   -1    0    0  501    0  0.00000000000E+00  0.00000000000E+00 -0.18841977999E+04  0.18841977999E+04  0.25500000920E-02 0.  1.
    10030    2    1    2    0    0  0.00000000000E+00  0.00000000000E+00 -0.10551760281E+04  0.27132195717E+04  0.24996327718E+04 0.  0.
        4    1    3    3  502    0 -0.57391478649E+03  0.69427155266E+03 -0.14680190631E+04  0.17223451319E+04  0.12699999809E+01 0.  1.
       -4    1    3    3    0  502  0.57391478649E+03 -0.69427155266E+03  0.41284303494E+03  0.99087443977E+03  0.12699999809E+01 0. -1.
</event>
<event>
 5   0  0.3808293E-06  0.2496798E+04  0.7818609E-02  0.8404127E-01
       -2   -1    0    0    0  501  0.00000000000E+00  0.00000000000E+00  0.62631174017E+03  0.62631174017E+03  0.25500000920E-02 0. -1.
        2   -1    0    0  501    0  0.00000000000E+00  0.00000000000E+00 -0.24883772400E+04  0.24883772400E+04  0.25500000920E-02 0.  1.
    10030    2    1    2    0    0  0.00000000000E+00  0.00000000000E+00 -0.18620654998E+04  0.31146889802E+04  0.24967978528E+04 0.  0.
        1    1    3    3  502    0  0.79468746891E+03  0.69001532785E+03 -0.17686538478E+04  0.20581024657E+04  0.50400001928E-02 0.  1.
       -1    1    3    3    0  502 -0.79468746891E+03 -0.69001532785E+03 -0.93411652080E+02  0.10565865145E+04  0.50400001928E-02 0. -1.
</event>
<event>
 5   0  0.3971759E-06  0.2507498E+04  0.7818609E-02  0.8400319E-01
        2   -1    0    0  501    0  0.00000000000E+00  0.00000000000E+00  0.11895306125E+04  0.11895306125E+04  0.25500000920E-02 0.  1.
       -2   -1    0    0    0  501  0.00000000000E+00  0.00000000000E+00 -0.13214342641E+04  0.13214342641E+04  0.25500000920E-02 0. -1.
    10030    2    1    2    0    0  0.00000000000E+00  0.00000000000E+00 -0.13190365163E+03  0.25109648766E+04  0.25074979638E+04 0.  0.
        4    1    3    3  502    0 -0.11637042029E+04 -0.46202665018E+03 -0.13091678423E+03  0.12588951166E+04  0.12699999809E+01 0.  1.
       -4    1    3    3    0  502  0.11637042029E+04  0.46202665018E+03 -0.98686740095E+00  0.12520697601E+04  0.12699999809E+01 0. -1.
</event>
<event>
 5   0  0.3808293E-06  0.2498440E+04  0.7818609E-02  0.8403541E-01
        2   -1    0    0  501    0  0.00000000000E+00  0.00000000000E+00  0.14658840689E+04  0.14658840689E+04  0.25500000920E-02 0.  1.
       -2   -1    0    0    0  501  0.00000000000E+00  0.00000000000E+00 -0.10645799179E+04  0.10645799179E+04  0.25500000920E-02 0. -1.
    10030    2    1    2    0    0  0.00000000000E+00  0.00000000000E+00  0.40130415108E+03  0.25304639868E+04  0.24984401067E+04 0.  0.
        1    1    3    3  502    0  0.60866836803E+02 -0.40018149889E+03 -0.99631691456E+03  0.10754056900E+04  0.50400001928E-02 0. -1.
       -1    1    3    3    0  502 -0.60866836803E+02  0.40018149889E+03  0.13976210656E+04  0.14550582968E+04  0.50400001928E-02 0.  1.
</event>
<event>
 5   0  0.1519145E-06  0.2487164E+04  0.7818609E-02  0.8407573E-01
        1   -1    0    0  501    0  0.00000000000E+00  0.00000000000E+00  0.14505020443E+04  0.14505020443E+04  0.50400001928E-02 0. -1.
       -1   -1    0    0    0  501  0.00000000000E+00  0.00000000000E+00 -0.10661799224E+04  0.10661799224E+04  0.50400001928E-02 0.  1.
    10030    2    1    2    0    0  0.00000000000E+00  0.00000000000E+00  0.38432212194E+03  0.25166819667E+04  0.24871639729E+04 0.  0.
        4    1    3    3  502    0  0.98510637048E+03 -0.44844702007E+03  0.81176424401E+03  0.13529604916E+04  0.12699999809E+01 0.  1.
       -4    1    3    3    0  502 -0.98510637048E+03  0.44844702007E+03 -0.42744212207E+03  0.11637214751E+04  0.12699999809E+01 0. -1.
</event>
<event>
 5   0  0.1541852E-06  0.2506549E+04  0.7818609E-02  0.8400656E-01
       -1   -1    0    0    0  501  0.00000000000E+00  0.00000000000E+00  0.94145804179E+03  0.94145804180E+03  0.50400001928E-02 0. -1.
        1   -1    0    0  501    0  0.00000000000E+00  0.00000000000E+00 -0.16683658029E+04  0.16683658029E+04  0.50400001928E-02 0.  1.
    10030    2    1    2    0    0  0.00000000000E+00  0.00000000000E+00 -0.72690776109E+03  0.26098238447E+04  0.25065485447E+04 0.  0.
        5    1    3    3  502    0 -0.86323802191E+03  0.81960899819E+03  0.44792350893E+02  0.11912041123E+04  0.46999998093E+01 0. -1.
       -5    1    3    3    0  502  0.86323802191E+03 -0.81960899819E+03 -0.77170011198E+03  0.14186197324E+04  0.46999998093E+01 0.  1.
</event>
<event>
 5   0  0.3971759E-06  0.2496342E+04  0.7818609E-02  0.8404290E-01
        2   -1    0    0  501    0  0.00000000000E+00  0.00000000000E+00  0.22489906115E+04  0.22489906115E+04  0.25500000920E-02 0.  1.
       -2   -1    0    0    0  501  0.00000000000E+00  0.00000000000E+00 -0.69272469673E+03  0.69272469674E+03  0.25500000920E-02 0. -1.
    10030    2    1    2    0    0  0.00000000000E+00  0.00000000000E+00  0.15562659148E+04  0.29417153083E+04  0.24963423959E+04 0.  0.
        4    1    3    3  502    0  0.57845448642E+03  0.11652068841E+03 -0.51798061432E+03  0.78517016844E+03  0.12699999809E+01 0. -1.
       -4    1    3    3    0  502 -0.57845448642E+03 -0.11652068841E+03  0.20742465291E+04  0.21565451398E+04  0.12699999809E+01 0.  1.
</event>
<event>
 5   0  0.3713394E-06  0.2498106E+04  0.7818609E-02  0.8403661E-01
        2   -1    0    0  501    0  0.00000000000E+00  0.00000000000E+00  0.14324930855E+04  0.14324930855E+04  0.25500000920E-02 0. -1.
       -2   -1    0    0    0  501  0.00000000000E+00  0.00000000000E+00 -0.10891037411E+04  0.10891037411E+04  0.25500000920E-02 0.  1.
    10030    2    1    2    0    0  0.00000000000E+00  0.00000000000E+00  0.34338934436E+03  0.25215968266E+04  0.24981061455E+04 0.  0.
        3    1    3    3  502    0  0.80264512550E+03  0.91444804629E+03 -0.11323461029E+03  0.12219969370E+04  0.10100000352E+00 0.  1.
       -3    1    3    3    0  502 -0.80264512550E+03 -0.91444804629E+03  0.45662395465E+03  0.12995998896E+04  0.10100000352E+00 0. -1.
</event>
<event>
 5   0  0.3971759E-06  0.2498807E+04  0.7818609E-02  0.8403411E-01
        2   -1    0    0  501    0  0.00000000000E+00  0.00000000000E+00  0.10436972684E+04  0.10436972684E+04  0.25500000920E-02 0.  1.
       -2   -1    0    0    0  501  0.00000000000E+00  0.00000000000E+00 -0.14956528759E+04  0.14956528759E+04  0.25500000920E-02 0. -1.
    10030    2    1    2    0    0  0.00000000000E+00  0.00000000000E+00 -0.45195560759E+03  0.25393501443E+04  0.24988067721E+04 0.  0.
        4    1    3    3  502    0 -0.93360209813E+03 -0.58998556470E+03 -0.81967539740E+03  0.13753418536E+04  0.12699999809E+01 0. -1.
       -4    1    3    3    0  502  0.93360209813E+03  0.58998556470E+03  0.36771978982E+03  0.11640082907E+04  0.12699999809E+01 0.  1.
</event>
<event>
 5   0  0.3814260E-06  0.2503746E+04  0.7818609E-02  0.8401652E-01
       -2   -1    0    0    0  501  0.00000000000E+00  0.00000000000E+00  0.11723346391E+04  0.11723346391E+04  0.25500000920E-02 0. -1.
        2   -1    0    0  501    0  0.00000000000E+00  0.00000000000E+00 -0.13368079110E+04  0.13368079110E+04  0.25500000920E-02 0.  1.
    10030    2    1    2    0    0  0.00000000000E+00  0.00000000000E+00 -0.16447327194E+03  0.25091425501E+04  0.25037461691E+04 0.  0.
        5    1    3    3  502    0  0.11366940067E+04  0.49393157424E+03 -0.25903247154E+03  0.12661601700E+04  0.46999998093E+01 0.  1.
       -5    1    3    3    0  502 -0.11366940067E+04 -0.49393157424E+03  0.94559199597E+02  0.12429823800E+04  0.46999998093E+01 0. -1.
</event>
<event>
 5   0  0.3924441E-06  0.2500899E+04  0.7818609E-02  0.8402665E-01
       -2   -1    0    0    0  501  0.00000000000E+00  0.00000000000E+00  0.12716641597E+04  0.12716641598E+04  0.25500000920E-02 0. -1.
        2   -1    0    0  501    0  0.00000000000E+00  0.00000000000E+00 -0.12295883129E+04  0.12295883129E+04  0.25500000920E-02 0.  1.
    10030    2    1    2    0    0  0.00000000000E+00  0.00000000000E+00  0.42075846847E+02  0.25012524727E+04  0.25008985495E+04 0.  0.
        2    1    3    3  502    0  0.10012156766E+04 -0.22767004590E+03  0.73483137025E+03  0.12626336063E+04  0.25500000920E-02 0. -1.
       -2    1    3    3    0  502 -0.10012156766E+04  0.22767004590E+03 -0.69275552340E+03  0.12386188664E+04  0.25500000920E-02 0.  1.
</event>
<event>
 5   0  0.1574896E-06  0.2499646E+04  0.7818609E-02  0.8403112E-01
       -1   -1    0    0    0  501  0.00000000000E+00  0.00000000000E+00  0.18204791867E+04  0.18204791867E+04  0.50400001928E-02 0. -1.
        1   -1    0    0  501    0  0.00000000000E+00  0.00000000000E+00 -0.85804750403E+03  0.85804750405E+03  0.50400001928E-02 0.  1.
    10030    2    1    2    0    0  0.00000000000E+00  0.00000000000E+00  0.96243168267E+03  0.26785266908E+04  0.24996460728E+04 0.  0.
        3    1    3    3  502    0 -0.10765974224E+04  0.70149899882E+02 -0.19486664801E+03  0.10963375571E+04  0.10100000352E+00 0.  1.
       -3    1    3    3    0  502  0.10765974224E+04 -0.70149899882E+02  0.11572983307E+04  0.15821891337E+04  0.10100000352E+00 0. -1.
</event>
<event>
 5   0  0.3808293E-06  0.2504184E+04  0.7818609E-02  0.8401496E-01
        2   -1    0    0  501    0  0.00000000000E+00  0.00000000000E+00  0.77369864882E+03  0.77369864883E+03  0.25500000920E-02 0. -1.
       -2   -1    0    0    0  501  0.00000000000E+00  0.00000000000E+00 -0.20262857323E+04  0.20262857323E+04  0.25500000920E-02 0.  1.
    10030    2    1    2    0    0  0.00000000000E+00  0.00000000000E+00 -0.12525870835E+04  0.27999843811E+04  0.25041841252E+04 0.  0.
        1    1    3    3  502    0 -0.31550157831E+03 -0.26647140491E+03  0.69535659879E+03  0.80874535860E+03  0.50400001928E-02 0. -1.
       -1    1    3    3    0  502  0.31550157831E+03  0.26647140491E+03 -0.19479436823E+04  0.19912390225E+04  0.50400001928E-02 0.  1.
</event>
<event>
 5   0  0.1519145E-06  0.2493868E+04  0.7818609E-02  0.8405173E-01
        1   -1    0    0  501    0  0.00000000000E+00  0.00000000000E+00  0.12135964893E+04  0.12135964893E+04  0.50400001928E-02 0. -1.
       -1   -1    0    0    0  501  0.00000000000E+00  0.00000000000E+00 -0.12811876499E+04  0.12811876499E+04  0.50400001928E-02 0.  1.
    10030    2    1    2    0    0  0.00000000000E+00  0.00000000000E+00 -0.67591160629E+02  0.24947841392E+04  0.24938683479E+04 0.  0.
        4    1    3    3  502    0 -0.11918658945E+04 -0.35967409821E+03 -0.10405992182E+03  0.12492957407E+04  0.12699999809E+01 0.  1.
       -4    1    3    3    0  502  0.11918658945E+04  0.35967409821E+03  0.36468761187E+02  0.12454883986E+04  0.12699999809E+01 0. -1.
</event>
<event>
 5   0  0.1519145E-06  0.2493507E+04  0.7818609E-02  0.8405302E-01
        1   -1    0    0  501    0  0.00000000000E+00  0.00000000000E+00  0.11529753346E+04  0.11529753346E+04  0.50400001928E-02 0.  1.
       -1   -1    0    0    0  501  0.00000000000E+00  0.00000000000E+00 -0.13481595927E+04  0.13481595927E+04  0.50400001928E-02 0. -1.
    10030    2    1    2    0    0  0.00000000000E+00  0.00000000000E+00 -0.19518425812E+03  0.25011349273E+04  0.24935073752E+04 0.  0.
        4    1    3    3  502    0 -0.62420094051E+03  0.62492014193E+03 -0.98019348009E+03  0.13194441516E+04  0.12699999809E+01 0. -1.
       -4    1    3    3    0  502  0.62420094051E+03 -0.62492014193E+03  0.78500922197E+03  0.11816907757E+04  0.12699999809E+01 0.  1.
</event>
<event>
 5   0  0.3713394E-06  0.2508353E+04  0.7818609E-02  0.8400016E-01
        2   -1    0    0  501    0  0.00000000000E+00  0.00000000000E+00  0.12061870720E+04  0.12061870720E+04  0.25500000920E-02 0.  1.
       -2   -1    0    0    0  501  0.00000000000E+00  0.00000000000E+00 -0.13040755335E+04  0.13040755335E+04  0.25500000920E-02 0. -1.
    10030    2    1    2    0    0  0.00000000000E+00  0.00000000000E+00 -0.97888461449E+02  0.25102626055E+04  0.25083532841E+04 0.  0.
        3    1    3    3  502    0  0.68768975983E+02 -0.89133695810E+03 -0.92924342653E+03  0.12894588403E+04  0.10100000352E+00 0. -1.
       -3    1    3    3    0  502 -0.68768975983E+02  0.89133695810E+03  0.83135496508E+03  0.12208037652E+04  0.10100000352E+00 0.  1.
</event>
<event>
 5   0  0.3814260E-06  0.2501560E+04  0.7818609E-02  0.8402430E-01
       -2   -1    0    0    0  501  0.00000000000E+00  0.00000000000E+00  0.18065836196E+04  0.18065836196E+04  0.25500000920E-02 0.  1.
        2   -1    0    0  501    0  0.00000000000E+00  0.00000000000E+00 -0.86597221351E+03  0.86597221351E+03  0.25500000920E-02 0. -1.
    10030    2    1    2    0    0  0.00000000000E+00  0.00000000000E+00  0.94061140606E+03  0.26725558331E+04  0.25015604857E+04 0.  0.
        5    1    3    3  502    0  0.12353505523E+04  0.35924181312E+02  0.26467130120E+03  0.12639044748E+04  0.46999998093E+01 0.  1.
       -5    1    3    3    0  502 -0.12353505523E+04 -0.35924181312E+02  0.67594010485E+03  0.14086513583E+04  0.46999998093E+01 0. -1.
</event>
<event>
 5   0  0.3814260E-06  0.2498051E+04  0.7818609E-02  0.8403680E-01
        2   -1    0    0  501    0  0.00000000000E+00  0.00000000000E+00  0.10251206705E+04  0.10251206705E+04  0.25500000920E-02 0. -1.
       -2   -1    0    0    0  501  0.00000000000E+00  0.00000000000E+00 -0.15218351731E+04  0.15218351731E+04  0.25500000920E-02 0.  1.
    10030    2    1    2    0    0  0.00000000000E+00  0.00000000000E+00 -0.49671450256E+03  0.25469558436E+04  0.24980509948E+04 0.  0.
        5    1    3    3  502    0 -0.88209830002E+03 -0.84013831448E+03  0.32929306830E+02  0.12186206250E+04  0.46999998093E+01 0. -1.
       -5    1    3    3    0  502  0.88209830002E+03  0.84013831448E+03 -0.52964380939E+03  0.13283352187E+04  0.46999998093E+01 0.  1.
</event>
<event>
 5   0  0.3808293E-06  0.2497516E+04  0.7818609E-02  0.8403871E-01
        2   -1    0    0  501    0  0.00000000000E+00  0.00000000000E+00  0.15625637019E+04  0.15625637019E+04  0.25500000920E-02 0.  1.
       -2   -1    0    0    0  501  0.00000000000E+00  0.00000000000E+00 -0.99797321156E+03  0.99797321156E+03  0.25500000920E-02 0. -1.
    10030    2    1    2    0    0  0.00000000000E+00  0.00000000000E+00  0.56459049034E+03  0.25605369135E+04  0.24975161388E+04 0.  0.
        1    1    3    3  502    0 -0.76069408903E+03  0.86623230407E+03  0.77438891373E+03  0.13887735926E+04  0.50400001928E-02 0.  1.
       -1    1    3    3    0  502  0.76069408903E+03 -0.86623230407E+03 -0.20979842339E+03  0.11717633209E+04  0.50400001928E-02 0. -1.
</event>
<event>
 5   0  0.1519145E-06  0.2495597E+04  0.7818609E-02  0.8404556E-01
       -1   -1    0    0    0  501  0.00000000000E+00  0.00000000000E+00  0.91323648594E+03  0.91323648595E+03  0.50400001928E-02 0.  1.
        1   -1    0    0  501    0  0.00000000000E+00  0.00000000000E+00 -0.17049264922E+04  0.17049264922E+04  0.50400001928E-02 0. -1.
    10030    2    1    2    0    0  0.00000000000E+00  0.00000000000E+00 -0.79169000622E+03  0.26181629781E+04  0.24955969855E+04 0.  0.
        4    1    3    3  502    0  0.13193580391E+03 -0.68439671949E+02  0.90391587070E+03  0.91605488878E+03  0.12699999809E+01 0.  1.
       -4    1    3    3    0  502 -0.13193580391E+03  0.68439671949E+02 -0.16956058769E+04  0.17021080893E+04  0.12699999809E+01 0. -1.
</event>
<event>
 5   0  0.1287375E-06  0.2503637E+04  0.7818609E-02  0.8401691E-01
        3   -1    0    0  501    0  0.00000000000E+00  0.00000000000E+00  0.10266001861E+04  0.10266001911E+04  0.10100000352E+00 0.  1.
       -3   -1    0    0    0  501  0.00000000000E+00  0.00000000000E+00 -0.15264463778E+04  0.15264463811E+04  0.10100000352E+00 0. -1.
    10030    2    1    2    0    0  0.00000000000E+00  0.00000000000E+00 -0.49984619167E+03  0.25530465722E+04  0.25036374707E+04 0.  0.
        2    1    3    3  502    0 -0.10952548891E+03 -0.93367148874E+03  0.59301712211E+03  0.11114889063E+04  0.25500000920E-02 0.  1.
       -2    1    3    3    0  502  0.10952548891E+03  0.93367148874E+03 -0.10928633138E+04  0.14415576659E+04  0.25500000920E-02 0. -1.
</event>
<event>
 5   0  0.3814260E-06  0.2500219E+04  0.7818609E-02  0.8402907E-01
        2   -1    0    0  501    0  0.00000000000E+00  0.00000000000E+00  0.11971997523E+04  0.11971997523E+04  0.25500000920E-02 0. -1.
       -2   -1    0    0    0  501  0.00000000000E+00  0.00000000000E+00 -0.13053577594E+04  0.13053577595E+04  0.25500000920E-02 0.  1.
    10030    2    1    2    0    0  0.00000000000E+00  0.00000000000E+00 -0.10815800711E+03  0.25025575118E+04  0.25002191795E+04 0.  0.
        5    1    3    3  502    0 -0.98177972458E+03 -0.74834886023E+03 -0.25132789717E+03  0.12598036538E+04  0.46999998093E+01 0.  1.
       -5    1    3    3    0  502  0.98177972458E+03  0.74834886023E+03  0.14316989006E+03  0.12427538580E+04  0.46999998093E+01 0. -1.
</event>
<event>
 5   0  0.3924441E-06  0.2507187E+04  0.7818609E-02  0.8400430E-01
       -2   -1    0    0    0  501  0.00000000000E+00  0.00000000000E+00  0.65222936262E+03  0.65222936262E+03  0.25500000920E-02 0.  1.
        2   -1    0    0  501    0  0.00000000000E+00  0.00000000000E+00 -0.24094228266E+04  0.24094228266E+04  0.25500000920E-02 0. -1.
    10030    2    1    2    0    0  0.00000000000E+00  0.00000000000E+00 -0.17571934640E+04  0.30616521892E+04  0.25071867218E+04 0.  0.
        2    1    3    3  502    0 -0.69346719831E+03 -0.10171048965E+04 -0.11678243245E+04  0.16968243216E+04  0.25500000920E-02 0. -1.
       -2    1    3    3    0  502  0.69346719831E+03  0.10171048965E+04 -0.58936913950E+03  0.13648278676E+04  0.25500000920E-02 0.  1.
</event>
<event>
 5   0  0.3713394E-06  0.2503424E+04  0.7818609E-02  0.8401767E-01
       -2   -1    0    0    0  501  0.00000000000E+00  0.00000000000E+00  0.14218218601E+04  0.14218218601E+04  0.25500000920E-02 0.  1.
        2   -1    0    0  501    0  0.00000000000E+00  0.00000000000E+00 -0.11019541165E+04  0.11019541165E+04  0.25500000920E-02 0. -1.
    10030    2    1    2    0    0  0.00000000000E+00  0.00000000000E+00  0.31986774363E+03  0.25237759766E+04  0.25034236171E+04 0.  0.
        3    1    3    3  502    0 -0.33482092041E+03  0.11884821962E+04 -0.47131824338E+02  0.12356441229E+04  0.10100000352E+00 0. -1.
       -3    1    3    3    0  502  0.33482092041E+03 -0.11884821962E+04  0.36699956796E+03  0.12881318537E+04  0.10100000352E+00 0.  1.
</event>
<event>
 5   0  0.1553604E-06  0.2503127E+04  0.7818609E-02  0.8401872E-01
        1   -1    0    0  501    0  0.00000000000E+00  0.00000000000E+00  0.18714482329E+04  0.18714482329E+04  0.50400001928E-02 0.  1.
       -1   -1    0    0    0  501  0.00000000000E+00  0.00000000000E+00 -0.83700508655E+03  0.83700508656E+03  0.50400001928E-02 0. -1.
    10030    2    1    2    0    0  0.00000000000E+00  0.00000000000E+00  0.10344431463E+04  0.27084533195E+04  0.25031273960E+04 0.  0.
        1    1    3    3  502    0  0.67811367304E+03 -0.74162192467E+02  0.16526154761E+04  0.17878691497E+04  0.50400001928E-02 0.  1.
       -1    1    3    3    0  502 -0.67811367304E+03  0.74162192467E+02 -0.61817232978E+03  0.92058416980E+03  0.50400001928E-02 0. -1.
</event>
<event>
 5   0  0.3713394E-06  0.2497351E+04  0.7818609E-02  0.8403930E-01
        2   -1    0    0  501    0  0.00000000000E+00  0.00000000000E+00  0.20830730973E+04  0.20830730973E+04  0.25500000920E-02 0. -1.
       -2   -1    0    0    0  501  0.00000000000E+00  0.00000000000E+00 -0.74850503120E+03  0.74850503121E+03  0.25500000920E-02 0.  1.
    10030    2    1    2    0    0  0.00000000000E+00  0.00000000000E+00  0.13345680661E+04  0.28315781285E+04  0.24973511517E+04 0.  0.
        3    1    3    3  502    0  0.99803907636E+03 -0.33051209385E+03 -0.96577933218E+02  0.10557687008E+04  0.10100000352E+00 0.  1.
       -3    1    3    3    0  502 -0.99803907636E+03  0.33051209385E+03  0.14311459993E+04  0.17758094277E+04  0.10100000352E+00 0. -1.
</event>
<event>
 5   0  0.3814260E-06  0.2499478E+04  0.7818609E-02  0.8403171E-01
        2   -1    0    0  501    0  0.00000000000E+00  0.00000000000E+00  0.70038876840E+03  0.70038876841E+03  0.25500000920E-02 0.  1.
       -2   -1    0    0    0  501  0.00000000000E+00  0.00000000000E+00 -0.22299726467E+04  0.22299726467E+04  0.25500000920E-02 0. -1.
    10030    2    1    2    0    0  0.00000000000E+00  0.00000000000E+00 -0.15295838783E+04  0.29303614152E+04  0.24994781821E+04 0.  0.
        5    1    3    3  502    0 -0.18458896643E+03 -0.10433738459E+04 -0.15416921591E+04  0.18707054477E+04  0.46999998093E+01 0. -1.
       -5    1    3    3    0  502  0.18458896643E+03  0.10433738459E+04  0.12108280709E+02  0.10596559674E+04  0.46999998093E+01 0.  1.
</event>
<event>
 5   0  0.1553604E-06  0.2491740E+04  0.7818609E-02  0.8405934E-01
        1   -1    0    0  501    0  0.00000000000E+00  0.00000000000E+00  0.76221314664E+03  0.76221314665E+03  0.50400001928E-02 0. -1.
       -1   -1    0    0    0  501  0.00000000000E+00  0.00000000000E+00 -0.20364275866E+04  0.20364275866E+04  0.50400001928E-02 0.  1.
    10030    2    1    2    0    0  0.00000000000E+00  0.00000000000E+00 -0.12742144400E+04  0.27986407333E+04  0.24917398570E+04 0.  0.
        1    1    3    3  502    0 -0.45999229593E+03 -0.63670768900E+03  0.44906134953E+03  0.90479041176E+03  0.50400001928E-02 0. -1.
       -1    1    3    3    0  502  0.45999229593E+03  0.63670768900E+03 -0.17232757895E+04  0.18938503215E+04  0.50400001928E-02 0.  1.
</event>
<event>
 5   0  0.1501747E-06  0.2496875E+04  0.7818609E-02  0.8404100E-01
       -1   -1    0    0    0  501  0.00000000000E+00  0.00000000000E+00  0.98210419102E+03  0.98210419103E+03  0.50400001928E-02 0.  1.
        1   -1    0    0  501    0  0.00000000000E+00  0.00000000000E+00 -0.15869963630E+04  0.15869963630E+04  0.50400001928E-02 0. -1.
    10030    2    1    2    0    0  0.00000000000E+00  0.00000000000E+00 -0.60489217195E+03  0.25691005540E+04  0.24968746698E+04 0.  0.
        2    1    3    3  502    0 -0.90640020739E+03  0.25866049204E+03 -0.11447399328E+04  0.14828675261E+04  0.25500000920E-02 0. -1.
       -2    1    3    3    0  502  0.90640020739E+03 -0.25866049204E+03  0.53984776084E+03  0.10862330279E+04  0.25500000920E-02 0.  1.
</event>
<event>
 5   0  0.3971759E-06  0.2497568E+04  0.7818609E-02  0.8403852E-01
        2   -1    0    0  501    0  0.00000000000E+00  0.00000000000E+00  0.14487301733E+04  0.14487301733E+04  0.25500000920E-02 0.  1.
       -2   -1    0    0    0  501  0.00000000000E+00  0.00000000000E+00 -0.10764336476E+04  0.10764336476E+04  0.25500000920E-02 0. -1.
    10030    2    1    2    0    0  0.00000000000E+00  0.00000000000E+00  0.37229652577E+03  0.25251638209E+04  0.24975683413E+04 0.  0.
        4    1    3    3  502    0  0.12124669157E+04 -0.26682036989E+03  0.32251309415E+03  0.12826868052E+04  0.12699999809E+01 0. -1.
       -4    1    3    3    0  502 -0.12124669157E+04  0.26682036989E+03  0.49783431617E+02  0.12424770157E+04  0.12699999809E+01 0.  1.
</event>
<event>
 5   0  0.3971759E-06  0.2519332E+04  0.7818609E-02  0.8396131E-01
       -2   -1    0    0    0  501  0.00000000000E+00  0.00000000000E+00  0.11063113504E+04  0.11063113504E+04  0.25500000920E-02 0.  1.
        2   -1    0    0  501    0  0.00000000000E+00  0.00000000000E+00 -0.14342782510E+04  0.14342782510E+04  0.25500000920E-02 0. -1.
    10030    2    1    2    0    0  0.00000000000E+00  0.00000000000E+00 -0.32796690056E+03  0.25405896014E+04  0.25193319025E+04 0.  0.
        4    1    3    3  502    0  0.27771229256E+03  0.15891324478E+03 -0.13926146910E+04  0.14288998661E+04  0.12699999809E+01 0. -1.
       -4    1    3    3    0  502 -0.27771229256E+03 -0.15891324478E+03  0.10646477905E+04  0.11116897353E+04  0.12699999809E+01 0.  1.
</event>
<event>
 5   0  0.3924441E-06  0.2506950E+04  0.7818609E-02  0.8400514E-01
        2   -1    0    0  501    0  0.00000000000E+00  0.00000000000E+00  0.13703256539E+04  0.13703256539E+04  0.25500000920E-02 0.  1.
       -2   -1    0    0    0  501  0.00000000000E+00  0.00000000000E+00 -0.11465884054E+04  0.11465884054E+04  0.25500000920E-02 0. -1.
    10030    2    1    2    0    0  0.00000000000E+00  0.00000000000E+00  0.22373724852E+03  0.25169140593E+04  0.25069499447E+04 0.  0.
        2    1    3    3  502    0  0.58594420111E+03  0.12355454726E+03 -0.99369075726E+03  0.11601800093E+04  0.25500000920E-02 0. -1.
       -2    1    3    3    0  502 -0.58594420111E+03 -0.12355454726E+03  0.12174280058E+04  0.13567340499E+04  0.25500000920E-02 0.  1.
</event>
<event>
 5   0  0.3808293E-06  0.2501929E+04  0.7818609E-02  0.8402299E-01
        2   -1    0    0  501    0  0.00000000000E+00  0.00000000000E+00  0.15837423823E+04  0.15837423823E+04  0.25500000920E-02 0.  1.
       -2   -1    0    0    0  501  0.00000000000E+00  0.00000000000E+00 -0.98810999094E+03  0.98810999094E+03  0.25500000920E-02 0. -1.
    10030    2    1    2    0    0  0.00000000000E+00  0.00000000000E+00  0.59563239137E+03  0.25718523733E+04  0.25019285929E+04 0.  0.
        1    1    3    3  502    0 -0.19530443634E+03 -0.51468650843E+03  0.14525388444E+04  0.15533560826E+04  0.50400001928E-02 0.  1.
       -1    1    3    3    0  502  0.19530443634E+03  0.51468650843E+03 -0.85690645304E+03  0.10184962907E+04  0.50400001928E-02 0. -1.
</event>
<event>
 5   0  0.3971759E-06  0.2493563E+04  0.7818609E-02  0.8405282E-01
        2   -1    0    0  501    0  0.00000000000E+00  0.00000000000E+00  0.23871633547E+04  0.23871633547E+04  0.25500000920E-02 0.  1.
       -2   -1    0    0    0  501  0.00000000000E+00  0.00000000000E+00 -0.65117616967E+03  0.65117616967E+03  0.25500000920E-02 0. -1.
    10030    2    1    2    0    0  0.00000000000E+00  0.00000000000E+00  0.17359871851E+04  0.30383395244E+04  0.24935628243E+04 0.  0.
        4    1    3    3  502    0  0.11067962524E+04  0.31730020519E+03  0.28517999077E+03  0.11861730922E+04  0.12699999809E+01 0. -1.
       -4    1    3    3    0  502 -0.11067962524E+04 -0.31730020519E+03  0.14508071943E+04  0.18521664322E+04  0.12699999809E+01 0.  1.
</event>
<event>
 5   0  0.3814260E-06  0.2499527E+04  0.7818609E-02  0.8403154E-01
        2   -1    0    0  501    0  0.00000000000E+00  0.00000000000E+00  0.67361353754E+03  0.67361353754E+03  0.25500000920E-02 0. -1.
       -2   -1    0    0    0  501  0.00000000000E+00  0.00000000000E+00 -0.23187024791E+04  0.23187024791E+04  0.25500000920E-02 0.  1.
    10030    2    1    2    0    0  0.00000000000E+00  0.00000000000E+00 -0.16450889416E+04  0.29923160166E+04  0.24995274589E+04 0.  0.
        5    1    3    3  502    0  0.42044741094E+03 -0.66521331223E+00  0.58639328181E+03  0.72156471562E+03  0.46999998093E+01 0. -1.
       -5    1    3    3    0  502 -0.42044741094E+03  0.66521331223E+00 -0.22314822234E+04  0.22707513010E+04  0.46999998093E+01 0.  1.
</event>
<event>
 5   0  0.1574896E-06  0.2500888E+04  0.7818609E-02  0.8402669E-01
       -1   -1    0    0    0  501  0.00000000000E+00  0.00000000000E+00  0.87369711901E+03  0.87369711902E+03  0.50400001928E-02 0.  1.
        1   -1    0    0  501    0  0.00000000000E+00  0.00000000000E+00 -0.17896476608E+04  0.17896476608E+04  0.50400001928E-02 0. -1.
    10030    2    1    2    0    0  0.00000000000E+00  0.00000000000E+00 -0.91595054178E+03  0.26633447798E+04  0.25008878466E+04 0.  0.
        3    1    3    3  502    0 -0.26003066773E+03 -0.73829749913E+02  0.84221065623E+03  0.88452562416E+03  0.10100000352E+00 0.  1.
       -3    1    3    3    0  502  0.26003066773E+03  0.73829749913E+02 -0.17581611980E+04  0.17788191557E+04  0.10100000352E+00 0. -1.
</event>
<event>
 5   0  0.1574896E-06  0.2499495E+04  0.7818609E-02  0.8403166E-01
       -1   -1    0    0    0  501  0.00000000000E+00  0.00000000000E+00  0.13007153802E+04  0.13007153802E+04  0.50400001928E-02 0.  1.
        1   -1    0    0  501    0  0.00000000000E+00  0.00000000000E+00 -0.12007763901E+04  0.12007763901E+04  0.50400001928E-02 0. -1.
    10030    2    1    2    0    0  0.00000000000E+00  0.00000000000E+00  0.99938990071E+02  0.25014917703E+04  0.24994946040E+04 0.  0.
        3    1    3    3  502    0 -0.11547588699E+04 -0.15718032865E+03 -0.40171651405E+03  0.12327002357E+04  0.10100000352E+00 0. -1.
       -3    1    3    3    0  502  0.11547588699E+04  0.15718032865E+03  0.50165550412E+03  0.12687915346E+04  0.10100000352E+00 0.  1.
</event>
<event>
 5   0  0.1519145E-06  0.2500481E+04  0.7818609E-02  0.8402814E-01
        1   -1    0    0  501    0  0.00000000000E+00  0.00000000000E+00  0.14335253868E+04  0.14335253868E+04  0.50400001928E-02 0.  1.
       -1   -1    0    0    0  501  0.00000000000E+00  0.00000000000E+00 -0.10903892693E+04  0.10903892694E+04  0.50400001928E-02 0. -1.
    10030    2    1    2    0    0  0.00000000000E+00  0.00000000000E+00  0.34313611749E+03  0.25239146562E+04  0.25004805132E+04 0.  0.
        4    1    3    3  502    0 -0.13219528288E+03 -0.57137727478E+03 -0.94293183263E+03  0.11104366874E+04  0.12699999809E+01 0. -1.
       -4    1    3    3    0  502  0.13219528288E+03  0.57137727478E+03  0.12860679501E+04  0.14134779688E+04  0.12699999809E+01 0.  1.
</event>
<event>
 5   0  0.1553604E-06  0.2499684E+04  0.7818609E-02  0.8403098E-01
       -1   -1    0    0    0  501  0.00000000000E+00  0.00000000000E+00  0.12949976012E+04  0.12949976012E+04  0.50400001928E-02 0. -1.
        1   -1    0    0  501    0  0.00000000000E+00  0.00000000000E+00 -0.12062608883E+04  0.12062608884E+04  0.50400001928E-02 0.  1.
    10030    2    1    2    0    0  0.00000000000E+00  0.00000000000E+00  0.88736712832E+02  0.25012584896E+04  0.24996839455E+04 0.  0.
        1    1    3    3  502    0  0.12510652254E+03 -0.10614808899E+04 -0.60389127692E+03  0.12276310504E+04  0.50400001928E-02 0.  1.
       -1    1    3    3    0  502 -0.12510652254E+03  0.10614808899E+04  0.69262798975E+03  0.12736274392E+04  0.50400001928E-02 0. -1.
</event>
<event>
 5   0  0.3808293E-06  0.2499314E+04  0.7818609E-02  0.8403230E-01
       -2   -1    0    0    0  501  0.00000000000E+00  0.00000000000E+00  0.69559886234E+03  0.69559886234E+03  0.25500000920E-02 0. -1.
        2   -1    0    0  501    0  0.00000000000E+00  0.00000000000E+00 -0.22450337083E+04  0.22450337083E+04  0.25500000920E-02 0.  1.
    10030    2    1    2    0    0  0.00000000000E+00  0.00000000000E+00 -0.15494348460E+04  0.29406325707E+04  0.24993142207E+04 0.  0.
        1    1    3    3  502    0 -0.49691456924E+03 -0.16725012285E+03 -0.21093642252E+04  0.21735487405E+04  0.50400001928E-02 0.  1.
       -1    1    3    3    0  502  0.49691456924E+03  0.16725012285E+03  0.55992937924E+03  0.76708383015E+03  0.50400001928E-02 0. -1.
</event>
<event>
 5   0  0.3971759E-06  0.2503403E+04  0.7818609E-02  0.8401774E-01
        2   -1    0    0  501    0  0.00000000000E+00  0.00000000000E+00  0.16735904043E+04  0.16735904043E+04  0.25500000920E-02 0. -1.
       -2   -1    0    0    0  501  0.00000000000E+00  0.00000000000E+00 -0.93616490655E+03  0.93616490656E+03  0.25500000920E-02 0.  1.
    10030    2    1    2    0    0  0.00000000000E+00  0.00000000000E+00  0.73742549772E+03  0.26097553108E+04  0.25034029675E+04 0.  0.
        4    1    3    3  502    0 -0.11571747356E+04 -0.86052401772E+02 -0.12058467748E+03  0.11666193303E+04  0.12699999809E+01 0.  1.
       -4    1    3    3    0  502  0.11571747356E+04  0.86052401772E+02  0.85801017520E+03  0.14431359805E+04  0.12699999809E+01 0. -1.
</event>
<event>
 5   0  0.3924441E-06  0.2486472E+04  0.7818609E-02  0.8407821E-01
       -2   -1    0    0    0  501  0.00000000000E+00  0.00000000000E+00  0.15394235073E+04  0.15394235073E+04  0.25500000920E-02 0.  1.
        2   -1    0    0  501    0  0.00000000000E+00  0.00000000000E+00 -0.10040351002E+04  0.10040351002E+04  0.25500000920E-02 0. -1.
    10030    2    1    2    0    0  0.00000000000E+00  0.00000000000E+00  0.53538840716E+03  0.25434586075E+04  0.24864715847E+04 0.  0.
        2    1    3    3  502    0 -0.38152941593E+03 -0.96774220432E+03 -0.42875170194E+03  0.11251300774E+04  0.25500000920E-02 0.  1.
       -2    1    3    3    0  502  0.38152941593E+03  0.96774220432E+03  0.96414010911E+03  0.14183285301E+04  0.25500000920E-02 0. -1.
</event>
<event>
 5   0  0.1541852E-06  0.2499050E+04  0.7818609E-02  0.8403324E-01
        1   -1    0    0  501    0  0.00000000000E+00  0.00000000000E+00  0.12085797331E+04  0.12085797331E+04  0.50400001928E-02 0.  1.
       -1   -1    0    0    0  501  0.00000000000E+00  0.00000000000E+00 -0.12918577115E+04  0.12918577115E+04  0.50400001928E-02 0. -1.
    10030    2    1    2    0    0  0.00000000000E+00  0.00000000000E+00 -0.83277978418E+02  0.25004374445E+04  0.24990502581E+04 0.  0.
        5    1    3    3  502    0 -0.46543824698E+03  0.11064427402E+04 -0.38888012745E+03  0.12617837147E+04  0.46999998093E+01 0. -1.
       -5    1    3    3    0  502  0.46543824698E+03 -0.11064427402E+04  0.30560214903E+03  0.12386537299E+04  0.46999998093E+01 0.  1.
</event>
<event>
 5   0  0.1574896E-06  0.2500881E+04  0.7818609E-02  0.8402672E-01
        1   -1    0    0  501    0  0.00000000000E+00  0.00000000000E+00  0.18663772978E+04  0.18663772978E+04  0.50400001928E-02 0. -1.
       -1   -1    0    0    0  501  0.00000000000E+00  0.00000000000E+00 -0.83777354578E+03  0.83777354580E+03  0.50400001928E-02 0.  1.
    10030    2    1    2    0    0  0.00000000000E+00  0.00000000000E+00  0.10286037520E+04  0.27041508436E+04  0.25008810660E+04 0.  0.
        3    1    3    3  502    0 -0.66745851781E+03 -0.60701018645E+03 -0.42188821884E+03  0.99596783023E+03  0.10100000352E+00 0.  1.
       -3    1    3    3    0  502  0.66745851781E+03  0.60701018645E+03  0.14504919708E+04  0.17081830133E+04  0.10100000352E+00 0. -1.
</event>
<event>
 5   0  0.3808293E-06  0.2498436E+04  0.7818609E-02  0.8403543E-01
       -2   -1    0    0    0  501  0.00000000000E+00  0.00000000000E+00  0.80494728766E+03  0.80494728766E+03  0.25500000920E-02 0. -1.
        2   -1    0    0  501    0  0.00000000000E+00  0.00000000000E+00 -0.19386922970E+04  0.19386922970E+04  0.25500000920E-02 0.  1.
    10030    2    1    2    0    0  0.00000000000E+00  0.00000000000E+00 -0.11337450094E+04  0.27436395847E+04  0.24984355954E+04 0.  0.
        1    1    3    3  502    0  0.73929904558E+03 -0.80416152368E+02 -0.16691342112E+04  0.18273037108E+04  0.50400001928E-02 0.  1.
       -1    1    3    3    0  502 -0.73929904558E+03  0.80416152368E+02  0.53538920183E+03  0.91633587392E+03  0.50400001928E-02 0. -1.
</event>
<event>
 5   0  0.1519145E-06  0.2537381E+04  0.7818609E-02  0.8389788E-01
       -1   -1    0    0    0  501  0.00000000000E+00  0.00000000000E+00  0.94866619682E+03  0.94866619683E+03  0.50400001928E-02 0.  1.
        1   -1    0    0  501    0  0.00000000000E+00  0.00000000000E+00 -0.16966725661E+04  0.16966725661E+04  0.50400001928E-02 0. -1.
    10030    2    1    2    0    0  0.00000000000E+00  0.00000000000E+00 -0.74800636928E+03  0.26453387629E+04  0.25373812568E+04 0.  0.
        4    1    3    3  502    0  0.81322751378E+02 -0.27904039447E+03  0.91348826595E+03  0.95861324660E+03  0.12699999809E+01 0.  1.
       -4    1    3    3    0  502 -0.81322751378E+02  0.27904039447E+03 -0.16614946352E+04  0.16867255163E+04  0.12699999809E+01 0. -1.
</event>
<event>
 5   0  0.1574896E-06  0.2505874E+04  0.7818609E-02  0.8400896E-01
       -1   -1    0    0    0  501  0.00000000000E+00  0.00000000000E+00  0.95848029469E+03  0.95848029471E+03  0.50400001928E-02 0.  1.
        1   -1    0    0  501    0  0.00000000000E+00  0.00000000000E+00 -0.16378538410E+04  0.16378538410E+04  0.50400001928E-02 0. -1.
    10030    2    1    2    0    0  0.00000000000E+00  0.00000000000E+00 -0.67937354631E+03  0.25963341357E+04  0.25058736059E+04 0.  0.
        3    1    3    3  502    0  0.34686907001E+03  0.28296006522E+03 -0.15521736873E+04  0.16154342190E+04  0.10100000352E+00 0. -1.
       -3    1    3    3    0  502 -0.34686907001E+03 -0.28296006522E+03  0.87280014100E+03  0.98089991669E+03  0.10100000352E+00 0.  1.
</event>
<event>
 5   0  0.1553604E-06  0.2517758E+04  0.7818609E-02  0.8396686E-01
        1   -1    0    0  501    0  0.00000000000E+00  0.00000000000E+00  0.54508912831E+03  0.54508912833E+03  0.50400001928E-02 0.  1.
       -1   -1    0    0    0  501  0.00000000000E+00  0.00000000000E+00 -0.29073703624E+04  0.29073703624E+04  0.50400001928E-02 0. -1.
    10030    2    1    2    0    0  0.00000000000E+00  0.00000000000E+00 -0.23622812341E+04  0.34524594908E+04  0.25177577140E+04 0.  0.
        1    1    3    3  502    0 -0.11644387165E+04 -0.45455521016E+03 -0.13856261779E+04  0.18661451895E+04  0.50400001928E-02 0. -1.
       -1    1    3    3    0  502  0.11644387165E+04  0.45455521016E+03 -0.97665505626E+03  0.15863143013E+04  0.50400001928E-02 0.  1.
</event>
<event>
 5   0  0.1541852E-06  0.2501916E+04  0.7818609E-02  0.8402303E-01
        1   -1    0    0  501    0  0.00000000000E+00  0.00000000000E+00  0.73694103192E+03  0.73694103193E+03  0.50400001928E-02 0. -1.
       -1   -1    0    0    0  501  0.00000000000E+00  0.00000000000E+00 -0.21235019242E+04  0.21235019242E+04  0.50400001928E-02 0.  1.
    10030    2    1    2    0    0  0.00000000000E+00  0.00000000000E+00 -0.13865608923E+04  0.28604429562E+04  0.25019158254E+04 0.  0.
        5    1    3    3  502    0  0.55008856157E+03  0.82834005282E+03 -0.15610820392E+04  0.18508765198E+04  0.46999998093E+01 0. -1.
       -5    1    3    3    0  502 -0.55008856157E+03 -0.82834005282E+03  0.17452114685E+03  0.10095664363E+04  0.46999998093E+01 0.  1.
</event>
<event>
 5   0  0.1574896E-06  0.2492582E+04  0.7818609E-02  0.8405633E-01
        1   -1    0    0  501    0  0.00000000000E+00  0.00000000000E+00  0.12705634429E+04  0.12705634429E+04  0.50400001928E-02 0. -1.
       -1   -1    0    0    0  501  0.00000000000E+00  0.00000000000E+00 -0.12224823616E+04  0.12224823616E+04  0.50400001928E-02 0.  1.
    10030    2    1    2    0    0  0.00000000000E+00  0.00000000000E+00  0.48081081294E+02  0.24930458045E+04  0.24925821135E+04 0.  0.
        3    1    3    3  502    0  0.99887224855E+03  0.64269409795E+03 -0.35344179825E+03  0.12392427476E+04  0.10100000352E+00 0.  1.
       -3    1    3    3    0  502 -0.99887224855E+03 -0.64269409795E+03  0.40152287954E+03  0.12538030569E+04  0.10100000352E+00 0. -1.
</event>
<event>
 5   0  0.3971759E-06  0.2506792E+04  0.7818609E-02  0.8400570E-01
       -2   -1    0    0    0  501  0.00000000000E+00  0.00000000000E+00  0.11579259287E+04  0.11579259287E+04  0.25500000920E-02 0. -1.
        2   -1    0    0  501    0  0.00000000000E+00  0.00000000000E+00 -0.13567377330E+04  0.13567377330E+04  0.25500000920E-02 0.  1.
    10030    2    1    2    0    0  0.00000000000E+00  0.00000000000E+00 -0.19881180427E+03  0.25146636616E+04  0.25067922127E+04 0.  0.
        4    1    3    3  502    0  0.83127756884E+03 -0.33649966115E+03  0.77898385523E+03  0.11878854650E+04  0.12699999809E+01 0. -1.
       -4    1    3    3    0  502 -0.83127756884E+03  0.33649966115E+03 -0.97779565950E+03  0.13267781966E+04  0.12699999809E+01 0.  1.
</event>
<event>
 5   0  0.3808293E-06  0.2501691E+04  0.7818609E-02  0.8402383E-01
       -2   -1    0    0    0  501  0.00000000000E+00  0.00000000000E+00  0.83935000406E+03  0.83935000406E+03  0.25500000920E-02 0. -1.
        2   -1    0    0  501    0  0.00000000000E+00  0.00000000000E+00 -0.18640791292E+04  0.18640791292E+04  0.25500000920E-02 0.  1.
    10030    2    1    2    0    0  0.00000000000E+00  0.00000000000E+00 -0.10247291251E+04  0.27034291333E+04  0.25016912876E+04 0.  0.
        1    1    3    3  502    0 -0.94905807995E+02 -0.42919643307E+03 -0.17778671884E+04  0.18314006744E+04  0.50400001928E-02 0.  1.
       -1    1    3    3    0  502  0.94905807995E+02  0.42919643307E+03  0.75313806331E+03  0.87202845882E+03  0.50400001928E-02 0. -1.
</event>
<event>
 5   0  0.1519145E-06  0.2500861E+04  0.7818609E-02  0.8402679E-01
       -1   -1    0    0    0  501  0.00000000000E+00  0.00000000000E+00  0.10479088457E+04  0.10479088457E+04  0.50400001928E-02 0. -1.
        1   -1    0    0  501    0  0.00000000000E+00  0.00000000000E+00 -0.14920918758E+04  0.14920918759E+04  0.50400001928E-02 0.  1.
    10030    2    1    2    0    0  0.00000000000E+00  0.00000000000E+00 -0.44418303019E+03  0.25400007215E+04  0.25008608720E+04 0.  0.
        4    1    3    3  502    0 -0.68481911161E+03  0.19314621664E+03 -0.12664311926E+04  0.14526294280E+04  0.12699999809E+01 0.  1.
       -4    1    3    3    0  502  0.68481911161E+03 -0.19314621664E+03  0.82224816236E+03  0.10873712935E+04  0.12699999809E+01 0. -1.
</event>
<event>
 5   0  0.3814260E-06  0.2509674E+04  0.7818609E-02  0.8399547E-01
       -2   -1    0    0    0  501  0.00000000000E+00  0.00000000000E+00  0.81387378770E+03  0.81387378770E+03  0.25500000920E-02 0. -1.
        2   -1    0    0  501    0  0.00000000000E+00  0.00000000000E+00 -0.19347176542E+04  0.19347176542E+04  0.25500000920E-02 0.  1.
    10030    2    1    2    0    0  0.00000000000E+00  0.00000000000E+00 -0.11208438665E+04  0.27485914419E+04  0.25096740707E+04 0.  0.
        5    1    3    3  502    0 -0.90283922437E+03  0.62721070383E+03 -0.12230686220E+04  0.16445153925E+04  0.46999998093E+01 0.  1.
       -5    1    3    3    0  502  0.90283922437E+03 -0.62721070383E+03  0.10222475558E+03  0.11040760493E+04  0.46999998093E+01 0. -1.
</event>
<event>
 5   0  0.1519145E-06  0.2500103E+04  0.7818609E-02  0.8402949E-01
       -1   -1    0    0    0  501  0.00000000000E+00  0.00000000000E+00  0.14410046733E+04  0.14410046733E+04  0.50400001928E-02 0.  1.
        1   -1    0    0  501    0  0.00000000000E+00  0.00000000000E+00 -0.10844022044E+04  0.10844022044E+04  0.50400001928E-02 0. -1.
    10030    2    1    2    0    0  0.00000000000E+00  0.00000000000E+00  0.35660246891E+03  0.25254068777E+04  0.25001029133E+04 0.  0.
        4    1    3    3  502    0 -0.20212090897E+03  0.40789319720E+02 -0.10671050073E+04  0.10868446715E+04  0.12699999809E+01 0. -1.
       -4    1    3    3    0  502  0.20212090897E+03 -0.40789319720E+02  0.14237074762E+04  0.14385622062E+04  0.12699999809E+01 0.  1.
</event>
<event>
 5   0  0.1553604E-06  0.2498000E+04  0.7818609E-02  0.8403698E-01
       -1   -1    0    0    0  501  0.00000000000E+00  0.00000000000E+00  0.11981681147E+04  0.11981681147E+04  0.50400001928E-02 0.  1.
        1   -1    0    0  501    0  0.00000000000E+00  0.00000000000E+00 -0.13019884289E+04  0.13019884289E+04  0.50400001928E-02 0. -1.
    10030    2    1    2    0    0  0.00000000000E+00  0.00000000000E+00 -0.10382031421E+03  0.25001565435E+04  0.24980000169E+04 0.  0.
        1    1    3    3  502    0  0.64957614327E+03  0.74899208779E+03 -0.81221239678E+03  0.12816502218E+04  0.50400001928E-02 0. -1.
       -1    1    3    3    0  502 -0.64957614327E+03 -0.74899208779E+03  0.70839208257E+03  0.12185063218E+04  0.50400001928E-02 0.  1.
</event>
<event>
 5   0  0.1553604E-06  0.2498608E+04  0.7818609E-02  0.8403481E-01
        1   -1    0    0  501    0  0.00000000000E+00  0.00000000000E+00  0.14805483614E+04  0.14805483614E+04  0.50400001928E-02 0. -1.
       -1   -1    0    0    0  501  0.00000000000E+00  0.00000000000E+00 -0.10541775763E+04  0.10541775763E+04  0.50400001928E-02 0.  1.
    10030    2    1    2    0    0  0.00000000000E+00  0.00000000000E+00  0.42637078508E+03  0.25347259377E+04  0.24986083192E+04 0.  0.
        1    1    3    3  502    0 -0.51668415114E+03 -0.10084876606E+04 -0.32049031474E+03  0.11775924233E+04  0.50400001928E-02 0.  1.
       -1    1    3    3    0  502  0.51668415114E+03  0.10084876606E+04  0.74686109983E+03  0.13571335144E+04  0.50400001928E-02 0. -1.
</event>
<event>
 5   0  0.1574896E-06  0.2504154E+04  0.7818609E-02  0.8401507E-01
        1   -1    0    0  501    0  0.00000000000E+00  0.00000000000E+00  0.15477988441E+04  0.15477988441E+04  0.50400001928E-02 0.  1.
       -1   -1    0    0    0  501  0.00000000000E+00  0.00000000000E+00 -0.10128559957E+04  0.10128559957E+04  0.50400001928E-02 0. -1.
    10030    2    1    2    0    0  0.00000000000E+00  0.00000000000E+00  0.53494284844E+03  0.25606548398E+04  0.25041544197E+04 0.  0.
        3    1    3    3  502    0  0.33499818001E+03 -0.67103597742E+03  0.12926812901E+04  0.14945025900E+04  0.10100000352E+00 0.  1.
       -3    1    3    3    0  502 -0.33499818001E+03  0.67103597742E+03 -0.75773844167E+03  0.10661522498E+04  0.10100000352E+00 0. -1.
</event>
<event>
 5   0  0.3814260E-06  0.2501209E+04  0.7818609E-02  0.8402555E-01
        2   -1    0    0  501    0  0.00000000000E+00  0.00000000000E+00  0.22003449450E+04  0.22003449450E+04  0.25500000920E-02 0.  1.
       -2   -1    0    0    0  501  0.00000000000E+00  0.00000000000E+00 -0.71080279568E+03  0.71080279569E+03  0.25500000920E-02 0. -1.
    10030    2    1    2    0    0  0.00000000000E+00  0.00000000000E+00  0.14895421493E+04  0.29111477407E+04  0.25012087785E+04 0.  0.
        5    1    3    3  502    0 -0.56528213922E+03  0.26075771705E+03  0.20071832671E+04  0.21015102288E+04  0.46999998093E+01 0.  1.
       -5    1    3    3    0  502  0.56528213922E+03 -0.26075771705E+03 -0.51764111777E+03  0.80963751193E+03  0.46999998093E+01 0. -1.
</event>
<event>
 5   0  0.3808293E-06  0.2499329E+04  0.7818609E-02  0.8403225E-01
       -2   -1    0    0    0  501  0.00000000000E+00  0.00000000000E+00  0.12202182876E+04  0.12202182876E+04  0.25500000920E-02 0.  1.
        2   -1    0    0  501    0  0.00000000000E+00  0.00000000000E+00 -0.12798215544E+04  0.12798215544E+04  0.25500000920E-02 0. -1.
    10030    2    1    2    0    0  0.00000000000E+00  0.00000000000E+00 -0.59603266795E+02  0.25000398420E+04  0.24993292424E+04 0.  0.
        1    1    3    3  502    0  0.42065570888E+03  0.30466629883E+02  0.11468755524E+04  0.12219668464E+04  0.50400001928E-02 0.  1.
       -1    1    3    3    0  502 -0.42065570888E+03 -0.30466629883E+02 -0.12064788192E+04  0.12780729956E+04  0.50400001928E-02 0. -1.
</event>
<event>
 5   0  0.1519145E-06  0.2496920E+04  0.7818609E-02  0.8404084E-01
        1   -1    0    0  501    0  0.00000000000E+00  0.00000000000E+00  0.99648246503E+03  0.99648246504E+03  0.50400001928E-02 0.  1.
       -1   -1    0    0    0  501  0.00000000000E+00  0.00000000000E+00 -0.15641545152E+04  0.15641545152E+04  0.50400001928E-02 0. -1.
    10030    2    1    2    0    0  0.00000000000E+00  0.00000000000E+00 -0.56767205015E+03  0.25606369802E+04  0.24969201405E+04 0.  0.
        4    1    3    3  502    0  0.44548263649E+03 -0.83475385857E+03  0.55143083668E+03  0.10951467319E+04  0.12699999809E+01 0.  1.
       -4    1    3    3    0  502 -0.44548263649E+03  0.83475385857E+03 -0.11191028868E+04  0.14654902484E+04  0.12699999809E+01 0. -1.
</event>
<event>
 5   0  0.1574896E-06  0.2489020E+04  0.7818609E-02  0.8406908E-01
        1   -1    0    0  501    0  0.00000000000E+00  0.00000000000E+00  0.18806937103E+04  0.18806937103E+04  0.50400001928E-02 0. -1.
       -1   -1    0    0    0  501  0.00000000000E+00  0.00000000000E+00 -0.82352865282E+03  0.82352865283E+03  0.50400001928E-02 0.  1.
    10030    2    1    2    0    0  0.00000000000E+00  0.00000000000E+00  0.10571650575E+04  0.27042223632E+04  0.24890200141E+04 0.  0.
        3    1    3    3  502    0 -0.76603600312E+02  0.64792891522E+03  0.16799874695E+04  0.18022313666E+04  0.10100000352E+00 0. -1.
       -3    1    3    3    0  502  0.76603600312E+02 -0.64792891522E+03 -0.62282241203E+03  0.90199099656E+03  0.10100000352E+00 0.  1.
</event>
<event>
 5   0  0.3814260E-06  0.2502047E+04  0.7818609E-02  0.8402257E-01
       -2   -1    0    0    0  501  0.00000000000E+00  0.00000000000E+00  0.13528846784E+04  0.13528846784E+04  0.25500000920E-02 0. -1.
        2   -1    0    0  501    0  0.00000000000E+00  0.00000000000E+00 -0.11568313752E+04  0.11568313752E+04  0.25500000920E-02 0.  1.
    10030    2    1    2    0    0  0.00000000000E+00  0.00000000000E+00  0.19605330321E+03  0.25097160535E+04  0.25020467165E+04 0.  0.
        5    1    3    3  502    0 -0.10750309898E+04  0.63980023392E+03  0.99206947685E+02  0.12549502288E+04  0.46999998093E+01 0. -1.
       -5    1    3    3    0  502  0.10750309898E+04 -0.63980023392E+03  0.96846355524E+02  0.12547658247E+04  0.46999998093E+01 0.  1.
</event>
<event>
 5   0  0.1574896E-06  0.2504838E+04  0.7818609E-02  0.8401264E-01
        1   -1    0    0  501    0  0.00000000000E+00  0.00000000000E+00  0.77743690970E+03  0.77743690972E+03  0.50400001928E-02 0. -1.
       -1   -1    0    0    0  501  0.00000000000E+00  0.00000000000E+00 -0.20175963206E+04  0.20175963206E+04  0.50400001928E-02 0.  1.
    10030    2    1    2    0    0  0.00000000000E+00  0.00000000000E+00 -0.12401594109E+04  0.27950332304E+04  0.25048383968E+04 0.  0.
        3    1    3    3  502    0 -0.30880478305E+03 -0.30896553671E+03  0.68967482980E+03  0.81637704400E+03  0.10100000352E+00 0. -1.
       -3    1    3    3    0  502  0.30880478305E+03  0.30896553671E+03 -0.19298342407E+04  0.19786561864E+04  0.10100000352E+00 0.  1.
</event>
<event>
 5   0  0.1574896E-06  0.2503804E+04  0.7818609E-02  0.8401632E-01
        1   -1    0    0  501    0  0.00000000000E+00  0.00000000000E+00  0.20910500454E+04  0.20910500454E+04  0.50400001928E-02 0.  1.
       -1   -1    0    0    0  501  0.00000000000E+00  0.00000000000E+00 -0.74950798695E+03  0.74950798696E+03  0.50400001928E-02 0. -1.
    10030    2    1    2    0    0  0.00000000000E+00  0.00000000000E+00  0.13415420584E+04  0.28405580323E+04  0.25038040739E+04 0.  0.
        3    1    3    3  502    0 -0.18370759461E+03 -0.70223352868E+01 -0.73411042332E+03  0.75677996626E+03  0.10100000352E+00 0. -1.
       -3    1    3    3    0  502  0.18370759461E+03  0.70223352868E+01  0.20756524817E+04  0.20837780661E+04  0.10100000352E+00 0.  1.
</event>
<event>
 5   0  0.3971759E-06  0.2435496E+04  0.7818609E-02  0.8426333E-01
        2   -1    0    0  501    0  0.00000000000E+00  0.00000000000E+00  0.14682917532E+04  0.14682917532E+04  0.25500000920E-02 0.  1.
       -2   -1    0    0    0  501  0.00000000000E+00  0.00000000000E+00 -0.10099560806E+04  0.10099560806E+04  0.25500000920E-02 0. -1.
    10030    2    1    2    0    0  0.00000000000E+00  0.00000000000E+00  0.45833567259E+03  0.24782478337E+04  0.24354959940E+04 0.  0.
        4    1    3    3  502    0 -0.20778383866E+03 -0.15820153477E+03 -0.98112517141E+03  0.10152881680E+04  0.12699999809E+01 0. -1.
       -4    1    3    3    0  502  0.20778383866E+03  0.15820153477E+03  0.14394608440E+04  0.14629596657E+04  0.12699999809E+01 0.  1.
</event>
<event>
 5   0  0.3924441E-06  0.2499964E+04  0.7818609E-02  0.8402998E-01
        2   -1    0    0  501    0  0.00000000000E+00  0.00000000000E+00  0.14612243177E+04  0.14612243177E+04  0.25500000920E-02 0. -1.
       -2   -1    0    0    0  501  0.00000000000E+00  0.00000000000E+00 -0.10692780252E+04  0.10692780252E+04  0.25500000920E-02 0.  1.
    10030    2    1    2    0    0  0.00000000000E+00  0.00000000000E+00  0.39194629254E+03  0.25305023429E+04  0.24999640420E+04 0.  0.
        2    1    3    3  502    0 -0.59166822105E+03  0.83802752367E+02  0.13072736869E+04  0.14373791001E+04  0.25500000920E-02 0. -1.
       -2    1    3    3    0  502  0.59166822105E+03 -0.83802752367E+02 -0.91532739434E+03  0.10931232428E+04  0.25500000920E-02 0.  1.
</event>
<event>
 5   0  0.1501747E-06  0.2497748E+04  0.7818609E-02  0.8403788E-01
       -1   -1    0    0    0  501  0.00000000000E+00  0.00000000000E+00  0.66881111729E+03  0.66881111731E+03  0.50400001928E-02 0. -1.
        1   -1    0    0  501    0  0.00000000000E+00  0.00000000000E+00 -0.23320272654E+04  0.23320272654E+04  0.50400001928E-02 0.  1.
    10030    2    1    2    0    0  0.00000000000E+00  0.00000000000E+00 -0.16632161481E+04  0.30008383827E+04  0.24977475941E+04 0.  0.
        2    1    3    3  502    0  0.47143042131E+03  0.98929255631E+03 -0.15511955058E+04  0.18992508790E+04  0.25500000920E-02 0.  1.
       -2    1    3    3    0  502 -0.47143042131E+03 -0.98929255631E+03 -0.11202064235E+03  0.11015875038E+04  0.25500000920E-02 0. -1.
</event>
<event>
 5   0  0.3924441E-06  0.2499420E+04  0.7818609E-02  0.8403192E-01
       -2   -1    0    0    0  501  0.00000000000E+00  0.00000000000E+00  0.66083457131E+03  0.66083457132E+03  0.25500000920E-02 0. -1.
        2   -1    0    0  501    0  0.00000000000E+00  0.00000000000E+00 -0.23633380146E+04  0.23633380146E+04  0.25500000920E-02 0.  1.
    10030    2    1    2    0    0  0.00000000000E+00  0.00000000000E+00 -0.17025034433E+04  0.30241725860E+04  0.24994203038E+04 0.  0.
        2    1    3    3  502    0  0.67804408958E+03  0.52335253228E+03 -0.19523283262E+04  0.21319539286E+04  0.25500000920E-02 0.  1.
       -2    1    3    3    0  502 -0.67804408958E+03 -0.52335253228E+03  0.24982488285E+03  0.89221865736E+03  0.25500000920E-02 0. -1.
</event>
<event>
 5   0  0.1501747E-06  0.2500369E+04  0.7818609E-02  0.8402854E-01
        1   -1    0    0  501    0  0.00000000000E+00  0.00000000000E+00  0.16480165932E+04  0.16480165932E+04  0.50400001928E-02 0. -1.
       -1   -1    0    0    0  501  0.00000000000E+00  0.00000000000E+00 -0.94838926937E+03  0.94838926938E+03  0.50400001928E-02 0.  1.
    10030    2    1    2    0    0  0.00000000000E+00  0.00000000000E+00  0.69962732379E+03  0.25964058625E+04  0.25003689749E+04 0.  0.
        2    1    3    3  502    0  0.18021146346E+03  0.11740399219E+04 -0.55186307318E+02  0.11890716708E+04  0.25500000920E-02 0. -1.
       -2    1    3    3    0  502 -0.18021146346E+03 -0.11740399219E+04  0.75481363111E+03  0.14073341918E+04  0.25500000920E-02 0.  1.
</event>
<event>
 5   0  0.1287375E-06  0.2492547E+04  0.7818609E-02  0.8405645E-01
        3   -1    0    0  501    0  0.00000000000E+00  0.00000000000E+00  0.14304143471E+04  0.14304143506E+04  0.10100000352E+00 0.  1.
       -3   -1    0    0    0  501  0.00000000000E+00  0.00000000000E+00 -0.10858379742E+04  0.10858379789E+04  0.10100000352E+00 0. -1.
    10030    2    1    2    0    0  0.00000000000E+00  0.00000000000E+00  0.34457637291E+03  0.25162523295E+04  0.24925474737E+04 0.  0.
        5    1    3    3  502    0 -0.22150437208E+03 -0.10443249828E+04 -0.47686483089E+03  0.11692309496E+04  0.46999998093E+01 0. -1.
       -5    1    3    3    0  502  0.22150437208E+03  0.10443249828E+04  0.82144120379E+03  0.13470213799E+04  0.46999998093E+01 0.  1.
</event>
<event>
 5   0  0.1553604E-06  0.2479080E+04  0.7818609E-02  0.8410476E-01
        1   -1    0    0  501    0  0.00000000000E+00  0.00000000000E+00  0.11816207845E+04  0.11816207845E+04  0.50400001928E-02 0. -1.
       -1   -1    0    0    0  501  0.00000000000E+00  0.00000000000E+00 -0.13002982064E+04  0.13002982064E+04  0.50400001928E-02 0.  1.
    10030    2    1    2    0    0  0.00000000000E+00  0.00000000000E+00 -0.11867742186E+03  0.24819189909E+04  0.24790799800E+04 0.  0.
        1    1    3    3  502    0 -0.67042776930E+03 -0.10335143380E+04  0.78055858861E+02  0.12343897269E+04  0.50400001928E-02 0.  1.
       -1    1    3    3    0  502  0.67042776930E+03  0.10335143380E+04 -0.19673328072E+03  0.12475292640E+04  0.50400001928E-02 0. -1.
</event>
<event>
 5   0  0.3924441E-06  0.2499566E+04  0.7818609E-02  0.8403140E-01
        2   -1    0    0  501    0  0.00000000000E+00  0.00000000000E+00  0.30156069330E+04  0.30156069330E+04  0.25500000920E-02 0.  1.
       -2   -1    0    0    0  501  0.00000000000E+00  0.00000000000E+00 -0.51795776947E+03  0.51795776948E+03  0.25500000920E-02 0. -1.
    10030    2    1    2    0    0  0.00000000000E+00  0.00000000000E+00  0.24976491635E+04  0.35335647025E+04  0.24995655948E+04 0.  0.
        2    1    3    3  502    0  0.87387718508E+03  0.77902199143E+03  0.18673288033E+04  0.22039631252E+04  0.25500000920E-02 0. -1.
       -2    1    3    3    0  502 -0.87387718508E+03 -0.77902199143E+03  0.63032036025E+03  0.13296015773E+04  0.25500000920E-02 0.  1.
</event>
<event>
 5   0  0.3971759E-06  0.2499744E+04  0.7818609E-02  0.8403077E-01
       -2   -1    0    0    0  501  0.00000000000E+00  0.00000000000E+00  0.12692861940E+04  0.12692861940E+04  0.25500000920E-02 0.  1.
        2   -1    0    0  501    0  0.00000000000E+00  0.00000000000E+00 -0.12307546185E+04  0.12307546185E+04  0.25500000920E-02 0. -1.
    10030    2    1    2    0    0  0.00000000000E+00  0.00000000000E+00  0.38531575514E+02  0.25000408125E+04  0.24997438632E+04 0.  0.
        4    1    3    3  502    0  0.27411818489E+03  0.11784250616E+04  0.33291399125E+03  0.12548544711E+04  0.12699999809E+01 0.  1.
       -4    1    3    3    0  502 -0.27411818489E+03 -0.11784250616E+04 -0.29438241574E+03  0.12451863414E+04  0.12699999809E+01 0. -1.
</event>
<event>
 5   0  0.3808293E-06  0.2501467E+04  0.7818609E-02  0.8402463E-01
       -2   -1    0    0    0  501  0.00000000000E+00  0.00000000000E+00  0.51589741719E+03  0.51589741719E+03  0.25500000920E-02 0. -1.
        2   -1    0    0  501    0  0.00000000000E+00  0.00000000000E+00 -0.30322579808E+04  0.30322579808E+04  0.25500000920E-02 0.  1.
    10030    2    1    2    0    0  0.00000000000E+00  0.00000000000E+00 -0.25163605636E+04  0.35481553980E+04  0.25014668181E+04 0.  0.
        1    1    3    3  502    0  0.15957910780E+03 -0.93639191456E+03 -0.10406393773E+03  0.95557553990E+03  0.50400001928E-02 0. -1.
       -1    1    3    3    0  502 -0.15957910780E+03  0.93639191456E+03 -0.24122966259E+04  0.25925798581E+04  0.50400001928E-02 0.  1.
</event>
<event>
 5   0  0.3808293E-06  0.2497721E+04  0.7818609E-02  0.8403798E-01
        2   -1    0    0  501    0  0.00000000000E+00  0.00000000000E+00  0.14299108588E+04  0.14299108588E+04  0.25500000920E-02 0. -1.
       -2   -1    0    0    0  501  0.00000000000E+00  0.00000000000E+00 -0.10907344859E+04  0.10907344859E+04  0.25500000920E-02 0.  1.
    10030    2    1    2    0    0  0.00000000000E+00  0.00000000000E+00  0.33917637288E+03  0.25206453447E+04  0.24977214300E+04 0.  0.
        1    1    3    3  502    0  0.56104800426E+03  0.90681908722E+03  0.82559837224E+03  0.13485949697E+04  0.50400001928E-02 0. -1.
       -1    1    3    3    0  502 -0.56104800426E+03 -0.90681908722E+03 -0.48642199936E+03  0.11720503750E+04  0.50400001928E-02 0.  1.
</event>
<event>
 5   0  0.1501747E-06  0.2500555E+04  0.7818609E-02  0.8402788E-01
        1   -1    0    0  501    0  0.00000000000E+00  0.00000000000E+00  0.21350791275E+04  0.21350791275E+04  0.50400001928E-02 0.  1.
       -1   -1    0    0    0  501  0.00000000000E+00  0.00000000000E+00 -0.73214776442E+03  0.73214776444E+03  0.50400001928E-02 0. -1.
    10030    2    1    2    0    0  0.00000000000E+00  0.00000000000E+00  0.14029313630E+04  0.28672268919E+04  0.25005546665E+04 0.  0.
        2    1    3    3  502    0 -0.92867201061E+03  0.77194269853E+03  0.33014988485E+03  0.12519289834E+04  0.25500000920E-02 0. -1.
       -2    1    3    3    0  502  0.92867201061E+03 -0.77194269853E+03  0.10727814782E+04  0.16152979085E+04  0.25500000920E-02 0.  1.
</event>
<event>
 5   0  0.1501747E-06  0.2495571E+04  0.7818609E-02  0.8404565E-01
        1   -1    0    0  501    0  0.00000000000E+00  0.00000000000E+00  0.16673548022E+04  0.16673548022E+04  0.50400001928E-02 0.  1.
       -1   -1    0    0    0  501  0.00000000000E+00  0.00000000000E+00 -0.93379563719E+03  0.93379563721E+03  0.50400001928E-02 0. -1.
    10030    2    1    2    0    0  0.00000000000E+00  0.00000000000E+00  0.73355916504E+03  0.26011504394E+04  0.24955709888E+04 0.  0.
        2    1    3    3  502    0  0.27476918953E+03 -0.38383819230E+03  0.15706951926E+04  0.16400955013E+04  0.25500000920E-02 0.  1.
       -2    1    3    3    0  502 -0.27476918953E+03  0.38383819230E+03 -0.83713602758E+03  0.96105493811E+03  0.25500000920E-02 0. -1.
</event>
<event>
 5   0  0.3808293E-06  0.2496909E+04  0.7818609E-02  0.8404088E-01
        2   -1    0    0  501    0  0.00000000000E+00  0.00000000000E+00  0.11817338527E+04  0.11817338527E+04  0.25500000920E-02 0.  1.
       -2   -1    0    0    0  501  0.00000000000E+00  0.00000000000E+00 -0.13189419393E+04  0.13189419393E+04  0.25500000920E-02 0. -1.
    10030    2    1    2    0    0  0.00000000000E+00  0.00000000000E+00 -0.13720808659E+03  0.25006757920E+04  0.24969087604E+04 0.  0.
        1    1    3    3  502    0  0.83716395414E+03 -0.67082932209E+03 -0.70814624536E+03  0.12854285551E+04  0.50400001928E-02 0. -1.
       -1    1    3    3    0  502 -0.83716395414E+03  0.67082932209E+03  0.57093815877E+03  0.12152472368E+04  0.50400001928E-02 0.  1.
</event>
<event>
 5   0  0.3814260E-06  0.2499103E+04  0.7818609E-02  0.8403305E-01
       -2   -1    0    0    0  501  0.00000000000E+00  0.00000000000E+00  0.15349418679E+04  0.15349418679E+04  0.25500000920E-02 0. -1.
        2   -1    0    0  501    0  0.00000000000E+00  0.00000000000E+00 -0.10172232745E+04  0.10172232745E+04  0.25500000920E-02 0.  1.
    10030    2    1    2    0    0  0.00000000000E+00  0.00000000000E+00  0.51771859342E+03  0.25521651423E+04  0.24991027133E+04 0.  0.
        5    1    3    3  502    0 -0.34434177204E+03 -0.29116234039E+03  0.14489391658E+04  0.15174958189E+04  0.46999998093E+01 0. -1.
       -5    1    3    3    0  502  0.34434177204E+03  0.29116234039E+03 -0.93122057234E+03  0.10346693234E+04  0.46999998093E+01 0.  1.
</event>
<event>
 5   0  0.3808293E-06  0.2497578E+04  0.7818609E-02  0.8403849E-01
       -2   -1    0    0    0  501  0.00000000000E+00  0.00000000000E+00  0.81206548684E+03  0.81206548685E+03  0.25500000920E-02 0.  1.
        2   -1    0    0  501    0  0.00000000000E+00  0.00000000000E+00 -0.19203799777E+04  0.19203799777E+04  0.25500000920E-02 0. -1.
    10030    2    1    2    0    0  0.00000000000E+00  0.00000000000E+00 -0.11083144909E+04  0.27324454646E+04  0.24975782683E+04 0.  0.
        1    1    3    3  502    0  0.33837287564E+03 -0.11318907139E+04 -0.99694066192E+03  0.15458212945E+04  0.50400001928E-02 0. -1.
       -1    1    3    3    0  502 -0.33837287564E+03  0.11318907139E+04 -0.11137382894E+03  0.11866241700E+04  0.50400001928E-02 0.  1.
</event>
<event>
 5   0  0.1553604E-06  0.2477531E+04  0.7818609E-02  0.8411034E-01
       -1   -1    0    0    0  501  0.00000000000E+00  0.00000000000E+00  0.13325645830E+04  0.13325645830E+04  0.50400001928E-02 0. -1.
        1   -1    0    0  501    0  0.00000000000E+00  0.00000000000E+00 -0.11515689491E+04  0.11515689491E+04  0.50400001928E-02 0.  1.
    10030    2    1    2    0    0  0.00000000000E+00  0.00000000000E+00  0.18099563390E+03  0.24841335321E+04  0.24775310262E+04 0.  0.
        1    1    3    3  502    0  0.11128256267E+04  0.24559764929E+03 -0.39643092626E+03  0.12065888115E+04  0.50400001928E-02 0. -1.
       -1    1    3    3    0  502 -0.11128256267E+04 -0.24559764929E+03  0.57742656016E+03  0.12775447206E+04  0.50400001928E-02 0.  1.
</event>
<event>
 5   0  0.3713394E-06  0.2507037E+04  0.7818609E-02  0.8400483E-01
       -2   -1    0    0    0  501  0.00000000000E+00  0.00000000000E+00  0.87874368289E+03  0.87874368290E+03  0.25500000920E-02 0. -1.
        2   -1    0    0  501    0  0.00000000000E+00  0.00000000000E+00 -0.17881304949E+04  0.17881304949E+04  0.25500000920E-02 0.  1.
    10030    2    1    2    0    0  0.00000000000E+00  0.00000000000E+00 -0.90938681199E+03  0.26668741778E+04  0.25070367980E+04 0.  0.
        3    1    3    3  502    0  0.33592900671E+03  0.11714725617E+04 -0.14253579853E+03  0.12269933677E+04  0.10100000352E+00 0.  1.
       -3    1    3    3    0  502 -0.33592900671E+03 -0.11714725617E+04 -0.76685101346E+03  0.14398808101E+04  0.10100000352E+00 0. -1.
</event>
<event>
 5   0  0.3808293E-06  0.2497828E+04  0.7818609E-02  0.8403760E-01
        2   -1    0    0  501    0  0.00000000000E+00  0.00000000000E+00  0.17202248428E+04  0.17202248428E+04  0.25500000920E-02 0. -1.
       -2   -1    0    0    0  501  0.00000000000E+00  0.00000000000E+00 -0.90673400892E+03  0.90673400893E+03  0.25500000920E-02 0.  1.
    10030    2    1    2    0    0  0.00000000000E+00  0.00000000000E+00  0.81349083385E+03  0.26269588517E+04  0.24978281510E+04 0.  0.
        1    1    3    3  502    0  0.68393617192E+03  0.59134126906E+03 -0.49938383732E+03  0.10328782120E+04  0.50400001928E-02 0.  1.
       -1    1    3    3    0  502 -0.68393617192E+03 -0.59134126906E+03  0.13128746712E+04  0.15940806397E+04  0.50400001928E-02 0. -1.
</event>
<event>
 5   0  0.1519145E-06  0.2500320E+04  0.7818609E-02  0.8402871E-01
        1   -1    0    0  501    0  0.00000000000E+00  0.00000000000E+00  0.13316539994E+04  0.13316539994E+04  0.50400001928E-02 0.  1.
       -1   -1    0    0    0  501  0.00000000000E+00  0.00000000000E+00 -0.11736536379E+04  0.11736536379E+04  0.50400001928E-02 0. -1.
    10030    2    1    2    0    0  0.00000000000E+00  0.00000000000E+00  0.15800036152E+03  0.25053076373E+04  0.25003204281E+04 0.  0.
        4    1    3    3  502    0  0.52055197060E+03 -0.37360041119E+03 -0.99661541959E+03  0.11848187747E+04  0.12699999809E+01 0. -1.
       -4    1    3    3    0  502 -0.52055197060E+03  0.37360041119E+03  0.11546157811E+04  0.13204888626E+04  0.12699999809E+01 0.  1.
</event>
<event>
 5   0  0.3713394E-06  0.2459947E+04  0.7818609E-02  0.8417395E-01
       -2   -1    0    0    0  501  0.00000000000E+00  0.00000000000E+00  0.76136762864E+03  0.76136762864E+03  0.25500000920E-02 0.  1.
        2   -1    0    0  501    0  0.00000000000E+00  0.00000000000E+00 -0.19869957214E+04  0.19869957214E+04  0.25500000920E-02 0. -1.
    10030    2    1    2    0    0  0.00000000000E+00  0.00000000000E+00 -0.12256280928E+04  0.27483633501E+04  0.24599465202E+04 0.  0.
        3    1    3    3  502    0  0.10540043319E+04  0.35807195737E+02 -0.13199754497E+04  0.16895391339E+04  0.10100000352E+00 0. -1.
       -3    1    3    3    0  502 -0.10540043319E+04 -0.35807195737E+02  0.94347356918E+02  0.10588242162E+04  0.10100000352E+00 0.  1.
</event>
<event>
 5   0  0.3808293E-06  0.2494998E+04  0.7818609E-02  0.8404770E-01
        2   -1    0    0  501    0  0.00000000000E+00  0.00000000000E+00  0.20333140139E+04  0.20333140139E+04  0.25500000920E-02 0. -1.
       -2   -1    0    0    0  501  0.00000000000E+00  0.00000000000E+00 -0.76537802970E+03  0.76537802971E+03  0.25500000920E-02 0.  1.
    10030    2    1    2    0    0  0.00000000000E+00  0.00000000000E+00  0.12679359842E+04  0.27986920436E+04  0.24949980952E+04 0.  0.
        1    1    3    3  502    0  0.49701165479E+02  0.11746257233E+04  0.11019261623E+04  0.16113525570E+04  0.50400001928E-02 0.  1.
       -1    1    3    3    0  502 -0.49701165479E+02 -0.11746257233E+04  0.16600982191E+03  0.11873394867E+04  0.50400001928E-02 0. -1.
</event>
<event>
 5   0  0.1501747E-06  0.2499320E+04  0.7818609E-02  0.8403228E-01
        1   -1    0    0  501    0  0.00000000000E+00  0.00000000000E+00  0.11279450611E+04  0.11279450611E+04  0.50400001928E-02 0. -1.
       -1   -1    0    0    0  501  0.00000000000E+00  0.00000000000E+00 -0.13845088429E+04  0.13845088430E+04  0.50400001928E-02 0.  1.
    10030    2    1    2    0    0  0.00000000000E+00  0.00000000000E+00 -0.25656378185E+03  0.25124539040E+04  0.24993198366E+04 0.  0.
        2    1    3    3  502    0  0.37734580210E+03 -0.11415265891E+04 -0.47092068954E+03  0.12912161337E+04  0.25500000920E-02 0.  1.
       -2    1    3    3    0  502 -0.37734580210E+03  0.11415265891E+04  0.21435690769E+03  0.12212377704E+04  0.25500000920E-02 0. -1.
</event>
<event>
 5   0  0.3814260E-06  0.2498057E+04  0.7818609E-02  0.8403678E-01
        2   -1    0    0  501    0  0.00000000000E+00  0.00000000000E+00  0.10129210247E+04  0.10129210247E+04  0.25500000920E-02 0.  1.
       -2   -1    0    0    0  501  0.00000000000E+00  0.00000000000E+00 -0.15401721023E+04  0.15401721023E+04  0.25500000920E-02 0. -1.
    10030    2    1    2    0    0  0.00000000000E+00  0.00000000000E+00 -0.52725107765E+03  0.25530931270E+04  0.24980574085E+04 0.  0.
        5    1    3    3  502    0  0.12519035754E+03 -0.63517728425E+03  0.82804935861E+03  0.10510997281E+04  0.46999998093E+01 0.  1.
       -5    1    3    3    0  502 -0.12519035754E+03  0.63517728425E+03 -0.13553004363E+04  0.15019933990E+04  0.46999998093E+01 0. -1.
</event>
<event>
 5   0  0.1553604E-06  0.2514196E+04  0.7818609E-02  0.8397945E-01
       -1   -1    0    0    0  501  0.00000000000E+00  0.00000000000E+00  0.14207985711E+04  0.14207985711E+04  0.50400001928E-02 0.  1.
        1   -1    0    0  501    0  0.00000000000E+00  0.00000000000E+00 -0.11122589214E+04  0.11122589214E+04  0.50400001928E-02 0. -1.
    10030    2    1    2    0    0  0.00000000000E+00  0.00000000000E+00  0.30853964974E+03  0.25330574925E+04  0.25141964014E+04 0.  0.
        1    1    3    3  502    0 -0.31915730064E+03 -0.96430145834E+03 -0.59193285923E+03  0.11756373569E+04  0.50400001928E-02 0. -1.
       -1    1    3    3    0  502  0.31915730064E+03  0.96430145834E+03  0.90047250897E+03  0.13574201356E+04  0.50400001928E-02 0.  1.
</event>
<event>
 5   0  0.3808293E-06  0.2503503E+04  0.7818609E-02  0.8401739E-01
       -2   -1    0    0    0  501  0.00000000000E+00  0.00000000000E+00  0.66194029576E+03  0.66194029577E+03  0.25500000920E-02 0. -1.
        2   -1    0    0  501    0  0.00000000000E+00  0.00000000000E+00 -0.23671036849E+04  0.23671036849E+04  0.25500000920E-02 0.  1.
    10030    2    1    2    0    0  0.00000000000E+00  0.00000000000E+00 -0.17051633891E+04  0.30290439806E+04  0.25035025970E+04 0.  0.
        1    1    3    3  502    0 -0.94701267835E+02  0.43052531748E+03  0.56491922679E+03  0.71655712399E+03  0.50400001928E-02 0. -1.
       -1    1    3    3    0  502  0.94701267835E+02 -0.43052531748E+03 -0.22700826159E+04  0.23124868566E+04  0.50400001928E-02 0.  1.
</event>
<event>
 5   0  0.3924441E-06  0.2497413E+04  0.7818609E-02  0.8403908E-01
        2   -1    0    0  501    0  0.00000000000E+00  0.00000000000E+00  0.16597518631E+04  0.16597518631E+04  0.25500000920E-02 0. -1.
       -2   -1    0    0    0  501  0.00000000000E+00  0.00000000000E+00 -0.93945822328E+03  0.93945822328E+03  0.25500000920E-02 0.  1.
    10030    2    1    2    0    0  0.00000000000E+00  0.00000000000E+00  0.72029363985E+03  0.25992100864E+04  0.24974126903E+04 0.  0.
        2    1    3    3  502    0 -0.12346128195E+04 -0.12997764604E+02  0.16591229072E+03  0.12457787301E+04  0.25500000920E-02 0.  1.
       -2    1    3    3    0  502  0.12346128195E+04  0.12997764604E+02  0.55438134913E+03  0.13534313563E+04  0.25500000920E-02 0. -1.
</event>
<event>
 5   0  0.1541852E-06  0.2500133E+04  0.7818609E-02  0.8402938E-01
        1   -1    0    0  501    0  0.00000000000E+00  0.00000000000E+00  0.15476734618E+04  0.15476734618E+04  0.50400001928E-02 0.  1.
       -1   -1    0    0    0  501  0.00000000000E+00  0.00000000000E+00 -0.10096871651E+04  0.10096871651E+04  0.50400001928E-02 0. -1.
    10030    2    1    2    0    0  0.00000000000E+00  0.00000000000E+00  0.53798629670E+03  0.25573606269E+04  0.25001328206E+04 0.  0.
        5    1    3    3  502    0 -0.78204367160E+03 -0.91679391867E+03 -0.71093590024E+02  0.12071370188E+04  0.46999998093E+01 0. -1.
       -5    1    3    3    0  502  0.78204367160E+03  0.91679391867E+03  0.60907988673E+03  0.13502236082E+04  0.46999998093E+01 0.  1.
</event>
<event>
 5   0  0.1574896E-06  0.2504815E+04  0.7818609E-02  0.8401272E-01
       -1   -1    0    0    0  501  0.00000000000E+00  0.00000000000E+00  0.18462998261E+04  0.18462998261E+04  0.50400001928E-02 0. -1.
        1   -1    0    0  501    0  0.00000000000E+00  0.00000000000E+00 -0.84955054121E+03  0.84955054122E+03  0.50400001928E-02 0.  1.
    10030    2    1    2    0    0  0.00000000000E+00  0.00000000000E+00  0.99674928486E+03  0.26958503673E+04  0.25048153756E+04 0.  0.
        3    1    3    3  502    0 -0.59986532962E+03 -0.41205535258E+03  0.15953738258E+04  0.17535237899E+04  0.10100000352E+00 0. -1.
       -3    1    3    3    0  502  0.59986532962E+03  0.41205535258E+03 -0.59862454098E+03  0.94232657743E+03  0.10100000352E+00 0.  1.
</event>
<event>
 5   0  0.3713394E-06  0.2477944E+04  0.7818609E-02  0.8410885E-01
       -2   -1    0    0    0  501  0.00000000000E+00  0.00000000000E+00  0.21579608739E+04  0.21579608739E+04  0.25500000920E-02 0. -1.
        2   -1    0    0  501    0  0.00000000000E+00  0.00000000000E+00 -0.71134368983E+03  0.71134368984E+03  0.25500000920E-02 0.  1.
    10030    2    1    2    0    0  0.00000000000E+00  0.00000000000E+00  0.14466171840E+04  0.28693045637E+04  0.24779441887E+04 0.  0.
        3    1    3    3  502    0  0.26053304040E+03 -0.98529117267E+03 -0.92503947281E+02  0.10233441017E+04  0.10100000352E+00 0.  1.
       -3    1    3    3    0  502 -0.26053304040E+03  0.98529117267E+03  0.15391211313E+04  0.18459604620E+04  0.10100000352E+00 0. -1.
</event>
<event>
 5   0  0.3814260E-06  0.2499958E+04  0.7818609E-02  0.8403000E-01
       -2   -1    0    0    0  501  0.00000000000E+00  0.00000000000E+00  0.59150957422E+03  0.59150957423E+03  0.25500000920E-02 0. -1.
        2   -1    0    0  501    0  0.00000000000E+00  0.00000000000E+00 -0.26414578832E+04  0.26414578832E+04  0.25500000920E-02 0.  1.
    10030    2    1    2    0    0  0.00000000000E+00  0.00000000000E+00 -0.20499483089E+04  0.32329674574E+04  0.24999581019E+04 0.  0.
        5    1    3    3  502    0  0.41027966647E+03 -0.38719689757E+03 -0.24674524429E+04  0.25311251431E+04  0.46999998093E+01 0.  1.
       -5    1    3    3    0  502 -0.41027966647E+03  0.38719689757E+03  0.41750413396E+03  0.70184231426E+03  0.46999998093E+01 0. -1.
</event>
<event>
 5   0  0.1541852E-06  0.2494388E+04  0.7818609E-02  0.8404988E-01
       -1   -1    0    0    0  501  0.00000000000E+00  0.00000000000E+00  0.94159837491E+03  0.94159837493E+03  0.50400001928E-02 0. -1.
        1   -1    0    0  501    0  0.00000000000E+00  0.00000000000E+00 -0.16519706359E+04  0.16519706359E+04  0.50400001928E-02 0.  1.
    10030    2    1    2    0    0  0.00000000000E+00  0.00000000000E+00 -0.71037226102E+03  0.25935690109E+04  0.24943879941E+04 0.  0.
        5    1    3    3  502    0  0.11976595832E+04  0.34676970450E+03 -0.32517552095E+03  0.12885646723E+04  0.46999998093E+01 0. -1.
       -5    1    3    3    0  502 -0.11976595832E+04 -0.34676970450E+03 -0.38519674007E+03  0.13050043386E+04  0.46999998093E+01 0.  1.
</event>
<event>
 5   0  0.3808293E-06  0.2492348E+04  0.7818609E-02  0.8405717E-01
       -2   -1    0    0    0  501  0.00000000000E+00  0.00000000000E+00  0.74948624696E+03  0.74948624697E+03  0.25500000920E-02 0. -1.
        2   -1    0    0  501    0  0.00000000000E+00  0.00000000000E+00 -0.20720183071E+04  0.20720183071E+04  0.25500000920E-02 0.  1.
    10030    2    1    2    0    0  0.00000000000E+00  0.00000000000E+00 -0.13225320601E+04  0.28215045540E+04  0.24923476680E+04 0.  0.
        1    1    3    3  502    0 -0.93331127359E+03 -0.80836493425E+03 -0.47040133206E+03  0.13212877104E+04  0.50400001928E-02 0. -1.
       -1    1    3    3    0  502  0.93331127359E+03  0.80836493425E+03 -0.85213072803E+03  0.15002168437E+04  0.50400001928E-02 0.  1.
</event>
<event>
 5   0  0.1553604E-06  0.2500566E+04  0.7818609E-02  0.8402784E-01
        1   -1    0    0  501    0  0.00000000000E+00  0.00000000000E+00  0.17297121215E+04  0.17297121215E+04  0.50400001928E-02 0.  1.
       -1   -1    0    0    0  501  0.00000000000E+00  0.00000000000E+00 -0.90373852551E+03  0.90373852552E+03  0.50400001928E-02 0. -1.
    10030    2    1    2    0    0  0.00000000000E+00  0.00000000000E+00  0.82597359601E+03  0.26334506470E+04  0.25005659218E+04 0.  0.
        1    1    3    3  502    0  0.25052537630E+03 -0.41711238999E+03 -0.79993903200E+03  0.93629491347E+03  0.50400001928E-02 0. -1.
       -1    1    3    3    0  502 -0.25052537630E+03  0.41711238999E+03  0.16259126280E+04  0.16971557336E+04  0.50400001928E-02 0.  1.
</event>
<event>
 5   0  0.3713394E-06  0.2499427E+04  0.7818609E-02  0.8403190E-01
        2   -1    0    0  501    0  0.00000000000E+00  0.00000000000E+00  0.20335632804E+04  0.20335632804E+04  0.25500000920E-02 0. -1.
       -2   -1    0    0    0  501  0.00000000000E+00  0.00000000000E+00 -0.76800364190E+03  0.76800364191E+03  0.25500000920E-02 0.  1.
    10030    2    1    2    0    0  0.00000000000E+00  0.00000000000E+00  0.12655596385E+04  0.28015669223E+04  0.24994271387E+04 0.  0.
        3    1    3    3  502    0 -0.12110791745E+04  0.29777334665E+02  0.97677339160E+03  0.15561766369E+04  0.10100000352E+00 0.  1.
       -3    1    3    3    0  502  0.12110791745E+04 -0.29777334665E+02  0.28878624693E+03  0.12453902854E+04  0.10100000352E+00 0. -1.
</event>
<event>
 5   0  0.3971759E-06  0.2498853E+04  0.7818609E-02  0.8403394E-01
       -2   -1    0    0    0  501  0.00000000000E+00  0.00000000000E+00  0.10472911725E+04  0.10472911725E+04  0.25500000920E-02 0. -1.
        2   -1    0    0  501    0  0.00000000000E+00  0.00000000000E+00 -0.14905751915E+04  0.14905751915E+04  0.25500000920E-02 0.  1.
    10030    2    1    2    0    0  0.00000000000E+00  0.00000000000E+00 -0.44328401899E+03  0.25378663639E+04  0.24988527287E+04 0.  0.
        4    1    3    3  502    0 -0.10209702491E+03 -0.26249440690E+03 -0.14579131352E+04  0.14848701757E+04  0.12699999809E+01 0.  1.
       -4    1    3    3    0  502  0.10209702491E+03  0.26249440690E+03  0.10146291162E+04  0.10529961882E+04  0.12699999809E+01 0. -1.
</event>
<event>
 5   0  0.3924441E-06  0.2490164E+04  0.7818609E-02  0.8406498E-01
       -2   -1    0    0    0  501  0.00000000000E+00  0.00000000000E+00  0.14754503282E+04  0.14754503282E+04  0.25500000920E-02 0. -1.
        2   -1    0    0  501    0  0.00000000000E+00  0.00000000000E+00 -0.10506819463E+04  0.10506819463E+04  0.25500000920E-02 0.  1.
    10030    2    1    2    0    0  0.00000000000E+00  0.00000000000E+00  0.42476838189E+03  0.25261322745E+04  0.24901638681E+04 0.  0.
        2    1    3    3  502    0  0.91617381408E+03  0.30479809327E+03  0.10098384334E+04  0.13971578282E+04  0.25500000920E-02 0. -1.
       -2    1    3    3    0  502 -0.91617381408E+03 -0.30479809327E+03 -0.58507005148E+03  0.11289744463E+04  0.25500000920E-02 0.  1.
</event>
<event>
 5   0  0.3971759E-06  0.2528623E+04  0.7818609E-02  0.8392859E-01
        2   -1    0    0  501    0  0.00000000000E+00  0.00000000000E+00  0.18259266370E+04  0.18259266370E+04  0.25500000920E-02 0.  1.
       -2   -1    0    0    0  501  0.00000000000E+00  0.00000000000E+00 -0.87543718576E+03  0.87543718576E+03  0.25500000920E-02 0. -1.
    10030    2    1    2    0    0  0.00000000000E+00  0.00000000000E+00  0.95048945123E+03  0.27013638228E+04  0.25286234014E+04 0.  0.
        4    1    3    3  502    0 -0.13076952386E+03  0.12113942616E+04  0.11468955512E+03  0.12238186273E+04  0.12699999809E+01 0. -1.
       -4    1    3    3    0  502  0.13076952386E+03 -0.12113942616E+04  0.83579989611E+03  0.14775451955E+04  0.12699999809E+01 0.  1.
</event>
<event>
 5   0  0.3808293E-06  0.2485965E+04  0.7818609E-02  0.8408003E-01
       -2   -1    0    0    0  501  0.00000000000E+00  0.00000000000E+00  0.13834751979E+04  0.13834751979E+04  0.25500000920E-02 0. -1.
        2   -1    0    0  501    0  0.00000000000E+00  0.00000000000E+00 -0.11167567383E+04  0.11167567383E+04  0.25500000920E-02 0.  1.
    10030    2    1    2    0    0  0.00000000000E+00  0.00000000000E+00  0.26671845960E+03  0.25002319363E+04  0.24859648023E+04 0.  0.
        1    1    3    3  502    0 -0.11439234809E+04 -0.47706403623E+03  0.38722310922E+02  0.12400203395E+04  0.50400001928E-02 0.  1.
       -1    1    3    3    0  502  0.11439234809E+04  0.47706403623E+03  0.22799614868E+03  0.12602115968E+04  0.50400001928E-02 0. -1.
</event>
<event>
 5   0  0.1541852E-06  0.2500531E+04  0.7818609E-02  0.8402796E-01
       -1   -1    0    0    0  501  0.00000000000E+00  0.00000000000E+00  0.16817420789E+04  0.16817420789E+04  0.50400001928E-02 0. -1.
        1   -1    0    0  501    0  0.00000000000E+00  0.00000000000E+00 -0.92949092716E+03  0.92949092717E+03  0.50400001928E-02 0.  1.
    10030    2    1    2    0    0  0.00000000000E+00  0.00000000000E+00  0.75225115178E+03  0.26112330061E+04  0.25005311470E+04 0.  0.
        5    1    3    3  502    0 -0.16652023608E+03 -0.10217375088E+04  0.11082077414E+04  0.15165167371E+04  0.46999998093E+01 0. -1.
       -5    1    3    3    0  502  0.16652023608E+03  0.10217375088E+04 -0.35595658958E+03  0.10947162690E+04  0.46999998093E+01 0.  1.
</event>
<event>
 5   0  0.1553604E-06  0.2501886E+04  0.7818609E-02  0.8402314E-01
       -1   -1    0    0    0  501  0.00000000000E+00  0.00000000000E+00  0.70346970177E+03  0.70346970178E+03  0.50400001928E-02 0.  1.
        1   -1    0    0  501    0  0.00000000000E+00  0.00000000000E+00 -0.22244857161E+04  0.22244857162E+04  0.50400001928E-02 0. -1.
    10030    2    1    2    0    0  0.00000000000E+00  0.00000000000E+00 -0.15210160144E+04  0.29279554179E+04  0.25018859313E+04 0.  0.
        1    1    3    3  502    0  0.50782773060E+03  0.31339674896E+03 -0.20471730965E+04  0.21323752515E+04  0.50400001928E-02 0. -1.
       -1    1    3    3    0  502 -0.50782773060E+03 -0.31339674896E+03  0.52615708207E+03  0.79558016646E+03  0.50400001928E-02 0.  1.
</event>
<event>
 5   0  0.3808293E-06  0.2466720E+04  0.7818609E-02  0.8414939E-01
        2   -1    0    0  501    0  0.00000000000E+00  0.00000000000E+00  0.15356421224E+04  0.15356421224E+04  0.25500000920E-02 0. -1.
       -2   -1    0    0    0  501  0.00000000000E+00  0.00000000000E+00 -0.99058013218E+03  0.99058013219E+03  0.25500000920E-02 0.  1.
    10030    2    1    2    0    0  0.00000000000E+00  0.00000000000E+00  0.54506199019E+03  0.25262222546E+04  0.24667197462E+04 0.  0.
        1    1    3    3  502    0 -0.10908743488E+04  0.32753167959E+03 -0.21205598666E+03  0.11585558198E+04  0.50400001928E-02 0. -1.
       -1    1    3    3    0  502  0.10908743488E+04 -0.32753167959E+03  0.75711797685E+03  0.13676664348E+04  0.50400001928E-02 0.  1.
</event>
<event>
 5   0  0.1501747E-06  0.2500702E+04  0.7818609E-02  0.8402735E-01
       -1   -1    0    0    0  501  0.00000000000E+00  0.00000000000E+00  0.84633006342E+03  0.84633006343E+03  0.50400001928E-02 0.  1.
        1   -1    0    0  501    0  0.00000000000E+00  0.00000000000E+00 -0.18472434750E+04  0.18472434750E+04  0.50400001928E-02 0. -1.
    10030    2    1    2    0    0  0.00000000000E+00  0.00000000000E+00 -0.10009134116E+04  0.26935735384E+04  0.25007020513E+04 0.  0.
        2    1    3    3  502    0  0.57362335616E+03 -0.60776872319E+02 -0.16953590647E+04  0.17908042722E+04  0.25500000920E-02 0. -1.
       -2    1    3    3    0  502 -0.57362335616E+03  0.60776872319E+02  0.69444565313E+03  0.90276926626E+03  0.25500000920E-02 0.  1.
</event>
<event>
 5   0  0.1574896E-06  0.2496038E+04  0.7818609E-02  0.8404398E-01
       -1   -1    0    0    0  501  0.00000000000E+00  0.00000000000E+00  0.11806639069E+04  0.11806639069E+04  0.50400001928E-02 0.  1.
        1   -1    0    0  501    0  0.00000000000E+00  0.00000000000E+00 -0.13192171098E+04  0.13192171098E+04  0.50400001928E-02 0. -1.
    10030    2    1    2    0    0  0.00000000000E+00  0.00000000000E+00 -0.13855320285E+03  0.24998810167E+04  0.24960384828E+04 0.  0.
        3    1    3    3  502    0  0.17313749663E+03  0.12359418843E+04 -0.64464775514E+02  0.12496738181E+04  0.10100000352E+00 0.  1.
       -3    1    3    3    0  502 -0.17313749663E+03 -0.12359418843E+04 -0.74088427339E+02  0.12502071986E+04  0.10100000352E+00 0. -1.
</event>
<event>
 5   0  0.1519145E-06  0.2508112E+04  0.7818609E-02  0.8400101E-01
       -1   -1    0    0    0  501  0.00000000000E+00  0.00000000000E+00  0.12204105398E+04  0.12204105399E+04  0.50400001928E-02 0.  1.
        1   -1    0    0  501    0  0.00000000000E+00  0.00000000000E+00 -0.12886289336E+04  0.12886289336E+04  0.50400001928E-02 0. -1.
    10030    2    1    2    0    0  0.00000000000E+00  0.00000000000E+00 -0.68218393735E+02  0.25090394734E+04  0.25081119054E+04 0.  0.
        4    1    3    3  502    0  0.31481434356E+03  0.93365298499E+03 -0.81017877321E+03  0.12756203294E+04  0.12699999809E+01 0. -1.
       -4    1    3    3    0  502 -0.31481434356E+03 -0.93365298499E+03  0.74196037948E+03  0.12334191440E+04  0.12699999809E+01 0.  1.
</event>
<event>
 5   0  0.3808293E-06  0.2500385E+04  0.7818609E-02  0.8402848E-01
        2   -1    0    0  501    0  0.00000000000E+00  0.00000000000E+00  0.16364178460E+04  0.16364178460E+04  0.25500000920E-02 0.  1.
       -2   -1    0    0    0  501  0.00000000000E+00  0.00000000000E+00 -0.95512347770E+03  0.95512347770E+03  0.25500000920E-02 0. -1.
    10030    2    1    2    0    0  0.00000000000E+00  0.00000000000E+00  0.68129436833E+03  0.25915413237E+04  0.25003848536E+04 0.  0.
        1    1    3    3  502    0 -0.72841759522E+03 -0.10160609406E+04  0.33752469318E+03  0.12949497853E+04  0.50400001928E-02 0.  1.
       -1    1    3    3    0  502  0.72841759522E+03  0.10160609406E+04  0.34376967515E+03  0.12965915384E+04  0.50400001928E-02 0. -1.
</event>
<event>
 5   0  0.1501747E-06  0.2498880E+04  0.7818609E-02  0.8403385E-01
       -1   -1    0    0    0  501  0.00000000000E+00  0.00000000000E+00  0.12791440045E+04  0.12791440045E+04  0.50400001928E-02 0. -1.
        1   -1    0    0  501    0  0.00000000000E+00  0.00000000000E+00 -0.12204256280E+04  0.12204256280E+04  0.50400001928E-02 0.  1.
    10030    2    1    2    0    0  0.00000000000E+00  0.00000000000E+00  0.58718376491E+02  0.24995696325E+04  0.24988798491E+04 0.  0.
        2    1    3    3  502    0  0.97729498605E+03 -0.27873339783E+03 -0.69768553561E+03  0.12327055218E+04  0.25500000920E-02 0.  1.
       -2    1    3    3    0  502 -0.97729498605E+03  0.27873339783E+03  0.75640391210E+03  0.12668641107E+04  0.25500000920E-02 0. -1.
</event>
<event>
 5   0  0.1541852E-06  0.2499367E+04  0.7818609E-02  0.8403211E-01
        1   -1    0    0  501    0  0.00000000000E+00  0.00000000000E+00  0.14310329357E+04  0.14310329357E+04  0.50400001928E-02 0. -1.
       -1   -1    0    0    0  501  0.00000000000E+00  0.00000000000E+00 -0.10913157955E+04  0.10913157955E+04  0.50400001928E-02 0.  1.
    10030    2    1    2    0    0  0.00000000000E+00  0.00000000000E+00  0.33971714024E+03  0.25223487312E+04  0.24993669971E+04 0.  0.
        5    1    3    3  502    0 -0.11561465674E+04 -0.37104593811E+03  0.46810392958E+03  0.13013429035E+04  0.46999998093E+01 0.  1.
       -5    1    3    3    0  502  0.11561465674E+04  0.37104593811E+03 -0.12838678934E+03  0.12210058277E+04  0.46999998093E+01 0. -1.
</event>
<event>
 5   0  0.1541852E-06  0.2499321E+04  0.7818609E-02  0.8403227E-01
       -1   -1    0    0    0  501  0.00000000000E+00  0.00000000000E+00  0.12411603193E+04  0.12411603193E+04  0.50400001928E-02 0. -1.
        1   -1    0    0  501    0  0.00000000000E+00  0.00000000000E+00 -0.12582189796E+04  0.12582189796E+04  0.50400001928E-02 0.  1.
    10030    2    1    2    0    0  0.00000000000E+00  0.00000000000E+00 -0.17058660384E+02  0.24993792989E+04  0.24993210842E+04 0.  0.
        5    1    3    3  502    0  0.62304124599E+03 -0.10736672771E+04  0.13530574267E+03  0.12487079523E+04  0.46999998093E+01 0. -1.
       -5    1    3    3    0  502 -0.62304124599E+03  0.10736672771E+04 -0.15236440305E+03  0.12506713467E+04  0.46999998093E+01 0.  1.
</event>
<event>
 5   0  0.3808293E-06  0.2503297E+04  0.7818609E-02  0.8401812E-01
       -2   -1    0    0    0  501  0.00000000000E+00  0.00000000000E+00  0.58535167692E+03  0.58535167692E+03  0.25500000920E-02 0. -1.
        2   -1    0    0  501    0  0.00000000000E+00  0.00000000000E+00 -0.26763815238E+04  0.26763815238E+04  0.25500000920E-02 0.  1.
    10030    2    1    2    0    0  0.00000000000E+00  0.00000000000E+00 -0.20910298469E+04  0.32617332008E+04  0.25032973559E+04 0.  0.
        1    1    3    3  502    0 -0.53034028408E+03 -0.11300204316E+04 -0.11650582950E+04  0.17075033890E+04  0.50400001928E-02 0.  1.
       -1    1    3    3    0  502  0.53034028408E+03  0.11300204316E+04 -0.92597155194E+03  0.15542298118E+04  0.50400001928E-02 0. -1.
</event>
<event>
 5   0  0.1541852E-06  0.2501592E+04  0.7818609E-02  0.8402418E-01
       -1   -1    0    0    0  501  0.00000000000E+00  0.00000000000E+00  0.15178201843E+04  0.15178201843E+04  0.50400001928E-02 0. -1.
        1   -1    0    0  501    0  0.00000000000E+00  0.00000000000E+00 -0.10307486689E+04  0.10307486689E+04  0.50400001928E-02 0.  1.
    10030    2    1    2    0    0  0.00000000000E+00  0.00000000000E+00  0.48707151543E+03  0.25485688532E+04  0.25015924005E+04 0.  0.
        5    1    3    3  502    0 -0.95418464506E+01 -0.54127882648E+03  0.13922714390E+04  0.14938258482E+04  0.46999998093E+01 0. -1.
       -5    1    3    3    0  502  0.95418464506E+01  0.54127882648E+03 -0.90519992359E+03  0.10547430050E+04  0.46999998093E+01 0.  1.
</event>
<event>
 5   0  0.3924441E-06  0.2499588E+04  0.7818609E-02  0.8403132E-01
       -2   -1    0    0    0  501  0.00000000000E+00  0.00000000000E+00  0.83269343571E+03  0.83269343571E+03  0.25500000920E-02 0. -1.
        2   -1    0    0  501    0  0.00000000000E+00  0.00000000000E+00 -0.18758217364E+04  0.18758217364E+04  0.25500000920E-02 0.  1.
    10030    2    1    2    0    0  0.00000000000E+00  0.00000000000E+00 -0.10431283007E+04  0.27085151721E+04  0.24995875231E+04 0.  0.
        2    1    3    3  502    0 -0.70161427173E+03 -0.70573889295E+02 -0.16396752309E+04  0.17848748199E+04  0.25500000920E-02 0.  1.
       -2    1    3    3    0  502  0.70161427173E+03  0.70573889295E+02  0.59654693021E+03  0.92364035214E+03  0.25500000920E-02 0. -1.
</event>
<event>
 5   0  0.1501747E-06  0.2500987E+04  0.7818609E-02  0.8402634E-01
       -1   -1    0    0    0  501  0.00000000000E+00  0.00000000000E+00  0.12206042621E+04  0.12206042621E+04  0.50400001928E-02 0. -1.
        1   -1    0    0  501    0  0.00000000000E+00  0.00000000000E+00 -0.12811148976E+04  0.12811148976E+04  0.50400001928E-02 0.  1.
    10030    2    1    2    0    0  0.00000000000E+00  0.00000000000E+00 -0.60510635574E+02  0.25017191597E+04  0.25009872485E+04 0.  0.
        2    1    3    3  502    0 -0.10203636130E+04  0.69534751727E+03  0.16749986161E+03  0.12460763525E+04  0.25500000920E-02 0. -1.
       -2    1    3    3    0  502  0.10203636130E+04 -0.69534751727E+03 -0.22801049719E+03  0.12556428072E+04  0.25500000920E-02 0.  1.
</event>
<event>
 5   0  0.3814260E-06  0.2503742E+04  0.7818609E-02  0.8401654E-01
       -2   -1    0    0    0  501  0.00000000000E+00  0.00000000000E+00  0.14550794561E+04  0.14550794562E+04  0.25500000920E-02 0. -1.
        2   -1    0    0  501    0  0.00000000000E+00  0.00000000000E+00 -0.10770411555E+04  0.10770411555E+04  0.25500000920E-02 0.  1.
    10030    2    1    2    0    0  0.00000000000E+00  0.00000000000E+00  0.37803830068E+03  0.25321206116E+04  0.25037415671E+04 0.  0.
        5    1    3    3  502    0  0.96872106540E+03  0.64282815627E+03 -0.28047310082E+03  0.11959664675E+04  0.46999998093E+01 0.  1.
       -5    1    3    3    0  502 -0.96872106540E+03 -0.64282815627E+03  0.65851140150E+03  0.13361541442E+04  0.46999998093E+01 0. -1.
</event>
<event>
 5   0  0.3971759E-06  0.2501752E+04  0.7818609E-02  0.8402362E-01
       -2   -1    0    0    0  501  0.00000000000E+00  0.00000000000E+00  0.15153211576E+04  0.15153211576E+04  0.25500000920E-02 0. -1.
        2   -1    0    0  501    0  0.00000000000E+00  0.00000000000E+00 -0.10325800096E+04  0.10325800096E+04  0.25500000920E-02 0.  1.
    10030    2    1    2    0    0  0.00000000000E+00  0.00000000000E+00  0.48274114801E+03  0.25479011672E+04  0.25017516547E+04 0.  0.
        4    1    3    3  502    0  0.46204692862E+03 -0.10934423602E+04  0.64308966541E+03  0.13500627726E+04  0.12699999809E+01 0. -1.
       -4    1    3    3    0  502 -0.46204692862E+03  0.10934423602E+04 -0.16034851740E+03  0.11978383945E+04  0.12699999809E+01 0.  1.
</event>
<event>
 5   0  0.3971759E-06  0.2498728E+04  0.7818609E-02  0.8403439E-01
       -2   -1    0    0    0  501  0.00000000000E+00  0.00000000000E+00  0.25512687123E+04  0.25512687123E+04  0.25500000920E-02 0. -1.
        2   -1    0    0  501    0  0.00000000000E+00  0.00000000000E+00 -0.61181749439E+03  0.61181749440E+03  0.25500000920E-02 0.  1.
    10030    2    1    2    0    0  0.00000000000E+00  0.00000000000E+00  0.19394512179E+04  0.31630862067E+04  0.24987283415E+04 0.  0.
        4    1    3    3  502    0 -0.91584541262E+03  0.38183656059E+03  0.19307409634E+04  0.21707911598E+04  0.12699999809E+01 0. -1.
       -4    1    3    3    0  502  0.91584541262E+03 -0.38183656059E+03  0.87102545877E+01  0.99229504697E+03  0.12699999809E+01 0.  1.
</event>
<event>
 5   0  0.1541852E-06  0.2500515E+04  0.7818609E-02  0.8402802E-01
        1   -1    0    0  501    0  0.00000000000E+00  0.00000000000E+00  0.13426667325E+04  0.13426667325E+04  0.50400001928E-02 0.  1.
       -1   -1    0    0    0  501  0.00000000000E+00  0.00000000000E+00 -0.11642082083E+04  0.11642082083E+04  0.50400001928E-02 0. -1.
    10030    2    1    2    0    0  0.00000000000E+00  0.00000000000E+00  0.17845852425E+03  0.25068749408E+04  0.25005148518E+04 0.  0.
        5    1    3    3  502    0 -0.35255396351E+02 -0.67629243324E+03 -0.96439920287E+03  0.11784321409E+04  0.46999998093E+01 0. -1.
       -5    1    3    3    0  502  0.35255396351E+02  0.67629243324E+03  0.11428577271E+04  0.13284427999E+04  0.46999998093E+01 0.  1.
</event>
<event>
 5   0  0.1287375E-06  0.2551091E+04  0.7818609E-02  0.8385007E-01
        3   -1    0    0  501    0  0.00000000000E+00  0.00000000000E+00  0.21803624851E+04  0.21803624874E+04  0.10100000352E+00 0. -1.
       -3   -1    0    0    0  501  0.00000000000E+00  0.00000000000E+00 -0.74621363210E+03  0.74621363894E+03  0.10100000352E+00 0.  1.
    10030    2    1    2    0    0  0.00000000000E+00  0.00000000000E+00  0.14341488530E+04  0.29265761264E+04  0.25510909217E+04 0.  0.
        4    1    3    3  502    0  0.10712286413E+04  0.50983138566E+03  0.17953996541E+03  0.11998729332E+04  0.12699999809E+01 0.  1.
       -4    1    3    3    0  502 -0.10712286413E+04 -0.50983138566E+03  0.12546088876E+04  0.17267031932E+04  0.12699999809E+01 0. -1.
</event>
<event>
 5   0  0.1541852E-06  0.2487882E+04  0.7818609E-02  0.8407315E-01
        1   -1    0    0  501    0  0.00000000000E+00  0.00000000000E+00  0.15140903364E+04  0.15140903364E+04  0.50400001928E-02 0.  1.
       -1   -1    0    0    0  501  0.00000000000E+00  0.00000000000E+00 -0.10219926102E+04  0.10219926102E+04  0.50400001928E-02 0. -1.
    10030    2    1    2    0    0  0.00000000000E+00  0.00000000000E+00  0.49209772619E+03  0.25360829466E+04  0.24878819385E+04 0.  0.
        5    1    3    3  502    0  0.21839093972E+01 -0.93559695911E+03  0.10816999480E+04  0.14301899548E+04  0.46999998093E+01 0.  1.
       -5    1    3    3    0  502 -0.21839093972E+01  0.93559695911E+03 -0.58960222180E+03  0.11058929918E+04  0.46999998093E+01 0. -1.
</event>
<event>
 5   0  0.3808293E-06  0.2501206E+04  0.7818609E-02  0.8402556E-01
       -2   -1    0    0    0  501  0.00000000000E+00  0.00000000000E+00  0.20454321810E+04  0.20454321810E+04  0.25500000920E-02 0. -1.
        2   -1    0    0  501    0  0.00000000000E+00  0.00000000000E+00 -0.76463428402E+03  0.76463428402E+03  0.25500000920E-02 0.  1.
    10030    2    1    2    0    0  0.00000000000E+00  0.00000000000E+00  0.12807978970E+04  0.28100664651E+04  0.25012057662E+04 0.  0.
        1    1    3    3  502    0  0.64460196345E+03  0.10066006507E+04  0.10535771771E+04  0.15933553996E+04  0.50400001928E-02 0. -1.
       -1    1    3    3    0  502 -0.64460196345E+03 -0.10066006507E+04  0.22722071990E+03  0.12167110655E+04  0.50400001928E-02 0.  1.
</event>
<event>
 5   0  0.3814260E-06  0.2497066E+04  0.7818609E-02  0.8404032E-01
        2   -1    0    0  501    0  0.00000000000E+00  0.00000000000E+00  0.18640395662E+04  0.18640395662E+04  0.25500000920E-02 0.  1.
       -2   -1    0    0    0  501  0.00000000000E+00  0.00000000000E+00 -0.83626672231E+03  0.83626672231E+03  0.25500000920E-02 0. -1.
    10030    2    1    2    0    0  0.00000000000E+00  0.00000000000E+00  0.10277728439E+04  0.27003062885E+04  0.24970656846E+04 0.  0.
        5    1    3    3  502    0 -0.10718686736E+04 -0.39580542197E+03  0.10580831011E+04  0.15572817100E+04  0.46999998093E+01 0.  1.
       -5    1    3    3    0  502  0.10718686736E+04  0.39580542197E+03 -0.30310257161E+02  0.11430245785E+04  0.46999998093E+01 0. -1.
</event>
<event>
 5   0  0.1574896E-06  0.2501826E+04  0.7818609E-02  0.8402335E-01
        1   -1    0    0  501    0  0.00000000000E+00  0.00000000000E+00  0.16782512412E+04  0.16782512412E+04  0.50400001928E-02 0. -1.
       -1   -1    0    0    0  501  0.00000000000E+00  0.00000000000E+00 -0.93238945778E+03  0.93238945780E+03  0.50400001928E-02 0.  1.
    10030    2    1    2    0    0  0.00000000000E+00  0.00000000000E+00  0.74586178337E+03  0.26106406990E+04  0.25018263447E+04 0.  0.
        3    1    3    3  502    0 -0.61884068295E+03 -0.68754774473E+03  0.12516358806E+04  0.15563669490E+04  0.10100000352E+00 0. -1.
       -3    1    3    3    0  502  0.61884068295E+03  0.68754774473E+03 -0.50577409724E+03  0.10542737499E+04  0.10100000352E+00 0.  1.
</event>
<event>
 5   0  0.3971759E-06  0.2503127E+04  0.7818609E-02  0.8401873E-01
        2   -1    0    0  501    0  0.00000000000E+00  0.00000000000E+00  0.13708393412E+04  0.13708393412E+04  0.25500000920E-02 0. -1.
       -2   -1    0    0    0  501  0.00000000000E+00  0.00000000000E+00 -0.11426653601E+04  0.11426653601E+04  0.25500000920E-02 0.  1.
    10030    2    1    2    0    0  0.00000000000E+00  0.00000000000E+00  0.22817398103E+03  0.25135047013E+04  0.25031265485E+04 0.  0.
        4    1    3    3  502    0 -0.64212184149E+03 -0.10691445637E+04  0.21949104764E+03  0.12663208481E+04  0.12699999809E+01 0.  1.
       -4    1    3    3    0  502  0.64212184149E+03  0.10691445637E+04  0.86829333954E+01  0.12471838532E+04  0.12699999809E+01 0. -1.
</event>
<event>
 5   0  0.3808293E-06  0.2498327E+04  0.7818609E-02  0.8403582E-01
        2   -1    0    0  501    0  0.00000000000E+00  0.00000000000E+00  0.10851215042E+04  0.10851215042E+04  0.25500000920E-02 0.  1.
       -2   -1    0    0    0  501  0.00000000000E+00  0.00000000000E+00 -0.14380047406E+04  0.14380047406E+04  0.25500000920E-02 0. -1.
    10030    2    1    2    0    0  0.00000000000E+00  0.00000000000E+00 -0.35288323642E+03  0.25231262447E+04  0.24983273341E+04 0.  0.
        1    1    3    3  502    0  0.62647957015E+03 -0.11956222112E+03  0.90829533404E+03  0.11098523282E+04  0.50400001928E-02 0.  1.
       -1    1    3    3    0  502 -0.62647957015E+03  0.11956222112E+03 -0.12611785705E+04  0.14132739165E+04  0.50400001928E-02 0. -1.
</event>
<event>
 5   0  0.1574896E-06  0.2503366E+04  0.7818609E-02  0.8401787E-01
        1   -1    0    0  501    0  0.00000000000E+00  0.00000000000E+00  0.14554531058E+04  0.14554531058E+04  0.50400001928E-02 0.  1.
       -1   -1    0    0    0  501  0.00000000000E+00  0.00000000000E+00 -0.10764414091E+04  0.10764414091E+04  0.50400001928E-02 0. -1.
    10030    2    1    2    0    0  0.00000000000E+00  0.00000000000E+00  0.37901169669E+03  0.25318945149E+04  0.25033657281E+04 0.  0.
        3    1    3    3  502    0 -0.82249836948E+03  0.74811583091E+03  0.77097431511E+03  0.13529901215E+04  0.10100000352E+00 0.  1.
       -3    1    3    3    0  502  0.82249836948E+03 -0.74811583091E+03 -0.39196261842E+03  0.11789043934E+04  0.10100000352E+00 0. -1.
</event>
<event>
 5   0  0.3713394E-06  0.2498934E+04  0.7818609E-02  0.8403366E-01
        2   -1    0    0  501    0  0.00000000000E+00  0.00000000000E+00  0.15238600197E+04  0.15238600197E+04  0.25500000920E-02 0.  1.
       -2   -1    0    0    0  501  0.00000000000E+00  0.00000000000E+00 -0.10244821075E+04  0.10244821075E+04  0.25500000920E-02 0. -1.
    10030    2    1    2    0    0  0.00000000000E+00  0.00000000000E+00  0.49937791227E+03  0.25483421272E+04  0.24989336322E+04 0.  0.
        3    1    3    3  502    0  0.71562350801E+03  0.81837123084E+03 -0.37837694752E+03  0.11510940888E+04  0.10100000352E+00 0. -1.
       -3    1    3    3    0  502 -0.71562350801E+03 -0.81837123084E+03  0.87775485979E+03  0.13972480384E+04  0.10100000352E+00 0.  1.
</event>
<event>
 5   0  0.1574896E-06  0.2499250E+04  0.7818609E-02  0.8403253E-01
        1   -1    0    0  501    0  0.00000000000E+00  0.00000000000E+00  0.11710952906E+04  0.11710952906E+04  0.50400001928E-02 0. -1.
       -1   -1    0    0    0  501  0.00000000000E+00  0.00000000000E+00 -0.13334203508E+04  0.13334203508E+04  0.50400001928E-02 0.  1.
    10030    2    1    2    0    0  0.00000000000E+00  0.00000000000E+00 -0.16232506022E+03  0.25045156414E+04  0.24992497220E+04 0.  0.
        3    1    3    3  502    0 -0.10712949887E+04  0.63559056520E+03  0.18616150285E+02  0.12457908695E+04  0.10100000352E+00 0. -1.
       -3    1    3    3    0  502  0.10712949887E+04 -0.63559056520E+03 -0.18094121050E+03  0.12587247718E+04  0.10100000352E+00 0.  1.
</event>
<event>
 5   0  0.1541852E-06  0.2498737E+04  0.7818609E-02  0.8403435E-01
        1   -1    0    0  501    0  0.00000000000E+00  0.00000000000E+00  0.17488701428E+04  0.17488701428E+04  0.50400001928E-02 0.  1.
       -1   -1    0    0    0  501  0.00000000000E+00  0.00000000000E+00 -0.89253177926E+03  0.89253177928E+03  0.50400001928E-02 0. -1.
    10030    2    1    2    0    0  0.00000000000E+00  0.00000000000E+00  0.85633836356E+03  0.26414019221E+04  0.24987374254E+04 0.  0.
        5    1    3    3  502    0 -0.43064891471E+03 -0.11346180742E+04  0.11443562546E+03  0.12189890338E+04  0.46999998093E+01 0.  1.
       -5    1    3    3    0  502  0.43064891471E+03  0.11346180742E+04  0.74190273810E+03  0.14224128883E+04  0.46999998093E+01 0. -1.
</event>
<event>
 5   0  0.1553604E-06  0.2500629E+04  0.7818609E-02  0.8402761E-01
        1   -1    0    0  501    0  0.00000000000E+00  0.00000000000E+00  0.33108736749E+04  0.33108736749E+04  0.50400001928E-02 0. -1.
       -1   -1    0    0    0  501  0.00000000000E+00  0.00000000000E+00 -0.47216750402E+03  0.47216750404E+03  0.50400001928E-02 0.  1.
    10030    2    1    2    0    0  0.00000000000E+00  0.00000000000E+00  0.28387061709E+04  0.37830411789E+04  0.25006294881E+04 0.  0.
        1    1    3    3  502    0  0.37780725514E+03  0.64289405314E+03  0.29376521101E+04  0.30308168876E+04  0.50400001928E-02 0. -1.
       -1    1    3    3    0  502 -0.37780725514E+03 -0.64289405314E+03 -0.98945939294E+02  0.75222429137E+03  0.50400001928E-02 0.  1.
</event>
<event>
 5   0  0.1553604E-06  0.2500752E+04  0.7818609E-02  0.8402718E-01
        1   -1    0    0  501    0  0.00000000000E+00  0.00000000000E+00  0.11599678041E+04  0.11599678041E+04  0.50400001928E-02 0. -1.
       -1   -1    0    0    0  501  0.00000000000E+00  0.00000000000E+00 -0.13478311113E+04  0.13478311113E+04  0.50400001928E-02 0.  1.
    10030    2    1    2    0    0  0.00000000000E+00  0.00000000000E+00 -0.18786330724E+03  0.25077989154E+04  0.25007524423E+04 0.  0.
        1    1    3    3  502    0  0.12382748429E+04 -0.74886637163E+02 -0.25092340198E+03  0.12656599656E+04  0.50400001928E-02 0. -1.
       -1    1    3    3    0  502 -0.12382748429E+04  0.74886637163E+02  0.63060094745E+02  0.12421389497E+04  0.50400001928E-02 0.  1.
</event>
<event>
 5   0  0.3713394E-06  0.2498215E+04  0.7818609E-02  0.8403622E-01
        2   -1    0    0  501    0  0.00000000000E+00  0.00000000000E+00  0.11155844330E+04  0.11155844330E+04  0.25500000920E-02 0.  1.
       -2   -1    0    0    0  501  0.00000000000E+00  0.00000000000E+00 -0.13986113350E+04  0.13986113350E+04  0.25500000920E-02 0. -1.
    10030    2    1    2    0    0  0.00000000000E+00  0.00000000000E+00 -0.28302690200E+03  0.25141957681E+04  0.24982145891E+04 0.  0.
        3    1    3    3  502    0 -0.69207495230E+03 -0.83876700692E+03 -0.76007620911E+03  0.13267304494E+04  0.10100000352E+00 0. -1.
       -3    1    3    3    0  502  0.69207495230E+03  0.83876700692E+03  0.47704930712E+03  0.11874653187E+04  0.10100000352E+00 0.  1.
</event>
<event>
 5   0  0.1553604E-06  0.2486842E+04  0.7818609E-02  0.8407688E-01
       -1   -1    0    0    0  501  0.00000000000E+00  0.00000000000E+00  0.97718897038E+03  0.97718897039E+03  0.50400001928E-02 0.  1.
        1   -1    0    0  501    0  0.00000000000E+00  0.00000000000E+00 -0.15821869632E+04  0.15821869632E+04  0.50400001928E-02 0. -1.
    10030    2    1    2    0    0  0.00000000000E+00  0.00000000000E+00 -0.60499799282E+03  0.25593759336E+04  0.24868418925E+04 0.  0.
        1    1    3    3  502    0  0.10568969921E+04  0.17836004117E+03 -0.95116181419E+03  0.14330221049E+04  0.50400001928E-02 0. -1.
       -1    1    3    3    0  502 -0.10568969921E+04 -0.17836004117E+03  0.34616382137E+03  0.11263538287E+04  0.50400001928E-02 0.  1.
</event>
<event>
 5   0  0.1501747E-06  0.2500594E+04  0.7818609E-02  0.8402774E-01
       -1   -1    0    0    0  501  0.00000000000E+00  0.00000000000E+00  0.13322436678E+04  0.13322436678E+04  0.50400001928E-02 0. -1.
        1   -1    0    0  501    0  0.00000000000E+00  0.00000000000E+00 -0.11733913016E+04  0.11733913016E+04  0.50400001928E-02 0.  1.
    10030    2    1    2    0    0  0.00000000000E+00  0.00000000000E+00  0.15885236615E+03  0.25056349694E+04  0.25005944345E+04 0.  0.
        2    1    3    3  502    0 -0.21673911381E+03  0.12293456294E+04  0.87388812104E+01  0.12483360477E+04  0.25500000920E-02 0.  1.
       -2    1    3    3    0  502  0.21673911381E+03 -0.12293456294E+04  0.15011348494E+03  0.12572989217E+04  0.25500000920E-02 0. -1.
</event>
<event>
 5   0  0.1541852E-06  0.2498325E+04  0.7818609E-02  0.8403583E-01
        1   -1    0    0  501    0  0.00000000000E+00  0.00000000000E+00  0.12989055586E+04  0.12989055586E+04  0.50400001928E-02 0. -1.
       -1   -1    0    0    0  501  0.00000000000E+00  0.00000000000E+00 -0.12013240996E+04  0.12013240996E+04  0.50400001928E-02 0.  1.
    10030    2    1    2    0    0  0.00000000000E+00  0.00000000000E+00  0.97581459043E+02  0.25002296582E+04  0.24983246792E+04 0.  0.
        5    1    3    3  502    0  0.97603134578E+03  0.15689601994E+03 -0.71542162865E+03  0.12202883863E+04  0.46999998093E+01 0.  1.
       -5    1    3    3    0  502 -0.97603134578E+03 -0.15689601994E+03  0.81300308769E+03  0.12799412719E+04  0.46999998093E+01 0. -1.
</event>
<event>
 5   0  0.3808293E-06  0.2499039E+04  0.7818609E-02  0.8403328E-01
       -2   -1    0    0    0  501  0.00000000000E+00  0.00000000000E+00  0.66881624317E+03  0.66881624318E+03  0.25500000920E-02 0. -1.
        2   -1    0    0  501    0  0.00000000000E+00  0.00000000000E+00 -0.23344222866E+04  0.23344222866E+04  0.25500000920E-02 0.  1.
    10030    2    1    2    0    0  0.00000000000E+00  0.00000000000E+00 -0.16656060434E+04  0.30032385298E+04  0.24990394504E+04 0.  0.
        1    1    3    3  502    0  0.75622415504E+03 -0.65322667469E+03  0.68690667360E+02  0.10016478768E+04  0.50400001928E-02 0. -1.
       -1    1    3    3    0  502 -0.75622415504E+03  0.65322667469E+03 -0.17342967108E+04  0.20015906530E+04  0.50400001928E-02 0.  1.
</event>
<event>
 5   0  0.3713394E-06  0.2502218E+04  0.7818609E-02  0.8402196E-01
        2   -1    0    0  501    0  0.00000000000E+00  0.00000000000E+00  0.15562680484E+04  0.15562680484E+04  0.25500000920E-02 0.  1.
       -2   -1    0    0    0  501  0.00000000000E+00  0.00000000000E+00 -0.10057870454E+04  0.10057870454E+04  0.25500000920E-02 0. -1.
    10030    2    1    2    0    0  0.00000000000E+00  0.00000000000E+00  0.55048100292E+03  0.25620550938E+04  0.25022184096E+04 0.  0.
        3    1    3    3  502    0 -0.84743250992E+03  0.88859454182E+03  0.52083487524E+03  0.13337957475E+04  0.10100000352E+00 0.  1.
       -3    1    3    3    0  502  0.84743250992E+03 -0.88859454182E+03  0.29646127673E+02  0.12282593463E+04  0.10100000352E+00 0. -1.
</event>
<event>
 5   0  0.1553604E-06  0.2497216E+04  0.7818609E-02  0.8403978E-01
       -1   -1    0    0    0  501  0.00000000000E+00  0.00000000000E+00  0.12981099494E+04  0.12981099494E+04  0.50400001928E-02 0.  1.
        1   -1    0    0  501    0  0.00000000000E+00  0.00000000000E+00 -0.12009939619E+04  0.12009939620E+04  0.50400001928E-02 0. -1.
    10030    2    1    2    0    0  0.00000000000E+00  0.00000000000E+00  0.97115987430E+02  0.24991039113E+04  0.24972162191E+04 0.  0.
        1    1    3    3  502    0  0.75475447633E+03 -0.22580916818E+03  0.10179894366E+04  0.12872243755E+04  0.50400001928E-02 0.  1.
       -1    1    3    3    0  502 -0.75475447633E+03  0.22580916818E+03 -0.92087344914E+03  0.12118795358E+04  0.50400001928E-02 0. -1.
</event>
<event>
 5   0  0.1501747E-06  0.2499977E+04  0.7818609E-02  0.8402994E-01
        1   -1    0    0  501    0  0.00000000000E+00  0.00000000000E+00  0.22242996906E+04  0.22242996906E+04  0.50400001928E-02 0.  1.
       -1   -1    0    0    0  501  0.00000000000E+00  0.00000000000E+00 -0.70245542559E+03  0.70245542561E+03  0.50400001928E-02 0. -1.
    10030    2    1    2    0    0  0.00000000000E+00  0.00000000000E+00  0.15218442650E+04  0.29267551162E+04  0.24999771085E+04 0.  0.
        2    1    3    3  502    0 -0.23492654828E+03  0.42915868885E+03  0.21075490767E+04  0.21635920997E+04  0.25500000920E-02 0.  1.
       -2    1    3    3    0  502  0.23492654828E+03 -0.42915868885E+03 -0.58570481169E+03  0.76316301649E+03  0.25500000920E-02 0. -1.
</event>
<event>
 5   0  0.1519145E-06  0.2491773E+04  0.7818609E-02  0.8405922E-01
        1   -1    0    0  501    0  0.00000000000E+00  0.00000000000E+00  0.22620178911E+04  0.22620178911E+04  0.50400001928E-02 0. -1.
       -1   -1    0    0    0  501  0.00000000000E+00  0.00000000000E+00 -0.68621612348E+03  0.68621612350E+03  0.50400001928E-02 0.  1.
    10030    2    1    2    0    0  0.00000000000E+00  0.00000000000E+00  0.15758017676E+04  0.29482340146E+04  0.24917729820E+04 0.  0.
        4    1    3    3  502    0 -0.61491553888E+03  0.10712109592E+04  0.59486542874E+03  0.13709414758E+04  0.12699999809E+01 0.  1.
       -4    1    3    3    0  502  0.61491553888E+03 -0.10712109592E+04  0.98093633887E+03  0.15772925388E+04  0.12699999809E+01 0. -1.
</event>
<event>
 5   0  0.1574896E-06  0.2501240E+04  0.7818609E-02  0.8402544E-01
        1   -1    0    0  501    0  0.00000000000E+00  0.00000000000E+00  0.14842128437E+04  0.14842128437E+04  0.50400001928E-02 0. -1.
       -1   -1    0    0    0  501  0.00000000000E+00  0.00000000000E+00 -0.10537913866E+04  0.10537913866E+04  0.50400001928E-02 0.  1.
    10030    2    1    2    0    0  0.00000000000E+00  0.00000000000E+00  0.43042145708E+03  0.25380042303E+04  0.25012402608E+04 0.  0.
        3    1    3    3  502    0  0.16052861707E+03  0.93312132158E+03  0.10442669659E+04  0.14096021935E+04  0.10100000352E+00 0. -1.
       -3    1    3    3    0  502 -0.16052861707E+03 -0.93312132158E+03 -0.61384550882E+03  0.11284020368E+04  0.10100000352E+00 0.  1.
</event>
<event>
 5   0  0.1553604E-06  0.2500591E+04  0.7818609E-02  0.8402775E-01
        1   -1    0    0  501    0  0.00000000000E+00  0.00000000000E+00  0.21925067409E+04  0.21925067409E+04  0.50400001928E-02 0.  1.
       -1   -1    0    0    0  501  0.00000000000E+00  0.00000000000E+00 -0.71299129968E+03  0.71299129970E+03  0.50400001928E-02 0. -1.
    10030    2    1    2    0    0  0.00000000000E+00  0.00000000000E+00  0.14795154412E+04  0.29054980406E+04  0.25005905149E+04 0.  0.
        1    1    3    3  502    0  0.28707496778E+03 -0.87097339435E+03 -0.24769482219E+03  0.94992600541E+03  0.50400001928E-02 0. -1.
       -1    1    3    3    0  502 -0.28707496778E+03  0.87097339435E+03  0.17272102634E+04  0.19555720352E+04  0.50400001928E-02 0.  1.
</event>
<event>
 5   0  0.3971759E-06  0.2499533E+04  0.7818609E-02  0.8403152E-01
       -2   -1    0    0    0  501  0.00000000000E+00  0.00000000000E+00  0.76252626263E+03  0.76252626263E+03  0.25500000920E-02 0. -1.
        2   -1    0    0  501    0  0.00000000000E+00  0.00000000000E+00 -0.20483438742E+04  0.20483438742E+04  0.25500000920E-02 0.  1.
    10030    2    1    2    0    0  0.00000000000E+00  0.00000000000E+00 -0.12858176116E+04  0.28108701368E+04  0.24995327555E+04 0.  0.
        4    1    3    3  502    0  0.33481746227E+03 -0.64045227054E+03 -0.17895350603E+04  0.19299531572E+04  0.12699999809E+01 0.  1.
       -4    1    3    3    0  502 -0.33481746227E+03  0.64045227054E+03  0.50371744878E+03  0.88091697962E+03  0.12699999809E+01 0. -1.
</event>
<event>
 5   0  0.3971759E-06  0.2500924E+04  0.7818609E-02  0.8402656E-01
        2   -1    0    0  501    0  0.00000000000E+00  0.00000000000E+00  0.10829581965E+04  0.10829581965E+04  0.25500000920E-02 0. -1.
       -2   -1    0    0    0  501  0.00000000000E+00  0.00000000000E+00 -0.14438738515E+04  0.14438738515E+04  0.25500000920E-02 0.  1.
    10030    2    1    2    0    0  0.00000000000E+00  0.00000000000E+00 -0.36091565497E+03  0.25268320480E+04  0.25009238471E+04 0.  0.
        4    1    3    3  502    0  0.53931869521E+03  0.44844189158E+03  0.86549047430E+03  0.11140198199E+04  0.12699999809E+01 0. -1.
       -4    1    3    3    0  502 -0.53931869521E+03 -0.44844189158E+03 -0.12264061293E+04  0.14128122281E+04  0.12699999809E+01 0.  1.
</event>
<event>
 5   0  0.1553604E-06  0.2505590E+04  0.7818609E-02  0.8400997E-01
       -1   -1    0    0    0  501  0.00000000000E+00  0.00000000000E+00  0.13071703815E+04  0.13071703815E+04  0.50400001928E-02 0. -1.
        1   -1    0    0  501    0  0.00000000000E+00  0.00000000000E+00 -0.12006813402E+04  0.12006813403E+04  0.50400001928E-02 0.  1.
    10030    2    1    2    0    0  0.00000000000E+00  0.00000000000E+00  0.10648904130E+03  0.25078517218E+04  0.25055898193E+04 0.  0.
        1    1    3    3  502    0  0.23680068485E+03  0.10397518450E+03 -0.11736718767E+04  0.12018282230E+04  0.50400001928E-02 0.  1.
       -1    1    3    3    0  502 -0.23680068485E+03 -0.10397518450E+03  0.12801609180E+04  0.13060234988E+04  0.50400001928E-02 0. -1.
</event>
<event>
 5   0  0.1519145E-06  0.2494734E+04  0.7818609E-02  0.8404864E-01
        1   -1    0    0  501    0  0.00000000000E+00  0.00000000000E+00  0.11890447251E+04  0.11890447251E+04  0.50400001928E-02 0.  1.
       -1   -1    0    0    0  501  0.00000000000E+00  0.00000000000E+00 -0.13085497398E+04  0.13085497399E+04  0.50400001928E-02 0. -1.
    10030    2    1    2    0    0  0.00000000000E+00  0.00000000000E+00 -0.11950501473E+03  0.24975944650E+04  0.24947337860E+04 0.  0.
        4    1    3    3  502    0 -0.27609204900E+03 -0.61490817473E+03  0.99101457527E+03  0.11985200808E+04  0.12699999809E+01 0.  1.
       -4    1    3    3    0  502  0.27609204900E+03  0.61490817473E+03 -0.11105195900E+04  0.12990743841E+04  0.12699999809E+01 0. -1.
</event>
<event>
 5   0  0.3971759E-06  0.2498291E+04  0.7818609E-02  0.8403595E-01
       -2   -1    0    0    0  501  0.00000000000E+00  0.00000000000E+00  0.15106391752E+04  0.15106391752E+04  0.25500000920E-02 0.  1.
        2   -1    0    0  501    0  0.00000000000E+00  0.00000000000E+00 -0.10329168086E+04  0.10329168086E+04  0.25500000920E-02 0. -1.
    10030    2    1    2    0    0  0.00000000000E+00  0.00000000000E+00  0.47772236657E+03  0.25435559838E+04  0.24982910926E+04 0.  0.
        4    1    3    3  502    0  0.95653438661E+03 -0.57860786626E+03 -0.32856776999E+03  0.11652053416E+04  0.12699999809E+01 0.  1.
       -4    1    3    3    0  502 -0.95653438661E+03  0.57860786626E+03  0.80629013656E+03  0.13783506422E+04  0.12699999809E+01 0. -1.
</event>
<event>
 5   0  0.3808293E-06  0.2466845E+04  0.7818609E-02  0.8414893E-01
        2   -1    0    0  501    0  0.00000000000E+00  0.00000000000E+00  0.15072481278E+04  0.15072481278E+04  0.25500000920E-02 0.  1.
       -2   -1    0    0    0  501  0.00000000000E+00  0.00000000000E+00 -0.10093434985E+04  0.10093434985E+04  0.25500000920E-02 0. -1.
    10030    2    1    2    0    0  0.00000000000E+00  0.00000000000E+00  0.49790462938E+03  0.25165916263E+04  0.24668450283E+04 0.  0.
        1    1    3    3  502    0  0.93333850337E+03  0.17096398520E+03 -0.55496293003E+03  0.10992421480E+04  0.50400001928E-02 0. -1.
       -1    1    3    3    0  502 -0.93333850337E+03 -0.17096398520E+03  0.10528675594E+04  0.14173494784E+04  0.50400001928E-02 0.  1.
</event>
<event>
 5   0  0.3814260E-06  0.2498880E+04  0.7818609E-02  0.8403384E-01
        2   -1    0    0  501    0  0.00000000000E+00  0.00000000000E+00  0.17178080634E+04  0.17178080634E+04  0.25500000920E-02 0. -1.
       -2   -1    0    0    0  501  0.00000000000E+00  0.00000000000E+00 -0.90877488463E+03  0.90877488463E+03  0.25500000920E-02 0.  1.
    10030    2    1    2    0    0  0.00000000000E+00  0.00000000000E+00  0.80903317878E+03  0.26265829480E+04  0.24988804090E+04 0.  0.
        5    1    3    3  502    0  0.54896522875E+03  0.46186917264E+01 -0.77520160815E+03  0.94991777432E+03  0.46999998093E+01 0.  1.
       -5    1    3    3    0  502 -0.54896522875E+03 -0.46186917264E+01  0.15842347869E+04  0.16766651737E+04  0.46999998093E+01 0. -1.
</event>
<event>
 5   0  0.3808293E-06  0.2506683E+04  0.7818609E-02  0.8400609E-01
       -2   -1    0    0    0  501  0.00000000000E+00  0.00000000000E+00  0.14720219639E+04  0.14720219639E+04  0.25500000920E-02 0. -1.
        2   -1    0    0  501    0  0.00000000000E+00  0.00000000000E+00 -0.10671474236E+04  0.10671474236E+04  0.25500000920E-02 0.  1.
    10030    2    1    2    0    0  0.00000000000E+00  0.00000000000E+00  0.40487454032E+03  0.25391693875E+04  0.25066826255E+04 0.  0.
        1    1    3    3  502    0 -0.60996644307E+02  0.12503213237E+04  0.26521173170E+03  0.12795941801E+04  0.50400001928E-02 0.  1.
       -1    1    3    3    0  502  0.60996644307E+02 -0.12503213237E+04  0.13966280861E+03  0.12595752074E+04  0.50400001928E-02 0. -1.
</event>
<event>
 5   0  0.1541852E-06  0.2501051E+04  0.7818609E-02  0.8402611E-01
       -1   -1    0    0    0  501  0.00000000000E+00  0.00000000000E+00  0.14255640138E+04  0.14255640138E+04  0.50400001928E-02 0. -1.
        1   -1    0    0  501    0  0.00000000000E+00  0.00000000000E+00 -0.10969789452E+04  0.10969789452E+04  0.50400001928E-02 0.  1.
    10030    2    1    2    0    0  0.00000000000E+00  0.00000000000E+00  0.32858506862E+03  0.25225429590E+04  0.25010507458E+04 0.  0.
        5    1    3    3  502    0  0.53870262552E+03  0.11155889238E+04  0.33620503903E+03  0.12836647085E+04  0.46999998093E+01 0. -1.
       -5    1    3    3    0  502 -0.53870262552E+03 -0.11155889238E+04 -0.76199704123E+01  0.12388782505E+04  0.46999998093E+01 0.  1.
</event>
<event>
 5   0  0.3814260E-06  0.2488625E+04  0.7818609E-02  0.8407049E-01
        2   -1    0    0  501    0  0.00000000000E+00  0.00000000000E+00  0.28975487661E+04  0.28975487661E+04  0.25500000920E-02 0.  1.
       -2   -1    0    0    0  501  0.00000000000E+00  0.00000000000E+00 -0.53435286154E+03  0.53435286154E+03  0.25500000920E-02 0. -1.
    10030    2    1    2    0    0  0.00000000000E+00  0.00000000000E+00  0.23631959045E+04  0.34319016276E+04  0.24886249011E+04 0.  0.
        5    1    3    3  502    0  0.30707753399E+03 -0.56884749203E+03  0.26477967726E+04  0.27255703844E+04  0.46999998093E+01 0.  1.
       -5    1    3    3    0  502 -0.30707753399E+03  0.56884749203E+03 -0.28460086809E+03  0.70633124324E+03  0.46999998093E+01 0. -1.
</event>
<event>
 5   0  0.1501747E-06  0.2513387E+04  0.7818609E-02  0.8398232E-01
        1   -1    0    0  501    0  0.00000000000E+00  0.00000000000E+00  0.23713300490E+04  0.23713300490E+04  0.50400001928E-02 0. -1.
       -1   -1    0    0    0  501  0.00000000000E+00  0.00000000000E+00 -0.66598857503E+03  0.66598857505E+03  0.50400001928E-02 0.  1.
    10030    2    1    2    0    0  0.00000000000E+00  0.00000000000E+00  0.17053414740E+04  0.30373186241E+04  0.25133871332E+04 0.  0.
        2    1    3    3  502    0 -0.84003888074E+03  0.48600495437E+03 -0.11213812097E+03  0.97695501176E+03  0.25500000920E-02 0.  1.
       -2    1    3    3    0  502  0.84003888074E+03 -0.48600495437E+03  0.18174795949E+04  0.20603636123E+04  0.25500000920E-02 0. -1.
</event>
<event>
 5   0  0.3814260E-06  0.2500234E+04  0.7818609E-02  0.8402902E-01
       -2   -1    0    0    0  501  0.00000000000E+00  0.00000000000E+00  0.99506088338E+03  0.99506088339E+03  0.25500000920E-02 0. -1.
        2   -1    0    0  501    0  0.00000000000E+00  0.00000000000E+00 -0.15705502375E+04  0.15705502375E+04  0.25500000920E-02 0.  1.
    10030    2    1    2    0    0  0.00000000000E+00  0.00000000000E+00 -0.57548935408E+03  0.25656111209E+04  0.25002344744E+04 0.  0.
        5    1    3    3  502    0 -0.74242395404E+03  0.71219678712E+03  0.44100366168E+03  0.11193408376E+04  0.46999998093E+01 0. -1.
       -5    1    3    3    0  502  0.74242395404E+03 -0.71219678712E+03 -0.10164930158E+04  0.14462702832E+04  0.46999998093E+01 0.  1.
</event>
<event>
 5   0  0.1574896E-06  0.2492175E+04  0.7818609E-02  0.8405779E-01
        1   -1    0    0  501    0  0.00000000000E+00  0.00000000000E+00  0.17965533160E+04  0.17965533161E+04  0.50400001928E-02 0.  1.
       -1   -1    0    0    0  501  0.00000000000E+00  0.00000000000E+00 -0.86428471089E+03  0.86428471090E+03  0.50400001928E-02 0. -1.
    10030    2    1    2    0    0  0.00000000000E+00  0.00000000000E+00  0.93226860516E+03  0.26608380270E+04  0.24921746033E+04 0.  0.
        3    1    3    3  502    0 -0.68356128959E+03 -0.63403195074E+03 -0.41654551441E+03  0.10211575427E+04  0.10100000352E+00 0. -1.
       -3    1    3    3    0  502  0.68356128959E+03  0.63403195074E+03  0.13488141196E+04  0.16396804843E+04  0.10100000352E+00 0.  1.
</event>
<event>
 5   0  0.1519145E-06  0.2511229E+04  0.7818609E-02  0.8398996E-01
        1   -1    0    0  501    0  0.00000000000E+00  0.00000000000E+00  0.16024173040E+04  0.16024173040E+04  0.50400001928E-02 0.  1.
       -1   -1    0    0    0  501  0.00000000000E+00  0.00000000000E+00 -0.98386834471E+03  0.98386834472E+03  0.50400001928E-02 0. -1.
    10030    2    1    2    0    0  0.00000000000E+00  0.00000000000E+00  0.61854895930E+03  0.25862856487E+04  0.25112289107E+04 0.  0.
        4    1    3    3  502    0 -0.26397507708E+03 -0.46827410333E+03  0.14779154421E+04  0.15726408185E+04  0.12699999809E+01 0.  1.
       -4    1    3    3    0  502  0.26397507708E+03  0.46827410333E+03 -0.85936648280E+03  0.10136448302E+04  0.12699999809E+01 0. -1.
</event>
<event>
 5   0  0.1574896E-06  0.2500100E+04  0.7818609E-02  0.8402950E-01
        1   -1    0    0  501    0  0.00000000000E+00  0.00000000000E+00  0.15666696067E+04  0.15666696067E+04  0.50400001928E-02 0. -1.
       -1   -1    0    0    0  501  0.00000000000E+00  0.00000000000E+00 -0.99741855162E+03  0.99741855164E+03  0.50400001928E-02 0.  1.
    10030    2    1    2    0    0  0.00000000000E+00  0.00000000000E+00  0.56925105510E+03  0.25640881584E+04  0.25001002620E+04 0.  0.
        3    1    3    3  502    0 -0.25378524534E+03 -0.12163165290E+04  0.14403130832E+03  0.12508308748E+04  0.10100000352E+00 0. -1.
       -3    1    3    3    0  502  0.25378524534E+03  0.12163165290E+04  0.42521974677E+03  0.13132572835E+04  0.10100000352E+00 0.  1.
</event>
<event>
 5   0  0.1574896E-06  0.2506683E+04  0.7818609E-02  0.8400609E-01
       -1   -1    0    0    0  501  0.00000000000E+00  0.00000000000E+00  0.61852725445E+03  0.61852725447E+03  0.50400001928E-02 0.  1.
        1   -1    0    0  501    0  0.00000000000E+00  0.00000000000E+00 -0.25396858462E+04  0.25396858462E+04  0.50400001928E-02 0. -1.
    10030    2    1    2    0    0  0.00000000000E+00  0.00000000000E+00 -0.19211585917E+04  0.31582131006E+04  0.25066829984E+04 0.  0.
        3    1    3    3  502    0 -0.22686353399E+03  0.13192415996E+03  0.58352308786E+03  0.63982048365E+03  0.10100000352E+00 0.  1.
       -3    1    3    3    0  502  0.22686353399E+03 -0.13192415996E+03 -0.25046816796E+04  0.25183926170E+04  0.10100000352E+00 0. -1.
</event>
<event>
 5   0  0.3924441E-06  0.2500870E+04  0.7818609E-02  0.8402676E-01
        2   -1    0    0  501    0  0.00000000000E+00  0.00000000000E+00  0.12432562350E+04  0.12432562350E+04  0.25500000920E-02 0. -1.
       -2   -1    0    0    0  501  0.00000000000E+00  0.00000000000E+00 -0.12576550465E+04  0.12576550465E+04  0.25500000920E-02 0.  1.
    10030    2    1    2    0    0  0.00000000000E+00  0.00000000000E+00 -0.14398811557E+02  0.25009112815E+04  0.25008698311E+04 0.  0.
        2    1    3    3  502    0  0.81230498530E+03  0.20232296583E+03 -0.93609235322E+03  0.12558036731E+04  0.25500000920E-02 0.  1.
       -2    1    3    3    0  502 -0.81230498530E+03 -0.20232296583E+03  0.92169354166E+03  0.12451076084E+04  0.25500000920E-02 0. -1.
</event>
<event>
 5   0  0.1541852E-06  0.2500141E+04  0.7818609E-02  0.8402935E-01
       -1   -1    0    0    0  501  0.00000000000E+00  0.00000000000E+00  0.21904900458E+04  0.21904900458E+04  0.50400001928E-02 0. -1.
        1   -1    0    0  501    0  0.00000000000E+00  0.00000000000E+00 -0.71339141872E+03  0.71339141874E+03  0.50400001928E-02 0.  1.
    10030    2    1    2    0    0  0.00000000000E+00  0.00000000000E+00  0.14770986271E+04  0.29038814646E+04  0.25001414372E+04 0.  0.
        5    1    3    3  502    0  0.10280103212E+04  0.23511626480E+03  0.15181915563E+04  0.18485163158E+04  0.46999998093E+01 0. -1.
       -5    1    3    3    0  502 -0.10280103212E+04 -0.23511626480E+03 -0.41092929142E+02  0.10553651488E+04  0.46999998093E+01 0.  1.
</event>
<event>
 5   0  0.1501747E-06  0.2504290E+04  0.7818609E-02  0.8401459E-01
       -1   -1    0    0    0  501  0.00000000000E+00  0.00000000000E+00  0.11300202432E+04  0.11300202432E+04  0.50400001928E-02 0. -1.
        1   -1    0    0  501    0  0.00000000000E+00  0.00000000000E+00 -0.13874687074E+04  0.13874687074E+04  0.50400001928E-02 0.  1.
    10030    2    1    2    0    0  0.00000000000E+00  0.00000000000E+00 -0.25744846421E+03  0.25174889507E+04  0.25042904993E+04 0.  0.
        2    1    3    3  502    0  0.12427545499E+04 -0.84367073496E+02 -0.25711206042E+03  0.12718739269E+04  0.25500000920E-02 0. -1.
       -2    1    3    3    0  502 -0.12427545499E+04  0.84367073496E+02 -0.33640379033E+00  0.12456150238E+04  0.25500000920E-02 0.  1.
</event>
<event>
 5   0  0.1574896E-06  0.2486159E+04  0.7818609E-02  0.8407933E-01
        1   -1    0    0  501    0  0.00000000000E+00  0.00000000000E+00  0.13632895844E+04  0.13632895844E+04  0.50400001928E-02 0. -1.
       -1   -1    0    0    0  501  0.00000000000E+00  0.00000000000E+00 -0.11334691909E+04  0.11334691909E+04  0.50400001928E-02 0.  1.
    10030    2    1    2    0    0  0.00000000000E+00  0.00000000000E+00  0.22982039347E+03  0.24967587754E+04  0.24861590796E+04 0.  0.
        3    1    3    3  502    0 -0.40134089352E+03  0.94206808075E+03  0.82267014994E+03  0.13135269192E+04  0.10100000352E+00 0. -1.
       -3    1    3    3    0  502  0.40134089352E+03 -0.94206808075E+03 -0.59284975646E+03  0.11832318562E+04  0.10100000352E+00 0.  1.
</event>
<event>
 5   0  0.3808293E-06  0.2500175E+04  0.7818609E-02  0.8402923E-01
       -2   -1    0    0    0  501  0.00000000000E+00  0.00000000000E+00  0.15259081672E+04  0.15259081672E+04  0.25500000920E-02 0. -1.
        2   -1    0    0  501    0  0.00000000000E+00  0.00000000000E+00 -0.10241236728E+04  0.10241236728E+04  0.25500000920E-02 0.  1.
    10030    2    1    2    0    0  0.00000000000E+00  0.00000000000E+00  0.50178449442E+03  0.25500318400E+04  0.25001749351E+04 0.  0.
        1    1    3    3  502    0 -0.12127052409E+04  0.64775046801E+02  0.55323023824E+03  0.13345087128E+04  0.50400001928E-02 0. -1.
       -1    1    3    3    0  502  0.12127052409E+04 -0.64775046801E+02 -0.51445743818E+02  0.12155231272E+04  0.50400001928E-02 0.  1.
</event>
<event>
 5   0  0.3924441E-06  0.2497758E+04  0.7818609E-02  0.8403785E-01
       -2   -1    0    0    0  501  0.00000000000E+00  0.00000000000E+00  0.10715801794E+04  0.10715801794E+04  0.25500000920E-02 0. -1.
        2   -1    0    0  501    0  0.00000000000E+00  0.00000000000E+00 -0.14555131824E+04  0.14555131824E+04  0.25500000920E-02 0.  1.
    10030    2    1    2    0    0  0.00000000000E+00  0.00000000000E+00 -0.38393300297E+03  0.25270933618E+04  0.24977582566E+04 0.  0.
        2    1    3    3  502    0 -0.22286994199E+03 -0.30157900163E+03 -0.13972079080E+04  0.14466550534E+04  0.25500000920E-02 0.  1.
       -2    1    3    3    0  502  0.22286994199E+03  0.30157900163E+03  0.10132749050E+04  0.10804383085E+04  0.25500000920E-02 0. -1.
</event>
<event>
 5   0  0.1574896E-06  0.2503827E+04  0.7818609E-02  0.8401623E-01
       -1   -1    0    0    0  501  0.00000000000E+00  0.00000000000E+00  0.13484801888E+04  0.13484801889E+04  0.50400001928E-02 0.  1.
        1   -1    0    0  501    0  0.00000000000E+00  0.00000000000E+00 -0.11622625058E+04  0.11622625058E+04  0.50400001928E-02 0. -1.
    10030    2    1    2    0    0  0.00000000000E+00  0.00000000000E+00  0.18621768301E+03  0.25107426947E+04  0.25038274408E+04 0.  0.
        3    1    3    3  502    0  0.23657732148E+03 -0.30988793321E+03  0.12860535527E+04  0.13438501073E+04  0.10100000352E+00 0.  1.
       -3    1    3    3    0  502 -0.23657732148E+03  0.30988793321E+03 -0.10998358697E+04  0.11668925874E+04  0.10100000352E+00 0. -1.
</event>
<event>
 5   0  0.3808293E-06  0.2491527E+04  0.7818609E-02  0.8406010E-01
        2   -1    0    0  501    0  0.00000000000E+00  0.00000000000E+00  0.17941164104E+04  0.17941164104E+04  0.25500000920E-02 0.  1.
       -2   -1    0    0    0  501  0.00000000000E+00  0.00000000000E+00 -0.86500913538E+03  0.86500913538E+03  0.25500000920E-02 0. -1.
    10030    2    1    2    0    0  0.00000000000E+00  0.00000000000E+00  0.92910727499E+03  0.26591255457E+04  0.24915273106E+04 0.  0.
        1    1    3    3  502    0 -0.10741844728E+04 -0.31883102958E+03 -0.11649628264E+03  0.11265420058E+04  0.50400001928E-02 0. -1.
       -1    1    3    3    0  502  0.10741844728E+04  0.31883102958E+03  0.10456035576E+04  0.15325835399E+04  0.50400001928E-02 0.  1.
</event>
<event>
 5   0  0.1553604E-06  0.2506281E+04  0.7818609E-02  0.8400751E-01
        1   -1    0    0  501    0  0.00000000000E+00  0.00000000000E+00  0.13316881267E+04  0.13316881268E+04  0.50400001928E-02 0. -1.
       -1   -1    0    0    0  501  0.00000000000E+00  0.00000000000E+00 -0.11792256884E+04  0.11792256884E+04  0.50400001928E-02 0.  1.
    10030    2    1    2    0    0  0.00000000000E+00  0.00000000000E+00  0.15246243834E+03  0.25109138152E+04  0.25062807888E+04 0.  0.
        1    1    3    3  502    0  0.70666422551E+03 -0.81035671731E+03 -0.56862665699E+03  0.12163012012E+04  0.50400001928E-02 0.  1.
       -1    1    3    3    0  502 -0.70666422551E+03  0.81035671731E+03  0.72108909533E+03  0.12946126140E+04  0.50400001928E-02 0. -1.
</event>
<event>
 5   0  0.1574896E-06  0.2501155E+04  0.7818609E-02  0.8402574E-01
        1   -1    0    0  501    0  0.00000000000E+00  0.00000000000E+00  0.15415523267E+04  0.15415523267E+04  0.50400001928E-02 0.  1.
       -1   -1    0    0    0  501  0.00000000000E+00  0.00000000000E+00 -0.10145257412E+04  0.10145257412E+04  0.50400001928E-02 0. -1.
    10030    2    1    2    0    0  0.00000000000E+00  0.00000000000E+00  0.52702658547E+03  0.25560780679E+04  0.25011553465E+04 0.  0.
        3    1    3    3  502    0 -0.98265522879E+03 -0.76983949021E+03  0.18649007550E+03  0.12621579528E+04  0.10100000352E+00 0. -1.
       -3    1    3    3    0  502  0.98265522879E+03  0.76983949021E+03  0.34053650997E+03  0.12939201151E+04  0.10100000352E+00 0.  1.
</event>
<event>
 5   0  0.3808293E-06  0.2501780E+04  0.7818609E-02  0.8402352E-01
       -2   -1    0    0    0  501  0.00000000000E+00  0.00000000000E+00  0.56047611823E+03  0.56047611823E+03  0.25500000920E-02 0. -1.
        2   -1    0    0  501    0  0.00000000000E+00  0.00000000000E+00 -0.27917805393E+04  0.27917805393E+04  0.25500000920E-02 0.  1.
    10030    2    1    2    0    0  0.00000000000E+00  0.00000000000E+00 -0.22313044210E+04  0.33522566575E+04  0.25017804217E+04 0.  0.
        1    1    3    3  502    0  0.40722550863E+03  0.21674343763E+03  0.44233154204E+03  0.63911464210E+03  0.50400001928E-02 0. -1.
       -1    1    3    3    0  502 -0.40722550863E+03 -0.21674343763E+03 -0.26736359631E+04  0.27131420154E+04  0.50400001928E-02 0.  1.
</event>
<event>
 5   0  0.1501747E-06  0.2499337E+04  0.7818609E-02  0.8403222E-01
        1   -1    0    0  501    0  0.00000000000E+00  0.00000000000E+00  0.19156468895E+04  0.19156468895E+04  0.50400001928E-02 0.  1.
       -1   -1    0    0    0  501  0.00000000000E+00  0.00000000000E+00 -0.81521877991E+03  0.81521877993E+03  0.50400001928E-02 0. -1.
    10030    2    1    2    0    0  0.00000000000E+00  0.00000000000E+00  0.11004281096E+04  0.27308656695E+04  0.24993369681E+04 0.  0.
        2    1    3    3  502    0 -0.17536598529E+03  0.13852053260E+03 -0.79320858446E+03  0.82408799603E+03  0.25500000920E-02 0. -1.
       -2    1    3    3    0  502  0.17536598529E+03 -0.13852053260E+03  0.18936366941E+04  0.19067776734E+04  0.25500000920E-02 0.  1.
</event>
<event>
 5   0  0.3808293E-06  0.2499339E+04  0.7818609E-02  0.8403221E-01
        2   -1    0    0  501    0  0.00000000000E+00  0.00000000000E+00  0.10072412143E+04  0.10072412143E+04  0.25500000920E-02 0.  1.
       -2   -1    0    0    0  501  0.00000000000E+00  0.00000000000E+00 -0.15504472109E+04  0.15504472109E+04  0.25500000920E-02 0. -1.
    10030    2    1    2    0    0  0.00000000000E+00  0.00000000000E+00 -0.54320599659E+03  0.25576884252E+04  0.24993393778E+04 0.  0.
        1    1    3    3  502    0 -0.45742659696E+03  0.55964144779E+02 -0.14603164856E+04  0.15313051019E+04  0.50400001928E-02 0. -1.
       -1    1    3    3    0  502  0.45742659696E+03 -0.55964144779E+02  0.91711048900E+03  0.10263833232E+04  0.50400001928E-02 0.  1.
</event>
<event>
 5   0  0.3814260E-06  0.2495629E+04  0.7818609E-02  0.8404544E-01
       -2   -1    0    0    0  501  0.00000000000E+00  0.00000000000E+00  0.63918136647E+03  0.63918136647E+03  0.25500000920E-02 0. -1.
        2   -1    0    0  501    0  0.00000000000E+00  0.00000000000E+00 -0.24359934433E+04  0.24359934433E+04  0.25500000920E-02 0.  1.
    10030    2    1    2    0    0  0.00000000000E+00  0.00000000000E+00 -0.17968120768E+04  0.30751748098E+04  0.24956294739E+04 0.  0.
        5    1    3    3  502    0  0.41264903397E+03 -0.27838942784E+03 -0.23083416294E+04  0.23614070100E+04  0.46999998093E+01 0.  1.
       -5    1    3    3    0  502 -0.41264903397E+03  0.27838942784E+03  0.51152955261E+03  0.71376779975E+03  0.46999998093E+01 0. -1.
</event>
<event>
 5   0  0.3971759E-06  0.2501973E+04  0.7818609E-02  0.8402283E-01
       -2   -1    0    0    0  501  0.00000000000E+00  0.00000000000E+00  0.54812217178E+03  0.54812217179E+03  0.25500000920E-02 0.  1.
        2   -1    0    0  501    0  0.00000000000E+00  0.00000000000E+00 -0.28551438198E+04  0.28551438198E+04  0.25500000920E-02 0. -1.
    10030    2    1    2    0    0  0.00000000000E+00  0.00000000000E+00 -0.23070216480E+04  0.34032659916E+04  0.25019733262E+04 0.  0.
        4    1    3    3  502    0 -0.86184882424E+03  0.73169971018E+03 -0.42505805849E+03  0.12078260751E+04  0.12699999809E+01 0.  1.
       -4    1    3    3    0  502  0.86184882424E+03 -0.73169971018E+03 -0.18819635896E+04  0.21954399165E+04  0.12699999809E+01 0. -1.
</event>
<event>
 5   0  0.1574896E-06  0.2502485E+04  0.7818609E-02  0.8402101E-01
        1   -1    0    0  501    0  0.00000000000E+00  0.00000000000E+00  0.20344918381E+04  0.20344918381E+04  0.50400001928E-02 0.  1.
       -1   -1    0    0    0  501  0.00000000000E+00  0.00000000000E+00 -0.76953284412E+03  0.76953284414E+03  0.50400001928E-02 0. -1.
    10030    2    1    2    0    0  0.00000000000E+00  0.00000000000E+00  0.12649589940E+04  0.28040246822E+04  0.25024853970E+04 0.  0.
        3    1    3    3  502    0 -0.91001856053E+03  0.18746827967E+03 -0.30655367575E+03  0.97839322499E+03  0.10100000352E+00 0. -1.
       -3    1    3    3    0  502  0.91001856053E+03 -0.18746827967E+03  0.15715126697E+04  0.18256314572E+04  0.10100000352E+00 0.  1.
</event>
<event>
 5   0  0.1574896E-06  0.2502787E+04  0.7818609E-02  0.8401993E-01
        1   -1    0    0  501    0  0.00000000000E+00  0.00000000000E+00  0.14810608437E+04  0.14810608437E+04  0.50400001928E-02 0.  1.
       -1   -1    0    0    0  501  0.00000000000E+00  0.00000000000E+00 -0.10573402978E+04  0.10573402978E+04  0.50400001928E-02 0. -1.
    10030    2    1    2    0    0  0.00000000000E+00  0.00000000000E+00  0.42372054588E+03  0.25384011416E+04  0.25027866978E+04 0.  0.
        3    1    3    3  502    0 -0.61977724567E+03  0.10726304108E+04  0.32351688614E+02  0.12392362464E+04  0.10100000352E+00 0. -1.
       -3    1    3    3    0  502  0.61977724567E+03 -0.10726304108E+04  0.39136885727E+03  0.12991648952E+04  0.10100000352E+00 0.  1.
</event>
<event>
 5   0  0.3713394E-06  0.2502814E+04  0.7818609E-02  0.8401984E-01
       -2   -1    0    0    0  501  0.00000000000E+00  0.00000000000E+00  0.79075489337E+03  0.79075489337E+03  0.25500000920E-02 0.  1.
        2   -1    0    0  501    0  0.00000000000E+00  0.00000000000E+00 -0.19804104587E+04  0.19804104587E+04  0.25500000920E-02 0. -1.
    10030    2    1    2    0    0  0.00000000000E+00  0.00000000000E+00 -0.11896555653E+04  0.27711653521E+04  0.25028138253E+04 0.  0.
        3    1    3    3  502    0  0.20393059296E+03  0.39865917039E+03 -0.18886664724E+04  0.19410249547E+04  0.10100000352E+00 0. -1.
       -3    1    3    3    0  502 -0.20393059296E+03 -0.39865917039E+03  0.69901090705E+03  0.83014039732E+03  0.10100000352E+00 0.  1.
</event>
<event>
 5   0  0.3971759E-06  0.2485557E+04  0.7818609E-02  0.8408149E-01
       -2   -1    0    0    0  501  0.00000000000E+00  0.00000000000E+00  0.90875978233E+03  0.90875978233E+03  0.25500000920E-02 0.  1.
        2   -1    0    0  501    0  0.00000000000E+00  0.00000000000E+00 -0.16995667207E+04  0.16995667207E+04  0.25500000920E-02 0. -1.
    10030    2    1    2    0    0  0.00000000000E+00  0.00000000000E+00 -0.79080693841E+03  0.26083265031E+04  0.24855565841E+04 0.  0.
        4    1    3    3  502    0 -0.39560090487E+03  0.31786452286E+02  0.84047085513E+03  0.92946399914E+03  0.12699999809E+01 0.  1.
       -4    1    3    3    0  502  0.39560090487E+03 -0.31786452286E+02 -0.16312777935E+04  0.16788625039E+04  0.12699999809E+01 0. -1.
</event>
<event>
 5   0  0.1501747E-06  0.2501911E+04  0.7818609E-02  0.8402305E-01
        1   -1    0    0  501    0  0.00000000000E+00  0.00000000000E+00  0.19199475642E+04  0.19199475642E+04  0.50400001928E-02 0.  1.
       -1   -1    0    0    0  501  0.00000000000E+00  0.00000000000E+00 -0.81506895254E+03  0.81506895256E+03  0.50400001928E-02 0. -1.
    10030    2    1    2    0    0  0.00000000000E+00  0.00000000000E+00  0.11048786116E+04  0.27350165167E+04  0.25019109897E+04 0.  0.
        2    1    3    3  502    0 -0.58284858030E+03 -0.30761337303E+03  0.17147793908E+04  0.18370647278E+04  0.25500000920E-02 0.  1.
       -2    1    3    3    0  502  0.58284858030E+03  0.30761337303E+03 -0.60990077920E+03  0.89795178896E+03  0.25500000920E-02 0. -1.
</event>
<event>
 5   0  0.1553604E-06  0.2438242E+04  0.7818609E-02  0.8425324E-01
       -1   -1    0    0    0  501  0.00000000000E+00  0.00000000000E+00  0.14299180843E+04  0.14299180843E+04  0.50400001928E-02 0. -1.
        1   -1    0    0  501    0  0.00000000000E+00  0.00000000000E+00 -0.10393994214E+04  0.10393994214E+04  0.50400001928E-02 0.  1.
    10030    2    1    2    0    0  0.00000000000E+00  0.00000000000E+00  0.39051866294E+03  0.24693175057E+04  0.24382420138E+04 0.  0.
        1    1    3    3  502    0  0.58579216103E+03  0.58322921322E+03 -0.71223440171E+03  0.10911400525E+04  0.50400001928E-02 0.  1.
       -1    1    3    3    0  502 -0.58579216103E+03 -0.58322921322E+03  0.11027530647E+04  0.13781774533E+04  0.50400001928E-02 0. -1.
</event>
<event>
 5   0  0.1501747E-06  0.2500186E+04  0.7818609E-02  0.8402919E-01
       -1   -1    0    0    0  501  0.00000000000E+00  0.00000000000E+00  0.15589042225E+04  0.15589042225E+04  0.50400001928E-02 0.  1.
        1   -1    0    0  501    0  0.00000000000E+00  0.00000000000E+00 -0.10024556966E+04  0.10024556966E+04  0.50400001928E-02 0. -1.
    10030    2    1    2    0    0  0.00000000000E+00  0.00000000000E+00  0.55644852591E+03  0.25613599191E+04  0.25001859278E+04 0.  0.
        2    1    3    3  502    0 -0.11612961328E+04  0.28056982475E+03  0.65520095985E+03  0.13625771290E+04  0.25500000920E-02 0. -1.
       -2    1    3    3    0  502  0.11612961328E+04 -0.28056982475E+03 -0.98752433937E+02  0.11987827901E+04  0.25500000920E-02 0.  1.
</event>
<event>
 5   0  0.3971759E-06  0.2499035E+04  0.7818609E-02  0.8403329E-01
        2   -1    0    0  501    0  0.00000000000E+00  0.00000000000E+00  0.13613877952E+04  0.13613877952E+04  0.25500000920E-02 0.  1.
       -2   -1    0    0    0  501  0.00000000000E+00  0.00000000000E+00 -0.11468403810E+04  0.11468403810E+04  0.25500000920E-02 0. -1.
    10030    2    1    2    0    0  0.00000000000E+00  0.00000000000E+00  0.21454741415E+03  0.25082281762E+04  0.24990354121E+04 0.  0.
        4    1    3    3  502    0  0.64776175337E+03  0.98040732248E+03  0.53368836543E+03  0.12905885058E+04  0.12699999809E+01 0.  1.
       -4    1    3    3    0  502 -0.64776175337E+03 -0.98040732248E+03 -0.31914095127E+03  0.12176396703E+04  0.12699999809E+01 0. -1.
</event>
<event>
 5   0  0.3971759E-06  0.2494602E+04  0.7818609E-02  0.8404911E-01
        2   -1    0    0  501    0  0.00000000000E+00  0.00000000000E+00  0.55008657410E+03  0.55008657410E+03  0.25500000920E-02 0.  1.
       -2   -1    0    0    0  501  0.00000000000E+00  0.00000000000E+00 -0.28282100717E+04  0.28282100717E+04  0.25500000920E-02 0. -1.
    10030    2    1    2    0    0  0.00000000000E+00  0.00000000000E+00 -0.22781234976E+04  0.33782966458E+04  0.24946024847E+04 0.  0.
        4    1    3    3  502    0  0.46277283182E+02 -0.84244165388E+03  0.10500678259E+03  0.85022206771E+03  0.12699999809E+01 0.  1.
       -4    1    3    3    0  502 -0.46277283182E+02  0.84244165388E+03 -0.23831302802E+04  0.25280745781E+04  0.12699999809E+01 0. -1.
</event>
<event>
 5   0  0.3814260E-06  0.2447389E+04  0.7818609E-02  0.8421972E-01
        2   -1    0    0  501    0  0.00000000000E+00  0.00000000000E+00  0.25342354906E+04  0.25342354906E+04  0.25500000920E-02 0.  1.
       -2   -1    0    0    0  501  0.00000000000E+00  0.00000000000E+00 -0.59087969829E+03  0.59087969830E+03  0.25500000920E-02 0. -1.
    10030    2    1    2    0    0  0.00000000000E+00  0.00000000000E+00  0.19433557923E+04  0.31251151889E+04  0.24473890595E+04 0.  0.
        5    1    3    3  502    0 -0.98504348756E+03 -0.67361446273E+03  0.62587327743E+03  0.13475186701E+04  0.46999998093E+01 0. -1.
       -5    1    3    3    0  502  0.98504348756E+03  0.67361446273E+03  0.13174825149E+04  0.17775965188E+04  0.46999998093E+01 0.  1.
</event>
<event>
 5   0  0.1574896E-06  0.2495465E+04  0.7818609E-02  0.8404603E-01
       -1   -1    0    0    0  501  0.00000000000E+00  0.00000000000E+00  0.15163606770E+04  0.15163606770E+04  0.50400001928E-02 0. -1.
        1   -1    0    0  501    0  0.00000000000E+00  0.00000000000E+00 -0.10266927349E+04  0.10266927349E+04  0.50400001928E-02 0.  1.
    10030    2    1    2    0    0  0.00000000000E+00  0.00000000000E+00  0.48966794213E+03  0.25430534119E+04  0.24954650794E+04 0.  0.
        3    1    3    3  502    0  0.37103017005E+03  0.10535309160E+04 -0.32186943289E+03  0.11624072953E+04  0.10100000352E+00 0. -1.
       -3    1    3    3    0  502 -0.37103017005E+03 -0.10535309160E+04  0.81153737502E+03  0.13806461166E+04  0.10100000352E+00 0.  1.
</event>
<event>
 5   0  0.1501747E-06  0.2501297E+04  0.7818609E-02  0.8402524E-01
       -1   -1    0    0    0  501  0.00000000000E+00  0.00000000000E+00  0.12299135173E+04  0.12299135173E+04  0.50400001928E-02 0. -1.
        1   -1    0    0  501    0  0.00000000000E+00  0.00000000000E+00 -0.12717333394E+04  0.12717333394E+04  0.50400001928E-02 0.  1.
    10030    2    1    2    0    0  0.00000000000E+00  0.00000000000E+00 -0.41819822143E+02  0.25016468567E+04  0.25012972831E+04 0.  0.
        2    1    3    3  502    0 -0.54080162026E+03 -0.40941336042E+03 -0.10717880902E+04  0.12683908714E+04  0.25500000920E-02 0.  1.
       -2    1    3    3    0  502  0.54080162026E+03  0.40941336042E+03  0.10299682681E+04  0.12332559854E+04  0.25500000920E-02 0. -1.
</event>
<event>
 5   0  0.3808293E-06  0.2499497E+04  0.7818609E-02  0.8403165E-01
        2   -1    0    0  501    0  0.00000000000E+00  0.00000000000E+00  0.22437666935E+04  0.22437666935E+04  0.25500000920E-02 0. -1.
       -2   -1    0    0    0  501  0.00000000000E+00  0.00000000000E+00 -0.69609372722E+03  0.69609372722E+03  0.25500000920E-02 0.  1.
    10030    2    1    2    0    0  0.00000000000E+00  0.00000000000E+00  0.15476729663E+04  0.29398604208E+04  0.24994974861E+04 0.  0.
        1    1    3    3  502    0 -0.33976250429E+03  0.54423096884E+03  0.20352845501E+04  0.21340124429E+04  0.50400001928E-02 0. -1.
       -1    1    3    3    0  502  0.33976250429E+03 -0.54423096884E+03 -0.48761158374E+03  0.80584797785E+03  0.50400001928E-02 0.  1.
</event>
<event>
 5   0  0.1519145E-06  0.2478552E+04  0.7818609E-02  0.8410666E-01
       -1   -1    0    0    0  501  0.00000000000E+00  0.00000000000E+00  0.92204760379E+03  0.92204760380E+03  0.50400001928E-02 0.  1.
        1   -1    0    0  501    0  0.00000000000E+00  0.00000000000E+00 -0.16656467525E+04  0.16656467525E+04  0.50400001928E-02 0. -1.
    10030    2    1    2    0    0  0.00000000000E+00  0.00000000000E+00 -0.74359914868E+03  0.25876943563E+04  0.24785524783E+04 0.  0.
        4    1    3    3  502    0  0.84089154529E+02 -0.84003831175E+03 -0.13189803733E+04  0.15660287957E+04  0.12699999809E+01 0. -1.
       -4    1    3    3    0  502 -0.84089154529E+02  0.84003831175E+03  0.57538122457E+03  0.10216655605E+04  0.12699999809E+01 0.  1.
</event>
<event>
 5   0  0.3808293E-06  0.2499938E+04  0.7818609E-02  0.8403007E-01
        2   -1    0    0  501    0  0.00000000000E+00  0.00000000000E+00  0.17483704923E+04  0.17483704923E+04  0.25500000920E-02 0. -1.
       -2   -1    0    0    0  501  0.00000000000E+00  0.00000000000E+00 -0.89364522620E+03  0.89364522620E+03  0.25500000920E-02 0.  1.
    10030    2    1    2    0    0  0.00000000000E+00  0.00000000000E+00  0.85472526615E+03  0.26420157185E+04  0.24999383545E+04 0.  0.
        1    1    3    3  502    0 -0.85886131127E+03 -0.67304871250E+03  0.10717579760E+04  0.15294778457E+04  0.50400001928E-02 0. -1.
       -1    1    3    3    0  502  0.85886131127E+03  0.67304871250E+03 -0.21703270981E+03  0.11125378729E+04  0.50400001928E-02 0.  1.
</event>
<event>
 5   0  0.3924441E-06  0.2501096E+04  0.7818609E-02  0.8402595E-01
        2   -1    0    0  501    0  0.00000000000E+00  0.00000000000E+00  0.11999926497E+04  0.11999926497E+04  0.25500000920E-02 0. -1.
       -2   -1    0    0    0  501  0.00000000000E+00  0.00000000000E+00 -0.13032337088E+04  0.13032337088E+04  0.25500000920E-02 0.  1.
    10030    2    1    2    0    0  0.00000000000E+00  0.00000000000E+00 -0.10324105913E+03  0.25032263586E+04  0.25010964567E+04 0.  0.
        2    1    3    3  502    0  0.68526807991E+03  0.37767775076E+02  0.99466539488E+03  0.12084610022E+04  0.25500000920E-02 0. -1.
       -2    1    3    3    0  502 -0.68526807991E+03 -0.37767775076E+02 -0.10979064540E+04  0.12947653563E+04  0.25500000920E-02 0.  1.
</event>
<event>
 5   0  0.1519145E-06  0.2500215E+04  0.7818609E-02  0.8402909E-01
        1   -1    0    0  501    0  0.00000000000E+00  0.00000000000E+00  0.22843615538E+04  0.22843615539E+04  0.50400001928E-02 0.  1.
       -1   -1    0    0    0  501  0.00000000000E+00  0.00000000000E+00 -0.68411594853E+03  0.68411594855E+03  0.50400001928E-02 0. -1.
    10030    2    1    2    0    0  0.00000000000E+00  0.00000000000E+00  0.16002456053E+04  0.29684775024E+04  0.25002145278E+04 0.  0.
        4    1    3    3  502    0 -0.21986336432E+03  0.84850298331E+03  0.18583893309E+04  0.20547286268E+04  0.12699999809E+01 0.  1.
       -4    1    3    3    0  502  0.21986336432E+03 -0.84850298331E+03 -0.25814372562E+03  0.91374887558E+03  0.12699999809E+01 0. -1.
</event>
<event>
 5   0  0.3971759E-06  0.2500621E+04  0.7818609E-02  0.8402764E-01
        2   -1    0    0  501    0  0.00000000000E+00  0.00000000000E+00  0.18623947372E+04  0.18623947373E+04  0.25500000920E-02 0. -1.
       -2   -1    0    0    0  501  0.00000000000E+00  0.00000000000E+00 -0.83939056283E+03  0.83939056283E+03  0.25500000920E-02 0.  1.
    10030    2    1    2    0    0  0.00000000000E+00  0.00000000000E+00  0.10230041744E+04  0.27017853001E+04  0.25006211762E+04 0.  0.
        4    1    3    3  502    0 -0.11942621439E+04 -0.33213207049E+03  0.68805224133E+03  0.14177416127E+04  0.12699999809E+01 0.  1.
       -4    1    3    3    0  502  0.11942621439E+04  0.33213207049E+03  0.33495193309E+03  0.12840436874E+04  0.12699999809E+01 0. -1.
</event>
<event>
 5   0  0.1574896E-06  0.2498491E+04  0.7818609E-02  0.8403523E-01
       -1   -1    0    0    0  501  0.00000000000E+00  0.00000000000E+00  0.75203945788E+03  0.75203945789E+03  0.50400001928E-02 0.  1.
        1   -1    0    0  501    0  0.00000000000E+00  0.00000000000E+00 -0.20751763153E+04  0.20751763154E+04  0.50400001928E-02 0. -1.
    10030    2    1    2    0    0  0.00000000000E+00  0.00000000000E+00 -0.13231368575E+04  0.28272157732E+04  0.24984911216E+04 0.  0.
        3    1    3    3  502    0 -0.87451490436E+03 -0.29187734923E+01  0.34789640731E+03  0.94117838777E+03  0.10100000352E+00 0.  1.
       -3    1    3    3    0  502  0.87451490436E+03  0.29187734923E+01 -0.16710332648E+04  0.18860373855E+04  0.10100000352E+00 0. -1.
</event>
<event>
 5   0  0.3814260E-06  0.2497410E+04  0.7818609E-02  0.8403909E-01
        2   -1    0    0  501    0  0.00000000000E+00  0.00000000000E+00  0.10159361400E+04  0.10159361400E+04  0.25500000920E-02 0.  1.
       -2   -1    0    0    0  501  0.00000000000E+00  0.00000000000E+00 -0.15348051333E+04  0.15348051333E+04  0.25500000920E-02 0. -1.
    10030    2    1    2    0    0  0.00000000000E+00  0.00000000000E+00 -0.51886899328E+03  0.25507412732E+04  0.24974098604E+04 0.  0.
        5    1    3    3  502    0  0.77264005308E+03  0.90753058652E+03 -0.63975370757E+03  0.13527347535E+04  0.46999998093E+01 0.  1.
       -5    1    3    3    0  502 -0.77264005308E+03 -0.90753058652E+03  0.12088471428E+03  0.11980065197E+04  0.46999998093E+01 0. -1.
</event>
<event>
 5   0  0.3814260E-06  0.2502020E+04  0.7818609E-02  0.8402266E-01
       -2   -1    0    0    0  501  0.00000000000E+00  0.00000000000E+00  0.14645828193E+04  0.14645828193E+04  0.25500000920E-02 0.  1.
        2   -1    0    0  501    0  0.00000000000E+00  0.00000000000E+00 -0.10685818654E+04  0.10685818654E+04  0.25500000920E-02 0. -1.
    10030    2    1    2    0    0  0.00000000000E+00  0.00000000000E+00  0.39600095398E+03  0.25331646847E+04  0.25020204964E+04 0.  0.
        5    1    3    3  502    0 -0.81977409405E+03  0.31262523329E+03 -0.70486239219E+03  0.11254408841E+04  0.46999998093E+01 0. -1.
       -5    1    3    3    0  502  0.81977409405E+03 -0.31262523329E+03  0.11008633462E+04  0.14077238006E+04  0.46999998093E+01 0.  1.
</event>
<event>
 5   0  0.3808293E-06  0.2498833E+04  0.7818609E-02  0.8403401E-01
        2   -1    0    0  501    0  0.00000000000E+00  0.00000000000E+00  0.16872198891E+04  0.16872198891E+04  0.25500000920E-02 0. -1.
       -2   -1    0    0    0  501  0.00000000000E+00  0.00000000000E+00 -0.92521545497E+03  0.92521545498E+03  0.25500000920E-02 0.  1.
    10030    2    1    2    0    0  0.00000000000E+00  0.00000000000E+00  0.76200443411E+03  0.26124353441E+04  0.24988332616E+04 0.  0.
        1    1    3    3  502    0  0.27069472542E+03  0.83412995112E+02  0.16532090682E+04  0.16772994919E+04  0.50400001928E-02 0. -1.
       -1    1    3    3    0  502 -0.27069472542E+03 -0.83412995112E+02 -0.89120463413E+03  0.93513585218E+03  0.50400001928E-02 0.  1.
</event>
<event>
 5   0  0.1519145E-06  0.2491708E+04  0.7818609E-02  0.8405946E-01
        1   -1    0    0  501    0  0.00000000000E+00  0.00000000000E+00  0.19111560112E+04  0.19111560113E+04  0.50400001928E-02 0.  1.
       -1   -1    0    0    0  501  0.00000000000E+00  0.00000000000E+00 -0.81215325875E+03  0.81215325876E+03  0.50400001928E-02 0. -1.
    10030    2    1    2    0    0  0.00000000000E+00  0.00000000000E+00  0.10990027525E+04  0.27233092700E+04  0.24917075130E+04 0.  0.
        4    1    3    3  502    0  0.54472550088E+03  0.54714990926E+03  0.16181635805E+04  0.17929177005E+04  0.12699999809E+01 0.  1.
       -4    1    3    3    0  502 -0.54472550088E+03 -0.54714990926E+03 -0.51916082798E+03  0.93039156956E+03  0.12699999809E+01 0. -1.
</event>
<event>
 5   0  0.1574896E-06  0.2501639E+04  0.7818609E-02  0.8402402E-01
        1   -1    0    0  501    0  0.00000000000E+00  0.00000000000E+00  0.16173248015E+04  0.16173248015E+04  0.50400001928E-02 0. -1.
       -1   -1    0    0    0  501  0.00000000000E+00  0.00000000000E+00 -0.96736874792E+03  0.96736874793E+03  0.50400001928E-02 0.  1.
    10030    2    1    2    0    0  0.00000000000E+00  0.00000000000E+00  0.64995605358E+03  0.25846935494E+04  0.25016390373E+04 0.  0.
        3    1    3    3  502    0 -0.45091774872E+03 -0.39794181470E+03  0.14581422375E+04  0.15772961988E+04  0.10100000352E+00 0. -1.
       -3    1    3    3    0  502  0.45091774872E+03  0.39794181470E+03 -0.80818618388E+03  0.10073973506E+04  0.10100000352E+00 0.  1.
</event>
<event>
 5   0  0.1574896E-06  0.2474889E+04  0.7818609E-02  0.8411986E-01
        1   -1    0    0  501    0  0.00000000000E+00  0.00000000000E+00  0.14637938169E+04  0.14637938170E+04  0.50400001928E-02 0. -1.
       -1   -1    0    0    0  501  0.00000000000E+00  0.00000000000E+00 -0.10460963910E+04  0.10460963911E+04  0.50400001928E-02 0.  1.
    10030    2    1    2    0    0  0.00000000000E+00  0.00000000000E+00  0.41769742590E+03  0.25098902080E+04  0.24748894352E+04 0.  0.
        3    1    3    3  502    0 -0.10793342939E+04 -0.52030747827E+03  0.52239264768E+03  0.13071252727E+04  0.10100000352E+00 0. -1.
       -3    1    3    3    0  502  0.10793342939E+04  0.52030747827E+03 -0.10469522178E+03  0.12027649353E+04  0.10100000352E+00 0.  1.
</event>
<event>
 5   0  0.3971759E-06  0.2497985E+04  0.7818609E-02  0.8403704E-01
       -2   -1    0    0    0  501  0.00000000000E+00  0.00000000000E+00  0.15018221433E+04  0.15018221433E+04  0.25500000920E-02 0. -1.
        2   -1    0    0  501    0  0.00000000000E+00  0.00000000000E+00 -0.10387266955E+04  0.10387266955E+04  0.25500000920E-02 0.  1.
    10030    2    1    2    0    0  0.00000000000E+00  0.00000000000E+00  0.46309544788E+03  0.25405488388E+04  0.24979853900E+04 0.  0.
        4    1    3    3  502    0  0.29854445116E+03  0.32850920359E+03 -0.95579221182E+03  0.10538441304E+04  0.12699999809E+01 0.  1.
       -4    1    3    3    0  502 -0.29854445116E+03 -0.32850920359E+03  0.14188876597E+04  0.14867047084E+04  0.12699999809E+01 0. -1.
</event>
<event>
 5   0  0.1541852E-06  0.2507195E+04  0.7818609E-02  0.8400427E-01
        1   -1    0    0  501    0  0.00000000000E+00  0.00000000000E+00  0.83177992344E+03  0.83177992346E+03  0.50400001928E-02 0. -1.
       -1   -1    0    0    0  501  0.00000000000E+00  0.00000000000E+00 -0.18893297762E+04  0.18893297762E+04  0.50400001928E-02 0.  1.
    10030    2    1    2    0    0  0.00000000000E+00  0.00000000000E+00 -0.10575498527E+04  0.27211096996E+04  0.25071949080E+04 0.  0.
        5    1    3    3  502    0  0.85263546548E+03  0.79809648887E+03 -0.10232086315E+04  0.15527147955E+04  0.46999998093E+01 0. -1.
       -5    1    3    3    0  502 -0.85263546548E+03 -0.79809648887E+03 -0.34341221200E+02  0.11683949041E+04  0.46999998093E+01 0.  1.
</event>
<event>
 5   0  0.1519145E-06  0.2498581E+04  0.7818609E-02  0.8403491E-01
        1   -1    0    0  501    0  0.00000000000E+00  0.00000000000E+00  0.29620952958E+04  0.29620952958E+04  0.50400001928E-02 0.  1.
       -1   -1    0    0    0  501  0.00000000000E+00  0.00000000000E+00 -0.52689977150E+03  0.52689977152E+03  0.50400001928E-02 0. -1.
    10030    2    1    2    0    0  0.00000000000E+00  0.00000000000E+00  0.24351955243E+04  0.34889950674E+04  0.24985814652E+04 0.  0.
        4    1    3    3  502    0  0.50690032889E+03  0.46940115859E+03  0.26710787000E+04  0.27589759741E+04  0.12699999809E+01 0.  1.
       -4    1    3    3    0  502 -0.50690032889E+03 -0.46940115859E+03 -0.23588317565E+03  0.73001909329E+03  0.12699999809E+01 0. -1.
</event>
<event>
 5   0  0.1501747E-06  0.2501702E+04  0.7818609E-02  0.8402379E-01
        1   -1    0    0  501    0  0.00000000000E+00  0.00000000000E+00  0.21272025423E+04  0.21272025423E+04  0.50400001928E-02 0. -1.
       -1   -1    0    0    0  501  0.00000000000E+00  0.00000000000E+00 -0.73553334323E+03  0.73553334324E+03  0.50400001928E-02 0.  1.
    10030    2    1    2    0    0  0.00000000000E+00  0.00000000000E+00  0.13916691991E+04  0.28627358856E+04  0.25017021387E+04 0.  0.
        2    1    3    3  502    0 -0.10508388282E+04  0.33252082433E+03  0.13726233584E+04  0.17603770123E+04  0.25500000920E-02 0. -1.
       -2    1    3    3    0  502  0.10508388282E+04 -0.33252082433E+03  0.19045840724E+02  0.11023588733E+04  0.25500000920E-02 0.  1.
</event>
<event>
 5   0  0.3713394E-06  0.2492922E+04  0.7818609E-02  0.8405512E-01
       -2   -1    0    0    0  501  0.00000000000E+00  0.00000000000E+00  0.84135961169E+03  0.84135961170E+03  0.25500000920E-02 0. -1.
        2   -1    0    0  501    0  0.00000000000E+00  0.00000000000E+00 -0.18466119480E+04  0.18466119480E+04  0.25500000920E-02 0.  1.
    10030    2    1    2    0    0  0.00000000000E+00  0.00000000000E+00 -0.10052523363E+04  0.26879715597E+04  0.24929217489E+04 0.  0.
        3    1    3    3  502    0  0.94756704614E+03  0.33581968427E+03 -0.12971712625E+04  0.16411311531E+04  0.10100000352E+00 0.  1.
       -3    1    3    3    0  502 -0.94756704614E+03 -0.33581968427E+03  0.29191892616E+03  0.10468404066E+04  0.10100000352E+00 0. -1.
</event>
<event>
 5   0  0.3971759E-06  0.2502126E+04  0.7818609E-02  0.8402228E-01
        2   -1    0    0  501    0  0.00000000000E+00  0.00000000000E+00  0.20088595222E+04  0.20088595222E+04  0.25500000920E-02 0.  1.
       -2   -1    0    0    0  501  0.00000000000E+00  0.00000000000E+00 -0.77912804395E+03  0.77912804395E+03  0.25500000920E-02 0. -1.
    10030    2    1    2    0    0  0.00000000000E+00  0.00000000000E+00  0.12297314783E+04  0.27879875662E+04  0.25021261280E+04 0.  0.
        4    1    3    3  502    0 -0.66340528512E+02 -0.10098770800E+03 -0.77261060016E+03  0.78200277191E+03  0.12699999809E+01 0. -1.
       -4    1    3    3    0  502  0.66340528512E+02  0.10098770800E+03  0.20023420784E+04  0.20059847943E+04  0.12699999809E+01 0.  1.
</event>
<event>
 5   0  0.3713394E-06  0.2502936E+04  0.7818609E-02  0.8401940E-01
       -2   -1    0    0    0  501  0.00000000000E+00  0.00000000000E+00  0.95544375720E+03  0.95544375720E+03  0.25500000920E-02 0. -1.
        2   -1    0    0  501    0  0.00000000000E+00  0.00000000000E+00 -0.16392085829E+04  0.16392085829E+04  0.25500000920E-02 0.  1.
    10030    2    1    2    0    0  0.00000000000E+00  0.00000000000E+00 -0.68376482572E+03  0.25946523401E+04  0.25029355623E+04 0.  0.
        3    1    3    3  502    0  0.12120010201E+04 -0.18876881291E+03 -0.59915277241E+03  0.13651242407E+04  0.10100000352E+00 0. -1.
       -3    1    3    3    0  502 -0.12120010201E+04  0.18876881291E+03 -0.84612053305E+02  0.12295280994E+04  0.10100000352E+00 0.  1.
</event>
<event>
 5   0  0.3713394E-06  0.2498340E+04  0.7818609E-02  0.8403577E-01
        2   -1    0    0  501    0  0.00000000000E+00  0.00000000000E+00  0.14031744199E+04  0.14031744199E+04  0.25500000920E-02 0. -1.
       -2   -1    0    0    0  501  0.00000000000E+00  0.00000000000E+00 -0.11120681919E+04  0.11120681919E+04  0.25500000920E-02 0.  1.
    10030    2    1    2    0    0  0.00000000000E+00  0.00000000000E+00  0.29110622801E+03  0.25152426119E+04  0.24983399610E+04 0.  0.
        3    1    3    3  502    0 -0.10880025489E+03  0.19309542189E+03 -0.10921144746E+04  0.11143775721E+04  0.10100000352E+00 0.  1.
       -3    1    3    3    0  502  0.10880025489E+03 -0.19309542189E+03  0.13832207026E+04  0.14008650398E+04  0.10100000352E+00 0. -1.
</event>
<event>
 5   0  0.1541852E-06  0.2502996E+04  0.7818609E-02  0.8401919E-01
       -1   -1    0    0    0  501  0.00000000000E+00  0.00000000000E+00  0.12438392237E+04  0.12438392237E+04  0.50400001928E-02 0.  1.
        1   -1    0    0  501    0  0.00000000000E+00  0.00000000000E+00 -0.12592035373E+04  0.12592035373E+04  0.50400001928E-02 0. -1.
    10030    2    1    2    0    0  0.00000000000E+00  0.00000000000E+00 -0.15364313566E+02  0.25030427610E+04  0.25029956055E+04 0.  0.
        5    1    3    3  502    0  0.11121002637E+03 -0.11403811918E+04 -0.51106796839E+03  0.12546112907E+04  0.46999998093E+01 0. -1.
       -5    1    3    3    0  502 -0.11121002637E+03  0.11403811918E+04  0.49570365483E+03  0.12484314702E+04  0.46999998093E+01 0.  1.
</event>
<event>
 5   0  0.1519145E-06  0.2499449E+04  0.7818609E-02  0.8403182E-01
        1   -1    0    0  501    0  0.00000000000E+00  0.00000000000E+00  0.20129428234E+04  0.20129428234E+04  0.50400001928E-02 0. -1.
       -1   -1    0    0    0  501  0.00000000000E+00  0.00000000000E+00 -0.77588449731E+03  0.77588449732E+03  0.50400001928E-02 0.  1.
    10030    2    1    2    0    0  0.00000000000E+00  0.00000000000E+00  0.12370583261E+04  0.27888273207E+04  0.24994488438E+04 0.  0.
        4    1    3    3  502    0 -0.21772035071E+03  0.98562586148E+03 -0.20363189382E+03  0.10297223174E+04  0.12699999809E+01 0.  1.
       -4    1    3    3    0  502  0.21772035071E+03 -0.98562586148E+03  0.14406902199E+04  0.17591050033E+04  0.12699999809E+01 0. -1.
</event>
<event>
 5   0  0.1541852E-06  0.2499498E+04  0.7818609E-02  0.8403164E-01
       -1   -1    0    0    0  501  0.00000000000E+00  0.00000000000E+00  0.77583287860E+03  0.77583287861E+03  0.50400001928E-02 0.  1.
        1   -1    0    0  501    0  0.00000000000E+00  0.00000000000E+00 -0.20131560207E+04  0.20131560207E+04  0.50400001928E-02 0. -1.
    10030    2    1    2    0    0  0.00000000000E+00  0.00000000000E+00 -0.12373231421E+04  0.27889888993E+04  0.24994980541E+04 0.  0.
        5    1    3    3  502    0  0.68294050357E+03 -0.75572521580E+03 -0.14266276144E+04  0.17529451713E+04  0.46999998093E+01 0. -1.
       -5    1    3    3    0  502 -0.68294050357E+03  0.75572521580E+03  0.18930447232E+03  0.10360437281E+04  0.46999998093E+01 0.  1.
</event>
<event>
 5   0  0.1553604E-06  0.2498771E+04  0.7818609E-02  0.8403423E-01
       -1   -1    0    0    0  501  0.00000000000E+00  0.00000000000E+00  0.81371598411E+03  0.81371598413E+03  0.50400001928E-02 0. -1.
        1   -1    0    0  501    0  0.00000000000E+00  0.00000000000E+00 -0.19183157536E+04  0.19183157536E+04  0.50400001928E-02 0.  1.
    10030    2    1    2    0    0  0.00000000000E+00  0.00000000000E+00 -0.11045997695E+04  0.27320317378E+04  0.24987710510E+04 0.  0.
        1    1    3    3  502    0  0.11712493822E+04  0.33244502992E+03 -0.85886594773E+03  0.14899649423E+04  0.50400001928E-02 0. -1.
       -1    1    3    3    0  502 -0.11712493822E+04 -0.33244502992E+03 -0.24573382179E+03  0.12420667954E+04  0.50400001928E-02 0.  1.
</event>
<event>
 5   0  0.3971759E-06  0.2497698E+04  0.7818609E-02  0.8403806E-01
        2   -1    0    0  501    0  0.00000000000E+00  0.00000000000E+00  0.18400775875E+04  0.18400775875E+04  0.25500000920E-02 0.  1.
       -2   -1    0    0    0  501  0.00000000000E+00  0.00000000000E+00 -0.84758609160E+03  0.84758609160E+03  0.25500000920E-02 0. -1.
    10030    2    1    2    0    0  0.00000000000E+00  0.00000000000E+00  0.99249149593E+03  0.26876636791E+04  0.24976982769E+04 0.  0.
        4    1    3    3  502    0  0.35267044862E+03 -0.61856398032E+02 -0.79116898007E+03  0.86841961472E+03  0.12699999809E+01 0. -1.
       -4    1    3    3    0  502 -0.35267044862E+03  0.61856398032E+02  0.17836604760E+04  0.18192440644E+04  0.12699999809E+01 0.  1.
</event>
<event>
 5   0  0.3808293E-06  0.2500290E+04  0.7818609E-02  0.8402882E-01
       -2   -1    0    0    0  501  0.00000000000E+00  0.00000000000E+00  0.12060158950E+04  0.12060158950E+04  0.25500000920E-02 0.  1.
        2   -1    0    0  501    0  0.00000000000E+00  0.00000000000E+00 -0.12958883501E+04  0.12958883502E+04  0.25500000920E-02 0. -1.
    10030    2    1    2    0    0  0.00000000000E+00  0.00000000000E+00 -0.89872455158E+02  0.25019042451E+04  0.25002895420E+04 0.  0.
        1    1    3    3  502    0 -0.95222277333E+03  0.47980973383E+03 -0.69798037188E+03  0.12744105266E+04  0.50400001928E-02 0. -1.
       -1    1    3    3    0  502  0.95222277333E+03 -0.47980973383E+03  0.60810791672E+03  0.12274937186E+04  0.50400001928E-02 0.  1.
</event>
<event>
 5   0  0.3924441E-06  0.2500681E+04  0.7818609E-02  0.8402743E-01
       -2   -1    0    0    0  501  0.00000000000E+00  0.00000000000E+00  0.10255164009E+04  0.10255164009E+04  0.25500000920E-02 0.  1.
        2   -1    0    0  501    0  0.00000000000E+00  0.00000000000E+00 -0.15244524702E+04  0.15244524702E+04  0.25500000920E-02 0. -1.
    10030    2    1    2    0    0  0.00000000000E+00  0.00000000000E+00 -0.49893606927E+03  0.25499688711E+04  0.25006807158E+04 0.  0.
        2    1    3    3  502    0 -0.20852461639E+03  0.37297522090E+03  0.94874879344E+03  0.10405370268E+04  0.25500000920E-02 0.  1.
       -2    1    3    3    0  502  0.20852461639E+03 -0.37297522090E+03 -0.14476848627E+04  0.15094318444E+04  0.25500000920E-02 0. -1.
</event>
<event>
 5   0  0.1574896E-06  0.2499700E+04  0.7818609E-02  0.8403092E-01
       -1   -1    0    0    0  501  0.00000000000E+00  0.00000000000E+00  0.11968423917E+04  0.11968423917E+04  0.50400001928E-02 0.  1.
        1   -1    0    0  501    0  0.00000000000E+00  0.00000000000E+00 -0.13052052022E+04  0.13052052022E+04  0.50400001928E-02 0. -1.
    10030    2    1    2    0    0  0.00000000000E+00  0.00000000000E+00 -0.10836281046E+03  0.25020475939E+04  0.24996999147E+04 0.  0.
        3    1    3    3  502    0 -0.48770003641E+03  0.52581991697E+03 -0.10787574394E+04  0.12953978284E+04  0.10100000352E+00 0. -1.
       -3    1    3    3    0  502  0.48770003641E+03 -0.52581991697E+03  0.97039462893E+03  0.12066497655E+04  0.10100000352E+00 0.  1.
</event>
<event>
 5   0  0.3713394E-06  0.2493165E+04  0.7818609E-02  0.8405425E-01
        2   -1    0    0  501    0  0.00000000000E+00  0.00000000000E+00  0.14495607198E+04  0.14495607198E+04  0.25500000920E-02 0. -1.
       -2   -1    0    0    0  501  0.00000000000E+00  0.00000000000E+00 -0.10720265940E+04  0.10720265940E+04  0.25500000920E-02 0.  1.
    10030    2    1    2    0    0  0.00000000000E+00  0.00000000000E+00  0.37753412583E+03  0.25215873138E+04  0.24931647689E+04 0.  0.
        3    1    3    3  502    0  0.36896251548E+03  0.23537230694E+03 -0.99177317232E+03  0.10840422022E+04  0.10100000352E+00 0.  1.
       -3    1    3    3    0  502 -0.36896251548E+03 -0.23537230694E+03  0.13693072982E+04  0.14375451115E+04  0.10100000352E+00 0. -1.
</event>
<event>
 5   0  0.3814260E-06  0.2502864E+04  0.7818609E-02  0.8401966E-01
        2   -1    0    0  501    0  0.00000000000E+00  0.00000000000E+00  0.18902978504E+04  0.18902978504E+04  0.25500000920E-02 0.  1.
       -2   -1    0    0    0  501  0.00000000000E+00  0.00000000000E+00 -0.82848407204E+03  0.82848407205E+03  0.25500000920E-02 0. -1.
    10030    2    1    2    0    0  0.00000000000E+00  0.00000000000E+00  0.10618137783E+04  0.27187819224E+04  0.25028636882E+04 0.  0.
        5    1    3    3  502    0 -0.12464603788E+04  0.81559418160E+02  0.44857837340E+03  0.13272377563E+04  0.46999998093E+01 0. -1.
       -5    1    3    3    0  502  0.12464603788E+04 -0.81559418160E+02  0.61323540493E+03  0.13915441662E+04  0.46999998093E+01 0.  1.
</event>
<event>
 5   0  0.3808293E-06  0.2501159E+04  0.7818609E-02  0.8402573E-01
       -2   -1    0    0    0  501  0.00000000000E+00  0.00000000000E+00  0.91485417771E+03  0.91485417771E+03  0.25500000920E-02 0. -1.
        2   -1    0    0  501    0  0.00000000000E+00  0.00000000000E+00 -0.17095064286E+04  0.17095064286E+04  0.25500000920E-02 0.  1.
    10030    2    1    2    0    0  0.00000000000E+00  0.00000000000E+00 -0.79465225088E+03  0.26243606063E+04  0.25011590098E+04 0.  0.
        1    1    3    3  502    0  0.33835848266E+02  0.10720082977E+04  0.27747182537E+03  0.11078525483E+04  0.50400001928E-02 0. -1.
       -1    1    3    3    0  502 -0.33835848266E+02 -0.10720082977E+04 -0.10721240763E+04  0.15165080580E+04  0.50400001928E-02 0.  1.
</event>
<event>
 5   0  0.1574896E-06  0.2500306E+04  0.7818609E-02  0.8402877E-01
        1   -1    0    0  501    0  0.00000000000E+00  0.00000000000E+00  0.16380346849E+04  0.16380346849E+04  0.50400001928E-02 0. -1.
       -1   -1    0    0    0  501  0.00000000000E+00  0.00000000000E+00 -0.95412033103E+03  0.95412033104E+03  0.50400001928E-02 0.  1.
    10030    2    1    2    0    0  0.00000000000E+00  0.00000000000E+00  0.68391435384E+03  0.25921550159E+04  0.25003057379E+04 0.  0.
        3    1    3    3  502    0 -0.39573500020E+03  0.35978640080E+03 -0.82952138964E+03  0.98699452412E+03  0.10100000352E+00 0.  1.
       -3    1    3    3    0  502  0.39573500020E+03 -0.35978640080E+03  0.15134357435E+04  0.16051604918E+04  0.10100000352E+00 0. -1.
</event>
<event>
 5   0  0.1519145E-06  0.2500254E+04  0.7818609E-02  0.8402895E-01
       -1   -1    0    0    0  501  0.00000000000E+00  0.00000000000E+00  0.13770987694E+04  0.13770987694E+04  0.50400001928E-02 0. -1.
        1   -1    0    0  501    0  0.00000000000E+00  0.00000000000E+00 -0.11348618803E+04  0.11348618803E+04  0.50400001928E-02 0.  1.
    10030    2    1    2    0    0  0.00000000000E+00  0.00000000000E+00  0.24223688911E+03  0.25119606497E+04  0.25002535062E+04 0.  0.
        4    1    3    3  502    0  0.19006255259E+03  0.61493709405E+03  0.11978379566E+04  0.13598120409E+04  0.12699999809E+01 0. -1.
       -4    1    3    3    0  502 -0.19006255259E+03 -0.61493709405E+03 -0.95560106748E+03  0.11521486087E+04  0.12699999809E+01 0.  1.
</event>
<event>
 5   0  0.1574896E-06  0.2495086E+04  0.7818609E-02  0.8404738E-01
        1   -1    0    0  501    0  0.00000000000E+00  0.00000000000E+00  0.16126029901E+04  0.16126029901E+04  0.50400001928E-02 0.  1.
       -1   -1    0    0    0  501  0.00000000000E+00  0.00000000000E+00 -0.96512491796E+03  0.96512491797E+03  0.50400001928E-02 0. -1.
    10030    2    1    2    0    0  0.00000000000E+00  0.00000000000E+00  0.64747807214E+03  0.25777279081E+04  0.24950858330E+04 0.  0.
        3    1    3    3  502    0  0.50294052223E+03 -0.79498656082E+03  0.11702754678E+04  0.15014984121E+04  0.10100000352E+00 0.  1.
       -3    1    3    3    0  502 -0.50294052223E+03  0.79498656082E+03 -0.52279739570E+03  0.10762294959E+04  0.10100000352E+00 0. -1.
</event>
<event>
 5   0  0.3808293E-06  0.2488440E+04  0.7818609E-02  0.8407116E-01
        2   -1    0    0  501    0  0.00000000000E+00  0.00000000000E+00  0.16517687541E+04  0.16517687541E+04  0.25500000920E-02 0.  1.
       -2   -1    0    0    0  501  0.00000000000E+00  0.00000000000E+00 -0.93722737336E+03  0.93722737336E+03  0.25500000920E-02 0. -1.
    10030    2    1    2    0    0  0.00000000000E+00  0.00000000000E+00  0.71454138074E+03  0.25889961275E+04  0.24884395840E+04 0.  0.
        1    1    3    3  502    0  0.97030069921E+03  0.47468281336E+03 -0.28515640027E+03  0.11171935342E+04  0.50400001928E-02 0. -1.
       -1    1    3    3    0  502 -0.97030069921E+03 -0.47468281336E+03  0.99969778101E+03  0.14718025933E+04  0.50400001928E-02 0.  1.
</event>
<event>
 5   0  0.3814260E-06  0.2500956E+04  0.7818609E-02  0.8402645E-01
       -2   -1    0    0    0  501  0.00000000000E+00  0.00000000000E+00  0.11375280800E+04  0.11375280800E+04  0.25500000920E-02 0.  1.
        2   -1    0    0  501    0  0.00000000000E+00  0.00000000000E+00 -0.13746426482E+04  0.13746426482E+04  0.25500000920E-02 0. -1.
    10030    2    1    2    0    0  0.00000000000E+00  0.00000000000E+00 -0.23711456818E+03  0.25121707282E+04  0.25009555072E+04 0.  0.
        5    1    3    3  502    0 -0.33408616035E+03  0.25736411244E+03 -0.13010460313E+04  0.13676961338E+04  0.46999998093E+01 0. -1.
       -5    1    3    3    0  502  0.33408616035E+03 -0.25736411244E+03  0.10639314631E+04  0.11444745944E+04  0.46999998093E+01 0.  1.
</event>
<event>
 5   0  0.3924441E-06  0.2456797E+04  0.7818609E-02  0.8418540E-01
        2   -1    0    0  501    0  0.00000000000E+00  0.00000000000E+00  0.90100406118E+03  0.90100406119E+03  0.25500000920E-02 0.  1.
       -2   -1    0    0    0  501  0.00000000000E+00  0.00000000000E+00 -0.16747576490E+04  0.16747576490E+04  0.25500000920E-02 0. -1.
    10030    2    1    2    0    0  0.00000000000E+00  0.00000000000E+00 -0.77375358778E+03  0.25757617101E+04  0.24567974627E+04 0.  0.
        2    1    3    3  502    0 -0.19817584342E+02  0.39696850749E+03  0.83172514982E+03  0.92181530549E+03  0.25500000920E-02 0.  1.
       -2    1    3    3    0  502  0.19817584342E+02 -0.39696850749E+03 -0.16054787376E+04  0.16539464047E+04  0.25500000920E-02 0. -1.
</event>
<event>
 5   0  0.3713394E-06  0.2499185E+04  0.7818609E-02  0.8403276E-01
       -2   -1    0    0    0  501  0.00000000000E+00  0.00000000000E+00  0.24197859389E+04  0.24197859389E+04  0.25500000920E-02 0. -1.
        2   -1    0    0  501    0  0.00000000000E+00  0.00000000000E+00 -0.64529710351E+03  0.64529710352E+03  0.25500000920E-02 0.  1.
    10030    2    1    2    0    0  0.00000000000E+00  0.00000000000E+00  0.17744888354E+04  0.30650830424E+04  0.24991845530E+04 0.  0.
        3    1    3    3  502    0 -0.98414627584E+03 -0.40805504794E+03  0.86365630029E+02  0.10688834579E+04  0.10100000352E+00 0.  1.
       -3    1    3    3    0  502  0.98414627584E+03  0.40805504794E+03  0.16881232054E+04  0.19961995845E+04  0.10100000352E+00 0. -1.
</event>
<event>
 5   0  0.3924441E-06  0.2504322E+04  0.7818609E-02  0.8401448E-01
       -2   -1    0    0    0  501  0.00000000000E+00  0.00000000000E+00  0.17258537634E+04  0.17258537634E+04  0.25500000920E-02 0. -1.
        2   -1    0    0  501    0  0.00000000000E+00  0.00000000000E+00 -0.90848182548E+03  0.90848182549E+03  0.25500000920E-02 0.  1.
    10030    2    1    2    0    0  0.00000000000E+00  0.00000000000E+00  0.81737193793E+03  0.26343355889E+04  0.25043216866E+04 0.  0.
        2    1    3    3  502    0  0.12507508340E+04  0.36955587118E+02  0.45761321113E+03  0.13323487588E+04  0.25500000920E-02 0. -1.
       -2    1    3    3    0  502 -0.12507508340E+04 -0.36955587118E+02  0.35975872680E+03  0.13019868301E+04  0.25500000920E-02 0.  1.
</event>
<event>
 5   0  0.3713394E-06  0.2500908E+04  0.7818609E-02  0.8402662E-01
        2   -1    0    0  501    0  0.00000000000E+00  0.00000000000E+00  0.12272091483E+04  0.12272091483E+04  0.25500000920E-02 0. -1.
       -2   -1    0    0    0  501  0.00000000000E+00  0.00000000000E+00 -0.12741396223E+04  0.12741396224E+04  0.25500000920E-02 0.  1.
    10030    2    1    2    0    0  0.00000000000E+00  0.00000000000E+00 -0.46930474097E+02  0.25013487706E+04  0.25009084755E+04 0.  0.
        3    1    3    3  502    0  0.82004178067E+03  0.17943446748E+03 -0.95043504102E+03  0.12680662552E+04  0.10100000352E+00 0.  1.
       -3    1    3    3    0  502 -0.82004178067E+03 -0.17943446748E+03  0.90350456692E+03  0.12332825154E+04  0.10100000352E+00 0. -1.
</event>
<event>
 5   0  0.3713394E-06  0.2505604E+04  0.7818609E-02  0.8400992E-01
        2   -1    0    0  501    0  0.00000000000E+00  0.00000000000E+00  0.16748826490E+04  0.16748826490E+04  0.25500000920E-02 0.  1.
       -2   -1    0    0    0  501  0.00000000000E+00  0.00000000000E+00 -0.93708848749E+03  0.93708848749E+03  0.25500000920E-02 0. -1.
    10030    2    1    2    0    0  0.00000000000E+00  0.00000000000E+00  0.73779416154E+03  0.26119711365E+04  0.25056043170E+04 0.  0.
        3    1    3    3  502    0 -0.23579761793E+03 -0.10914832670E+04  0.96096643687E+03  0.14732252854E+04  0.10100000352E+00 0.  1.
       -3    1    3    3    0  502  0.23579761793E+03  0.10914832670E+04 -0.22317227533E+03  0.11387458511E+04  0.10100000352E+00 0. -1.
</event>
<event>
 5   0  0.3971759E-06  0.2502530E+04  0.7818609E-02  0.8402085E-01
        2   -1    0    0  501    0  0.00000000000E+00  0.00000000000E+00  0.15106206028E+04  0.15106206028E+04  0.25500000920E-02 0.  1.
       -2   -1    0    0    0  501  0.00000000000E+00  0.00000000000E+00 -0.10364379336E+04  0.10364379336E+04  0.25500000920E-02 0. -1.
    10030    2    1    2    0    0  0.00000000000E+00  0.00000000000E+00  0.47418266924E+03  0.25470585364E+04  0.25025303163E+04 0.  0.
        4    1    3    3  502    0 -0.76986002836E+03 -0.94084599748E+03  0.53865238589E+03  0.13296705080E+04  0.12699999809E+01 0. -1.
       -4    1    3    3    0  502  0.76986002836E+03  0.94084599748E+03 -0.64469716651E+02  0.12173880283E+04  0.12699999809E+01 0.  1.
</event>
<event>
 5   0  0.1541852E-06  0.2499889E+04  0.7818609E-02  0.8403025E-01
        1   -1    0    0  501    0  0.00000000000E+00  0.00000000000E+00  0.19988756572E+04  0.19988756572E+04  0.50400001928E-02 0. -1.
       -1   -1    0    0    0  501  0.00000000000E+00  0.00000000000E+00 -0.78162028712E+03  0.78162028714E+03  0.50400001928E-02 0.  1.
    10030    2    1    2    0    0  0.00000000000E+00  0.00000000000E+00  0.12172553700E+04  0.27804959443E+04  0.24998894096E+04 0.  0.
        5    1    3    3  502    0  0.23544065644E+03 -0.44400671453E+03 -0.66428386627E+03  0.83298824136E+03  0.46999998093E+01 0.  1.
       -5    1    3    3    0  502 -0.23544065644E+03  0.44400671453E+03  0.18815392363E+04  0.19475077029E+04  0.46999998093E+01 0. -1.
</event>
<event>
 5   0  0.1501747E-06  0.2499122E+04  0.7818609E-02  0.8403298E-01
       -1   -1    0    0    0  501  0.00000000000E+00  0.00000000000E+00  0.12592979824E+04  0.12592979824E+04  0.50400001928E-02 0. -1.
        1   -1    0    0  501    0  0.00000000000E+00  0.00000000000E+00 -0.12398992986E+04  0.12398992986E+04  0.50400001928E-02 0.  1.
    10030    2    1    2    0    0  0.00000000000E+00  0.00000000000E+00  0.19398683774E+02  0.24991972810E+04  0.24991219939E+04 0.  0.
        2    1    3    3  502    0 -0.92507520744E+02 -0.24764808525E+03  0.12310122977E+04  0.12590784299E+04  0.25500000920E-02 0. -1.
       -2    1    3    3    0  502  0.92507520744E+02  0.24764808525E+03 -0.12116136139E+04  0.12401188511E+04  0.25500000920E-02 0.  1.
</event>
<event>
 5   0  0.1501747E-06  0.2501438E+04  0.7818609E-02  0.8402474E-01
       -1   -1    0    0    0  501  0.00000000000E+00  0.00000000000E+00  0.78424623609E+03  0.78424623610E+03  0.50400001928E-02 0. -1.
        1   -1    0    0  501    0  0.00000000000E+00  0.00000000000E+00 -0.19946511837E+04  0.19946511837E+04  0.50400001928E-02 0.  1.
    10030    2    1    2    0    0  0.00000000000E+00  0.00000000000E+00 -0.12104049476E+04  0.27788974198E+04  0.25014377331E+04 0.  0.
        2    1    3    3  502    0  0.83508872656E+03  0.21283135952E+03 -0.16121811016E+04  0.18280586077E+04  0.25500000920E-02 0.  1.
       -2    1    3    3    0  502 -0.83508872656E+03 -0.21283135952E+03  0.40177615394E+03  0.95083881216E+03  0.25500000920E-02 0. -1.
</event>
<event>
 5   0  0.1574896E-06  0.2505870E+04  0.7818609E-02  0.8400897E-01
       -1   -1    0    0    0  501  0.00000000000E+00  0.00000000000E+00  0.12679202560E+04  0.12679202561E+04  0.50400001928E-02 0. -1.
        1   -1    0    0  501    0  0.00000000000E+00  0.00000000000E+00 -0.12381264425E+04  0.12381264425E+04  0.50400001928E-02 0.  1.
    10030    2    1    2    0    0  0.00000000000E+00  0.00000000000E+00  0.29793813588E+02  0.25060466985E+04  0.25058695864E+04 0.  0.
        3    1    3    3  502    0 -0.26350889131E+03 -0.61502187390E+03  0.10742907787E+04  0.12656182397E+04  0.10100000352E+00 0. -1.
       -3    1    3    3    0  502  0.26350889131E+03  0.61502187390E+03 -0.10444969651E+04  0.12404284588E+04  0.10100000352E+00 0.  1.
</event>
<event>
 5   0  0.3808293E-06  0.2497188E+04  0.7818609E-02  0.8403988E-01
       -2   -1    0    0    0  501  0.00000000000E+00  0.00000000000E+00  0.62742949662E+03  0.62742949663E+03  0.25500000920E-02 0. -1.
        2   -1    0    0  501    0  0.00000000000E+00  0.00000000000E+00 -0.24847204949E+04  0.24847204949E+04  0.25500000920E-02 0.  1.
    10030    2    1    2    0    0  0.00000000000E+00  0.00000000000E+00 -0.18572909982E+04  0.31121499915E+04  0.24971879620E+04 0.  0.
        1    1    3    3  502    0  0.62162404439E+03  0.17898827122E+02 -0.22779793883E+04  0.23613400674E+04  0.50400001928E-02 0.  1.
       -1    1    3    3    0  502 -0.62162404439E+03 -0.17898827122E+02  0.42068839002E+03  0.75080992408E+03  0.50400001928E-02 0. -1.
</event>
<event>
 5   0  0.1574896E-06  0.2499194E+04  0.7818609E-02  0.8403273E-01
       -1   -1    0    0    0  501  0.00000000000E+00  0.00000000000E+00  0.11948504649E+04  0.11948504650E+04  0.50400001928E-02 0. -1.
        1   -1    0    0  501    0  0.00000000000E+00  0.00000000000E+00 -0.13068515915E+04  0.13068515915E+04  0.50400001928E-02 0.  1.
    10030    2    1    2    0    0  0.00000000000E+00  0.00000000000E+00 -0.11200112657E+03  0.25017020565E+04  0.24991936554E+04 0.  0.
        3    1    3    3  502    0  0.57456571516E+03 -0.89494071898E+03  0.60074297151E+03  0.12214486397E+04  0.10100000352E+00 0.  1.
       -3    1    3    3    0  502 -0.57456571516E+03  0.89494071898E+03 -0.71274409808E+03  0.12802534167E+04  0.10100000352E+00 0. -1.
</event>
<event>
 5   0  0.3713394E-06  0.2439117E+04  0.7818609E-02  0.8425002E-01
       -2   -1    0    0    0  501  0.00000000000E+00  0.00000000000E+00  0.69491015739E+03  0.69491015739E+03  0.25500000920E-02 0.  1.
        2   -1    0    0  501    0  0.00000000000E+00  0.00000000000E+00 -0.21403095535E+04  0.21403095535E+04  0.25500000920E-02 0. -1.
    10030    2    1    2    0    0  0.00000000000E+00  0.00000000000E+00 -0.14453993962E+04  0.28352197109E+04  0.24391169293E+04 0.  0.
        3    1    3    3  502    0 -0.57049050492E+03  0.85804136337E+03  0.35649827080E+02  0.10310020940E+04  0.10100000352E+00 0.  1.
       -3    1    3    3    0  502  0.57049050492E+03 -0.85804136337E+03 -0.14810492232E+04  0.18042176169E+04  0.10100000352E+00 0. -1.
</event>
<event>
 5   0  0.1553604E-06  0.2498891E+04  0.7818609E-02  0.8403381E-01
        1   -1    0    0  501    0  0.00000000000E+00  0.00000000000E+00  0.10471953209E+04  0.10471953209E+04  0.50400001928E-02 0. -1.
       -1   -1    0    0    0  501  0.00000000000E+00  0.00000000000E+00 -0.14907573691E+04  0.14907573691E+04  0.50400001928E-02 0.  1.
    10030    2    1    2    0    0  0.00000000000E+00  0.00000000000E+00 -0.44356204824E+03  0.25379526900E+04  0.24988910673E+04 0.  0.
        1    1    3    3  502    0  0.89653631465E+03 -0.79288219360E+03 -0.58610069386E+03  0.13326490760E+04  0.50400001928E-02 0.  1.
       -1    1    3    3    0  502 -0.89653631465E+03  0.79288219360E+03  0.14253864562E+03  0.12053036140E+04  0.50400001928E-02 0. -1.
</event>
<event>
 5   0  0.3971759E-06  0.2505890E+04  0.7818609E-02  0.8400890E-01
       -2   -1    0    0    0  501  0.00000000000E+00  0.00000000000E+00  0.10036068288E+04  0.10036068288E+04  0.25500000920E-02 0. -1.
        2   -1    0    0  501    0  0.00000000000E+00  0.00000000000E+00 -0.15642287027E+04  0.15642287027E+04  0.25500000920E-02 0.  1.
    10030    2    1    2    0    0  0.00000000000E+00  0.00000000000E+00 -0.56062187383E+03  0.25678355315E+04  0.25058895490E+04 0.  0.
        4    1    3    3  502    0 -0.52983059219E+03  0.10545267544E+03  0.87813430380E+03  0.10310005779E+04  0.12699999809E+01 0. -1.
       -4    1    3    3    0  502  0.52983059219E+03 -0.10545267544E+03 -0.14387561776E+04  0.15368349536E+04  0.12699999809E+01 0.  1.
</event>
<event>
 5   0  0.3971759E-06  0.2477643E+04  0.7818609E-02  0.8410994E-01
        2   -1    0    0  501    0  0.00000000000E+00  0.00000000000E+00  0.15253105901E+04  0.15253105901E+04  0.25500000920E-02 0.  1.
       -2   -1    0    0    0  501  0.00000000000E+00  0.00000000000E+00 -0.10061415783E+04  0.10061415783E+04  0.25500000920E-02 0. -1.
    10030    2    1    2    0    0  0.00000000000E+00  0.00000000000E+00  0.51916901175E+03  0.25314521684E+04  0.24776427543E+04 0.  0.
        4    1    3    3  502    0  0.85703917383E+02 -0.72443741329E+03  0.12825901012E+04  0.14755316695E+04  0.12699999809E+01 0.  1.
       -4    1    3    3    0  502 -0.85703917383E+02  0.72443741329E+03 -0.76342108943E+03  0.10559204989E+04  0.12699999809E+01 0. -1.
</event>
<event>
 5   0  0.1541852E-06  0.2481915E+04  0.7818609E-02  0.8409457E-01
       -1   -1    0    0    0  501  0.00000000000E+00  0.00000000000E+00  0.11292243125E+04  0.11292243125E+04  0.50400001928E-02 0.  1.
        1   -1    0    0  501    0  0.00000000000E+00  0.00000000000E+00 -0.13637461778E+04  0.13637461778E+04  0.50400001928E-02 0. -1.
    10030    2    1    2    0    0  0.00000000000E+00  0.00000000000E+00 -0.23452186527E+03  0.24929704903E+04  0.24819148576E+04 0.  0.
        5    1    3    3  502    0 -0.77680524630E+03  0.31243504824E+03 -0.10372618388E+04  0.13330327312E+04  0.46999998093E+01 0. -1.
       -5    1    3    3    0  502  0.77680524630E+03 -0.31243504824E+03  0.80273997355E+03  0.11599377592E+04  0.46999998093E+01 0.  1.
</event>
<event>
 5   0  0.1574896E-06  0.2493673E+04  0.7818609E-02  0.8405243E-01
        1   -1    0    0  501    0  0.00000000000E+00  0.00000000000E+00  0.22182237634E+04  0.22182237634E+04  0.50400001928E-02 0. -1.
       -1   -1    0    0    0  501  0.00000000000E+00  0.00000000000E+00 -0.70083131392E+03  0.70083131394E+03  0.50400001928E-02 0.  1.
    10030    2    1    2    0    0  0.00000000000E+00  0.00000000000E+00  0.15173924495E+04  0.29190550774E+04  0.24936725324E+04 0.  0.
        3    1    3    3  502    0 -0.47450978880E+03  0.19000880263E+03 -0.57255141199E+03  0.76751417858E+03  0.10100000352E+00 0.  1.
       -3    1    3    3    0  502  0.47450978880E+03 -0.19000880263E+03  0.20899438615E+04  0.21515408988E+04  0.10100000352E+00 0. -1.
</event>
<event>
 5   0  0.1501747E-06  0.2492561E+04  0.7818609E-02  0.8405641E-01
        1   -1    0    0  501    0  0.00000000000E+00  0.00000000000E+00  0.12872054795E+04  0.12872054795E+04  0.50400001928E-02 0.  1.
       -1   -1    0    0    0  501  0.00000000000E+00  0.00000000000E+00 -0.12066566387E+04  0.12066566387E+04  0.50400001928E-02 0. -1.
    10030    2    1    2    0    0  0.00000000000E+00  0.00000000000E+00  0.80548840843E+02  0.24938621182E+04  0.24925609619E+04 0.  0.
        2    1    3    3  502    0  0.11244643293E+04 -0.46599666812E+03  0.30807458994E+03  0.12555806926E+04  0.25500000920E-02 0. -1.
       -2    1    3    3    0  502 -0.11244643293E+04  0.46599666812E+03 -0.22752574910E+03  0.12382814257E+04  0.25500000920E-02 0.  1.
</event>
<event>
 5   0  0.3971759E-06  0.2500523E+04  0.7818609E-02  0.8402799E-01
        2   -1    0    0  501    0  0.00000000000E+00  0.00000000000E+00  0.15630232284E+04  0.15630232284E+04  0.25500000920E-02 0. -1.
       -2   -1    0    0    0  501  0.00000000000E+00  0.00000000000E+00 -0.10000833905E+04  0.10000833905E+04  0.25500000920E-02 0.  1.
    10030    2    1    2    0    0  0.00000000000E+00  0.00000000000E+00  0.56293983789E+03  0.25631066189E+04  0.25005228011E+04 0.  0.
        4    1    3    3  502    0  0.66655982807E+02  0.84778184816E+03 -0.65796997949E+03  0.10752223904E+04  0.12699999809E+01 0.  1.
       -4    1    3    3    0  502 -0.66655982807E+02 -0.84778184816E+03  0.12209098174E+04  0.14878842284E+04  0.12699999809E+01 0. -1.
</event>
<event>
 5   0  0.1574896E-06  0.2499542E+04  0.7818609E-02  0.8403149E-01
        1   -1    0    0  501    0  0.00000000000E+00  0.00000000000E+00  0.19699417814E+04  0.19699417814E+04  0.50400001928E-02 0.  1.
       -1   -1    0    0    0  501  0.00000000000E+00  0.00000000000E+00 -0.79288019755E+03  0.79288019756E+03  0.50400001928E-02 0. -1.
    10030    2    1    2    0    0  0.00000000000E+00  0.00000000000E+00  0.11770615839E+04  0.27628219790E+04  0.24995422211E+04 0.  0.
        3    1    3    3  502    0 -0.12068445552E+04 -0.18542872087E+03  0.88320103314E+03  0.15069511160E+04  0.10100000352E+00 0.  1.
       -3    1    3    3    0  502  0.12068445552E+04  0.18542872087E+03  0.29386055071E+03  0.12558708629E+04  0.10100000352E+00 0. -1.
</event>
<event>
 5   0  0.3924441E-06  0.2499754E+04  0.7818609E-02  0.8403073E-01
       -2   -1    0    0    0  501  0.00000000000E+00  0.00000000000E+00  0.11518366089E+04  0.11518366089E+04  0.25500000920E-02 0.  1.
        2   -1    0    0  501    0  0.00000000000E+00  0.00000000000E+00 -0.13562623284E+04  0.13562623284E+04  0.25500000920E-02 0. -1.
    10030    2    1    2    0    0  0.00000000000E+00  0.00000000000E+00 -0.20442571954E+03  0.25080989374E+04  0.24997540689E+04 0.  0.
        2    1    3    3  502    0  0.65757097860E+03 -0.10118201285E+04 -0.42889622302E+03  0.12806762020E+04  0.25500000920E-02 0. -1.
       -2    1    3    3    0  502 -0.65757097860E+03  0.10118201285E+04  0.22447050349E+03  0.12274227353E+04  0.25500000920E-02 0.  1.
</event>
<event>
 5   0  0.3971759E-06  0.2504783E+04  0.7818609E-02  0.8401284E-01
        2   -1    0    0  501    0  0.00000000000E+00  0.00000000000E+00  0.20625843050E+04  0.20625843050E+04  0.25500000920E-02 0. -1.
       -2   -1    0    0    0  501  0.00000000000E+00  0.00000000000E+00 -0.76044617804E+03  0.76044617805E+03  0.25500000920E-02 0.  1.
    10030    2    1    2    0    0  0.00000000000E+00  0.00000000000E+00  0.13021381269E+04  0.28230304830E+04  0.25047829060E+04 0.  0.
        4    1    3    3  502    0  0.14335096997E+03  0.10316060303E+04  0.14349380875E+04  0.17730790818E+04  0.12699999809E+01 0. -1.
       -4    1    3    3    0  502 -0.14335096997E+03 -0.10316060303E+04 -0.13279996060E+03  0.10499514012E+04  0.12699999809E+01 0.  1.
</event>
<event>
 5   0  0.1541852E-06  0.2496898E+04  0.7818609E-02  0.8404092E-01
       -1   -1    0    0    0  501  0.00000000000E+00  0.00000000000E+00  0.11193089780E+04  0.11193089780E+04  0.50400001928E-02 0. -1.
        1   -1    0    0  501    0  0.00000000000E+00  0.00000000000E+00 -0.13924883278E+04  0.13924883279E+04  0.50400001928E-02 0.  1.
    10030    2    1    2    0    0  0.00000000000E+00  0.00000000000E+00 -0.27317934983E+03  0.25117973059E+04  0.24968978250E+04 0.  0.
        5    1    3    3  502    0  0.13788840407E+03 -0.96688457069E+03  0.64569042484E+03  0.11708190295E+04  0.46999998093E+01 0. -1.
       -5    1    3    3    0  502 -0.13788840407E+03  0.96688457069E+03 -0.91886977467E+03  0.13409782764E+04  0.46999998093E+01 0.  1.
</event>
<event>
 5   0  0.1501747E-06  0.2501305E+04  0.7818609E-02  0.8402521E-01
        1   -1    0    0  501    0  0.00000000000E+00  0.00000000000E+00  0.16209726980E+04  0.16209726981E+04  0.50400001928E-02 0.  1.
       -1   -1    0    0    0  501  0.00000000000E+00  0.00000000000E+00 -0.96493427690E+03  0.96493427692E+03  0.50400001928E-02 0. -1.
    10030    2    1    2    0    0  0.00000000000E+00  0.00000000000E+00  0.65603842114E+03  0.25859069750E+04  0.25013053538E+04 0.  0.
        2    1    3    3  502    0  0.49991291661E+03 -0.49802647810E+03  0.13955078142E+04  0.15637727957E+04  0.25500000920E-02 0.  1.
       -2    1    3    3    0  502 -0.49991291661E+03  0.49802647810E+03 -0.73946939307E+03  0.10221341792E+04  0.25500000920E-02 0. -1.
</event>
<event>
 5   0  0.3924441E-06  0.2504223E+04  0.7818609E-02  0.8401483E-01
       -2   -1    0    0    0  501  0.00000000000E+00  0.00000000000E+00  0.13644659236E+04  0.13644659236E+04  0.25500000920E-02 0.  1.
        2   -1    0    0  501    0  0.00000000000E+00  0.00000000000E+00 -0.11490086140E+04  0.11490086140E+04  0.25500000920E-02 0. -1.
    10030    2    1    2    0    0  0.00000000000E+00  0.00000000000E+00  0.21545730962E+03  0.25134745376E+04  0.25042229132E+04 0.  0.
        2    1    3    3  502    0 -0.10395703001E+04 -0.29200403351E+03  0.74395559796E+03  0.13112752175E+04  0.25500000920E-02 0.  1.
       -2    1    3    3    0  502  0.10395703001E+04  0.29200403351E+03 -0.52849828834E+03  0.12021993201E+04  0.25500000920E-02 0. -1.
</event>
<event>
 5   0  0.3713394E-06  0.2498377E+04  0.7818609E-02  0.8403564E-01
       -2   -1    0    0    0  501  0.00000000000E+00  0.00000000000E+00  0.73765101559E+03  0.73765101559E+03  0.25500000920E-02 0.  1.
        2   -1    0    0  501    0  0.00000000000E+00  0.00000000000E+00 -0.21154607634E+04  0.21154607634E+04  0.25500000920E-02 0. -1.
    10030    2    1    2    0    0  0.00000000000E+00  0.00000000000E+00 -0.13778097479E+04  0.28531117790E+04  0.24983768976E+04 0.  0.
        3    1    3    3  502    0  0.54051223565E+03  0.52409293156E+03  0.44944675597E+03  0.87682910220E+03  0.10100000352E+00 0.  1.
       -3    1    3    3    0  502 -0.54051223565E+03 -0.52409293156E+03 -0.18272565038E+04  0.19762826768E+04  0.10100000352E+00 0. -1.
</event>
<event>
 5   0  0.3814260E-06  0.2499440E+04  0.7818609E-02  0.8403185E-01
       -2   -1    0    0    0  501  0.00000000000E+00  0.00000000000E+00  0.10426285956E+04  0.10426285956E+04  0.25500000920E-02 0.  1.
        2   -1    0    0  501    0  0.00000000000E+00  0.00000000000E+00 -0.14979442857E+04  0.14979442857E+04  0.25500000920E-02 0. -1.
    10030    2    1    2    0    0  0.00000000000E+00  0.00000000000E+00 -0.45531569010E+03  0.25405728814E+04  0.24994395748E+04 0.  0.
        5    1    3    3  502    0 -0.13416877872E+03  0.64000721357E+02  0.10336011162E+04  0.10442464800E+04  0.46999998093E+01 0.  1.
       -5    1    3    3    0  502  0.13416877872E+03 -0.64000721357E+02 -0.14889168063E+04  0.14963264014E+04  0.46999998093E+01 0. -1.
</event>
<event>
 5   0  0.1501747E-06  0.2494702E+04  0.7818609E-02  0.8404875E-01
       -1   -1    0    0    0  501  0.00000000000E+00  0.00000000000E+00  0.81177819397E+03  0.81177819399E+03  0.50400001928E-02 0.  1.
        1   -1    0    0  501    0  0.00000000000E+00  0.00000000000E+00 -0.19166379093E+04  0.19166379093E+04  0.50400001928E-02 0. -1.
    10030    2    1    2    0    0  0.00000000000E+00  0.00000000000E+00 -0.11048597153E+04  0.27284161033E+04  0.24947022753E+04 0.  0.
        2    1    3    3  502    0  0.86059921791E+03 -0.14940969964E+03 -0.15263188717E+04  0.17585799869E+04  0.25500000920E-02 0. -1.
       -2    1    3    3    0  502 -0.86059921791E+03  0.14940969964E+03  0.42145915635E+03  0.96983611641E+03  0.25500000920E-02 0.  1.
</event>
<event>
 5   0  0.3924441E-06  0.2493670E+04  0.7818609E-02  0.8405244E-01
        2   -1    0    0  501    0  0.00000000000E+00  0.00000000000E+00  0.16246399434E+04  0.16246399434E+04  0.25500000920E-02 0. -1.
       -2   -1    0    0    0  501  0.00000000000E+00  0.00000000000E+00 -0.95688754488E+03  0.95688754488E+03  0.25500000920E-02 0.  1.
    10030    2    1    2    0    0  0.00000000000E+00  0.00000000000E+00  0.66775239853E+03  0.25815274883E+04  0.24936701681E+04 0.  0.
        2    1    3    3  502    0 -0.70922615479E+03  0.47841229680E+03  0.12728709285E+04  0.15336493944E+04  0.25500000920E-02 0. -1.
       -2    1    3    3    0  502  0.70922615479E+03 -0.47841229680E+03 -0.60511852994E+03  0.10478780939E+04  0.25500000920E-02 0.  1.
</event>
<event>
 5   0  0.1501747E-06  0.2499822E+04  0.7818609E-02  0.8403049E-01
        1   -1    0    0  501    0  0.00000000000E+00  0.00000000000E+00  0.12144882961E+04  0.12144882961E+04  0.50400001928E-02 0. -1.
       -1   -1    0    0    0  501  0.00000000000E+00  0.00000000000E+00 -0.12863666398E+04  0.12863666398E+04  0.50400001928E-02 0.  1.
    10030    2    1    2    0    0  0.00000000000E+00  0.00000000000E+00 -0.71878343729E+02  0.25008549359E+04  0.24998217765E+04 0.  0.
        2    1    3    3  502    0 -0.76256398064E+03 -0.39689298216E+02  0.95401422236E+03  0.12219747139E+04  0.25500000920E-02 0. -1.
       -2    1    3    3    0  502  0.76256398064E+03  0.39689298216E+02 -0.10258925661E+04  0.12788802220E+04  0.25500000920E-02 0.  1.
</event>
<event>
 5   0  0.3814260E-06  0.2501402E+04  0.7818609E-02  0.8402486E-01
        2   -1    0    0  501    0  0.00000000000E+00  0.00000000000E+00  0.14420579231E+04  0.14420579231E+04  0.25500000920E-02 0. -1.
       -2   -1    0    0    0  501  0.00000000000E+00  0.00000000000E+00 -0.10847366415E+04  0.10847366415E+04  0.25500000920E-02 0.  1.
    10030    2    1    2    0    0  0.00000000000E+00  0.00000000000E+00  0.35732128156E+03  0.25267945646E+04  0.25014020615E+04 0.  0.
        5    1    3    3  502    0 -0.86793940335E+03  0.64292632111E+03  0.81558320268E+03  0.13534663323E+04  0.46999998093E+01 0. -1.
       -5    1    3    3    0  502  0.86793940335E+03 -0.64292632111E+03 -0.45826192112E+03  0.11733282323E+04  0.46999998093E+01 0.  1.
</event>
<event>
 5   0  0.1553604E-06  0.2483203E+04  0.7818609E-02  0.8408994E-01
        1   -1    0    0  501    0  0.00000000000E+00  0.00000000000E+00  0.15747829362E+04  0.15747829362E+04  0.50400001928E-02 0.  1.
       -1   -1    0    0    0  501  0.00000000000E+00  0.00000000000E+00 -0.97891230336E+03  0.97891230337E+03  0.50400001928E-02 0. -1.
    10030    2    1    2    0    0  0.00000000000E+00  0.00000000000E+00  0.59587063284E+03  0.25536952396E+04  0.24832030858E+04 0.  0.
        1    1    3    3  502    0 -0.98322910828E+03  0.35142986829E+03 -0.39294826432E+03  0.11156391756E+04  0.50400001928E-02 0. -1.
       -1    1    3    3    0  502  0.98322910828E+03 -0.35142986829E+03  0.98881889716E+03  0.14380560640E+04  0.50400001928E-02 0.  1.
</event>
<event>
 5   0  0.1519145E-06  0.2475570E+04  0.7818609E-02  0.8411741E-01
       -1   -1    0    0    0  501  0.00000000000E+00  0.00000000000E+00  0.66371857848E+03  0.66371857850E+03  0.50400001928E-02 0.  1.
        1   -1    0    0  501    0  0.00000000000E+00  0.00000000000E+00 -0.23083752015E+04  0.23083752015E+04  0.50400001928E-02 0. -1.
    10030    2    1    2    0    0  0.00000000000E+00  0.00000000000E+00 -0.16446566230E+04  0.29720937800E+04  0.24755698393E+04 0.  0.
        4    1    3    3  502    0 -0.79071310661E+03  0.93611455215E+03 -0.61240975393E+03  0.13698850285E+04  0.12699999809E+01 0.  1.
       -4    1    3    3    0  502  0.79071310661E+03 -0.93611455215E+03 -0.10322468691E+04  0.16022087515E+04  0.12699999809E+01 0. -1.
</event>
<event>
 5   0  0.1553604E-06  0.2501083E+04  0.7818609E-02  0.8402600E-01
       -1   -1    0    0    0  501  0.00000000000E+00  0.00000000000E+00  0.70025549642E+03  0.70025549643E+03  0.50400001928E-02 0. -1.
        1   -1    0    0  501    0  0.00000000000E+00  0.00000000000E+00 -0.22332619406E+04  0.22332619406E+04  0.50400001928E-02 0.  1.
    10030    2    1    2    0    0  0.00000000000E+00  0.00000000000E+00 -0.15330064442E+04  0.29335174371E+04  0.25010829246E+04 0.  0.
        1    1    3    3  502    0 -0.24975684324E+03 -0.30582842915E+02 -0.22032637699E+04  0.22175854056E+04  0.50400001928E-02 0.  1.
       -1    1    3    3    0  502  0.24975684324E+03  0.30582842915E+02  0.67025732572E+03  0.71593203151E+03  0.50400001928E-02 0. -1.
</event>
<event>
 5   0  0.3814260E-06  0.2503300E+04  0.7818609E-02  0.8401811E-01
        2   -1    0    0  501    0  0.00000000000E+00  0.00000000000E+00  0.17919482384E+04  0.17919482384E+04  0.25500000920E-02 0.  1.
       -2   -1    0    0    0  501  0.00000000000E+00  0.00000000000E+00 -0.87425918224E+03  0.87425918225E+03  0.25500000920E-02 0. -1.
    10030    2    1    2    0    0  0.00000000000E+00  0.00000000000E+00  0.91768905619E+03  0.26662074207E+04  0.25032995838E+04 0.  0.
        5    1    3    3  502    0  0.13539451701E+03 -0.69334387636E+03  0.15593057700E+04  0.17118744056E+04  0.46999998093E+01 0.  1.
       -5    1    3    3    0  502 -0.13539451701E+03  0.69334387636E+03 -0.64161671386E+03  0.95433301506E+03  0.46999998093E+01 0. -1.
</event>
<event>
 5   0  0.1541852E-06  0.2509399E+04  0.7818609E-02  0.8399645E-01
        1   -1    0    0  501    0  0.00000000000E+00  0.00000000000E+00  0.15091040925E+04  0.15091040925E+04  0.50400001928E-02 0.  1.
       -1   -1    0    0    0  501  0.00000000000E+00  0.00000000000E+00 -0.10431823669E+04  0.10431823669E+04  0.50400001928E-02 0. -1.
    10030    2    1    2    0    0  0.00000000000E+00  0.00000000000E+00  0.46592172559E+03  0.25522864594E+04  0.25093989552E+04 0.  0.
        5    1    3    3  502    0  0.11430136808E+02  0.12323020515E+04  0.47267880597E+03  0.13199039123E+04  0.46999998093E+01 0.  1.
       -5    1    3    3    0  502 -0.11430136808E+02 -0.12323020515E+04 -0.67570803763E+01  0.12323825471E+04  0.46999998093E+01 0. -1.
</event>
<event>
 5   0  0.1574896E-06  0.2455416E+04  0.7818609E-02  0.8419043E-01
       -1   -1    0    0    0  501  0.00000000000E+00  0.00000000000E+00  0.10100993238E+04  0.10100993238E+04  0.50400001928E-02 0. -1.
        1   -1    0    0  501    0  0.00000000000E+00  0.00000000000E+00 -0.14921962664E+04  0.14921962664E+04  0.50400001928E-02 0.  1.
    10030    2    1    2    0    0  0.00000000000E+00  0.00000000000E+00 -0.48209694258E+03  0.25022955902E+04  0.24554155980E+04 0.  0.
        3    1    3    3  502    0 -0.29535791802E+03  0.71661137991E+03 -0.12113284893E+04  0.14380837558E+04  0.10100000352E+00 0.  1.
       -3    1    3    3    0  502  0.29535791802E+03 -0.71661137991E+03  0.72923154673E+03  0.10642118344E+04  0.10100000352E+00 0. -1.
</event>
<event>
 5   0  0.3808293E-06  0.2502366E+04  0.7818609E-02  0.8402143E-01
       -2   -1    0    0    0  501  0.00000000000E+00  0.00000000000E+00  0.10967287897E+04  0.10967287897E+04  0.25500000920E-02 0. -1.
        2   -1    0    0  501    0  0.00000000000E+00  0.00000000000E+00 -0.14273889867E+04  0.14273889867E+04  0.25500000920E-02 0.  1.
    10030    2    1    2    0    0  0.00000000000E+00  0.00000000000E+00 -0.33066019702E+03  0.25241177764E+04  0.25023657573E+04 0.  0.
        1    1    3    3  502    0 -0.27644252013E+03  0.11970808778E+04 -0.40410597923E+03  0.12933386012E+04  0.50400001928E-02 0.  1.
       -1    1    3    3    0  502  0.27644252013E+03 -0.11970808778E+04  0.73445782206E+02  0.12307791751E+04  0.50400001928E-02 0. -1.
</event>
<event>
 5   0  0.1574896E-06  0.2500805E+04  0.7818609E-02  0.8402699E-01
       -1   -1    0    0    0  501  0.00000000000E+00  0.00000000000E+00  0.89879639175E+03  0.89879639176E+03  0.50400001928E-02 0. -1.
        1   -1    0    0  501    0  0.00000000000E+00  0.00000000000E+00 -0.17395552796E+04  0.17395552796E+04  0.50400001928E-02 0.  1.
    10030    2    1    2    0    0  0.00000000000E+00  0.00000000000E+00 -0.84075888781E+03  0.26383516713E+04  0.25008046773E+04 0.  0.
        3    1    3    3  502    0  0.41597403729E+02  0.98805992176E+03  0.38689512642E+03  0.10619230679E+04  0.10100000352E+00 0. -1.
       -3    1    3    3    0  502 -0.41597403729E+02 -0.98805992176E+03 -0.12276540142E+04  0.15764286035E+04  0.10100000352E+00 0.  1.
</event>
<event>
 5   0  0.3713394E-06  0.2486248E+04  0.7818609E-02  0.8407901E-01
        2   -1    0    0  501    0  0.00000000000E+00  0.00000000000E+00  0.22445121624E+04  0.22445121624E+04  0.25500000920E-02 0.  1.
       -2   -1    0    0    0  501  0.00000000000E+00  0.00000000000E+00 -0.68850495870E+03  0.68850495871E+03  0.25500000920E-02 0. -1.
    10030    2    1    2    0    0  0.00000000000E+00  0.00000000000E+00  0.15560072037E+04  0.29330171211E+04  0.24862483815E+04 0.  0.
        3    1    3    3  502    0 -0.88931279948E+03 -0.83875622749E+03  0.51167309136E+03  0.13252164454E+04  0.10100000352E+00 0. -1.
       -3    1    3    3    0  502  0.88931279948E+03  0.83875622749E+03  0.10443341123E+04  0.16078006757E+04  0.10100000352E+00 0.  1.
</event>
<event>
 5   0  0.1553604E-06  0.2497551E+04  0.7818609E-02  0.8403858E-01
       -1   -1    0    0    0  501  0.00000000000E+00  0.00000000000E+00  0.12317126195E+04  0.12317126195E+04  0.50400001928E-02 0. -1.
        1   -1    0    0  501    0  0.00000000000E+00  0.00000000000E+00 -0.12660751401E+04  0.12660751401E+04  0.50400001928E-02 0.  1.
    10030    2    1    2    0    0  0.00000000000E+00  0.00000000000E+00 -0.34362520556E+02  0.24977877596E+04  0.24975513827E+04 0.  0.
        1    1    3    3  502    0 -0.90377499263E+03  0.84015325236E+03  0.17460237748E+03  0.12462554774E+04  0.50400001928E-02 0. -1.
       -1    1    3    3    0  502  0.90377499263E+03 -0.84015325236E+03 -0.20896489804E+03  0.12515322822E+04  0.50400001928E-02 0.  1.
</event>
<event>
 5   0  0.1553604E-06  0.2500164E+04  0.7818609E-02  0.8402927E-01
        1   -1    0    0  501    0  0.00000000000E+00  0.00000000000E+00  0.15118901915E+04  0.15118901915E+04  0.50400001928E-02 0.  1.
       -1   -1    0    0    0  501  0.00000000000E+00  0.00000000000E+00 -0.10336102391E+04  0.10336102391E+04  0.50400001928E-02 0. -1.
    10030    2    1    2    0    0  0.00000000000E+00  0.00000000000E+00  0.47827995243E+03  0.25455004306E+04  0.25001641405E+04 0.  0.
        1    1    3    3  502    0  0.71267781092E+03 -0.37118736179E+03  0.12141138595E+04  0.14559403090E+04  0.50400001928E-02 0.  1.
       -1    1    3    3    0  502 -0.71267781092E+03  0.37118736179E+03 -0.73583390704E+03  0.10895601216E+04  0.50400001928E-02 0. -1.
</event>
<event>
 5   0  0.3808293E-06  0.2504878E+04  0.7818609E-02  0.8401250E-01
        2   -1    0    0  501    0  0.00000000000E+00  0.00000000000E+00  0.16835632801E+04  0.16835632801E+04  0.25500000920E-02 0.  1.
       -2   -1    0    0    0  501  0.00000000000E+00  0.00000000000E+00 -0.93171634916E+03  0.93171634917E+03  0.25500000920E-02 0. -1.
    10030    2    1    2    0    0  0.00000000000E+00  0.00000000000E+00  0.75184693093E+03  0.26152796293E+04  0.25048779874E+04 0.  0.
        1    1    3    3  502    0  0.48233257815E+03  0.89611669526E+02 -0.82722409583E+03  0.96175603559E+03  0.50400001928E-02 0. -1.
       -1    1    3    3    0  502 -0.48233257815E+03 -0.89611669526E+02  0.15790710268E+04  0.16535235937E+04  0.50400001928E-02 0.  1.
</event>
<event>
 5   0  0.1574896E-06  0.2519966E+04  0.7818609E-02  0.8395907E-01
        1   -1    0    0  501    0  0.00000000000E+00  0.00000000000E+00  0.14051271338E+04  0.14051271338E+04  0.50400001928E-02 0. -1.
       -1   -1    0    0    0  501  0.00000000000E+00  0.00000000000E+00 -0.11298318195E+04  0.11298318195E+04  0.50400001928E-02 0.  1.
    10030    2    1    2    0    0  0.00000000000E+00  0.00000000000E+00  0.27529531431E+03  0.25349589533E+04  0.25199661476E+04 0.  0.
        3    1    3    3  502    0 -0.59271557227E+03 -0.99696232627E+03  0.63282803045E+03  0.13212558253E+04  0.10100000352E+00 0. -1.
       -3    1    3    3    0  502  0.59271557227E+03  0.99696232627E+03 -0.35753271614E+03  0.12137031280E+04  0.10100000352E+00 0.  1.
</event>
<event>
 5   0  0.1553604E-06  0.2502317E+04  0.7818609E-02  0.8402161E-01
        1   -1    0    0  501    0  0.00000000000E+00  0.00000000000E+00  0.11277434968E+04  0.11277434968E+04  0.50400001928E-02 0. -1.
       -1   -1    0    0    0  501  0.00000000000E+00  0.00000000000E+00 -0.13880792423E+04  0.13880792423E+04  0.50400001928E-02 0.  1.
    10030    2    1    2    0    0  0.00000000000E+00  0.00000000000E+00 -0.26033574558E+03  0.25158227391E+04  0.25023167973E+04 0.  0.
        1    1    3    3  502    0  0.26167922552E+03 -0.12106517346E+03  0.10938862113E+04  0.11312470272E+04  0.50400001928E-02 0. -1.
       -1    1    3    3    0  502 -0.26167922552E+03  0.12106517346E+03 -0.13542219569E+04  0.13845757119E+04  0.50400001928E-02 0.  1.
</event>
<event>
 5   0  0.3713394E-06  0.2514132E+04  0.7818609E-02  0.8397968E-01
        2   -1    0    0  501    0  0.00000000000E+00  0.00000000000E+00  0.13203964080E+04  0.13203964080E+04  0.25500000920E-02 0.  1.
       -2   -1    0    0    0  501  0.00000000000E+00  0.00000000000E+00 -0.11967735018E+04  0.11967735018E+04  0.25500000920E-02 0. -1.
    10030    2    1    2    0    0  0.00000000000E+00  0.00000000000E+00  0.12362290623E+03  0.25171699097E+04  0.25141324014E+04 0.  0.
        3    1    3    3  502    0  0.48286292797E+03  0.62722750571E+03 -0.91591560477E+03  0.12105669566E+04  0.10100000352E+00 0. -1.
       -3    1    3    3    0  502 -0.48286292797E+03 -0.62722750571E+03  0.10395385110E+04  0.13066029532E+04  0.10100000352E+00 0.  1.
</event>
<event>
 5   0  0.3814260E-06  0.2485494E+04  0.7818609E-02  0.8408171E-01
        2   -1    0    0  501    0  0.00000000000E+00  0.00000000000E+00  0.15083244491E+04  0.15083244491E+04  0.25500000920E-02 0. -1.
       -2   -1    0    0    0  501  0.00000000000E+00  0.00000000000E+00 -0.10239313273E+04  0.10239313273E+04  0.25500000920E-02 0.  1.
    10030    2    1    2    0    0  0.00000000000E+00  0.00000000000E+00  0.48439312173E+03  0.25322557764E+04  0.24854944419E+04 0.  0.
        5    1    3    3  502    0 -0.11506288011E+04  0.46660538180E+03  0.18895104435E+03  0.12559425972E+04  0.46999998093E+01 0.  1.
       -5    1    3    3    0  502  0.11506288011E+04 -0.46660538180E+03  0.29544207739E+03  0.12763131792E+04  0.46999998093E+01 0. -1.
</event>
<event>
 5   0  0.3924441E-06  0.2504627E+04  0.7818609E-02  0.8401339E-01
        2   -1    0    0  501    0  0.00000000000E+00  0.00000000000E+00  0.10320689135E+04  0.10320689135E+04  0.25500000920E-02 0. -1.
       -2   -1    0    0    0  501  0.00000000000E+00  0.00000000000E+00 -0.15195582221E+04  0.15195582221E+04  0.25500000920E-02 0.  1.
    10030    2    1    2    0    0  0.00000000000E+00  0.00000000000E+00 -0.48748930864E+03  0.25516271356E+04  0.25046267613E+04 0.  0.
        2    1    3    3  502    0  0.49379232872E+03 -0.10347082525E+04 -0.75702125181E+03  0.13738752517E+04  0.25500000920E-02 0.  1.
       -2    1    3    3    0  502 -0.49379232872E+03  0.10347082525E+04  0.26953194317E+03  0.11777518839E+04  0.25500000920E-02 0. -1.
</event>
<event>
 5   0  0.3924441E-06  0.2500772E+04  0.7818609E-02  0.8402711E-01
       -2   -1    0    0    0  501  0.00000000000E+00  0.00000000000E+00  0.11291596607E+04  0.11291596607E+04  0.25500000920E-02 0.  1.
        2   -1    0    0  501    0  0.00000000000E+00  0.00000000000E+00 -0.13846268755E+04  0.13846268755E+04  0.25500000920E-02 0. -1.
    10030    2    1    2    0    0  0.00000000000E+00  0.00000000000E+00 -0.25546721474E+03  0.25137865362E+04  0.25007717313E+04 0.  0.
        2    1    3    3  502    0  0.39665432471E+03  0.91151055186E+03  0.63468499043E+03  0.11794113687E+04  0.25500000920E-02 0.  1.
       -2    1    3    3    0  502 -0.39665432471E+03 -0.91151055186E+03 -0.89015220517E+03  0.13343751676E+04  0.25500000920E-02 0. -1.
</event>
<event>
 5   0  0.3713394E-06  0.2498791E+04  0.7818609E-02  0.8403416E-01
        2   -1    0    0  501    0  0.00000000000E+00  0.00000000000E+00  0.18628670473E+04  0.18628670473E+04  0.25500000920E-02 0. -1.
       -2   -1    0    0    0  501  0.00000000000E+00  0.00000000000E+00 -0.83794970592E+03  0.83794970593E+03  0.25500000920E-02 0.  1.
    10030    2    1    2    0    0  0.00000000000E+00  0.00000000000E+00  0.10249173414E+04  0.27008167533E+04  0.24987908232E+04 0.  0.
        3    1    3    3  502    0 -0.66315732870E+03  0.97958782335E+03  0.94698024165E+03  0.15153024565E+04  0.10100000352E+00 0. -1.
       -3    1    3    3    0  502  0.66315732870E+03 -0.97958782335E+03  0.77937099778E+02  0.11855142968E+04  0.10100000352E+00 0.  1.
</event>
<event>
 5   0  0.1501747E-06  0.2494227E+04  0.7818609E-02  0.8405045E-01
        1   -1    0    0  501    0  0.00000000000E+00  0.00000000000E+00  0.17612941953E+04  0.17612941953E+04  0.50400001928E-02 0. -1.
       -1   -1    0    0    0  501  0.00000000000E+00  0.00000000000E+00 -0.88303960268E+03  0.88303960269E+03  0.50400001928E-02 0.  1.
    10030    2    1    2    0    0  0.00000000000E+00  0.00000000000E+00  0.87825459262E+03  0.26443337980E+04  0.24942273565E+04 0.  0.
        2    1    3    3  502    0 -0.24758318409E+03  0.43704462544E+03  0.16493081950E+04  0.17241006235E+04  0.25500000920E-02 0. -1.
       -2    1    3    3    0  502  0.24758318409E+03 -0.43704462544E+03 -0.77105360242E+03  0.92023317451E+03  0.25500000920E-02 0.  1.
</event>
<event>
 5   0  0.3808293E-06  0.2500095E+04  0.7818609E-02  0.8402952E-01
        2   -1    0    0  501    0  0.00000000000E+00  0.00000000000E+00  0.16445268828E+04  0.16445268828E+04  0.25500000920E-02 0. -1.
       -2   -1    0    0    0  501  0.00000000000E+00  0.00000000000E+00 -0.95019315145E+03  0.95019315145E+03  0.25500000920E-02 0.  1.
    10030    2    1    2    0    0  0.00000000000E+00  0.00000000000E+00  0.69433373137E+03  0.25947200343E+04  0.25000945434E+04 0.  0.
        1    1    3    3  502    0  0.54010752545E+03  0.19371328285E+03 -0.80544220212E+03  0.98892776075E+03  0.50400001928E-02 0.  1.
       -1    1    3    3    0  502 -0.54010752545E+03 -0.19371328285E+03  0.14997759335E+04  0.16057922735E+04  0.50400001928E-02 0. -1.
</event>
<event>
 5   0  0.1574896E-06  0.2500499E+04  0.7818609E-02  0.8402808E-01
       -1   -1    0    0    0  501  0.00000000000E+00  0.00000000000E+00  0.12894184162E+04  0.12894184162E+04  0.50400001928E-02 0.  1.
        1   -1    0    0  501    0  0.00000000000E+00  0.00000000000E+00 -0.12122702993E+04  0.12122702993E+04  0.50400001928E-02 0. -1.
    10030    2    1    2    0    0  0.00000000000E+00  0.00000000000E+00  0.77148116913E+02  0.25016887155E+04  0.25004988697E+04 0.  0.
        3    1    3    3  502    0  0.11468437824E+04  0.20523412744E+03  0.49238876608E+03  0.12648392844E+04  0.10100000352E+00 0.  1.
       -3    1    3    3    0  502 -0.11468437824E+04 -0.20523412744E+03 -0.41524064916E+03  0.12368494311E+04  0.10100000352E+00 0. -1.
</event>
<event>
 5   0  0.1574896E-06  0.2495349E+04  0.7818609E-02  0.8404644E-01
        1   -1    0    0  501    0  0.00000000000E+00  0.00000000000E+00  0.16617783671E+04  0.16617783671E+04  0.50400001928E-02 0. -1.
       -1   -1    0    0    0  501  0.00000000000E+00  0.00000000000E+00 -0.93676257728E+03  0.93676257729E+03  0.50400001928E-02 0.  1.
    10030    2    1    2    0    0  0.00000000000E+00  0.00000000000E+00  0.72501578985E+03  0.25985409444E+04  0.24953491027E+04 0.  0.
        3    1    3    3  502    0  0.10399892631E+04 -0.44378680883E+03 -0.18671843500E+03  0.11460314931E+04  0.10100000352E+00 0.  1.
       -3    1    3    3    0  502 -0.10399892631E+04  0.44378680883E+03  0.91173422486E+03  0.14525094513E+04  0.10100000352E+00 0. -1.
</event>
<event>
 5   0  0.1519145E-06  0.2502130E+04  0.7818609E-02  0.8402227E-01
        1   -1    0    0  501    0  0.00000000000E+00  0.00000000000E+00  0.15029180765E+04  0.15029180765E+04  0.50400001928E-02 0.  1.
       -1   -1    0    0    0  501  0.00000000000E+00  0.00000000000E+00 -0.10414166807E+04  0.10414166807E+04  0.50400001928E-02 0. -1.
    10030    2    1    2    0    0  0.00000000000E+00  0.00000000000E+00  0.46150139577E+03  0.25443347572E+04  0.25021302561E+04 0.  0.
        4    1    3    3  502    0 -0.77652982270E+02 -0.11919586460E+04  0.60900206667E+03  0.13407760922E+04  0.12699999809E+01 0.  1.
       -4    1    3    3    0  502  0.77652982270E+02  0.11919586460E+04 -0.14750067090E+03  0.12035586650E+04  0.12699999809E+01 0. -1.
</event>
<event>
 5   0  0.3971759E-06  0.2503218E+04  0.7818609E-02  0.8401840E-01
        2   -1    0    0  501    0  0.00000000000E+00  0.00000000000E+00  0.15784483131E+04  0.15784483131E+04  0.25500000920E-02 0. -1.
       -2   -1    0    0    0  501  0.00000000000E+00  0.00000000000E+00 -0.99244658184E+03  0.99244658184E+03  0.25500000920E-02 0.  1.
    10030    2    1    2    0    0  0.00000000000E+00  0.00000000000E+00  0.58600173126E+03  0.25708948949E+04  0.25032184347E+04 0.  0.
        4    1    3    3  502    0 -0.48346336919E+03  0.79378331180E+03 -0.56793159083E+03  0.10892091995E+04  0.12699999809E+01 0.  1.
       -4    1    3    3    0  502  0.48346336919E+03 -0.79378331180E+03  0.11539333221E+04  0.14816856955E+04  0.12699999809E+01 0. -1.
</event>
<event>
 5   0  0.1574896E-06  0.2499891E+04  0.7818609E-02  0.8403024E-01
        1   -1    0    0  501    0  0.00000000000E+00  0.00000000000E+00  0.20870332941E+04  0.20870332941E+04  0.50400001928E-02 0. -1.
       -1   -1    0    0    0  501  0.00000000000E+00  0.00000000000E+00 -0.74860532041E+03  0.74860532043E+03  0.50400001928E-02 0.  1.
    10030    2    1    2    0    0  0.00000000000E+00  0.00000000000E+00  0.13384279737E+04  0.28356386146E+04  0.24998913800E+04 0.  0.
        3    1    3    3  502    0 -0.81803543601E+03 -0.63414279168E+03 -0.12564568189E+03  0.10426437083E+04  0.10100000352E+00 0.  1.
       -3    1    3    3    0  502  0.81803543601E+03  0.63414279168E+03  0.14640736556E+04  0.17929949063E+04  0.10100000352E+00 0. -1.
</event>
<event>
 5   0  0.3814260E-06  0.2491780E+04  0.7818609E-02  0.8405920E-01
       -2   -1    0    0    0  501  0.00000000000E+00  0.00000000000E+00  0.15252974687E+04  0.15252974687E+04  0.25500000920E-02 0.  1.
        2   -1    0    0  501    0  0.00000000000E+00  0.00000000000E+00 -0.10176649970E+04  0.10176649970E+04  0.25500000920E-02 0. -1.
    10030    2    1    2    0    0  0.00000000000E+00  0.00000000000E+00  0.50763247170E+03  0.25429624658E+04  0.24917799614E+04 0.  0.
        5    1    3    3  502    0 -0.10835288517E+04  0.35869843906E+02 -0.37271448546E+03  0.11464116171E+04  0.46999998093E+01 0. -1.
       -5    1    3    3    0  502  0.10835288517E+04 -0.35869843906E+02  0.88034695716E+03  0.13965508487E+04  0.46999998093E+01 0.  1.
</event>
<event>
 5   0  0.1574896E-06  0.2499951E+04  0.7818609E-02  0.8403003E-01
       -1   -1    0    0    0  501  0.00000000000E+00  0.00000000000E+00  0.53092565957E+03  0.53092565960E+03  0.50400001928E-02 0. -1.
        1   -1    0    0  501    0  0.00000000000E+00  0.00000000000E+00 -0.29428570371E+04  0.29428570371E+04  0.50400001928E-02 0.  1.
    10030    2    1    2    0    0  0.00000000000E+00  0.00000000000E+00 -0.24119313775E+04  0.34737826967E+04  0.24999506503E+04 0.  0.
        3    1    3    3  502    0 -0.10310522885E+04  0.89576533419E+02 -0.21799786027E+04  0.24131720816E+04  0.10100000352E+00 0.  1.
       -3    1    3    3    0  502  0.10310522885E+04 -0.89576533419E+02 -0.23195277485E+03  0.10606106151E+04  0.10100000352E+00 0. -1.
</event>
<event>
 5   0  0.3808293E-06  0.2453446E+04  0.7818609E-02  0.8419761E-01
       -2   -1    0    0    0  501  0.00000000000E+00  0.00000000000E+00  0.89697752341E+03  0.89697752342E+03  0.25500000920E-02 0.  1.
        2   -1    0    0  501    0  0.00000000000E+00  0.00000000000E+00 -0.16776883535E+04  0.16776883535E+04  0.25500000920E-02 0. -1.
    10030    2    1    2    0    0  0.00000000000E+00  0.00000000000E+00 -0.78071083009E+03  0.25746658769E+04  0.24534455318E+04 0.  0.
        1    1    3    3  502    0 -0.99314056177E+03 -0.26035868077E+03 -0.10948936718E+04  0.15009686775E+04  0.50400001928E-02 0. -1.
       -1    1    3    3    0  502  0.99314056177E+03  0.26035868077E+03  0.31418284172E+03  0.10736971995E+04  0.50400001928E-02 0.  1.
</event>
<event>
 5   0  0.1574896E-06  0.2499877E+04  0.7818609E-02  0.8403029E-01
        1   -1    0    0  501    0  0.00000000000E+00  0.00000000000E+00  0.26295721644E+04  0.26295721644E+04  0.50400001928E-02 0.  1.
       -1   -1    0    0    0  501  0.00000000000E+00  0.00000000000E+00 -0.59414488480E+03  0.59414488482E+03  0.50400001928E-02 0. -1.
    10030    2    1    2    0    0  0.00000000000E+00  0.00000000000E+00  0.20354272796E+04  0.32237170492E+04  0.24998774776E+04 0.  0.
        3    1    3    3  502    0 -0.10154897802E+04 -0.71538181704E+03  0.11971243122E+04  0.17251368835E+04  0.10100000352E+00 0.  1.
       -3    1    3    3    0  502  0.10154897802E+04  0.71538181704E+03  0.83830296741E+03  0.14985801657E+04  0.10100000352E+00 0. -1.
</event>
<event>
 5   0  0.3814260E-06  0.2499034E+04  0.7818609E-02  0.8403330E-01
       -2   -1    0    0    0  501  0.00000000000E+00  0.00000000000E+00  0.98130944676E+03  0.98130944677E+03  0.25500000920E-02 0. -1.
        2   -1    0    0  501    0  0.00000000000E+00  0.00000000000E+00 -0.15910305097E+04  0.15910305097E+04  0.25500000920E-02 0.  1.
    10030    2    1    2    0    0  0.00000000000E+00  0.00000000000E+00 -0.60972106292E+03  0.25723399565E+04  0.24990344289E+04 0.  0.
        5    1    3    3  502    0 -0.76711600680E+03 -0.79532726204E+03  0.29556725236E+03  0.11438507386E+04  0.46999998093E+01 0. -1.
       -5    1    3    3    0  502  0.76711600680E+03  0.79532726204E+03 -0.90528831528E+03  0.14284892178E+04  0.46999998093E+01 0.  1.
</event>
<event>
 5   0  0.3713394E-06  0.2500061E+04  0.7818609E-02  0.8402964E-01
       -2   -1    0    0    0  501  0.00000000000E+00  0.00000000000E+00  0.86326311228E+03  0.86326311228E+03  0.25500000920E-02 0. -1.
        2   -1    0    0  501    0  0.00000000000E+00  0.00000000000E+00 -0.18100813980E+04  0.18100813980E+04  0.25500000920E-02 0.  1.
    10030    2    1    2    0    0  0.00000000000E+00  0.00000000000E+00 -0.94681828573E+03  0.26733445103E+04  0.25000612002E+04 0.  0.
        3    1    3    3  502    0  0.86856256704E+03  0.49610578832E+03  0.32825700393E+03  0.10527461978E+04  0.10100000352E+00 0. -1.
       -3    1    3    3    0  502 -0.86856256704E+03 -0.49610578832E+03 -0.12750752897E+04  0.16205983125E+04  0.10100000352E+00 0.  1.
</event>
<event>
 5   0  0.3713394E-06  0.2497896E+04  0.7818609E-02  0.8403736E-01
       -2   -1    0    0    0  501  0.00000000000E+00  0.00000000000E+00  0.99356613152E+03  0.99356613152E+03  0.25500000920E-02 0. -1.
        2   -1    0    0  501    0  0.00000000000E+00  0.00000000000E+00 -0.15699715763E+04  0.15699715763E+04  0.25500000920E-02 0.  1.
    10030    2    1    2    0    0  0.00000000000E+00  0.00000000000E+00 -0.57640544478E+03  0.25635377078E+04  0.24978955828E+04 0.  0.
        3    1    3    3  502    0 -0.65222284431E+03 -0.91575877020E+03  0.27002305357E+03  0.11562530966E+04  0.10100000352E+00 0. -1.
       -3    1    3    3    0  502  0.65222284431E+03  0.91575877020E+03 -0.84642849835E+03  0.14072846112E+04  0.10100000352E+00 0.  1.
</event>
<event>
 5   0  0.1553604E-06  0.2492999E+04  0.7818609E-02  0.8405484E-01
        1   -1    0    0  501    0  0.00000000000E+00  0.00000000000E+00  0.14663289887E+04  0.14663289887E+04  0.50400001928E-02 0. -1.
       -1   -1    0    0    0  501  0.00000000000E+00  0.00000000000E+00 -0.10596265857E+04  0.10596265857E+04  0.50400001928E-02 0.  1.
    10030    2    1    2    0    0  0.00000000000E+00  0.00000000000E+00  0.40670240297E+03  0.25259555744E+04  0.24929991415E+04 0.  0.
        1    1    3    3  502    0 -0.10818430067E+04 -0.44137115544E+02  0.82911483735E+03  0.13637315681E+04  0.50400001928E-02 0. -1.
       -1    1    3    3    0  502  0.10818430067E+04  0.44137115544E+02 -0.42241243439E+03  0.11622240064E+04  0.50400001928E-02 0.  1.
</event>
<event>
 5   0  0.1519145E-06  0.2498967E+04  0.7818609E-02  0.8403354E-01
       -1   -1    0    0    0  501  0.00000000000E+00  0.00000000000E+00  0.11304532904E+04  0.11304532905E+04  0.50400001928E-02 0.  1.
        1   -1    0    0  501    0  0.00000000000E+00  0.00000000000E+00 -0.13810472254E+04  0.13810472255E+04  0.50400001928E-02 0. -1.
    10030    2    1    2    0    0  0.00000000000E+00  0.00000000000E+00 -0.25059393500E+03  0.25115005159E+04  0.24989672909E+04 0.  0.
        4    1    3    3  502    0  0.46221630440E+03 -0.25589306259E+03  0.10126727426E+04  0.11422052653E+04  0.12699999809E+01 0.  1.
       -4    1    3    3    0  502 -0.46221630440E+03  0.25589306259E+03 -0.12632666776E+04  0.13692952506E+04  0.12699999809E+01 0. -1.
</event>
<event>
 5   0  0.1553604E-06  0.2500670E+04  0.7818609E-02  0.8402747E-01
       -1   -1    0    0    0  501  0.00000000000E+00  0.00000000000E+00  0.96998564860E+03  0.96998564861E+03  0.50400001928E-02 0.  1.
        1   -1    0    0  501    0  0.00000000000E+00  0.00000000000E+00 -0.16117122622E+04  0.16117122622E+04  0.50400001928E-02 0. -1.
    10030    2    1    2    0    0  0.00000000000E+00  0.00000000000E+00 -0.64172661361E+03  0.25816979108E+04  0.25006701214E+04 0.  0.
        1    1    3    3  502    0  0.11584462353E+04  0.33183445064E+03 -0.66517529278E+03  0.13764337808E+04  0.50400001928E-02 0. -1.
       -1    1    3    3    0  502 -0.11584462353E+04 -0.33183445064E+03  0.23448679168E+02  0.12052641301E+04  0.50400001928E-02 0.  1.
</event>
<event>
 5   0  0.1287375E-06  0.2498128E+04  0.7818609E-02  0.8403653E-01
       -3   -1    0    0    0  501  0.00000000000E+00  0.00000000000E+00  0.15302261255E+04  0.15302261288E+04  0.10100000352E+00 0. -1.
        3   -1    0    0  501    0  0.00000000000E+00  0.00000000000E+00 -0.10195625838E+04  0.10195625888E+04  0.10100000352E+00 0.  1.
    10030    2    1    2    0    0  0.00000000000E+00  0.00000000000E+00  0.51066354169E+03  0.25497887176E+04  0.24981283497E+04 0.  0.
        4    1    3    3  502    0 -0.22955672048E+03 -0.85091648443E+03 -0.64807323264E+03  0.10939632897E+04  0.12699999809E+01 0.  1.
       -4    1    3    3    0  502  0.22955672048E+03  0.85091648443E+03  0.11587367743E+04  0.14558254279E+04  0.12699999809E+01 0. -1.
</event>
<event>
 5   0  0.1541852E-06  0.2494267E+04  0.7818609E-02  0.8405031E-01
       -1   -1    0    0    0  501  0.00000000000E+00  0.00000000000E+00  0.93011239947E+03  0.93011239948E+03  0.50400001928E-02 0.  1.
        1   -1    0    0  501    0  0.00000000000E+00  0.00000000000E+00 -0.16722088423E+04  0.16722088423E+04  0.50400001928E-02 0. -1.
    10030    2    1    2    0    0  0.00000000000E+00  0.00000000000E+00 -0.74209644285E+03  0.26023212418E+04  0.24942671700E+04 0.  0.
        5    1    3    3  502    0  0.24892304628E+03  0.10510770432E+04  0.27933036815E+03  0.11156940344E+04  0.46999998093E+01 0.  1.
       -5    1    3    3    0  502 -0.24892304628E+03 -0.10510770432E+04 -0.10214268110E+04  0.14866272075E+04  0.46999998093E+01 0. -1.
</event>
<event>
 5   0  0.1519145E-06  0.2501214E+04  0.7818609E-02  0.8402553E-01
        1   -1    0    0  501    0  0.00000000000E+00  0.00000000000E+00  0.13219469147E+04  0.13219469147E+04  0.50400001928E-02 0. -1.
       -1   -1    0    0    0  501  0.00000000000E+00  0.00000000000E+00 -0.11831170073E+04  0.11831170073E+04  0.50400001928E-02 0.  1.
    10030    2    1    2    0    0  0.00000000000E+00  0.00000000000E+00  0.13882990741E+03  0.25050639221E+04  0.25012140073E+04 0.  0.
        4    1    3    3  502    0 -0.95478499990E+03 -0.70253369818E+03  0.46858616051E+03  0.12746539122E+04  0.12699999809E+01 0. -1.
       -4    1    3    3    0  502  0.95478499990E+03  0.70253369818E+03 -0.32975625309E+03  0.12304100099E+04  0.12699999809E+01 0.  1.
</event>
<event>
 5   0  0.1501747E-06  0.2503623E+04  0.7818609E-02  0.8401696E-01
        1   -1    0    0  501    0  0.00000000000E+00  0.00000000000E+00  0.23834000565E+04  0.23834000565E+04  0.50400001928E-02 0. -1.
       -1   -1    0    0    0  501  0.00000000000E+00  0.00000000000E+00 -0.65747732382E+03  0.65747732383E+03  0.50400001928E-02 0.  1.
    10030    2    1    2    0    0  0.00000000000E+00  0.00000000000E+00  0.17259227327E+04  0.30408773804E+04  0.25036225680E+04 0.  0.
        2    1    3    3  502    0  0.11617805706E+04  0.46362763330E+03  0.80412180872E+03  0.14870428911E+04  0.25500000920E-02 0.  1.
       -2    1    3    3    0  502 -0.11617805706E+04 -0.46362763330E+03  0.92180092400E+03  0.15538344893E+04  0.25500000920E-02 0. -1.
</event>
<event>
 5   0  0.3924441E-06  0.2510159E+04  0.7818609E-02  0.8399375E-01
       -2   -1    0    0    0  501  0.00000000000E+00  0.00000000000E+00  0.14900565628E+04  0.14900565628E+04  0.25500000920E-02 0.  1.
        2   -1    0    0  501    0  0.00000000000E+00  0.00000000000E+00 -0.10571578964E+04  0.10571578964E+04  0.25500000920E-02 0. -1.
    10030    2    1    2    0    0  0.00000000000E+00  0.00000000000E+00  0.43289866639E+03  0.25472144592E+04  0.25101594064E+04 0.  0.
        2    1    3    3  502    0 -0.11690543925E+04 -0.45192487578E+03  0.28299788316E+03  0.12849171444E+04  0.25500000920E-02 0.  1.
       -2    1    3    3    0  502  0.11690543925E+04  0.45192487578E+03  0.14990078323E+03  0.12622973148E+04  0.25500000920E-02 0. -1.
</event>
<event>
 5   0  0.1541852E-06  0.2494915E+04  0.7818609E-02  0.8404799E-01
       -1   -1    0    0    0  501  0.00000000000E+00  0.00000000000E+00  0.17211250217E+04  0.17211250218E+04  0.50400001928E-02 0. -1.
        1   -1    0    0  501    0  0.00000000000E+00  0.00000000000E+00 -0.90414692703E+03  0.90414692705E+03  0.50400001928E-02 0.  1.
    10030    2    1    2    0    0  0.00000000000E+00  0.00000000000E+00  0.81697809471E+03  0.26252719488E+04  0.24949147476E+04 0.  0.
        5    1    3    3  502    0 -0.10669182946E+04 -0.62929931803E+03  0.25314224819E+03  0.12642924372E+04  0.46999998093E+01 0. -1.
       -5    1    3    3    0  502  0.10669182946E+04  0.62929931803E+03  0.56383584652E+03  0.13609795116E+04  0.46999998093E+01 0.  1.
</event>
<event>
 5   0  0.1574896E-06  0.2503484E+04  0.7818609E-02  0.8401745E-01
       -1   -1    0    0    0  501  0.00000000000E+00  0.00000000000E+00  0.65523188801E+03  0.65523188803E+03  0.50400001928E-02 0. -1.
        1   -1    0    0  501    0  0.00000000000E+00  0.00000000000E+00 -0.23913038430E+04  0.23913038430E+04  0.50400001928E-02 0.  1.
    10030    2    1    2    0    0  0.00000000000E+00  0.00000000000E+00 -0.17360719550E+04  0.30465357310E+04  0.25034843973E+04 0.  0.
        3    1    3    3  502    0  0.14508479355E+03 -0.11986737684E+04 -0.12697851170E+04  0.17522050833E+04  0.10100000352E+00 0. -1.
       -3    1    3    3    0  502 -0.14508479355E+03  0.11986737684E+04 -0.46628683800E+03  0.12943306478E+04  0.10100000352E+00 0.  1.
</event>
<event>
 5   0  0.3924441E-06  0.2500761E+04  0.7818609E-02  0.8402714E-01
        2   -1    0    0  501    0  0.00000000000E+00  0.00000000000E+00  0.23836057180E+04  0.23836057180E+04  0.25500000920E-02 0. -1.
       -2   -1    0    0    0  501  0.00000000000E+00  0.00000000000E+00 -0.65591862537E+03  0.65591862537E+03  0.25500000920E-02 0.  1.
    10030    2    1    2    0    0  0.00000000000E+00  0.00000000000E+00  0.17276870926E+04  0.30395243433E+04  0.25007609929E+04 0.  0.
        2    1    3    3  502    0 -0.53520179817E+03 -0.83082634529E+03 -0.67169033915E+02  0.99056804911E+03  0.25500000920E-02 0.  1.
       -2    1    3    3    0  502  0.53520179817E+03  0.83082634529E+03  0.17948561265E+04  0.20489562942E+04  0.25500000920E-02 0. -1.
</event>
<event>
 5   0  0.1501747E-06  0.2502242E+04  0.7818609E-02  0.8402187E-01
        1   -1    0    0  501    0  0.00000000000E+00  0.00000000000E+00  0.11266410963E+04  0.11266410963E+04  0.50400001928E-02 0. -1.
       -1   -1    0    0    0  501  0.00000000000E+00  0.00000000000E+00 -0.13893544687E+04  0.13893544687E+04  0.50400001928E-02 0.  1.
    10030    2    1    2    0    0  0.00000000000E+00  0.00000000000E+00 -0.26271337237E+03  0.25159955650E+04  0.25022420681E+04 0.  0.
        2    1    3    3  502    0 -0.33888276219E+03  0.26078088664E+03  0.10508846853E+04  0.11345513735E+04  0.25500000920E-02 0. -1.
       -2    1    3    3    0  502  0.33888276219E+03 -0.26078088664E+03 -0.13135980576E+04  0.13814441915E+04  0.25500000920E-02 0.  1.
</event>
<event>
 5   0  0.1541852E-06  0.2502998E+04  0.7818609E-02  0.8401918E-01
        1   -1    0    0  501    0  0.00000000000E+00  0.00000000000E+00  0.16729011712E+04  0.16729011712E+04  0.50400001928E-02 0.  1.
       -1   -1    0    0    0  501  0.00000000000E+00  0.00000000000E+00 -0.93624744017E+03  0.93624744018E+03  0.50400001928E-02 0. -1.
    10030    2    1    2    0    0  0.00000000000E+00  0.00000000000E+00  0.73665373105E+03  0.26091486114E+04  0.25029977541E+04 0.  0.
        5    1    3    3  502    0 -0.57764188774E+03 -0.57908344714E+03 -0.61906085712E+03  0.10258002847E+04  0.46999998093E+01 0. -1.
       -5    1    3    3    0  502  0.57764188774E+03  0.57908344714E+03  0.13557145882E+04  0.15833483267E+04  0.46999998093E+01 0.  1.
</event>
<event>
 5   0  0.3808293E-06  0.2503794E+04  0.7818609E-02  0.8401635E-01
        2   -1    0    0  501    0  0.00000000000E+00  0.00000000000E+00  0.92954703163E+03  0.92954703164E+03  0.25500000920E-02 0.  1.
       -2   -1    0    0    0  501  0.00000000000E+00  0.00000000000E+00 -0.16860316710E+04  0.16860316710E+04  0.25500000920E-02 0. -1.
    10030    2    1    2    0    0  0.00000000000E+00  0.00000000000E+00 -0.75648463937E+03  0.26155787026E+04  0.25037937096E+04 0.  0.
        1    1    3    3  502    0 -0.57915502196E+02 -0.82242878987E+03  0.60589119114E+03  0.10231556359E+04  0.50400001928E-02 0.  1.
       -1    1    3    3    0  502  0.57915502196E+02  0.82242878987E+03 -0.13623758305E+04  0.15924230667E+04  0.50400001928E-02 0. -1.
</event>
<event>
 5   0  0.3924441E-06  0.2500469E+04  0.7818609E-02  0.8402818E-01
        2   -1    0    0  501    0  0.00000000000E+00  0.00000000000E+00  0.13690514393E+04  0.13690514393E+04  0.25500000920E-02 0.  1.
       -2   -1    0    0    0  501  0.00000000000E+00  0.00000000000E+00 -0.11417296964E+04  0.11417296964E+04  0.25500000920E-02 0. -1.
    10030    2    1    2    0    0  0.00000000000E+00  0.00000000000E+00  0.22732174292E+03  0.25107811357E+04  0.25004693033E+04 0.  0.
        2    1    3    3  502    0 -0.53408019741E+03 -0.18650864364E+03  0.12331845855E+04  0.13567502914E+04  0.25500000920E-02 0.  1.
       -2    1    3    3    0  502  0.53408019741E+03  0.18650864364E+03 -0.10058628426E+04  0.11540308443E+04  0.25500000920E-02 0. -1.
</event>
<event>
 5   0  0.3808293E-06  0.2501343E+04  0.7818609E-02  0.8402507E-01
        2   -1    0    0  501    0  0.00000000000E+00  0.00000000000E+00  0.17025544359E+04  0.17025544359E+04  0.25500000920E-02 0.  1.
       -2   -1    0    0    0  501  0.00000000000E+00  0.00000000000E+00 -0.91872514278E+03  0.91872514278E+03  0.25500000920E-02 0. -1.
    10030    2    1    2    0    0  0.00000000000E+00  0.00000000000E+00  0.78382929317E+03  0.26212795787E+04  0.25013432929E+04 0.  0.
        1    1    3    3  502    0 -0.78747165398E+03  0.28524989041E+03 -0.58143765333E+03  0.10195826845E+04  0.50400001928E-02 0. -1.
       -1    1    3    3    0  502  0.78747165398E+03 -0.28524989041E+03  0.13652669465E+04  0.16016968942E+04  0.50400001928E-02 0.  1.
</event>
<event>
 5   0  0.3814260E-06  0.2501133E+04  0.7818609E-02  0.8402582E-01
       -2   -1    0    0    0  501  0.00000000000E+00  0.00000000000E+00  0.12343419797E+04  0.12343419797E+04  0.25500000920E-02 0. -1.
        2   -1    0    0  501    0  0.00000000000E+00  0.00000000000E+00 -0.12670047268E+04  0.12670047268E+04  0.25500000920E-02 0.  1.
    10030    2    1    2    0    0  0.00000000000E+00  0.00000000000E+00 -0.32662747160E+02  0.25013467065E+04  0.25011334413E+04 0.  0.
        5    1    3    3  502    0  0.13672243448E+03  0.10909735290E+03  0.12220390348E+04  0.12345026323E+04  0.46999998093E+01 0. -1.
       -5    1    3    3    0  502 -0.13672243448E+03 -0.10909735290E+03 -0.12547017820E+04  0.12668440742E+04  0.46999998093E+01 0.  1.
</event>
<event>
 5   0  0.3971759E-06  0.2498202E+04  0.7818609E-02  0.8403626E-01
        2   -1    0    0  501    0  0.00000000000E+00  0.00000000000E+00  0.16763890909E+04  0.16763890909E+04  0.25500000920E-02 0. -1.
       -2   -1    0    0    0  501  0.00000000000E+00  0.00000000000E+00 -0.93072273311E+03  0.93072273311E+03  0.25500000920E-02 0.  1.
    10030    2    1    2    0    0  0.00000000000E+00  0.00000000000E+00  0.74566635777E+03  0.26071118240E+04  0.24982021027E+04 0.  0.
        4    1    3    3  502    0 -0.10736208098E+04  0.59614798104E+03  0.61126161159E+03  0.13717494046E+04  0.12699999809E+01 0.  1.
       -4    1    3    3    0  502  0.10736208098E+04 -0.59614798104E+03  0.13440474618E+03  0.12353624193E+04  0.12699999809E+01 0. -1.
</event>
<event>
 5   0  0.3808293E-06  0.2514785E+04  0.7818609E-02  0.8397737E-01
        2   -1    0    0  501    0  0.00000000000E+00  0.00000000000E+00  0.17073960750E+04  0.17073960750E+04  0.25500000920E-02 0. -1.
       -2   -1    0    0    0  501  0.00000000000E+00  0.00000000000E+00 -0.92599248787E+03  0.92599248787E+03  0.25500000920E-02 0.  1.
    10030    2    1    2    0    0  0.00000000000E+00  0.00000000000E+00  0.78140358716E+03  0.26333885629E+04  0.25147850320E+04 0.  0.
        1    1    3    3  502    0  0.40603045929E+03 -0.76500295079E+02 -0.85287714668E+03  0.94768795305E+03  0.50400001928E-02 0.  1.
       -1    1    3    3    0  502 -0.40603045929E+03  0.76500295079E+02  0.16342807338E+04  0.16857006098E+04  0.50400001928E-02 0. -1.
</event>
<event>
 5   0  0.1519145E-06  0.2420913E+04  0.7818609E-02  0.8431715E-01
       -1   -1    0    0    0  501  0.00000000000E+00  0.00000000000E+00  0.82036776504E+03  0.82036776505E+03  0.50400001928E-02 0. -1.
        1   -1    0    0  501    0  0.00000000000E+00  0.00000000000E+00 -0.17860344908E+04  0.17860344908E+04  0.50400001928E-02 0.  1.
    10030    2    1    2    0    0  0.00000000000E+00  0.00000000000E+00 -0.96566672580E+03  0.26064022559E+04  0.24209131530E+04 0.  0.
        4    1    3    3  502    0 -0.19655869616E+03 -0.10299962247E+04  0.16821078868E+03  0.10619905962E+04  0.12699999809E+01 0. -1.
       -4    1    3    3    0  502  0.19655869616E+03  0.10299962247E+04 -0.11338775145E+04  0.15444116597E+04  0.12699999809E+01 0.  1.
</event>
<event>
 5   0  0.3924441E-06  0.2505613E+04  0.7818609E-02  0.8400989E-01
       -2   -1    0    0    0  501  0.00000000000E+00  0.00000000000E+00  0.66028989952E+03  0.66028989953E+03  0.25500000920E-02 0.  1.
        2   -1    0    0  501    0  0.00000000000E+00  0.00000000000E+00 -0.23770218231E+04  0.23770218231E+04  0.25500000920E-02 0. -1.
    10030    2    1    2    0    0  0.00000000000E+00  0.00000000000E+00 -0.17167319236E+04  0.30373117226E+04  0.25056125006E+04 0.  0.
        2    1    3    3  502    0  0.67381002890E+03 -0.10433532077E+04 -0.10572472233E+04  0.16310663881E+04  0.25500000920E-02 0.  1.
       -2    1    3    3    0  502 -0.67381002890E+03  0.10433532077E+04 -0.65948470028E+03  0.14062453346E+04  0.25500000920E-02 0. -1.
</event>
<event>
 5   0  0.3713394E-06  0.2503875E+04  0.7818609E-02  0.8401606E-01
        2   -1    0    0  501    0  0.00000000000E+00  0.00000000000E+00  0.12124840530E+04  0.12124840530E+04  0.25500000920E-02 0. -1.
       -2   -1    0    0    0  501  0.00000000000E+00  0.00000000000E+00 -0.12926748884E+04  0.12926748884E+04  0.25500000920E-02 0.  1.
    10030    2    1    2    0    0  0.00000000000E+00  0.00000000000E+00 -0.80190835353E+02  0.25051589414E+04  0.25038751470E+04 0.  0.
        3    1    3    3  502    0 -0.71107058770E+03  0.68515807211E+03  0.72989953357E+03  0.12279317179E+04  0.10100000352E+00 0. -1.
       -3    1    3    3    0  502  0.71107058770E+03 -0.68515807211E+03 -0.81009036892E+03  0.12772272235E+04  0.10100000352E+00 0.  1.
</event>
<event>
 5   0  0.1501747E-06  0.2500583E+04  0.7818609E-02  0.8402778E-01
       -1   -1    0    0    0  501  0.00000000000E+00  0.00000000000E+00  0.12693496726E+04  0.12693496726E+04  0.50400001928E-02 0. -1.
        1   -1    0    0  501    0  0.00000000000E+00  0.00000000000E+00 -0.12315197707E+04  0.12315197707E+04  0.50400001928E-02 0.  1.
    10030    2    1    2    0    0  0.00000000000E+00  0.00000000000E+00  0.37829901893E+02  0.25008694434E+04  0.25005833062E+04 0.  0.
        2    1    3    3  502    0 -0.86127171345E+03  0.90305868586E+03 -0.58069589064E+02  0.12492701996E+04  0.25500000920E-02 0.  1.
       -2    1    3    3    0  502  0.86127171345E+03 -0.90305868586E+03  0.95899490958E+02  0.12515992437E+04  0.25500000920E-02 0. -1.
</event>
<event>
 5   0  0.3808293E-06  0.2495083E+04  0.7818609E-02  0.8404739E-01
       -2   -1    0    0    0  501  0.00000000000E+00  0.00000000000E+00  0.13598034585E+04  0.13598034585E+04  0.25500000920E-02 0.  1.
        2   -1    0    0  501    0  0.00000000000E+00  0.00000000000E+00 -0.11445478644E+04  0.11445478644E+04  0.25500000920E-02 0. -1.
    10030    2    1    2    0    0  0.00000000000E+00  0.00000000000E+00  0.21525559404E+03  0.25043513229E+04  0.24950832807E+04 0.  0.
        1    1    3    3  502    0  0.10507064660E+03  0.35341850437E+03 -0.10886111397E+04  0.11493557733E+04  0.50400001928E-02 0. -1.
       -1    1    3    3    0  502 -0.10507064660E+03 -0.35341850437E+03  0.13038667338E+04  0.13549955496E+04  0.50400001928E-02 0.  1.
</event>
<event>
 5   0  0.1553604E-06  0.2508029E+04  0.7818609E-02  0.8400131E-01
        1   -1    0    0  501    0  0.00000000000E+00  0.00000000000E+00  0.19689172247E+04  0.19689172247E+04  0.50400001928E-02 0. -1.
       -1   -1    0    0    0  501  0.00000000000E+00  0.00000000000E+00 -0.79868908767E+03  0.79868908768E+03  0.50400001928E-02 0.  1.
    10030    2    1    2    0    0  0.00000000000E+00  0.00000000000E+00  0.11702281370E+04  0.27676063123E+04  0.25080292677E+04 0.  0.
        1    1    3    3  502    0  0.10642533177E+04 -0.50063974659E+03  0.10502577308E+03  0.11808072210E+04  0.50400001928E-02 0.  1.
       -1    1    3    3    0  502 -0.10642533177E+04  0.50063974659E+03  0.10652023639E+04  0.15867990913E+04  0.50400001928E-02 0. -1.
</event>
<event>
 5   0  0.3924441E-06  0.2500316E+04  0.7818609E-02  0.8402873E-01
        2   -1    0    0  501    0  0.00000000000E+00  0.00000000000E+00  0.25091137323E+04  0.25091137323E+04  0.25500000920E-02 0.  1.
       -2   -1    0    0    0  501  0.00000000000E+00  0.00000000000E+00 -0.62288712727E+03  0.62288712728E+03  0.25500000920E-02 0. -1.
    10030    2    1    2    0    0  0.00000000000E+00  0.00000000000E+00  0.18862266050E+04  0.31320008596E+04  0.25003156959E+04 0.  0.
        2    1    3    3  502    0  0.96358004429E+03  0.77201790888E+03  0.69765778683E+03  0.14181764844E+04  0.25500000920E-02 0. -1.
       -2    1    3    3    0  502 -0.96358004429E+03 -0.77201790888E+03  0.11885688182E+04  0.17138243752E+04  0.25500000920E-02 0.  1.
</event>
<event>
 5   0  0.1541852E-06  0.2498748E+04  0.7818609E-02  0.8403432E-01
        1   -1    0    0  501    0  0.00000000000E+00  0.00000000000E+00  0.10805508906E+04  0.10805508906E+04  0.50400001928E-02 0. -1.
       -1   -1    0    0    0  501  0.00000000000E+00  0.00000000000E+00 -0.14445742080E+04  0.14445742080E+04  0.50400001928E-02 0.  1.
    10030    2    1    2    0    0  0.00000000000E+00  0.00000000000E+00 -0.36402331739E+03  0.25251250986E+04  0.24987484443E+04 0.  0.
        5    1    3    3  502    0  0.10577687700E+03 -0.11862743411E+04  0.19943579438E+03  0.12075728906E+04  0.46999998093E+01 0. -1.
       -5    1    3    3    0  502 -0.10577687700E+03  0.11862743411E+04 -0.56345911177E+03  0.13175522080E+04  0.46999998093E+01 0.  1.
</event>
<event>
 5   0  0.3814260E-06  0.2499378E+04  0.7818609E-02  0.8403207E-01
        2   -1    0    0  501    0  0.00000000000E+00  0.00000000000E+00  0.12819281299E+04  0.12819281299E+04  0.25500000920E-02 0.  1.
       -2   -1    0    0    0  501  0.00000000000E+00  0.00000000000E+00 -0.12182607236E+04  0.12182607236E+04  0.25500000920E-02 0. -1.
    10030    2    1    2    0    0  0.00000000000E+00  0.00000000000E+00  0.63667406292E+02  0.25001888535E+04  0.24993780756E+04 0.  0.
        5    1    3    3  502    0 -0.11239674318E+03 -0.28244487402E+03 -0.11807032547E+04  0.12192171260E+04  0.46999998093E+01 0. -1.
       -5    1    3    3    0  502  0.11239674318E+03  0.28244487402E+03  0.12443706610E+04  0.12809717275E+04  0.46999998093E+01 0.  1.
</event>
<event>
 5   0  0.1519145E-06  0.2502065E+04  0.7818609E-02  0.8402250E-01
        1   -1    0    0  501    0  0.00000000000E+00  0.00000000000E+00  0.16210761198E+04  0.16210761198E+04  0.50400001928E-02 0. -1.
       -1   -1    0    0    0  501  0.00000000000E+00  0.00000000000E+00 -0.96545909637E+03  0.96545909638E+03  0.50400001928E-02 0.  1.
    10030    2    1    2    0    0  0.00000000000E+00  0.00000000000E+00  0.65561702342E+03  0.25865352162E+04  0.25020652955E+04 0.  0.
        4    1    3    3  502    0  0.87892919737E+03  0.88580575121E+03  0.23585202258E+03  0.12699591144E+04  0.12699999809E+01 0.  1.
       -4    1    3    3    0  502 -0.87892919737E+03 -0.88580575121E+03  0.41976500084E+03  0.13165761017E+04  0.12699999809E+01 0. -1.
</event>
<event>
 5   0  0.3971759E-06  0.2493614E+04  0.7818609E-02  0.8405264E-01
        2   -1    0    0  501    0  0.00000000000E+00  0.00000000000E+00  0.10677858565E+04  0.10677858565E+04  0.25500000920E-02 0. -1.
       -2   -1    0    0    0  501  0.00000000000E+00  0.00000000000E+00 -0.14558419215E+04  0.14558419215E+04  0.25500000920E-02 0.  1.
    10030    2    1    2    0    0  0.00000000000E+00  0.00000000000E+00 -0.38805606501E+03  0.25236277779E+04  0.24936137736E+04 0.  0.
        4    1    3    3  502    0  0.58290983324E+03  0.18544143354E+03  0.90548944939E+03  0.10927420349E+04  0.12699999809E+01 0. -1.
       -4    1    3    3    0  502 -0.58290983324E+03 -0.18544143354E+03 -0.12935455144E+04  0.14308857431E+04  0.12699999809E+01 0.  1.
</event>
<event>
 5   0  0.1553604E-06  0.2496123E+04  0.7818609E-02  0.8404368E-01
        1   -1    0    0  501    0  0.00000000000E+00  0.00000000000E+00  0.11181533606E+04  0.11181533606E+04  0.50400001928E-02 0.  1.
       -1   -1    0    0    0  501  0.00000000000E+00  0.00000000000E+00 -0.13930627061E+04  0.13930627061E+04  0.50400001928E-02 0. -1.
    10030    2    1    2    0    0  0.00000000000E+00  0.00000000000E+00 -0.27490934551E+03  0.25112160667E+04  0.24961231911E+04 0.  0.
        1    1    3    3  502    0  0.12307377958E+04 -0.19208343356E+03 -0.21568201278E+03  0.12641717834E+04  0.50400001928E-02 0.  1.
       -1    1    3    3    0  502 -0.12307377958E+04  0.19208343356E+03 -0.59227332736E+02  0.12470442832E+04  0.50400001928E-02 0. -1.
</event>
<event>
 5   0  0.3808293E-06  0.2504372E+04  0.7818609E-02  0.8401430E-01
       -2   -1    0    0    0  501  0.00000000000E+00  0.00000000000E+00  0.80828563346E+03  0.80828563346E+03  0.25500000920E-02 0. -1.
        2   -1    0    0  501    0  0.00000000000E+00  0.00000000000E+00 -0.19398713261E+04  0.19398713261E+04  0.25500000920E-02 0.  1.
    10030    2    1    2    0    0  0.00000000000E+00  0.00000000000E+00 -0.11315856926E+04  0.27481569596E+04  0.25043722756E+04 0.  0.
        1    1    3    3  502    0  0.54595989239E+03  0.41706633181E+03  0.58299208153E+03  0.90105288212E+03  0.50400001928E-02 0. -1.
       -1    1    3    3    0  502 -0.54595989239E+03 -0.41706633181E+03 -0.17145777742E+04  0.18471040775E+04  0.50400001928E-02 0.  1.
</event>
<event>
 5   0  0.1519145E-06  0.2514752E+04  0.7818609E-02  0.8397749E-01
       -1   -1    0    0    0  501  0.00000000000E+00  0.00000000000E+00  0.79911382444E+03  0.79911382446E+03  0.50400001928E-02 0. -1.
        1   -1    0    0  501    0  0.00000000000E+00  0.00000000000E+00 -0.19784346955E+04  0.19784346955E+04  0.50400001928E-02 0.  1.
    10030    2    1    2    0    0  0.00000000000E+00  0.00000000000E+00 -0.11793208711E+04  0.27775485200E+04  0.25147520880E+04 0.  0.
        4    1    3    3  502    0  0.91308080946E+02 -0.11826659516E+04 -0.12899310745E+03  0.11931792629E+04  0.12699999809E+01 0. -1.
       -4    1    3    3    0  502 -0.91308080946E+02  0.11826659516E+04 -0.10503277636E+04  0.15843692571E+04  0.12699999809E+01 0.  1.
</event>
<event>
 5   0  0.3713394E-06  0.2496014E+04  0.7818609E-02  0.8404407E-01
       -2   -1    0    0    0  501  0.00000000000E+00  0.00000000000E+00  0.69013910685E+03  0.69013910685E+03  0.25500000920E-02 0. -1.
        2   -1    0    0  501    0  0.00000000000E+00  0.00000000000E+00 -0.22568216260E+04  0.22568216260E+04  0.25500000920E-02 0.  1.
    10030    2    1    2    0    0  0.00000000000E+00  0.00000000000E+00 -0.15666825191E+04  0.29469607328E+04  0.24960135106E+04 0.  0.
        3    1    3    3  502    0  0.10124519200E+03  0.44147754212E+03 -0.21563548462E+04  0.22034108201E+04  0.10100000352E+00 0.  1.
       -3    1    3    3    0  502 -0.10124519200E+03 -0.44147754212E+03  0.58967232712E+03  0.74354991270E+03  0.10100000352E+00 0. -1.
</event>
<event>
 5   0  0.1574896E-06  0.2499271E+04  0.7818609E-02  0.8403245E-01
       -1   -1    0    0    0  501  0.00000000000E+00  0.00000000000E+00  0.62319398313E+03  0.62319398315E+03  0.50400001928E-02 0. -1.
        1   -1    0    0  501    0  0.00000000000E+00  0.00000000000E+00 -0.25057839445E+04  0.25057839446E+04  0.50400001928E-02 0.  1.
    10030    2    1    2    0    0  0.00000000000E+00  0.00000000000E+00 -0.18825899614E+04  0.31289779277E+04  0.24992714757E+04 0.  0.
        3    1    3    3  502    0 -0.44835761526E+02  0.10704349730E+04 -0.17465939080E+04  0.20490074589E+04  0.10100000352E+00 0. -1.
       -3    1    3    3    0  502  0.44835761526E+02 -0.10704349730E+04 -0.13599605343E+03  0.10799704689E+04  0.10100000352E+00 0.  1.
</event>
<event>
 5   0  0.3808293E-06  0.2499571E+04  0.7818609E-02  0.8403138E-01
       -2   -1    0    0    0  501  0.00000000000E+00  0.00000000000E+00  0.98927860521E+03  0.98927860521E+03  0.25500000920E-02 0.  1.
        2   -1    0    0  501    0  0.00000000000E+00  0.00000000000E+00 -0.15788921809E+04  0.15788921809E+04  0.25500000920E-02 0. -1.
    10030    2    1    2    0    0  0.00000000000E+00  0.00000000000E+00 -0.58961357564E+03  0.25681707861E+04  0.24995713668E+04 0.  0.
        1    1    3    3  502    0  0.41123551966E+03 -0.11052547914E+04 -0.72000180455E+03  0.13817038051E+04  0.50400001928E-02 0. -1.
       -1    1    3    3    0  502 -0.41123551966E+03  0.11052547914E+04  0.13038822890E+03  0.11864669809E+04  0.50400001928E-02 0.  1.
</event>
<event>
 5   0  0.1519145E-06  0.2521264E+04  0.7818609E-02  0.8395449E-01
        1   -1    0    0  501    0  0.00000000000E+00  0.00000000000E+00  0.15857215059E+04  0.15857215059E+04  0.50400001928E-02 0. -1.
       -1   -1    0    0    0  501  0.00000000000E+00  0.00000000000E+00 -0.10021894831E+04  0.10021894831E+04  0.50400001928E-02 0.  1.
    10030    2    1    2    0    0  0.00000000000E+00  0.00000000000E+00  0.58353202281E+03  0.25879109890E+04  0.25212642990E+04 0.  0.
        4    1    3    3  502    0 -0.62607100503E+03  0.75964577230E+03 -0.51655646855E+03  0.11116918642E+04  0.12699999809E+01 0.  1.
       -4    1    3    3    0  502  0.62607100503E+03 -0.75964577230E+03  0.11000884914E+04  0.14762191248E+04  0.12699999809E+01 0. -1.
</event>
<event>
 5   0  0.3713394E-06  0.2510986E+04  0.7818609E-02  0.8399082E-01
       -2   -1    0    0    0  501  0.00000000000E+00  0.00000000000E+00  0.64302397296E+03  0.64302397296E+03  0.25500000920E-02 0. -1.
        2   -1    0    0  501    0  0.00000000000E+00  0.00000000000E+00 -0.24513277701E+04  0.24513277701E+04  0.25500000920E-02 0.  1.
    10030    2    1    2    0    0  0.00000000000E+00  0.00000000000E+00 -0.18083037971E+04  0.30943517430E+04  0.25109858795E+04 0.  0.
        3    1    3    3  502    0  0.27669218167E+03 -0.15237952399E+03  0.59325505205E+03  0.67210836159E+03  0.10100000352E+00 0. -1.
       -3    1    3    3    0  502 -0.27669218167E+03  0.15237952399E+03 -0.24015588491E+04  0.24222433814E+04  0.10100000352E+00 0.  1.
</event>
<event>
 5   0  0.1519145E-06  0.2469520E+04  0.7818609E-02  0.8413925E-01
       -1   -1    0    0    0  501  0.00000000000E+00  0.00000000000E+00  0.15818867690E+04  0.15818867690E+04  0.50400001928E-02 0.  1.
        1   -1    0    0  501    0  0.00000000000E+00  0.00000000000E+00 -0.96380591435E+03  0.96380591436E+03  0.50400001928E-02 0. -1.
    10030    2    1    2    0    0  0.00000000000E+00  0.00000000000E+00  0.61808085467E+03  0.25456926834E+04  0.24695196487E+04 0.  0.
        4    1    3    3  502    0  0.83460134104E+03 -0.75037595495E+03  0.83970726317E+03  0.14016894709E+04  0.12699999809E+01 0.  1.
       -4    1    3    3    0  502 -0.83460134104E+03  0.75037595495E+03 -0.22162640850E+03  0.11440032124E+04  0.12699999809E+01 0. -1.
</event>
<event>
 5   0  0.1287375E-06  0.2489389E+04  0.7818609E-02  0.8406776E-01
       -3   -1    0    0    0  501  0.00000000000E+00  0.00000000000E+00  0.21880970406E+04  0.21880970430E+04  0.10100000352E+00 0. -1.
        3   -1    0    0  501    0  0.00000000000E+00  0.00000000000E+00 -0.70804173220E+03  0.70804173941E+03  0.10100000352E+00 0.  1.
    10030    2    1    2    0    0  0.00000000000E+00  0.00000000000E+00  0.14800553084E+04  0.28961387824E+04  0.24893887062E+04 0.  0.
        4    1    3    3  502    0  0.61341124040E+03 -0.52285699392E+03 -0.36342499888E+03  0.88415616757E+03  0.12699999809E+01 0.  1.
       -4    1    3    3    0  502 -0.61341124040E+03  0.52285699392E+03  0.18434803073E+04  0.20119826148E+04  0.12699999809E+01 0. -1.
</event>
<event>
 5   0  0.1519145E-06  0.2497159E+04  0.7818609E-02  0.8403998E-01
        1   -1    0    0  501    0  0.00000000000E+00  0.00000000000E+00  0.18291661588E+04  0.18291661588E+04  0.50400001928E-02 0. -1.
       -1   -1    0    0    0  501  0.00000000000E+00  0.00000000000E+00 -0.85227389412E+03  0.85227389413E+03  0.50400001928E-02 0.  1.
    10030    2    1    2    0    0  0.00000000000E+00  0.00000000000E+00  0.97689226468E+03  0.26814400529E+04  0.24971588377E+04 0.  0.
        4    1    3    3  502    0 -0.20754924989E+03  0.98166271155E+03  0.12863935746E+04  0.16314252701E+04  0.12699999809E+01 0. -1.
       -4    1    3    3    0  502  0.20754924989E+03 -0.98166271155E+03 -0.30950130992E+03  0.10500147828E+04  0.12699999809E+01 0.  1.
</event>
<event>
 5   0  0.1541852E-06  0.2502708E+04  0.7818609E-02  0.8402021E-01
       -1   -1    0    0    0  501  0.00000000000E+00  0.00000000000E+00  0.14386683962E+04  0.14386683962E+04  0.50400001928E-02 0.  1.
        1   -1    0    0  501    0  0.00000000000E+00  0.00000000000E+00 -0.10884282160E+04  0.10884282160E+04  0.50400001928E-02 0. -1.
    10030    2    1    2    0    0  0.00000000000E+00  0.00000000000E+00  0.35024018026E+03  0.25270966122E+04  0.25027083537E+04 0.  0.
        5    1    3    3  502    0 -0.12138148430E+03  0.74819353482E+03  0.11804821996E+04  0.14028853638E+04  0.46999998093E+01 0.  1.
       -5    1    3    3    0  502  0.12138148430E+03 -0.74819353482E+03 -0.83024201937E+03  0.11242112484E+04  0.46999998093E+01 0. -1.
</event>
<event>
 5   0  0.3924441E-06  0.2501600E+04  0.7818609E-02  0.8402416E-01
       -2   -1    0    0    0  501  0.00000000000E+00  0.00000000000E+00  0.82698313513E+03  0.82698313514E+03  0.25500000920E-02 0. -1.
        2   -1    0    0  501    0  0.00000000000E+00  0.00000000000E+00 -0.18918166694E+04  0.18918166694E+04  0.25500000920E-02 0.  1.
    10030    2    1    2    0    0  0.00000000000E+00  0.00000000000E+00 -0.10648335342E+04  0.27187998045E+04  0.25015998723E+04 0.  0.
        2    1    3    3  502    0  0.11408523064E+04  0.50875217247E+03 -0.46259117657E+03  0.13320523093E+04  0.25500000920E-02 0. -1.
       -2    1    3    3    0  502 -0.11408523064E+04 -0.50875217247E+03 -0.60224235766E+03  0.13867474952E+04  0.25500000920E-02 0.  1.
</event>
<event>
 5   0  0.3971759E-06  0.2503631E+04  0.7818609E-02  0.8401693E-01
       -2   -1    0    0    0  501  0.00000000000E+00  0.00000000000E+00  0.82735719528E+03  0.82735719528E+03  0.25500000920E-02 0.  1.
        2   -1    0    0  501    0  0.00000000000E+00  0.00000000000E+00 -0.18940337414E+04  0.18940337414E+04  0.25500000920E-02 0. -1.
    10030    2    1    2    0    0  0.00000000000E+00  0.00000000000E+00 -0.10666765461E+04  0.27213909367E+04  0.25036313179E+04 0.  0.
        4    1    3    3  502    0  0.15116633063E+03  0.12328375359E+03  0.81073510379E+03  0.83387239121E+03  0.12699999809E+01 0.  1.
       -4    1    3    3    0  502 -0.15116633063E+03 -0.12328375359E+03 -0.18774116499E+04  0.18875185454E+04  0.12699999809E+01 0. -1.
</event>
<event>
 5   0  0.3814260E-06  0.2521831E+04  0.7818609E-02  0.8395249E-01
        2   -1    0    0  501    0  0.00000000000E+00  0.00000000000E+00  0.71858003148E+03  0.71858003148E+03  0.25500000920E-02 0.  1.
       -2   -1    0    0    0  501  0.00000000000E+00  0.00000000000E+00 -0.22125687566E+04  0.22125687566E+04  0.25500000920E-02 0. -1.
    10030    2    1    2    0    0  0.00000000000E+00  0.00000000000E+00 -0.14939887252E+04  0.29311487881E+04  0.25218308641E+04 0.  0.
        5    1    3    3  502    0 -0.20535295996E+03  0.72033881391E+03 -0.19259385682E+04  0.20664750914E+04  0.46999998093E+01 0. -1.
       -5    1    3    3    0  502  0.20535295996E+03 -0.72033881391E+03  0.43194984299E+03  0.86467369675E+03  0.46999998093E+01 0.  1.
</event>
<event>
 5   0  0.1287375E-06  0.2499330E+04  0.7818609E-02  0.8403224E-01
        4   -1    0    0  501    0  0.00000000000E+00  0.00000000000E+00  0.14945067863E+04  0.14945073259E+04  0.12699999809E+01 0.  1.
       -4   -1    0    0    0  501  0.00000000000E+00  0.00000000000E+00 -0.10449338214E+04  0.10449345932E+04  0.12699999809E+01 0. -1.
    10030    2    1    2    0    0  0.00000000000E+00  0.00000000000E+00  0.44957296485E+03  0.25394419191E+04  0.24993297921E+04 0.  0.
        3    1    3    3  502    0 -0.88610205330E+03 -0.87765871449E+03  0.14477834217E+03  0.12555566282E+04  0.10100000352E+00 0.  1.
       -3    1    3    3    0  502  0.88610205330E+03  0.87765871449E+03  0.30479462268E+03  0.12838852909E+04  0.10100000352E+00 0. -1.
</event>
<event>
 5   0  0.1519145E-06  0.2495885E+04  0.7818609E-02  0.8404453E-01
       -1   -1    0    0    0  501  0.00000000000E+00  0.00000000000E+00  0.85851279812E+03  0.85851279813E+03  0.50400001928E-02 0. -1.
        1   -1    0    0  501    0  0.00000000000E+00  0.00000000000E+00 -0.18140218153E+04  0.18140218153E+04  0.50400001928E-02 0.  1.
    10030    2    1    2    0    0  0.00000000000E+00  0.00000000000E+00 -0.95550901718E+03  0.26725346134E+04  0.24958853696E+04 0.  0.
        4    1    3    3  502    0  0.75255275976E+03 -0.42230511973E+02  0.58724545935E+03  0.95549877802E+03  0.12699999809E+01 0. -1.
       -4    1    3    3    0  502 -0.75255275976E+03  0.42230511973E+02 -0.15427544765E+04  0.17170358354E+04  0.12699999809E+01 0.  1.
</event>
<event>
 5   0  0.1553604E-06  0.2496265E+04  0.7818609E-02  0.8404317E-01
       -1   -1    0    0    0  501  0.00000000000E+00  0.00000000000E+00  0.17475773690E+04  0.17475773690E+04  0.50400001928E-02 0. -1.
        1   -1    0    0  501    0  0.00000000000E+00  0.00000000000E+00 -0.89142550154E+03  0.89142550156E+03  0.50400001928E-02 0.  1.
    10030    2    1    2    0    0  0.00000000000E+00  0.00000000000E+00  0.85615186748E+03  0.26390028706E+04  0.24962652365E+04 0.  0.
        1    1    3    3  502    0 -0.39347905682E+03  0.95427604874E+03 -0.31373524994E+03  0.10788412082E+04  0.50400001928E-02 0.  1.
       -1    1    3    3    0  502  0.39347905682E+03 -0.95427604874E+03  0.11698871174E+04  0.15601616624E+04  0.50400001928E-02 0. -1.
</event>
<event>
 5   0  0.3713394E-06  0.2496604E+04  0.7818609E-02  0.8404196E-01
        2   -1    0    0  501    0  0.00000000000E+00  0.00000000000E+00  0.24212297104E+04  0.24212297104E+04  0.25500000920E-02 0.  1.
       -2   -1    0    0    0  501  0.00000000000E+00  0.00000000000E+00 -0.64358142840E+03  0.64358142840E+03  0.25500000920E-02 0. -1.
    10030    2    1    2    0    0  0.00000000000E+00  0.00000000000E+00  0.17776482820E+04  0.30648111388E+04  0.24966044745E+04 0.  0.
        3    1    3    3  502    0 -0.47542531558E+03  0.80041089014E+03  0.19096991232E+04  0.21245323192E+04  0.10100000352E+00 0.  1.
       -3    1    3    3    0  502  0.47542531558E+03 -0.80041089014E+03 -0.13205084124E+03  0.94027881962E+03  0.10100000352E+00 0. -1.
</event>
<event>
 5   0  0.3808293E-06  0.2500542E+04  0.7818609E-02  0.8402792E-01
        2   -1    0    0  501    0  0.00000000000E+00  0.00000000000E+00  0.18087716518E+04  0.18087716518E+04  0.25500000920E-02 0.  1.
       -2   -1    0    0    0  501  0.00000000000E+00  0.00000000000E+00 -0.86422067366E+03  0.86422067367E+03  0.25500000920E-02 0. -1.
    10030    2    1    2    0    0  0.00000000000E+00  0.00000000000E+00  0.94455097817E+03  0.26729923255E+04  0.25005422256E+04 0.  0.
        1    1    3    3  502    0 -0.50661940787E+03  0.41226896495E+03 -0.66733801844E+03  0.93379277935E+03  0.50400001928E-02 0. -1.
       -1    1    3    3    0  502  0.50661940787E+03 -0.41226896495E+03  0.16118889966E+04  0.17391995462E+04  0.50400001928E-02 0.  1.
</event>
<event>
 5   0  0.3814260E-06  0.2499335E+04  0.7818609E-02  0.8403223E-01
       -2   -1    0    0    0  501  0.00000000000E+00  0.00000000000E+00  0.79827850605E+03  0.79827850605E+03  0.25500000920E-02 0. -1.
        2   -1    0    0  501    0  0.00000000000E+00  0.00000000000E+00 -0.19562953217E+04  0.19562953217E+04  0.25500000920E-02 0.  1.
    10030    2    1    2    0    0  0.00000000000E+00  0.00000000000E+00 -0.11580168156E+04  0.27545738277E+04  0.24993347169E+04 0.  0.
        5    1    3    3  502    0  0.27770969523E+03 -0.10707032293E+04  0.61853350497E+02  0.11078700316E+04  0.46999998093E+01 0. -1.
       -5    1    3    3    0  502 -0.27770969523E+03  0.10707032293E+04 -0.12198701661E+04  0.16467037961E+04  0.46999998093E+01 0.  1.
</event>
<event>
 5   0  0.1574896E-06  0.2495367E+04  0.7818609E-02  0.8404638E-01
       -1   -1    0    0    0  501  0.00000000000E+00  0.00000000000E+00  0.97904263079E+03  0.97904263080E+03  0.50400001928E-02 0. -1.
        1   -1    0    0  501    0  0.00000000000E+00  0.00000000000E+00 -0.15900368521E+04  0.15900368521E+04  0.50400001928E-02 0.  1.
    10030    2    1    2    0    0  0.00000000000E+00  0.00000000000E+00 -0.61099422127E+03  0.25690794829E+04  0.24953667969E+04 0.  0.
        3    1    3    3  502    0 -0.23974402103E+03  0.10270486395E+04  0.38083443422E+03  0.11213121688E+04  0.10100000352E+00 0.  1.
       -3    1    3    3    0  502  0.23974402103E+03 -0.10270486395E+04 -0.99182865548E+03  0.14477673140E+04  0.10100000352E+00 0. -1.
</event>
<event>
 5   0  0.3924441E-06  0.2501991E+04  0.7818609E-02  0.8402277E-01
        2   -1    0    0  501    0  0.00000000000E+00  0.00000000000E+00  0.18168540960E+04  0.18168540960E+04  0.25500000920E-02 0.  1.
       -2   -1    0    0    0  501  0.00000000000E+00  0.00000000000E+00 -0.86137351511E+03  0.86137351511E+03  0.25500000920E-02 0. -1.
    10030    2    1    2    0    0  0.00000000000E+00  0.00000000000E+00  0.95548058094E+03  0.26782276112E+04  0.25019912063E+04 0.  0.
        2    1    3    3  502    0 -0.88750220890E+03  0.88008523783E+03  0.42130267248E+03  0.13189792032E+04  0.25500000920E-02 0.  1.
       -2    1    3    3    0  502  0.88750220890E+03 -0.88008523783E+03  0.53417790846E+03  0.13592484080E+04  0.25500000920E-02 0. -1.
</event>
<event>
 5   0  0.1553604E-06  0.2505658E+04  0.7818609E-02  0.8400972E-01
       -1   -1    0    0    0  501  0.00000000000E+00  0.00000000000E+00  0.88675136992E+03  0.88675136994E+03  0.50400001928E-02 0. -1.
        1   -1    0    0  501    0  0.00000000000E+00  0.00000000000E+00 -0.17700350528E+04  0.17700350528E+04  0.50400001928E-02 0.  1.
    10030    2    1    2    0    0  0.00000000000E+00  0.00000000000E+00 -0.88328368290E+03  0.26567864228E+04  0.25056584028E+04 0.  0.
        1    1    3    3  502    0  0.17671939444E+03  0.10412178050E+04 -0.11562473356E+04  0.15659732318E+04  0.50400001928E-02 0.  1.
       -1    1    3    3    0  502 -0.17671939444E+03 -0.10412178050E+04  0.27296365267E+03  0.10908131909E+04  0.50400001928E-02 0. -1.
</event>
<event>
 5   0  0.3713394E-06  0.2502555E+04  0.7818609E-02  0.8402076E-01
       -2   -1    0    0    0  501  0.00000000000E+00  0.00000000000E+00  0.10089600140E+04  0.10089600140E+04  0.25500000920E-02 0.  1.
        2   -1    0    0  501    0  0.00000000000E+00  0.00000000000E+00 -0.15517916171E+04  0.15517916171E+04  0.25500000920E-02 0. -1.
    10030    2    1    2    0    0  0.00000000000E+00  0.00000000000E+00 -0.54283160303E+03  0.25607516311E+04  0.25025552475E+04 0.  0.
        3    1    3    3  502    0  0.46946689264E+03  0.10639123268E+04  0.20126486967E+03  0.11801763259E+04  0.10100000352E+00 0. -1.
       -3    1    3    3    0  502 -0.46946689264E+03 -0.10639123268E+04 -0.74409647270E+03  0.13805753052E+04  0.10100000352E+00 0.  1.
</event>
<event>
 5   0  0.3924441E-06  0.2494701E+04  0.7818609E-02  0.8404876E-01
        2   -1    0    0  501    0  0.00000000000E+00  0.00000000000E+00  0.10069166776E+04  0.10069166776E+04  0.25500000920E-02 0. -1.
       -2   -1    0    0    0  501  0.00000000000E+00  0.00000000000E+00 -0.15451953966E+04  0.15451953966E+04  0.25500000920E-02 0.  1.
    10030    2    1    2    0    0  0.00000000000E+00  0.00000000000E+00 -0.53827871893E+03  0.25521120742E+04  0.24947007957E+04 0.  0.
        2    1    3    3  502    0  0.16979044880E+03 -0.97252045989E+03 -0.10490876546E+04  0.14405588320E+04  0.25500000920E-02 0.  1.
       -2    1    3    3    0  502 -0.16979044880E+03  0.97252045989E+03  0.51080893569E+03  0.11115532422E+04  0.25500000920E-02 0. -1.
</event>
<event>
 5   0  0.1553604E-06  0.2498008E+04  0.7818609E-02  0.8403696E-01
       -1   -1    0    0    0  501  0.00000000000E+00  0.00000000000E+00  0.14862718348E+04  0.14862718348E+04  0.50400001928E-02 0.  1.
        1   -1    0    0  501    0  0.00000000000E+00  0.00000000000E+00 -0.10496133544E+04  0.10496133544E+04  0.50400001928E-02 0. -1.
    10030    2    1    2    0    0  0.00000000000E+00  0.00000000000E+00  0.43665848035E+03  0.25358851892E+04  0.24980078192E+04 0.  0.
        1    1    3    3  502    0 -0.89664428772E+03  0.86881345928E+03  0.18311961046E+03  0.12618797873E+04  0.50400001928E-02 0. -1.
       -1    1    3    3    0  502  0.89664428772E+03 -0.86881345928E+03  0.25353886989E+03  0.12740054020E+04  0.50400001928E-02 0.  1.
</event>
<event>
 5   0  0.3814260E-06  0.2489363E+04  0.7818609E-02  0.8406785E-01
        2   -1    0    0  501    0  0.00000000000E+00  0.00000000000E+00  0.17222646729E+04  0.17222646729E+04  0.25500000920E-02 0.  1.
       -2   -1    0    0    0  501  0.00000000000E+00  0.00000000000E+00 -0.89953217607E+03  0.89953217607E+03  0.25500000920E-02 0. -1.
    10030    2    1    2    0    0  0.00000000000E+00  0.00000000000E+00  0.82273249686E+03  0.26217968490E+04  0.24893633636E+04 0.  0.
        5    1    3    3  502    0  0.41960342574E+03 -0.10886242766E+04 -0.45339521327E+02  0.11675819511E+04  0.46999998093E+01 0. -1.
       -5    1    3    3    0  502 -0.41960342574E+03  0.10886242766E+04  0.86807201819E+03  0.14542148979E+04  0.46999998093E+01 0.  1.
</event>
<event>
 5   0  0.3924441E-06  0.2499371E+04  0.7818609E-02  0.8403210E-01
        2   -1    0    0  501    0  0.00000000000E+00  0.00000000000E+00  0.15699734423E+04  0.15699734423E+04  0.25500000920E-02 0.  1.
       -2   -1    0    0    0  501  0.00000000000E+00  0.00000000000E+00 -0.99473876285E+03  0.99473876285E+03  0.25500000920E-02 0. -1.
    10030    2    1    2    0    0  0.00000000000E+00  0.00000000000E+00  0.57523467949E+03  0.25647122052E+04  0.24993706726E+04 0.  0.
        2    1    3    3  502    0 -0.65210529329E+03 -0.64235107626E+02 -0.80431955364E+03  0.10374475442E+04  0.25500000920E-02 0. -1.
       -2    1    3    3    0  502  0.65210529329E+03  0.64235107626E+02  0.13795542331E+04  0.15272646610E+04  0.25500000920E-02 0.  1.
</event>
<event>
 5   0  0.1287375E-06  0.2497795E+04  0.7818609E-02  0.8403771E-01
        4   -1    0    0  501    0  0.00000000000E+00  0.00000000000E+00  0.79586880324E+03  0.79586981653E+03  0.12699999809E+01 0. -1.
       -4   -1    0    0    0  501  0.00000000000E+00  0.00000000000E+00 -0.19597995365E+04  0.19597999480E+04  0.12699999809E+01 0.  1.
    10030    2    1    2    0    0  0.00000000000E+00  0.00000000000E+00 -0.11639307333E+04  0.27556697645E+04  0.24977952477E+04 0.  0.
        4    1    3    3  502    0  0.57381195757E+03 -0.10648548153E+04 -0.23912943832E+03  0.12330289703E+04  0.12699999809E+01 0. -1.
       -4    1    3    3    0  502 -0.57381195757E+03  0.10648548153E+04 -0.92480129495E+03  0.15226407943E+04  0.12699999809E+01 0.  1.
</event>
<event>
 5   0  0.1553604E-06  0.2498293E+04  0.7818609E-02  0.8403594E-01
        1   -1    0    0  501    0  0.00000000000E+00  0.00000000000E+00  0.12611410140E+04  0.12611410140E+04  0.50400001928E-02 0. -1.
       -1   -1    0    0    0  501  0.00000000000E+00  0.00000000000E+00 -0.12372661814E+04  0.12372661814E+04  0.50400001928E-02 0.  1.
    10030    2    1    2    0    0  0.00000000000E+00  0.00000000000E+00  0.23874832574E+02  0.24984071954E+04  0.24982931186E+04 0.  0.
        1    1    3    3  502    0  0.89666623752E+03  0.65517191090E+02  0.87919341409E+03  0.12574911146E+04  0.50400001928E-02 0. -1.
       -1    1    3    3    0  502 -0.89666623752E+03 -0.65517191090E+02 -0.85531858152E+03  0.12409160809E+04  0.50400001928E-02 0.  1.
</event>
<event>
 5   0  0.3971759E-06  0.2512950E+04  0.7818609E-02  0.8398386E-01
       -2   -1    0    0    0  501  0.00000000000E+00  0.00000000000E+00  0.87878179392E+03  0.87878179393E+03  0.25500000920E-02 0.  1.
        2   -1    0    0  501    0  0.00000000000E+00  0.00000000000E+00 -0.17964978848E+04  0.17964978848E+04  0.25500000920E-02 0. -1.
    10030    2    1    2    0    0  0.00000000000E+00  0.00000000000E+00 -0.91771609088E+03  0.26752796787E+04  0.25129501658E+04 0.  0.
        4    1    3    3  502    0  0.20070606664E+03 -0.78273138078E+03 -0.14831846042E+04  0.16890202848E+04  0.12699999809E+01 0. -1.
       -4    1    3    3    0  502 -0.20070606664E+03  0.78273138078E+03  0.56546851328E+03  0.98625939390E+03  0.12699999809E+01 0.  1.
</event>
<event>
 5   0  0.3713394E-06  0.2498303E+04  0.7818609E-02  0.8403590E-01
        2   -1    0    0  501    0  0.00000000000E+00  0.00000000000E+00  0.95498267255E+03  0.95498267256E+03  0.25500000920E-02 0. -1.
       -2   -1    0    0    0  501  0.00000000000E+00  0.00000000000E+00 -0.16339346904E+04  0.16339346904E+04  0.25500000920E-02 0.  1.
    10030    2    1    2    0    0  0.00000000000E+00  0.00000000000E+00 -0.67895201784E+03  0.25889173630E+04  0.24983028779E+04 0.  0.
        3    1    3    3  502    0 -0.83318802487E+03 -0.46745766389E+03 -0.11734389585E+04  0.15131681836E+04  0.10100000352E+00 0.  1.
       -3    1    3    3    0  502  0.83318802487E+03  0.46745766389E+03  0.49448694061E+03  0.10757491794E+04  0.10100000352E+00 0. -1.
</event>
<event>
 5   0  0.1287375E-06  0.2498094E+04  0.7818609E-02  0.8403665E-01
       -4   -1    0    0    0  501  0.00000000000E+00  0.00000000000E+00  0.14839440113E+04  0.14839445548E+04  0.12699999809E+01 0.  1.
        4   -1    0    0  501    0  0.00000000000E+00  0.00000000000E+00 -0.10513316093E+04  0.10513323764E+04  0.12699999809E+01 0. -1.
    10030    2    1    2    0    0  0.00000000000E+00  0.00000000000E+00  0.43261240203E+03  0.25352769311E+04  0.24980943992E+04 0.  0.
        1    1    3    3  502    0 -0.61239869183E+02 -0.37100548968E+03 -0.99252439078E+03  0.10613670719E+04  0.50400001928E-02 0. -1.
       -1    1    3    3    0  502  0.61239869183E+02  0.37100548968E+03  0.14251367928E+04  0.14739098592E+04  0.50400001928E-02 0.  1.
</event>
<event>
 5   0  0.3713394E-06  0.2498988E+04  0.7818609E-02  0.8403346E-01
        2   -1    0    0  501    0  0.00000000000E+00  0.00000000000E+00  0.14854309042E+04  0.14854309042E+04  0.25500000920E-02 0. -1.
       -2   -1    0    0    0  501  0.00000000000E+00  0.00000000000E+00 -0.10510319429E+04  0.10510319429E+04  0.25500000920E-02 0.  1.
    10030    2    1    2    0    0  0.00000000000E+00  0.00000000000E+00  0.43439896131E+03  0.25364628472E+04  0.24989880587E+04 0.  0.
        3    1    3    3  502    0 -0.54038190058E+03  0.24865037601E+03  0.13324928980E+04  0.14592384800E+04  0.10100000352E+00 0. -1.
       -3    1    3    3    0  502  0.54038190058E+03 -0.24865037601E+03 -0.89809393670E+03  0.10772243672E+04  0.10100000352E+00 0.  1.
</event>
<event>
 5   0  0.1574896E-06  0.2498135E+04  0.7818609E-02  0.8403650E-01
       -1   -1    0    0    0  501  0.00000000000E+00  0.00000000000E+00  0.93739271900E+03  0.93739271901E+03  0.50400001928E-02 0. -1.
        1   -1    0    0  501    0  0.00000000000E+00  0.00000000000E+00 -0.16643712180E+04  0.16643712180E+04  0.50400001928E-02 0.  1.
    10030    2    1    2    0    0  0.00000000000E+00  0.00000000000E+00 -0.72697849905E+03  0.26017639371E+04  0.24981348735E+04 0.  0.
        3    1    3    3  502    0  0.31041679474E+03 -0.12755112618E+03 -0.16165367386E+04  0.16510054251E+04  0.10100000352E+00 0.  1.
       -3    1    3    3    0  502 -0.31041679474E+03  0.12755112618E+03  0.88955823957E+03  0.95075851195E+03  0.10100000352E+00 0. -1.
</event>
<event>
 5   0  0.1574896E-06  0.2499275E+04  0.7818609E-02  0.8403244E-01
       -1   -1    0    0    0  501  0.00000000000E+00  0.00000000000E+00  0.82307567904E+03  0.82307567905E+03  0.50400001928E-02 0. -1.
        1   -1    0    0  501    0  0.00000000000E+00  0.00000000000E+00 -0.18972658896E+04  0.18972658896E+04  0.50400001928E-02 0.  1.
    10030    2    1    2    0    0  0.00000000000E+00  0.00000000000E+00 -0.10741902106E+04  0.27203415687E+04  0.24992746231E+04 0.  0.
        3    1    3    3  502    0 -0.59986279437E+03 -0.16825883456E+03 -0.17161694685E+04  0.18257557510E+04  0.10100000352E+00 0.  1.
       -3    1    3    3    0  502  0.59986279437E+03  0.16825883456E+03  0.64197925789E+03  0.89458581771E+03  0.10100000352E+00 0. -1.
</event>
<event>
 5   0  0.3971759E-06  0.2497432E+04  0.7818609E-02  0.8403901E-01
       -2   -1    0    0    0  501  0.00000000000E+00  0.00000000000E+00  0.71550686633E+03  0.71550686634E+03  0.25500000920E-02 0. -1.
        2   -1    0    0  501    0  0.00000000000E+00  0.00000000000E+00 -0.21792828897E+04  0.21792828897E+04  0.25500000920E-02 0.  1.
    10030    2    1    2    0    0  0.00000000000E+00  0.00000000000E+00 -0.14637760234E+04  0.28947897560E+04  0.24974321783E+04 0.  0.
        4    1    3    3  502    0 -0.10714058835E+04 -0.63619947672E+03 -0.82626744577E+03  0.14951186730E+04  0.12699999809E+01 0.  1.
       -4    1    3    3    0  502  0.10714058835E+04  0.63619947672E+03 -0.63750857758E+03  0.13996710831E+04  0.12699999809E+01 0. -1.
</event>
<event>
 5   0  0.1541852E-06  0.2502435E+04  0.7818609E-02  0.8402119E-01
       -1   -1    0    0    0  501  0.00000000000E+00  0.00000000000E+00  0.13988530045E+04  0.13988530045E+04  0.50400001928E-02 0.  1.
        1   -1    0    0  501    0  0.00000000000E+00  0.00000000000E+00 -0.11191635682E+04  0.11191635682E+04  0.50400001928E-02 0. -1.
    10030    2    1    2    0    0  0.00000000000E+00  0.00000000000E+00  0.27968943626E+03  0.25180165727E+04  0.25024350700E+04 0.  0.
        5    1    3    3  502    0  0.47226182814E+03 -0.31211836060E+03 -0.98293192667E+03  0.11342955381E+04  0.46999998093E+01 0. -1.
       -5    1    3    3    0  502 -0.47226182814E+03  0.31211836060E+03  0.12626213629E+04  0.13837210345E+04  0.46999998093E+01 0.  1.
</event>
<event>
 5   0  0.1574896E-06  0.2485012E+04  0.7818609E-02  0.8408345E-01
       -1   -1    0    0    0  501  0.00000000000E+00  0.00000000000E+00  0.10044462610E+04  0.10044462610E+04  0.50400001928E-02 0. -1.
        1   -1    0    0  501    0  0.00000000000E+00  0.00000000000E+00 -0.15369869461E+04  0.15369869461E+04  0.50400001928E-02 0.  1.
    10030    2    1    2    0    0  0.00000000000E+00  0.00000000000E+00 -0.53254068506E+03  0.25414332071E+04  0.24850117032E+04 0.  0.
        3    1    3    3  502    0 -0.12369444270E+03 -0.10625071610E+04  0.38022061911E+03  0.11352486563E+04  0.10100000352E+00 0. -1.
       -3    1    3    3    0  502  0.12369444270E+03  0.10625071610E+04 -0.91276130416E+03  0.14061845508E+04  0.10100000352E+00 0.  1.
</event>
<event>
 5   0  0.1287375E-06  0.2503925E+04  0.7818609E-02  0.8401589E-01
       -3   -1    0    0    0  501  0.00000000000E+00  0.00000000000E+00  0.17159625489E+04  0.17159625519E+04  0.10100000352E+00 0.  1.
        3   -1    0    0  501    0  0.00000000000E+00  0.00000000000E+00 -0.91342872125E+03  0.91342872683E+03  0.10100000352E+00 0. -1.
    10030    2    1    2    0    0  0.00000000000E+00  0.00000000000E+00  0.80253382763E+03  0.26293912787E+04  0.25039245100E+04 0.  0.
        3    1    3    3  502    0  0.89998419545E+03  0.84346876815E+03  0.62648599080E+03  0.13834362370E+04  0.10100000352E+00 0.  1.
       -3    1    3    3    0  502 -0.89998419545E+03 -0.84346876815E+03  0.17604783683E+03  0.12459550417E+04  0.10100000352E+00 0. -1.
</event>
<event>
 5   0  0.1574896E-06  0.2506612E+04  0.7818609E-02  0.8400634E-01
        1   -1    0    0  501    0  0.00000000000E+00  0.00000000000E+00  0.24635404839E+04  0.24635404839E+04  0.50400001928E-02 0. -1.
       -1   -1    0    0    0  501  0.00000000000E+00  0.00000000000E+00 -0.63760917195E+03  0.63760917197E+03  0.50400001928E-02 0.  1.
    10030    2    1    2    0    0  0.00000000000E+00  0.00000000000E+00  0.18259313120E+04  0.31011496559E+04  0.25066120626E+04 0.  0.
        3    1    3    3  502    0  0.10355125699E+04 -0.38795528854E+03  0.16427810122E+04  0.19802840838E+04  0.10100000352E+00 0. -1.
       -3    1    3    3    0  502 -0.10355125699E+04  0.38795528854E+03  0.18315029975E+03  0.11208655721E+04  0.10100000352E+00 0.  1.
</event>
<event>
 5   0  0.3713394E-06  0.2499271E+04  0.7818609E-02  0.8403245E-01
       -2   -1    0    0    0  501  0.00000000000E+00  0.00000000000E+00  0.17475014638E+04  0.17475014638E+04  0.25500000920E-02 0. -1.
        2   -1    0    0  501    0  0.00000000000E+00  0.00000000000E+00 -0.89361266800E+03  0.89361266800E+03  0.25500000920E-02 0.  1.
    10030    2    1    2    0    0  0.00000000000E+00  0.00000000000E+00  0.85388879581E+03  0.26411141318E+04  0.24992714502E+04 0.  0.
        3    1    3    3  502    0  0.41247239032E+03  0.22482670252E+03  0.16506399463E+04  0.17161855265E+04  0.10100000352E+00 0. -1.
       -3    1    3    3    0  502 -0.41247239032E+03 -0.22482670252E+03 -0.79675115047E+03  0.92492860531E+03  0.10100000352E+00 0.  1.
</event>
<event>
 5   0  0.1501747E-06  0.2498596E+04  0.7818609E-02  0.8403486E-01
       -1   -1    0    0    0  501  0.00000000000E+00  0.00000000000E+00  0.81973085521E+03  0.81973085522E+03  0.50400001928E-02 0. -1.
        1   -1    0    0  501    0  0.00000000000E+00  0.00000000000E+00 -0.19039736809E+04  0.19039736809E+04  0.50400001928E-02 0.  1.
    10030    2    1    2    0    0  0.00000000000E+00  0.00000000000E+00 -0.10842428257E+04  0.27237045361E+04  0.24985963850E+04 0.  0.
        2    1    3    3  502    0  0.33404925144E+03 -0.10791103607E+04  0.39500505056E+02  0.11303222385E+04  0.25500000920E-02 0. -1.
       -2    1    3    3    0  502 -0.33404925144E+03  0.10791103607E+04 -0.11237433307E+04  0.15933822976E+04  0.25500000920E-02 0.  1.
</event>
<event>
 5   0  0.1574896E-06  0.2498462E+04  0.7818609E-02  0.8403534E-01
        1   -1    0    0  501    0  0.00000000000E+00  0.00000000000E+00  0.88008234379E+03  0.88008234381E+03  0.50400001928E-02 0. -1.
       -1   -1    0    0    0  501  0.00000000000E+00  0.00000000000E+00 -0.17732178060E+04  0.17732178061E+04  0.50400001928E-02 0.  1.
    10030    2    1    2    0    0  0.00000000000E+00  0.00000000000E+00 -0.89313546225E+03  0.26533001499E+04  0.24984616730E+04 0.  0.
        3    1    3    3  502    0  0.12405230424E+04  0.44644483692E+02 -0.59557409904E+03  0.13768075633E+04  0.10100000352E+00 0.  1.
       -3    1    3    3    0  502 -0.12405230424E+04 -0.44644483692E+02 -0.29756136322E+03  0.12764925866E+04  0.10100000352E+00 0. -1.
</event>
<event>
 5   0  0.1501747E-06  0.2498129E+04  0.7818609E-02  0.8403652E-01
       -1   -1    0    0    0  501  0.00000000000E+00  0.00000000000E+00  0.76784662437E+03  0.76784662439E+03  0.50400001928E-02 0.  1.
        1   -1    0    0  501    0  0.00000000000E+00  0.00000000000E+00 -0.20318675129E+04  0.20318675129E+04  0.50400001928E-02 0. -1.
    10030    2    1    2    0    0  0.00000000000E+00  0.00000000000E+00 -0.12640208885E+04  0.27997141373E+04  0.24981293889E+04 0.  0.
        2    1    3    3  502    0 -0.11165995892E+04  0.54691876151E+03 -0.49823597882E+03  0.13394602887E+04  0.25500000920E-02 0. -1.
       -2    1    3    3    0  502  0.11165995892E+04 -0.54691876151E+03 -0.76578490965E+03  0.14602538486E+04  0.25500000920E-02 0.  1.
</event>
<event>
 5   0  0.1574896E-06  0.2496212E+04  0.7818609E-02  0.8404336E-01
       -1   -1    0    0    0  501  0.00000000000E+00  0.00000000000E+00  0.96967119143E+03  0.96967119144E+03  0.50400001928E-02 0. -1.
        1   -1    0    0  501    0  0.00000000000E+00  0.00000000000E+00 -0.16064920768E+04  0.16064920768E+04  0.50400001928E-02 0.  1.
    10030    2    1    2    0    0  0.00000000000E+00  0.00000000000E+00 -0.63682088541E+03  0.25761632683E+04  0.24962123998E+04 0.  0.
        3    1    3    3  502    0  0.27103677227E+03 -0.53753794036E+03 -0.14467541417E+04  0.15670052731E+04  0.10100000352E+00 0.  1.
       -3    1    3    3    0  502 -0.27103677227E+03  0.53753794036E+03  0.80993325632E+03  0.10091579951E+04  0.10100000352E+00 0. -1.
</event>
<event>
 5   0  0.3814260E-06  0.2501853E+04  0.7818609E-02  0.8402326E-01
        2   -1    0    0  501    0  0.00000000000E+00  0.00000000000E+00  0.14810044317E+04  0.14810044317E+04  0.25500000920E-02 0. -1.
       -2   -1    0    0    0  501  0.00000000000E+00  0.00000000000E+00 -0.10565916925E+04  0.10565916925E+04  0.25500000920E-02 0.  1.
    10030    2    1    2    0    0  0.00000000000E+00  0.00000000000E+00  0.42441273916E+03  0.25375961242E+04  0.25018528967E+04 0.  0.
        5    1    3    3  502    0 -0.11862245004E+04 -0.25160203585E+03 -0.99367481234E+02  0.12166873617E+04  0.46999998093E+01 0.  1.
       -5    1    3    3    0  502  0.11862245004E+04  0.25160203585E+03  0.52378022040E+03  0.13209087626E+04  0.46999998093E+01 0. -1.
</event>
<event>
 5   0  0.3808293E-06  0.2505318E+04  0.7818609E-02  0.8401093E-01
        2   -1    0    0  501    0  0.00000000000E+00  0.00000000000E+00  0.14898183746E+04  0.14898183746E+04  0.25500000920E-02 0.  1.
       -2   -1    0    0    0  501  0.00000000000E+00  0.00000000000E+00 -0.10532526071E+04  0.10532526071E+04  0.25500000920E-02 0. -1.
    10030    2    1    2    0    0  0.00000000000E+00  0.00000000000E+00  0.43656576752E+03  0.25430709818E+04  0.25053184127E+04 0.  0.
        1    1    3    3  502    0  0.95664988462E+03  0.19806586476E+03 -0.57758944895E+03  0.11349090977E+04  0.50400001928E-02 0. -1.
       -1    1    3    3    0  502 -0.95664988462E+03 -0.19806586476E+03  0.10141552165E+04  0.14081618840E+04  0.50400001928E-02 0.  1.
</event>
<event>
 5   0  0.1553604E-06  0.2498860E+04  0.7818609E-02  0.8403392E-01
        1   -1    0    0  501    0  0.00000000000E+00  0.00000000000E+00  0.93538557195E+03  0.93538557197E+03  0.50400001928E-02 0. -1.
       -1   -1    0    0    0  501  0.00000000000E+00  0.00000000000E+00 -0.16689106777E+04  0.16689106777E+04  0.50400001928E-02 0.  1.
    10030    2    1    2    0    0  0.00000000000E+00  0.00000000000E+00 -0.73352510572E+03  0.26042962496E+04  0.24988597150E+04 0.  0.
        1    1    3    3  502    0 -0.88634643400E+03  0.53123783284E+03 -0.10987146231E+04  0.15083094706E+04  0.50400001928E-02 0.  1.
       -1    1    3    3    0  502  0.88634643400E+03 -0.53123783284E+03  0.36518951742E+03  0.10959867790E+04  0.50400001928E-02 0. -1.
</event>
<event>
 5   0  0.3924441E-06  0.2496280E+04  0.7818609E-02  0.8404312E-01
        2   -1    0    0  501    0  0.00000000000E+00  0.00000000000E+00  0.19183873044E+04  0.19183873044E+04  0.25500000920E-02 0. -1.
       -2   -1    0    0    0  501  0.00000000000E+00  0.00000000000E+00 -0.81206386250E+03  0.81206386250E+03  0.25500000920E-02 0.  1.
    10030    2    1    2    0    0  0.00000000000E+00  0.00000000000E+00  0.11063234419E+04  0.27304511669E+04  0.24962796352E+04 0.  0.
        2    1    3    3  502    0  0.32304700060E+03 -0.77692404780E+03 -0.45521001734E+03  0.95665380391E+03  0.25500000920E-02 0.  1.
       -2    1    3    3    0  502 -0.32304700060E+03  0.77692404780E+03  0.15615334593E+04  0.17737973630E+04  0.25500000920E-02 0. -1.
</event>
<event>
 5   0  0.3814260E-06  0.2501240E+04  0.7818609E-02  0.8402544E-01
       -2   -1    0    0    0  501  0.00000000000E+00  0.00000000000E+00  0.12907326474E+04  0.12907326474E+04  0.25500000920E-02 0.  1.
        2   -1    0    0  501    0  0.00000000000E+00  0.00000000000E+00 -0.12117537235E+04  0.12117537236E+04  0.25500000920E-02 0. -1.
    10030    2    1    2    0    0  0.00000000000E+00  0.00000000000E+00  0.78978923817E+02  0.25024863709E+04  0.25012397658E+04 0.  0.
        5    1    3    3  502    0 -0.23685237589E+03  0.76908880731E+03 -0.91829186861E+03  0.12210154329E+04  0.46999998093E+01 0. -1.
       -5    1    3    3    0  502  0.23685237589E+03 -0.76908880731E+03  0.99727079243E+03  0.12814709380E+04  0.46999998093E+01 0.  1.
</event>
<event>
 5   0  0.1501747E-06  0.2492831E+04  0.7818609E-02  0.8405544E-01
        1   -1    0    0  501    0  0.00000000000E+00  0.00000000000E+00  0.11035897595E+04  0.11035897595E+04  0.50400001928E-02 0.  1.
       -1   -1    0    0    0  501  0.00000000000E+00  0.00000000000E+00 -0.14077253692E+04  0.14077253692E+04  0.50400001928E-02 0. -1.
    10030    2    1    2    0    0  0.00000000000E+00  0.00000000000E+00 -0.30413560970E+03  0.25113151288E+04  0.24928307618E+04 0.  0.
        2    1    3    3  502    0 -0.10532359560E+03  0.79339560434E+03  0.81051797965E+03  0.11390825432E+04  0.25500000920E-02 0.  1.
       -2    1    3    3    0  502  0.10532359560E+03 -0.79339560434E+03 -0.11146535893E+04  0.13722325856E+04  0.25500000920E-02 0. -1.
</event>
<event>
 5   0  0.3924441E-06  0.2497690E+04  0.7818609E-02  0.8403809E-01
       -2   -1    0    0    0  501  0.00000000000E+00  0.00000000000E+00  0.74232608809E+03  0.74232608810E+03  0.25500000920E-02 0. -1.
        2   -1    0    0  501    0  0.00000000000E+00  0.00000000000E+00 -0.21009815460E+04  0.21009815460E+04  0.25500000920E-02 0.  1.
    10030    2    1    2    0    0  0.00000000000E+00  0.00000000000E+00 -0.13586554579E+04  0.28433076341E+04  0.24976896622E+04 0.  0.
        2    1    3    3  502    0  0.32409794275E+02  0.26035672235E+03  0.71059857569E+03  0.75748686683E+03  0.25500000920E-02 0. -1.
       -2    1    3    3    0  502 -0.32409794275E+02 -0.26035672235E+03 -0.20692540336E+04  0.20858207673E+04  0.25500000920E-02 0.  1.
</event>
<event>
 5   0  0.3713394E-06  0.2479612E+04  0.7818609E-02  0.8410285E-01
       -2   -1    0    0    0  501  0.00000000000E+00  0.00000000000E+00  0.99892078507E+03  0.99892078507E+03  0.25500000920E-02 0. -1.
        2   -1    0    0  501    0  0.00000000000E+00  0.00000000000E+00 -0.15387792678E+04  0.15387792678E+04  0.25500000920E-02 0.  1.
    10030    2    1    2    0    0  0.00000000000E+00  0.00000000000E+00 -0.53985848275E+03  0.25377000529E+04  0.24796117392E+04 0.  0.
        3    1    3    3  502    0  0.11080442685E+04  0.51660876387E+03 -0.48084415386E+03  0.13137190820E+04  0.10100000352E+00 0. -1.
       -3    1    3    3    0  502 -0.11080442685E+04 -0.51660876387E+03 -0.59014328888E+02  0.12239809709E+04  0.10100000352E+00 0.  1.
</event>
<event>
 5   0  0.1287375E-06  0.2492994E+04  0.7818609E-02  0.8405486E-01
       -3   -1    0    0    0  501  0.00000000000E+00  0.00000000000E+00  0.15890612882E+04  0.15890612914E+04  0.10100000352E+00 0.  1.
        3   -1    0    0  501    0  0.00000000000E+00  0.00000000000E+00 -0.97778113314E+03  0.97778113835E+03  0.10100000352E+00 0. -1.
    10030    2    1    2    0    0  0.00000000000E+00  0.00000000000E+00  0.61128015506E+03  0.25668424298E+04  0.24929935081E+04 0.  0.
        4    1    3    3  502    0  0.23840318879E+03  0.44018290172E+03 -0.86973419111E+03  0.10035119548E+04  0.12699999809E+01 0. -1.
       -4    1    3    3    0  502 -0.23840318879E+03 -0.44018290172E+03  0.14810143462E+04  0.15633304749E+04  0.12699999809E+01 0.  1.
</event>
<event>
 5   0  0.1541852E-06  0.2490380E+04  0.7818609E-02  0.8406421E-01
       -1   -1    0    0    0  501  0.00000000000E+00  0.00000000000E+00  0.63168161634E+03  0.63168161636E+03  0.50400001928E-02 0.  1.
        1   -1    0    0  501    0  0.00000000000E+00  0.00000000000E+00 -0.24545569148E+04  0.24545569148E+04  0.50400001928E-02 0. -1.
    10030    2    1    2    0    0  0.00000000000E+00  0.00000000000E+00 -0.18228752984E+04  0.30862385311E+04  0.24903802757E+04 0.  0.
        5    1    3    3  502    0 -0.87445889506E+03 -0.59801924188E+03 -0.17223472720E+04  0.20220800153E+04  0.46999998093E+01 0. -1.
       -5    1    3    3    0  502  0.87445889506E+03  0.59801924188E+03 -0.10052802643E+03  0.10641585159E+04  0.46999998093E+01 0.  1.
</event>
<event>
 5   0  0.3808293E-06  0.2504175E+04  0.7818609E-02  0.8401500E-01
       -2   -1    0    0    0  501  0.00000000000E+00  0.00000000000E+00  0.94311880228E+03  0.94311880228E+03  0.25500000920E-02 0.  1.
        2   -1    0    0  501    0  0.00000000000E+00  0.00000000000E+00 -0.16622756762E+04  0.16622756762E+04  0.25500000920E-02 0. -1.
    10030    2    1    2    0    0  0.00000000000E+00  0.00000000000E+00 -0.71915687393E+03  0.26053944785E+04  0.25041752693E+04 0.  0.
        1    1    3    3  502    0  0.54776046903E+03  0.10977190433E+04 -0.62008854532E+03  0.13746048282E+04  0.50400001928E-02 0. -1.
       -1    1    3    3    0  502 -0.54776046903E+03 -0.10977190433E+04 -0.99068328606E+02  0.12307896503E+04  0.50400001928E-02 0.  1.
</event>
<event>
 5   0  0.1519145E-06  0.2498576E+04  0.7818609E-02  0.8403493E-01
        1   -1    0    0  501    0  0.00000000000E+00  0.00000000000E+00  0.17389429695E+04  0.17389429695E+04  0.50400001928E-02 0. -1.
       -1   -1    0    0    0  501  0.00000000000E+00  0.00000000000E+00 -0.89751076733E+03  0.89751076734E+03  0.50400001928E-02 0.  1.
    10030    2    1    2    0    0  0.00000000000E+00  0.00000000000E+00  0.84143220221E+03  0.26364537369E+04  0.24985756254E+04 0.  0.
        4    1    3    3  502    0  0.32399629649E+02 -0.11173085650E+04  0.10094383142E+04  0.15061193474E+04  0.12699999809E+01 0. -1.
       -4    1    3    3    0  502 -0.32399629649E+02  0.11173085650E+04 -0.16800611199E+03  0.11303343895E+04  0.12699999809E+01 0.  1.
</event>
<event>
 5   0  0.1501747E-06  0.2501858E+04  0.7818609E-02  0.8402324E-01
        1   -1    0    0  501    0  0.00000000000E+00  0.00000000000E+00  0.87684201595E+03  0.87684201596E+03  0.50400001928E-02 0. -1.
       -1   -1    0    0    0  501  0.00000000000E+00  0.00000000000E+00 -0.17846125562E+04  0.17846125562E+04  0.50400001928E-02 0.  1.
    10030    2    1    2    0    0  0.00000000000E+00  0.00000000000E+00 -0.90777054024E+03  0.26614545722E+04  0.25018579268E+04 0.  0.
        2    1    3    3  502    0 -0.26473495212E+03  0.76064076782E+03 -0.14721087231E+04  0.16780235592E+04  0.25500000920E-02 0.  1.
       -2    1    3    3    0  502  0.26473495212E+03 -0.76064076782E+03  0.56433818289E+03  0.98343101294E+03  0.25500000920E-02 0. -1.
</event>
<event>
 5   0  0.3971759E-06  0.2497990E+04  0.7818609E-02  0.8403702E-01
       -2   -1    0    0    0  501  0.00000000000E+00  0.00000000000E+00  0.48100650767E+03  0.48100650767E+03  0.25500000920E-02 0. -1.
        2   -1    0    0  501    0  0.00000000000E+00  0.00000000000E+00 -0.32431764738E+04  0.32431764738E+04  0.25500000920E-02 0.  1.
    10030    2    1    2    0    0  0.00000000000E+00  0.00000000000E+00 -0.27621699661E+04  0.37241829815E+04  0.24979903838E+04 0.  0.
        4    1    3    3  502    0 -0.30155758559E+03 -0.79551730780E+03 -0.27443993420E+04  0.28732410490E+04  0.12699999809E+01 0.  1.
       -4    1    3    3    0  502  0.30155758559E+03  0.79551730780E+03 -0.17770624131E+02  0.85094193246E+03  0.12699999809E+01 0. -1.
</event>
<event>
 5   0  0.3924441E-06  0.2500847E+04  0.7818609E-02  0.8402684E-01
       -2   -1    0    0    0  501  0.00000000000E+00  0.00000000000E+00  0.96310668553E+03  0.96310668553E+03  0.25500000920E-02 0.  1.
        2   -1    0    0  501    0  0.00000000000E+00  0.00000000000E+00 -0.16234531791E+04  0.16234531791E+04  0.25500000920E-02 0. -1.
    10030    2    1    2    0    0  0.00000000000E+00  0.00000000000E+00 -0.66034649360E+03  0.25865598647E+04  0.25008467450E+04 0.  0.
        2    1    3    3  502    0  0.62153913067E+03 -0.10265500343E+04 -0.69355929069E+03  0.13860520747E+04  0.25500000920E-02 0. -1.
       -2    1    3    3    0  502 -0.62153913067E+03  0.10265500343E+04  0.33212797088E+02  0.12005077900E+04  0.25500000920E-02 0.  1.
</event>
<event>
 5   0  0.3814260E-06  0.2501046E+04  0.7818609E-02  0.8402613E-01
       -2   -1    0    0    0  501  0.00000000000E+00  0.00000000000E+00  0.11045046548E+04  0.11045046549E+04  0.25500000920E-02 0.  1.
        2   -1    0    0  501    0  0.00000000000E+00  0.00000000000E+00 -0.14158457544E+04  0.14158457544E+04  0.25500000920E-02 0. -1.
    10030    2    1    2    0    0  0.00000000000E+00  0.00000000000E+00 -0.31134109952E+03  0.25203504092E+04  0.25010463620E+04 0.  0.
        5    1    3    3  502    0  0.10794042720E+04 -0.53985065985E+03  0.17432271023E+03  0.12194108474E+04  0.46999998093E+01 0.  1.
       -5    1    3    3    0  502 -0.10794042720E+04  0.53985065985E+03 -0.48566380975E+03  0.13009395618E+04  0.46999998093E+01 0. -1.
</event>
<event>
 5   0  0.1501747E-06  0.2499221E+04  0.7818609E-02  0.8403263E-01
        1   -1    0    0  501    0  0.00000000000E+00  0.00000000000E+00  0.14020444846E+04  0.14020444846E+04  0.50400001928E-02 0. -1.
       -1   -1    0    0    0  501  0.00000000000E+00  0.00000000000E+00 -0.11137493314E+04  0.11137493314E+04  0.50400001928E-02 0.  1.
    10030    2    1    2    0    0  0.00000000000E+00  0.00000000000E+00  0.28829515322E+03  0.25157938160E+04  0.24992207644E+04 0.  0.
        2    1    3    3  502    0  0.51335598452E+03  0.95912218950E+02 -0.99863060334E+03  0.11269412596E+04  0.25500000920E-02 0.  1.
       -2    1    3    3    0  502 -0.51335598452E+03 -0.95912218950E+02  0.12869257566E+04  0.13888525564E+04  0.25500000920E-02 0. -1.
</event>
<event>
 5   0  0.3971759E-06  0.2502361E+04  0.7818609E-02  0.8402145E-01
        2   -1    0    0  501    0  0.00000000000E+00  0.00000000000E+00  0.17783138750E+04  0.17783138750E+04  0.25500000920E-02 0.  1.
       -2   -1    0    0    0  501  0.00000000000E+00  0.00000000000E+00 -0.88030158923E+03  0.88030158923E+03  0.25500000920E-02 0. -1.
    10030    2    1    2    0    0  0.00000000000E+00  0.00000000000E+00  0.89801228578E+03  0.26586154642E+04  0.25023609095E+04 0.  0.
        4    1    3    3  502    0  0.29897252661E+03  0.14060523710E+03  0.17311314846E+04  0.17623768706E+04  0.12699999809E+01 0.  1.
       -4    1    3    3    0  502 -0.29897252661E+03 -0.14060523710E+03 -0.83311919880E+03  0.89623859361E+03  0.12699999809E+01 0. -1.
</event>
<event>
 5   0  0.3713394E-06  0.2532607E+04  0.7818609E-02  0.8391460E-01
        2   -1    0    0  501    0  0.00000000000E+00  0.00000000000E+00  0.21527755512E+04  0.21527755512E+04  0.25500000920E-02 0. -1.
       -2   -1    0    0    0  501  0.00000000000E+00  0.00000000000E+00 -0.74486397043E+03  0.74486397043E+03  0.25500000920E-02 0.  1.
    10030    2    1    2    0    0  0.00000000000E+00  0.00000000000E+00  0.14079115808E+04  0.28976395217E+04  0.25326073083E+04 0.  0.
        3    1    3    3  502    0 -0.51061104933E+02  0.61116139298E+02 -0.74199587005E+03  0.74625752947E+03  0.10100000352E+00 0.  1.
       -3    1    3    3    0  502  0.51061104933E+02 -0.61116139298E+02  0.21499074509E+04  0.21513819922E+04  0.10100000352E+00 0. -1.
</event>
<event>
 5   0  0.1574896E-06  0.2500654E+04  0.7818609E-02  0.8402753E-01
       -1   -1    0    0    0  501  0.00000000000E+00  0.00000000000E+00  0.12699288905E+04  0.12699288905E+04  0.50400001928E-02 0.  1.
        1   -1    0    0  501    0  0.00000000000E+00  0.00000000000E+00 -0.12310271953E+04  0.12310271953E+04  0.50400001928E-02 0. -1.
    10030    2    1    2    0    0  0.00000000000E+00  0.00000000000E+00  0.38901695196E+02  0.25009560858E+04  0.25006535148E+04 0.  0.
        3    1    3    3  502    0 -0.47258915835E+03  0.92278603902E+03 -0.67952026102E+03  0.12396057364E+04  0.10100000352E+00 0. -1.
       -3    1    3    3    0  502  0.47258915835E+03 -0.92278603902E+03  0.71842195622E+03  0.12613503493E+04  0.10100000352E+00 0.  1.
</event>
<event>
 5   0  0.3713394E-06  0.2503601E+04  0.7818609E-02  0.8401704E-01
        2   -1    0    0  501    0  0.00000000000E+00  0.00000000000E+00  0.10236833716E+04  0.10236833716E+04  0.25500000920E-02 0.  1.
       -2   -1    0    0    0  501  0.00000000000E+00  0.00000000000E+00 -0.15307512051E+04  0.15307512051E+04  0.25500000920E-02 0. -1.
    10030    2    1    2    0    0  0.00000000000E+00  0.00000000000E+00 -0.50706783351E+03  0.25544345767E+04  0.25036010503E+04 0.  0.
        3    1    3    3  502    0 -0.45763207178E+03 -0.84075670239E+03 -0.10765757897E+04  0.14405951502E+04  0.10100000352E+00 0. -1.
       -3    1    3    3    0  502  0.45763207178E+03  0.84075670239E+03  0.56950795614E+03  0.11138394265E+04  0.10100000352E+00 0.  1.
</event>
<event>
 5   0  0.1501747E-06  0.2497736E+04  0.7818609E-02  0.8403793E-01
        1   -1    0    0  501    0  0.00000000000E+00  0.00000000000E+00  0.18154595761E+04  0.18154595761E+04  0.50400001928E-02 0.  1.
       -1   -1    0    0    0  501  0.00000000000E+00  0.00000000000E+00 -0.85910535507E+03  0.85910535508E+03  0.50400001928E-02 0. -1.
    10030    2    1    2    0    0  0.00000000000E+00  0.00000000000E+00  0.95635422105E+03  0.26745649312E+04  0.24977358097E+04 0.  0.
        2    1    3    3  502    0  0.20310249500E+03 -0.11036672550E+04 -0.10865317400E+03  0.11274473582E+04  0.25500000920E-02 0. -1.
       -2    1    3    3    0  502 -0.20310249500E+03  0.11036672550E+04  0.10650073951E+04  0.15471175730E+04  0.25500000920E-02 0.  1.
</event>
<event>
 5   0  0.1553604E-06  0.2498066E+04  0.7818609E-02  0.8403675E-01
       -1   -1    0    0    0  501  0.00000000000E+00  0.00000000000E+00  0.62595351318E+03  0.62595351320E+03  0.50400001928E-02 0. -1.
        1   -1    0    0  501    0  0.00000000000E+00  0.00000000000E+00 -0.24923315490E+04  0.24923315490E+04  0.50400001928E-02 0.  1.
    10030    2    1    2    0    0  0.00000000000E+00  0.00000000000E+00 -0.18663780358E+04  0.31182850622E+04  0.24980662034E+04 0.  0.
        1    1    3    3  502    0  0.98233115752E+03  0.23201647870E+03 -0.18515678683E+04  0.21088171377E+04  0.50400001928E-02 0.  1.
       -1    1    3    3    0  502 -0.98233115752E+03 -0.23201647870E+03 -0.14810167496E+02  0.10094679245E+04  0.50400001928E-02 0. -1.
</event>
<event>
 5   0  0.3971759E-06  0.2501016E+04  0.7818609E-02  0.8402624E-01
       -2   -1    0    0    0  501  0.00000000000E+00  0.00000000000E+00  0.11980779400E+04  0.11980779400E+04  0.25500000920E-02 0. -1.
        2   -1    0    0  501    0  0.00000000000E+00  0.00000000000E+00 -0.13052322144E+04  0.13052322144E+04  0.25500000920E-02 0.  1.
    10030    2    1    2    0    0  0.00000000000E+00  0.00000000000E+00 -0.10715427436E+03  0.25033101544E+04  0.25010157318E+04 0.  0.
        4    1    3    3  502    0  0.59796907926E+03  0.10868215694E+04  0.10474561596E+03  0.12448780665E+04  0.12699999809E+01 0. -1.
       -4    1    3    3    0  502 -0.59796907926E+03 -0.10868215694E+04 -0.21189989032E+03  0.12584320879E+04  0.12699999809E+01 0.  1.
</event>
<event>
 5   0  0.3971759E-06  0.2506101E+04  0.7818609E-02  0.8400815E-01
        2   -1    0    0  501    0  0.00000000000E+00  0.00000000000E+00  0.25306924866E+04  0.25306924866E+04  0.25500000920E-02 0. -1.
       -2   -1    0    0    0  501  0.00000000000E+00  0.00000000000E+00 -0.62043712785E+03  0.62043712785E+03  0.25500000920E-02 0.  1.
    10030    2    1    2    0    0  0.00000000000E+00  0.00000000000E+00  0.19102553588E+04  0.31511296145E+04  0.25061010178E+04 0.  0.
        4    1    3    3  502    0  0.62781832291E+02  0.17820171474E+03 -0.60242291367E+03  0.63135757651E+03  0.12699999809E+01 0.  1.
       -4    1    3    3    0  502 -0.62781832291E+02 -0.17820171474E+03  0.25126782725E+04  0.25197720380E+04  0.12699999809E+01 0. -1.
</event>
<event>
 5   0  0.3971759E-06  0.2498234E+04  0.7818609E-02  0.8403615E-01
        2   -1    0    0  501    0  0.00000000000E+00  0.00000000000E+00  0.13073594483E+04  0.13073594483E+04  0.25500000920E-02 0. -1.
       -2   -1    0    0    0  501  0.00000000000E+00  0.00000000000E+00 -0.11934694873E+04  0.11934694873E+04  0.25500000920E-02 0.  1.
    10030    2    1    2    0    0  0.00000000000E+00  0.00000000000E+00  0.11388996108E+03  0.25008289356E+04  0.24982342648E+04 0.  0.
        4    1    3    3  502    0  0.33506328639E+03  0.23290781409E+03 -0.11248651596E+04  0.11965937890E+04  0.12699999809E+01 0.  1.
       -4    1    3    3    0  502 -0.33506328639E+03 -0.23290781409E+03  0.12387551207E+04  0.13042351466E+04  0.12699999809E+01 0. -1.
</event>
<event>
 5   0  0.1553604E-06  0.2501447E+04  0.7818609E-02  0.8402470E-01
       -1   -1    0    0    0  501  0.00000000000E+00  0.00000000000E+00  0.10256691442E+04  0.10256691442E+04  0.50400001928E-02 0.  1.
        1   -1    0    0  501    0  0.00000000000E+00  0.00000000000E+00 -0.15251595795E+04  0.15251595795E+04  0.50400001928E-02 0. -1.
    10030    2    1    2    0    0  0.00000000000E+00  0.00000000000E+00 -0.49949043532E+03  0.25508287237E+04  0.25014468778E+04 0.  0.
        1    1    3    3  502    0  0.89952549550E+03  0.74343032756E+03 -0.70859974681E+03  0.13652649451E+04  0.50400001928E-02 0. -1.
       -1    1    3    3    0  502 -0.89952549550E+03 -0.74343032756E+03  0.20910931149E+03  0.11855637786E+04  0.50400001928E-02 0.  1.
</event>
<event>
 5   0  0.3713394E-06  0.2498899E+04  0.7818609E-02  0.8403378E-01
       -2   -1    0    0    0  501  0.00000000000E+00  0.00000000000E+00  0.15355483200E+04  0.15355483200E+04  0.25500000920E-02 0. -1.
        2   -1    0    0  501    0  0.00000000000E+00  0.00000000000E+00 -0.10166556968E+04  0.10166556968E+04  0.25500000920E-02 0.  1.
    10030    2    1    2    0    0  0.00000000000E+00  0.00000000000E+00  0.51889262322E+03  0.25522040168E+04  0.24988989153E+04 0.  0.
        3    1    3    3  502    0 -0.80761923950E+03 -0.25852107120E+03  0.11966490853E+04  0.14666461822E+04  0.10100000352E+00 0. -1.
       -3    1    3    3    0  502  0.80761923950E+03  0.25852107120E+03 -0.67775646203E+03  0.10855578346E+04  0.10100000352E+00 0.  1.
</event>
<event>
 5   0  0.3713394E-06  0.2502233E+04  0.7818609E-02  0.8402190E-01
       -2   -1    0    0    0  501  0.00000000000E+00  0.00000000000E+00  0.12400528473E+04  0.12400528473E+04  0.25500000920E-02 0.  1.
        2   -1    0    0  501    0  0.00000000000E+00  0.00000000000E+00 -0.12622792338E+04  0.12622792338E+04  0.25500000920E-02 0. -1.
    10030    2    1    2    0    0  0.00000000000E+00  0.00000000000E+00 -0.22226386492E+02  0.25023320812E+04  0.25022333689E+04 0.  0.
        3    1    3    3  502    0 -0.80212908437E+03  0.55664816431E+03  0.77123774485E+03  0.12442169892E+04  0.10100000352E+00 0.  1.
       -3    1    3    3    0  502  0.80212908437E+03 -0.55664816431E+03 -0.79346413134E+03  0.12581150920E+04  0.10100000352E+00 0. -1.
</event>
<event>
 5   0  0.1501747E-06  0.2504378E+04  0.7818609E-02  0.8401428E-01
       -1   -1    0    0    0  501  0.00000000000E+00  0.00000000000E+00  0.73296091235E+03  0.73296091237E+03  0.50400001928E-02 0. -1.
        1   -1    0    0  501    0  0.00000000000E+00  0.00000000000E+00 -0.21392373157E+04  0.21392373157E+04  0.50400001928E-02 0.  1.
    10030    2    1    2    0    0  0.00000000000E+00  0.00000000000E+00 -0.14062764034E+04  0.28721982281E+04  0.25043780343E+04 0.  0.
        2    1    3    3  502    0  0.39829728087E+03  0.86462809637E+03  0.22982195194E+03  0.97930618224E+03  0.25500000920E-02 0. -1.
       -2    1    3    3    0  502 -0.39829728087E+03 -0.86462809637E+03 -0.16360983553E+04  0.18928920458E+04  0.25500000920E-02 0.  1.
</event>
<event>
 5   0  0.1553604E-06  0.2503106E+04  0.7818609E-02  0.8401880E-01
       -1   -1    0    0    0  501  0.00000000000E+00  0.00000000000E+00  0.10945376482E+04  0.10945376482E+04  0.50400001928E-02 0. -1.
        1   -1    0    0  501    0  0.00000000000E+00  0.00000000000E+00 -0.14310923141E+04  0.14310923141E+04  0.50400001928E-02 0.  1.
    10030    2    1    2    0    0  0.00000000000E+00  0.00000000000E+00 -0.33655466587E+03  0.25256299624E+04  0.25031056038E+04 0.  0.
        1    1    3    3  502    0 -0.23045244574E+03 -0.10910240958E+04 -0.74167134824E+03  0.13392230196E+04  0.50400001928E-02 0.  1.
       -1    1    3    3    0  502  0.23045244574E+03  0.10910240958E+04  0.40511668236E+03  0.11864069427E+04  0.50400001928E-02 0. -1.
</event>
<event>
 5   0  0.1501747E-06  0.2504042E+04  0.7818609E-02  0.8401547E-01
        1   -1    0    0  501    0  0.00000000000E+00  0.00000000000E+00  0.14105593861E+04  0.14105593861E+04  0.50400001928E-02 0.  1.
       -1   -1    0    0    0  501  0.00000000000E+00  0.00000000000E+00 -0.11113016606E+04  0.11113016607E+04  0.50400001928E-02 0. -1.
    10030    2    1    2    0    0  0.00000000000E+00  0.00000000000E+00  0.29925772542E+03  0.25218610467E+04  0.25040423225E+04 0.  0.
        2    1    3    3  502    0  0.70664117653E+03 -0.10841031457E+03 -0.88552884255E+03  0.11380930892E+04  0.25500000920E-02 0. -1.
       -2    1    3    3    0  502 -0.70664117653E+03  0.10841031457E+03  0.11847865680E+04  0.13837679575E+04  0.25500000920E-02 0.  1.
</event>
<event>
 5   0  0.3713394E-06  0.2501016E+04  0.7818609E-02  0.8402624E-01
        2   -1    0    0  501    0  0.00000000000E+00  0.00000000000E+00  0.23172601562E+04  0.23172601562E+04  0.25500000920E-02 0.  1.
       -2   -1    0    0    0  501  0.00000000000E+00  0.00000000000E+00 -0.67483601767E+03  0.67483601767E+03  0.25500000920E-02 0. -1.
    10030    2    1    2    0    0  0.00000000000E+00  0.00000000000E+00  0.16424241385E+04  0.29920961738E+04  0.25010162860E+04 0.  0.
        3    1    3    3  502    0  0.22300641299E+03  0.10468318183E+04  0.15948569201E+04  0.19207179183E+04  0.10100000352E+00 0.  1.
       -3    1    3    3    0  502 -0.22300641299E+03 -0.10468318183E+04  0.47567218418E+02  0.10713782555E+04  0.10100000352E+00 0. -1.
</event>
<event>
 5   0  0.1501747E-06  0.2496911E+04  0.7818609E-02  0.8404087E-01
        1   -1    0    0  501    0  0.00000000000E+00  0.00000000000E+00  0.12350727658E+04  0.12350727658E+04  0.50400001928E-02 0.  1.
       -1   -1    0    0    0  501  0.00000000000E+00  0.00000000000E+00 -0.12619827471E+04  0.12619827471E+04  0.50400001928E-02 0. -1.
    10030    2    1    2    0    0  0.00000000000E+00  0.00000000000E+00 -0.26909981301E+02  0.24970555128E+04  0.24969105084E+04 0.  0.
        2    1    3    3  502    0 -0.98636702776E+03 -0.52656578687E+03 -0.56886916665E+03  0.12545132802E+04  0.25500000920E-02 0. -1.
       -2    1    3    3    0  502  0.98636702776E+03  0.52656578687E+03  0.54195918535E+03  0.12425422327E+04  0.25500000920E-02 0.  1.
</event>
<event>
 5   0  0.3971759E-06  0.2494964E+04  0.7818609E-02  0.8404782E-01
       -2   -1    0    0    0  501  0.00000000000E+00  0.00000000000E+00  0.68451448289E+03  0.68451448289E+03  0.25500000920E-02 0. -1.
        2   -1    0    0  501    0  0.00000000000E+00  0.00000000000E+00 -0.22734518602E+04  0.22734518602E+04  0.25500000920E-02 0.  1.
    10030    2    1    2    0    0  0.00000000000E+00  0.00000000000E+00 -0.15889373773E+04  0.29579663431E+04  0.24949635063E+04 0.  0.
        4    1    3    3  502    0 -0.10039478734E+04  0.73686305649E+03 -0.88102877687E+03  0.15254808472E+04  0.12699999809E+01 0.  1.
       -4    1    3    3    0  502  0.10039478734E+04 -0.73686305649E+03 -0.70790860046E+03  0.14324854959E+04  0.12699999809E+01 0. -1.
</event>
<event>
 5   0  0.1574896E-06  0.2501397E+04  0.7818609E-02  0.8402488E-01
       -1   -1    0    0    0  501  0.00000000000E+00  0.00000000000E+00  0.15542832083E+04  0.15542832083E+04  0.50400001928E-02 0.  1.
        1   -1    0    0  501    0  0.00000000000E+00  0.00000000000E+00 -0.10064106340E+04  0.10064106340E+04  0.50400001928E-02 0. -1.
    10030    2    1    2    0    0  0.00000000000E+00  0.00000000000E+00  0.54787257425E+03  0.25606938423E+04  0.25013973288E+04 0.  0.
        3    1    3    3  502    0 -0.11074311499E+04 -0.51847519334E+03  0.49785527369E+01  0.12228021402E+04  0.10100000352E+00 0. -1.
       -3    1    3    3    0  502  0.11074311499E+04  0.51847519334E+03  0.54289402152E+03  0.13378917021E+04  0.10100000352E+00 0.  1.
</event>
<event>
 5   0  0.1553604E-06  0.2499687E+04  0.7818609E-02  0.8403097E-01
       -1   -1    0    0    0  501  0.00000000000E+00  0.00000000000E+00  0.32135540842E+04  0.32135540842E+04  0.50400001928E-02 0. -1.
        1   -1    0    0  501    0  0.00000000000E+00  0.00000000000E+00 -0.48609986619E+03  0.48609986622E+03  0.50400001928E-02 0.  1.
    10030    2    1    2    0    0  0.00000000000E+00  0.00000000000E+00  0.27274542180E+04  0.36996539504E+04  0.24996865486E+04 0.  0.
        1    1    3    3  502    0 -0.11849620642E+04  0.17815727909E+03  0.83787674871E+03  0.14621602360E+04  0.50400001928E-02 0.  1.
       -1    1    3    3    0  502  0.11849620642E+04 -0.17815727909E+03  0.18895774693E+04  0.22374937144E+04  0.50400001928E-02 0. -1.
</event>
<event>
 5   0  0.3971759E-06  0.2500474E+04  0.7818609E-02  0.8402817E-01
        2   -1    0    0  501    0  0.00000000000E+00  0.00000000000E+00  0.15139986689E+04  0.15139986690E+04  0.25500000920E-02 0. -1.
       -2   -1    0    0    0  501  0.00000000000E+00  0.00000000000E+00 -0.10324266812E+04  0.10324266812E+04  0.25500000920E-02 0.  1.
    10030    2    1    2    0    0  0.00000000000E+00  0.00000000000E+00  0.48157198776E+03  0.25464253501E+04  0.25004740519E+04 0.  0.
        4    1    3    3  502    0 -0.10762168516E+04 -0.57780041623E+03 -0.30559368938E+02  0.12218966898E+04  0.12699999809E+01 0. -1.
       -4    1    3    3    0  502  0.10762168516E+04  0.57780041623E+03  0.51213135670E+03  0.13245286603E+04  0.12699999809E+01 0.  1.
</event>
<event>
 5   0  0.3814260E-06  0.2497742E+04  0.7818609E-02  0.8403790E-01
        2   -1    0    0  501    0  0.00000000000E+00  0.00000000000E+00  0.23080026609E+04  0.23080026609E+04  0.25500000920E-02 0. -1.
       -2   -1    0    0    0  501  0.00000000000E+00  0.00000000000E+00 -0.67576992728E+03  0.67576992728E+03  0.25500000920E-02 0.  1.
    10030    2    1    2    0    0  0.00000000000E+00  0.00000000000E+00  0.16322327336E+04  0.29837725882E+04  0.24977420125E+04 0.  0.
        5    1    3    3  502    0 -0.52684267443E+03 -0.61225708473E+03  0.19539479421E+04  0.21143217806E+04  0.46999998093E+01 0. -1.
       -5    1    3    3    0  502  0.52684267443E+03  0.61225708473E+03 -0.32171520851E+03  0.86945080757E+03  0.46999998093E+01 0.  1.
</event>
<event>
 5   0  0.1501747E-06  0.2497296E+04  0.7818609E-02  0.8403950E-01
        1   -1    0    0  501    0  0.00000000000E+00  0.00000000000E+00  0.11393816766E+04  0.11393816766E+04  0.50400001928E-02 0.  1.
       -1   -1    0    0    0  501  0.00000000000E+00  0.00000000000E+00 -0.13683928474E+04  0.13683928474E+04  0.50400001928E-02 0. -1.
    10030    2    1    2    0    0  0.00000000000E+00  0.00000000000E+00 -0.22901117080E+03  0.25077745241E+04  0.24972959271E+04 0.  0.
        2    1    3    3  502    0  0.92093011800E+03 -0.61209609148E+03  0.46788291629E+03  0.12007032651E+04  0.25500000920E-02 0.  1.
       -2    1    3    3    0  502 -0.92093011800E+03  0.61209609148E+03 -0.69689408709E+03  0.13070712590E+04  0.25500000920E-02 0. -1.
</event>
<event>
 5   0  0.1519145E-06  0.2498918E+04  0.7818609E-02  0.8403371E-01
        1   -1    0    0  501    0  0.00000000000E+00  0.00000000000E+00  0.12730387262E+04  0.12730387262E+04  0.50400001928E-02 0.  1.
       -1   -1    0    0    0  501  0.00000000000E+00  0.00000000000E+00 -0.12263164653E+04  0.12263164653E+04  0.50400001928E-02 0. -1.
    10030    2    1    2    0    0  0.00000000000E+00  0.00000000000E+00  0.46722260886E+02  0.24993551916E+04  0.24989184468E+04 0.  0.
        4    1    3    3  502    0  0.57825103984E+02  0.75198029409E+03  0.10196921641E+04  0.12683027350E+04  0.12699999809E+01 0.  1.
       -4    1    3    3    0  502 -0.57825103984E+02 -0.75198029409E+03 -0.97296990317E+03  0.12310524565E+04  0.12699999809E+01 0. -1.
</event>
<event>
 5   0  0.1553604E-06  0.2502670E+04  0.7818609E-02  0.8402035E-01
       -1   -1    0    0    0  501  0.00000000000E+00  0.00000000000E+00  0.81868417805E+03  0.81868417807E+03  0.50400001928E-02 0. -1.
        1   -1    0    0  501    0  0.00000000000E+00  0.00000000000E+00 -0.19126287513E+04  0.19126287513E+04  0.50400001928E-02 0.  1.
    10030    2    1    2    0    0  0.00000000000E+00  0.00000000000E+00 -0.10939445732E+04  0.27313129293E+04  0.25026696923E+04 0.  0.
        1    1    3    3  502    0  0.35955727812E+03  0.78703606727E+03  0.43956601944E+03  0.97052846063E+03  0.50400001928E-02 0. -1.
       -1    1    3    3    0  502 -0.35955727812E+03 -0.78703606727E+03 -0.15335105926E+04  0.17607844687E+04  0.50400001928E-02 0.  1.
</event>
<event>
 5   0  0.1541852E-06  0.2502314E+04  0.7818609E-02  0.8402162E-01
       -1   -1    0    0    0  501  0.00000000000E+00  0.00000000000E+00  0.65058522209E+03  0.65058522211E+03  0.50400001928E-02 0.  1.
        1   -1    0    0  501    0  0.00000000000E+00  0.00000000000E+00 -0.24061315150E+04  0.24061315150E+04  0.50400001928E-02 0. -1.
    10030    2    1    2    0    0  0.00000000000E+00  0.00000000000E+00 -0.17555462929E+04  0.30567167371E+04  0.25023138141E+04 0.  0.
        5    1    3    3  502    0 -0.56783556006E+03  0.10428079688E+04 -0.39609290294E+03  0.12517177641E+04  0.46999998093E+01 0.  1.
       -5    1    3    3    0  502  0.56783556006E+03 -0.10428079688E+04 -0.13594533899E+04  0.18049989730E+04  0.46999998093E+01 0. -1.
</event>
<event>
 5   0  0.1574896E-06  0.2507465E+04  0.7818609E-02  0.8400331E-01
        1   -1    0    0  501    0  0.00000000000E+00  0.00000000000E+00  0.14911417938E+04  0.14911417938E+04  0.50400001928E-02 0.  1.
       -1   -1    0    0    0  501  0.00000000000E+00  0.00000000000E+00 -0.10541221093E+04  0.10541221093E+04  0.50400001928E-02 0. -1.
    10030    2    1    2    0    0  0.00000000000E+00  0.00000000000E+00  0.43701968449E+03  0.25452639031E+04  0.25074652803E+04 0.  0.
        3    1    3    3  502    0 -0.16499113053E+03  0.11393802192E+04  0.72241651757E+03  0.13591523065E+04  0.10100000352E+00 0.  1.
       -3    1    3    3    0  502  0.16499113053E+03 -0.11393802192E+04 -0.28539683308E+03  0.11861115966E+04  0.10100000352E+00 0. -1.
</event>
<event>
 5   0  0.3808293E-06  0.2497291E+04  0.7818609E-02  0.8403951E-01
        2   -1    0    0  501    0  0.00000000000E+00  0.00000000000E+00  0.24969509033E+04  0.24969509033E+04  0.25500000920E-02 0.  1.
       -2   -1    0    0    0  501  0.00000000000E+00  0.00000000000E+00 -0.62440769967E+03  0.62440769967E+03  0.25500000920E-02 0. -1.
    10030    2    1    2    0    0  0.00000000000E+00  0.00000000000E+00  0.18725432036E+04  0.31213586029E+04  0.24972908278E+04 0.  0.
        1    1    3    3  502    0 -0.41007968130E+03  0.11789933130E+04  0.89826170400E+03  0.15378766745E+04  0.50400001928E-02 0.  1.
       -1    1    3    3    0  502  0.41007968130E+03 -0.11789933130E+04  0.97428149961E+03  0.15834819284E+04  0.50400001928E-02 0. -1.
</event>
<event>
 5   0  0.1541852E-06  0.2498295E+04  0.7818609E-02  0.8403593E-01
       -1   -1    0    0    0  501  0.00000000000E+00  0.00000000000E+00  0.11375806559E+04  0.11375806559E+04  0.50400001928E-02 0. -1.
        1   -1    0    0  501    0  0.00000000000E+00  0.00000000000E+00 -0.13716558338E+04  0.13716558338E+04  0.50400001928E-02 0.  1.
    10030    2    1    2    0    0  0.00000000000E+00  0.00000000000E+00 -0.23407517789E+03  0.25092364897E+04  0.24982947329E+04 0.  0.
        5    1    3    3  502    0 -0.11388498011E+04  0.24581097030E+03 -0.56950495470E+03  0.12968268527E+04  0.46999998093E+01 0.  1.
       -5    1    3    3    0  502  0.11388498011E+04 -0.24581097030E+03  0.33542977681E+03  0.12124096369E+04  0.46999998093E+01 0. -1.
</event>
<event>
 5   0  0.1553604E-06  0.2488533E+04  0.7818609E-02  0.8407082E-01
        1   -1    0    0  501    0  0.00000000000E+00  0.00000000000E+00  0.15559664720E+04  0.15559664720E+04  0.50400001928E-02 0.  1.
       -1   -1    0    0    0  501  0.00000000000E+00  0.00000000000E+00 -0.99500803828E+03  0.99500803830E+03  0.50400001928E-02 0. -1.
    10030    2    1    2    0    0  0.00000000000E+00  0.00000000000E+00  0.56095843370E+03  0.25509745103E+04  0.24885330192E+04 0.  0.
        1    1    3    3  502    0  0.89853515875E+03 -0.76101175481E+03 -0.13172342521E+03  0.11848440333E+04  0.50400001928E-02 0.  1.
       -1    1    3    3    0  502 -0.89853515875E+03  0.76101175481E+03  0.69268185892E+03  0.13661304770E+04  0.50400001928E-02 0. -1.
</event>
<event>
 5   0  0.1574896E-06  0.2502026E+04  0.7818609E-02  0.8402264E-01
       -1   -1    0    0    0  501  0.00000000000E+00  0.00000000000E+00  0.10528695828E+04  0.10528695828E+04  0.50400001928E-02 0.  1.
        1   -1    0    0  501    0  0.00000000000E+00  0.00000000000E+00 -0.14864457169E+04  0.14864457169E+04  0.50400001928E-02 0. -1.
    10030    2    1    2    0    0  0.00000000000E+00  0.00000000000E+00 -0.43357613412E+03  0.25393152997E+04  0.25020259645E+04 0.  0.
        3    1    3    3  502    0 -0.29882197478E+03  0.99618561625E+03  0.48880950689E+03  0.11491801855E+04  0.10100000352E+00 0.  1.
       -3    1    3    3    0  502  0.29882197478E+03 -0.99618561625E+03 -0.92238564101E+03  0.13901351141E+04  0.10100000352E+00 0. -1.
</event>
<event>
 5   0  0.1519145E-06  0.2494955E+04  0.7818609E-02  0.8404785E-01
       -1   -1    0    0    0  501  0.00000000000E+00  0.00000000000E+00  0.10855429596E+04  0.10855429596E+04  0.50400001928E-02 0.  1.
        1   -1    0    0  501    0  0.00000000000E+00  0.00000000000E+00 -0.14335684607E+04  0.14335684607E+04  0.50400001928E-02 0. -1.
    10030    2    1    2    0    0  0.00000000000E+00  0.00000000000E+00 -0.34802550107E+03  0.25191114203E+04  0.24949550293E+04 0.  0.
        4    1    3    3  502    0  0.85045115686E+02 -0.78827120791E+03 -0.11464547469E+04  0.13939025319E+04  0.12699999809E+01 0. -1.
       -4    1    3    3    0  502 -0.85045115686E+02  0.78827120791E+03  0.79842924584E+03  0.11252088884E+04  0.12699999809E+01 0.  1.
</event>
<event>
 5   0  0.1574896E-06  0.2507051E+04  0.7818609E-02  0.8400478E-01
       -1   -1    0    0    0  501  0.00000000000E+00  0.00000000000E+00  0.95634769039E+03  0.95634769041E+03  0.50400001928E-02 0. -1.
        1   -1    0    0  501    0  0.00000000000E+00  0.00000000000E+00 -0.16430493537E+04  0.16430493537E+04  0.50400001928E-02 0.  1.
    10030    2    1    2    0    0  0.00000000000E+00  0.00000000000E+00 -0.68670166331E+03  0.25993970441E+04  0.25070512198E+04 0.  0.
        3    1    3    3  502    0 -0.86577464445E+03  0.13448061720E+03 -0.12728517544E+04  0.15452515557E+04  0.10100000352E+00 0.  1.
       -3    1    3    3    0  502  0.86577464445E+03 -0.13448061720E+03  0.58615009109E+03  0.10541454885E+04  0.10100000352E+00 0. -1.
</event>
<event>
 5   0  0.3808293E-06  0.2500144E+04  0.7818609E-02  0.8402934E-01
       -2   -1    0    0    0  501  0.00000000000E+00  0.00000000000E+00  0.14994110600E+04  0.14994110600E+04  0.25500000920E-02 0.  1.
        2   -1    0    0  501    0  0.00000000000E+00  0.00000000000E+00 -0.10421959715E+04  0.10421959715E+04  0.25500000920E-02 0. -1.
    10030    2    1    2    0    0  0.00000000000E+00  0.00000000000E+00  0.45721508852E+03  0.25416070314E+04  0.25001441289E+04 0.  0.
        1    1    3    3  502    0  0.87166596011E+03  0.46527395060E+03  0.10070739639E+04  0.14108434938E+04  0.50400001928E-02 0.  1.
       -1    1    3    3    0  502 -0.87166596011E+03 -0.46527395060E+03 -0.54985887542E+03  0.11307635376E+04  0.50400001928E-02 0. -1.
</event>
<event>
 5   0  0.3814260E-06  0.2505096E+04  0.7818609E-02  0.8401172E-01
        2   -1    0    0  501    0  0.00000000000E+00  0.00000000000E+00  0.13282349262E+04  0.13282349263E+04  0.25500000920E-02 0.  1.
       -2   -1    0    0    0  501  0.00000000000E+00  0.00000000000E+00 -0.11811739801E+04  0.11811739801E+04  0.25500000920E-02 0. -1.
    10030    2    1    2    0    0  0.00000000000E+00  0.00000000000E+00  0.14706094617E+03  0.25094089063E+04  0.25050960336E+04 0.  0.
        5    1    3    3  502    0  0.28235488981E+03  0.27456249992E+03 -0.11175269167E+04  0.11849039411E+04  0.46999998093E+01 0. -1.
       -5    1    3    3    0  502 -0.28235488981E+03 -0.27456249992E+03  0.12645878628E+04  0.13245049652E+04  0.46999998093E+01 0.  1.
</event>
<event>
 5   0  0.1574896E-06  0.2521800E+04  0.7818609E-02  0.8395260E-01
        1   -1    0    0  501    0  0.00000000000E+00  0.00000000000E+00  0.14286140127E+04  0.14286140127E+04  0.50400001928E-02 0.  1.
       -1   -1    0    0    0  501  0.00000000000E+00  0.00000000000E+00 -0.11128752636E+04  0.11128752636E+04  0.50400001928E-02 0. -1.
    10030    2    1    2    0    0  0.00000000000E+00  0.00000000000E+00  0.31573874914E+03  0.25414892763E+04  0.25218003061E+04 0.  0.
        3    1    3    3  502    0 -0.12878126274E+03  0.46631212579E+03 -0.10156261050E+04  0.11249568915E+04  0.10100000352E+00 0. -1.
       -3    1    3    3    0  502  0.12878126274E+03 -0.46631212579E+03  0.13313648541E+04  0.14165323848E+04  0.10100000352E+00 0.  1.
</event>
<event>
 5   0  0.1501747E-06  0.2501516E+04  0.7818609E-02  0.8402446E-01
       -1   -1    0    0    0  501  0.00000000000E+00  0.00000000000E+00  0.12982814614E+04  0.12982814614E+04  0.50400001928E-02 0. -1.
        1   -1    0    0  501    0  0.00000000000E+00  0.00000000000E+00 -0.12049741583E+04  0.12049741583E+04  0.50400001928E-02 0.  1.
    10030    2    1    2    0    0  0.00000000000E+00  0.00000000000E+00  0.93307303077E+02  0.25032556197E+04  0.25015160293E+04 0.  0.
        2    1    3    3  502    0 -0.46630208721E+03  0.40290331497E+03 -0.10425089073E+04  0.12110299499E+04  0.25500000920E-02 0.  1.
       -2    1    3    3    0  502  0.46630208721E+03 -0.40290331497E+03  0.11358162104E+04  0.12922256698E+04  0.25500000920E-02 0. -1.
</event>
<event>
 5   0  0.1519145E-06  0.2428708E+04  0.7818609E-02  0.8428833E-01
       -1   -1    0    0    0  501  0.00000000000E+00  0.00000000000E+00  0.12418523228E+04  0.12418523228E+04  0.50400001928E-02 0. -1.
        1   -1    0    0  501    0  0.00000000000E+00  0.00000000000E+00 -0.11874649088E+04  0.11874649088E+04  0.50400001928E-02 0.  1.
    10030    2    1    2    0    0  0.00000000000E+00  0.00000000000E+00  0.54387414020E+02  0.24293172316E+04  0.24287083442E+04 0.  0.
        4    1    3    3  502    0  0.30953499584E+03  0.95539135178E+03 -0.65567056523E+03  0.11993706899E+04  0.12699999809E+01 0.  1.
       -4    1    3    3    0  502 -0.30953499584E+03 -0.95539135178E+03  0.71005797925E+03  0.12299465417E+04  0.12699999809E+01 0. -1.
</event>
<event>
 5   0  0.1501747E-06  0.2525753E+04  0.7818609E-02  0.8393868E-01
        1   -1    0    0  501    0  0.00000000000E+00  0.00000000000E+00  0.22589446514E+04  0.22589446514E+04  0.50400001928E-02 0.  1.
       -1   -1    0    0    0  501  0.00000000000E+00  0.00000000000E+00 -0.70601859304E+03  0.70601859305E+03  0.50400001928E-02 0. -1.
    10030    2    1    2    0    0  0.00000000000E+00  0.00000000000E+00  0.15529260584E+04  0.29649632445E+04  0.25257528973E+04 0.  0.
        2    1    3    3  502    0  0.41432106530E+03 -0.10946193272E+04  0.21963242254E+03  0.11908366041E+04  0.25500000920E-02 0.  1.
       -2    1    3    3    0  502 -0.41432106530E+03  0.10946193272E+04  0.13332936359E+04  0.17741266404E+04  0.25500000920E-02 0. -1.
</event>
<event>
 5   0  0.1553604E-06  0.2476705E+04  0.7818609E-02  0.8411332E-01
        1   -1    0    0  501    0  0.00000000000E+00  0.00000000000E+00  0.11876439427E+04  0.11876439427E+04  0.50400001928E-02 0.  1.
       -1   -1    0    0    0  501  0.00000000000E+00  0.00000000000E+00 -0.12912258816E+04  0.12912258816E+04  0.50400001928E-02 0. -1.
    10030    2    1    2    0    0  0.00000000000E+00  0.00000000000E+00 -0.10358193889E+03  0.24788698242E+04  0.24767047437E+04 0.  0.
        1    1    3    3  502    0  0.73144071747E+03  0.46351496609E+03 -0.93781335849E+03  0.12764582024E+04  0.50400001928E-02 0. -1.
       -1    1    3    3    0  502 -0.73144071747E+03 -0.46351496609E+03  0.83423141959E+03  0.12024116219E+04  0.50400001928E-02 0.  1.
</event>
<event>
 5   0  0.1541852E-06  0.2497804E+04  0.7818609E-02  0.8403768E-01
       -1   -1    0    0    0  501  0.00000000000E+00  0.00000000000E+00  0.16255850171E+04  0.16255850171E+04  0.50400001928E-02 0. -1.
        1   -1    0    0  501    0  0.00000000000E+00  0.00000000000E+00 -0.95950455484E+03  0.95950455485E+03  0.50400001928E-02 0.  1.
    10030    2    1    2    0    0  0.00000000000E+00  0.00000000000E+00  0.66608046230E+03  0.25850895720E+04  0.24978040181E+04 0.  0.
        5    1    3    3  502    0  0.11816424863E+04  0.20429843354E+03 -0.28031453192E+02  0.11995101782E+04  0.46999998093E+01 0. -1.
       -5    1    3    3    0  502 -0.11816424863E+04 -0.20429843354E+03  0.69411191549E+03  0.13855793938E+04  0.46999998093E+01 0.  1.
</event>
<event>
 5   0  0.3814260E-06  0.2500719E+04  0.7818609E-02  0.8402729E-01
        2   -1    0    0  501    0  0.00000000000E+00  0.00000000000E+00  0.11487915474E+04  0.11487915474E+04  0.25500000920E-02 0.  1.
       -2   -1    0    0    0  501  0.00000000000E+00  0.00000000000E+00 -0.13609073629E+04  0.13609073629E+04  0.25500000920E-02 0. -1.
    10030    2    1    2    0    0  0.00000000000E+00  0.00000000000E+00 -0.21211581550E+03  0.25096989102E+04  0.25007189968E+04 0.  0.
        5    1    3    3  502    0 -0.92629141132E+03  0.40402629049E+02  0.73583982521E+03  0.11836935792E+04  0.46999998093E+01 0.  1.
       -5    1    3    3    0  502  0.92629141132E+03 -0.40402629049E+02 -0.94795564072E+03  0.13260053310E+04  0.46999998093E+01 0. -1.
</event>
<event>
 5   0  0.3971759E-06  0.2501338E+04  0.7818609E-02  0.8402509E-01
        2   -1    0    0  501    0  0.00000000000E+00  0.00000000000E+00  0.14798315358E+04  0.14798315358E+04  0.25500000920E-02 0.  1.
       -2   -1    0    0    0  501  0.00000000000E+00  0.00000000000E+00 -0.10569941449E+04  0.10569941449E+04  0.25500000920E-02 0. -1.
    10030    2    1    2    0    0  0.00000000000E+00  0.00000000000E+00  0.42283739086E+03  0.25368256808E+04  0.25013382569E+04 0.  0.
        4    1    3    3  502    0  0.95230131828E+02 -0.25370843272E+02 -0.10530493641E+04  0.10576516599E+04  0.12699999809E+01 0. -1.
       -4    1    3    3    0  502 -0.95230131828E+02  0.25370843272E+02  0.14758867549E+04  0.14791740208E+04  0.12699999809E+01 0.  1.
</event>
<event>
 5   0  0.1541852E-06  0.2502421E+04  0.7818609E-02  0.8402124E-01
        1   -1    0    0  501    0  0.00000000000E+00  0.00000000000E+00  0.12145486949E+04  0.12145486949E+04  0.50400001928E-02 0. -1.
       -1   -1    0    0    0  501  0.00000000000E+00  0.00000000000E+00 -0.12889788563E+04  0.12889788563E+04  0.50400001928E-02 0.  1.
    10030    2    1    2    0    0  0.00000000000E+00  0.00000000000E+00 -0.74430161480E+02  0.25035275512E+04  0.25024208980E+04 0.  0.
        5    1    3    3  502    0  0.92309714966E+03 -0.84460017687E+03 -0.30306144281E+02  0.12515583721E+04  0.46999998093E+01 0.  1.
       -5    1    3    3    0  502 -0.92309714966E+03  0.84460017687E+03 -0.44124017199E+02  0.12519691791E+04  0.46999998093E+01 0. -1.
</event>
<event>
 5   0  0.1287375E-06  0.2499966E+04  0.7818609E-02  0.8402998E-01
       -3   -1    0    0    0  501  0.00000000000E+00  0.00000000000E+00  0.14519851790E+04  0.14519851825E+04  0.10100000352E+00 0. -1.
        3   -1    0    0  501    0  0.00000000000E+00  0.00000000000E+00 -0.10760834638E+04  0.10760834686E+04  0.10100000352E+00 0.  1.
    10030    2    1    2    0    0  0.00000000000E+00  0.00000000000E+00  0.37590171519E+03  0.25280686511E+04  0.24999658008E+04 0.  0.
        1    1    3    3  502    0  0.35960177573E+03  0.11963623773E+04  0.14432805499E+03  0.12575479960E+04  0.50400001928E-02 0.  1.
       -1    1    3    3    0  502 -0.35960177573E+03 -0.11963623773E+04  0.23157366020E+03  0.12705206551E+04  0.50400001928E-02 0. -1.
</event>
<event>
 5   0  0.3713394E-06  0.2499236E+04  0.7818609E-02  0.8403258E-01
       -2   -1    0    0    0  501  0.00000000000E+00  0.00000000000E+00  0.95791470724E+03  0.95791470725E+03  0.25500000920E-02 0.  1.
        2   -1    0    0  501    0  0.00000000000E+00  0.00000000000E+00 -0.16301503025E+04  0.16301503025E+04  0.25500000920E-02 0. -1.
    10030    2    1    2    0    0  0.00000000000E+00  0.00000000000E+00 -0.67223559529E+03  0.25880650098E+04  0.24992358431E+04 0.  0.
        3    1    3    3  502    0 -0.83904190115E+02 -0.87454486173E+03 -0.12563395513E+04  0.15330550241E+04  0.10100000352E+00 0. -1.
       -3    1    3    3    0  502  0.83904190115E+02  0.87454486173E+03  0.58410395605E+03  0.10550099857E+04  0.10100000352E+00 0.  1.
</event>
<event>
 5   0  0.3971759E-06  0.2499945E+04  0.7818609E-02  0.8403005E-01
        2   -1    0    0  501    0  0.00000000000E+00  0.00000000000E+00  0.11452412906E+04  0.11452412906E+04  0.25500000920E-02 0. -1.
       -2   -1    0    0    0  501  0.00000000000E+00  0.00000000000E+00 -0.13642814759E+04  0.13642814759E+04  0.25500000920E-02 0.  1.
    10030    2    1    2    0    0  0.00000000000E+00  0.00000000000E+00 -0.21904018533E+03  0.25095227665E+04  0.24999451820E+04 0.  0.
        4    1    3    3  502    0 -0.11937917778E+04 -0.34273743886E+03 -0.25085047589E+03  0.12670972081E+04  0.12699999809E+01 0.  1.
       -4    1    3    3    0  502  0.11937917778E+04  0.34273743886E+03  0.31810290555E+02  0.12424255584E+04  0.12699999809E+01 0. -1.
</event>
<event>
 5   0  0.3971759E-06  0.2481852E+04  0.7818609E-02  0.8409480E-01
       -2   -1    0    0    0  501  0.00000000000E+00  0.00000000000E+00  0.67772852663E+03  0.67772852663E+03  0.25500000920E-02 0. -1.
        2   -1    0    0  501    0  0.00000000000E+00  0.00000000000E+00 -0.22721442512E+04  0.22721442512E+04  0.25500000920E-02 0.  1.
    10030    2    1    2    0    0  0.00000000000E+00  0.00000000000E+00 -0.15944157245E+04  0.29498727778E+04  0.24818517084E+04 0.  0.
        4    1    3    3  502    0 -0.76052564416E+03  0.83998939333E+03 -0.13984846213E+04  0.17999284111E+04  0.12699999809E+01 0. -1.
       -4    1    3    3    0  502  0.76052564416E+03 -0.83998939333E+03 -0.19593110328E+03  0.11499443667E+04  0.12699999809E+01 0.  1.
</event>
<event>
 5   0  0.1553604E-06  0.2479291E+04  0.7818609E-02  0.8410401E-01
        1   -1    0    0  501    0  0.00000000000E+00  0.00000000000E+00  0.20019117230E+04  0.20019117230E+04  0.50400001928E-02 0. -1.
       -1   -1    0    0    0  501  0.00000000000E+00  0.00000000000E+00 -0.76762648789E+03  0.76762648791E+03  0.50400001928E-02 0.  1.
    10030    2    1    2    0    0  0.00000000000E+00  0.00000000000E+00  0.12342852351E+04  0.27695382109E+04  0.24792905961E+04 0.  0.
        1    1    3    3  502    0 -0.96915381461E+03 -0.39593605036E+03  0.13587080529E+04  0.17152585943E+04  0.50400001928E-02 0. -1.
       -1    1    3    3    0  502  0.96915381461E+03  0.39593605036E+03 -0.12442281781E+03  0.10542796166E+04  0.50400001928E-02 0.  1.
</event>
<event>
 5   0  0.1574896E-06  0.2508125E+04  0.7818609E-02  0.8400097E-01
        1   -1    0    0  501    0  0.00000000000E+00  0.00000000000E+00  0.15979895448E+04  0.15979895448E+04  0.50400001928E-02 0. -1.
       -1   -1    0    0    0  501  0.00000000000E+00  0.00000000000E+00 -0.98415716680E+03  0.98415716681E+03  0.50400001928E-02 0.  1.
    10030    2    1    2    0    0  0.00000000000E+00  0.00000000000E+00  0.61383237803E+03  0.25821467116E+04  0.25081250870E+04 0.  0.
        3    1    3    3  502    0 -0.10519062454E+04 -0.40426064225E+03  0.87337224145E+03  0.14257322674E+04  0.10100000352E+00 0. -1.
       -3    1    3    3    0  502  0.10519062454E+04  0.40426064225E+03 -0.25953986342E+03  0.11564144442E+04  0.10100000352E+00 0.  1.
</event>
<event>
 5   0  0.1574896E-06  0.2501424E+04  0.7818609E-02  0.8402478E-01
       -1   -1    0    0    0  501  0.00000000000E+00  0.00000000000E+00  0.82502992532E+03  0.82502992533E+03  0.50400001928E-02 0. -1.
        1   -1    0    0  501    0  0.00000000000E+00  0.00000000000E+00 -0.18960292091E+04  0.18960292091E+04  0.50400001928E-02 0.  1.
    10030    2    1    2    0    0  0.00000000000E+00  0.00000000000E+00 -0.10709992838E+04  0.27210591344E+04  0.25014242637E+04 0.  0.
        3    1    3    3  502    0 -0.81209090427E+03 -0.65163316973E+03  0.21828129400E+03  0.10638440479E+04  0.10100000352E+00 0. -1.
       -3    1    3    3    0  502  0.81209090427E+03  0.65163316973E+03 -0.12892805778E+04  0.16572150866E+04  0.10100000352E+00 0.  1.
</event>
<event>
 5   0  0.3808293E-06  0.2500960E+04  0.7818609E-02  0.8402644E-01
       -2   -1    0    0    0  501  0.00000000000E+00  0.00000000000E+00  0.14312367636E+04  0.14312367636E+04  0.25500000920E-02 0. -1.
        2   -1    0    0  501    0  0.00000000000E+00  0.00000000000E+00 -0.10925514702E+04  0.10925514702E+04  0.25500000920E-02 0.  1.
    10030    2    1    2    0    0  0.00000000000E+00  0.00000000000E+00  0.33868529339E+03  0.25237882338E+04  0.25009596800E+04 0.  0.
        1    1    3    3  502    0 -0.67191497010E+03 -0.72249346945E+03 -0.60593644436E+03  0.11578538401E+04  0.50400001928E-02 0.  1.
       -1    1    3    3    0  502  0.67191497010E+03  0.72249346945E+03  0.94462173775E+03  0.13659343937E+04  0.50400001928E-02 0. -1.
</event>
<event>
 5   0  0.1519145E-06  0.2523051E+04  0.7818609E-02  0.8394819E-01
       -1   -1    0    0    0  501  0.00000000000E+00  0.00000000000E+00  0.72645214842E+03  0.72645214844E+03  0.50400001928E-02 0. -1.
        1   -1    0    0  501    0  0.00000000000E+00  0.00000000000E+00 -0.21907101538E+04  0.21907101538E+04  0.50400001928E-02 0.  1.
    10030    2    1    2    0    0  0.00000000000E+00  0.00000000000E+00 -0.14642580053E+04  0.29171623022E+04  0.25230506121E+04 0.  0.
        4    1    3    3  502    0  0.15374268478E+03  0.39091094912E+03 -0.21074759965E+04  0.21489310998E+04  0.12699999809E+01 0.  1.
       -4    1    3    3    0  502 -0.15374268478E+03 -0.39091094912E+03  0.64321799113E+03  0.76823120236E+03  0.12699999809E+01 0. -1.
</event>
<event>
 5   0  0.3713394E-06  0.2500512E+04  0.7818609E-02  0.8402803E-01
        2   -1    0    0  501    0  0.00000000000E+00  0.00000000000E+00  0.12625647304E+04  0.12625647304E+04  0.25500000920E-02 0. -1.
       -2   -1    0    0    0  501  0.00000000000E+00  0.00000000000E+00 -0.12380675619E+04  0.12380675619E+04  0.25500000920E-02 0.  1.
    10030    2    1    2    0    0  0.00000000000E+00  0.00000000000E+00  0.24497168450E+02  0.25006322923E+04  0.25005122976E+04 0.  0.
        3    1    3    3  502    0 -0.48244597938E+03 -0.94143390460E+03 -0.65418305560E+03  0.12437875221E+04  0.10100000352E+00 0.  1.
       -3    1    3    3    0  502  0.48244597938E+03  0.94143390460E+03  0.67868022405E+03  0.12568447702E+04  0.10100000352E+00 0. -1.
</event>
<event>
 5   0  0.1541852E-06  0.2503860E+04  0.7818609E-02  0.8401612E-01
       -1   -1    0    0    0  501  0.00000000000E+00  0.00000000000E+00  0.10674882158E+04  0.10674882158E+04  0.50400001928E-02 0.  1.
        1   -1    0    0  501    0  0.00000000000E+00  0.00000000000E+00 -0.14682400574E+04  0.14682400574E+04  0.50400001928E-02 0. -1.
    10030    2    1    2    0    0  0.00000000000E+00  0.00000000000E+00 -0.40075184165E+03  0.25357282732E+04  0.25038601872E+04 0.  0.
        5    1    3    3  502    0  0.20233741069E+02  0.85579353556E+03 -0.11255206593E+04  0.14140759613E+04  0.46999998093E+01 0. -1.
       -5    1    3    3    0  502 -0.20233741069E+02 -0.85579353556E+03  0.72476881764E+03  0.11216523119E+04  0.46999998093E+01 0.  1.
</event>
<event>
 5   0  0.3713394E-06  0.2501694E+04  0.7818609E-02  0.8402382E-01
        2   -1    0    0  501    0  0.00000000000E+00  0.00000000000E+00  0.67815748248E+03  0.67815748249E+03  0.25500000920E-02 0. -1.
       -2   -1    0    0    0  501  0.00000000000E+00  0.00000000000E+00 -0.23071608231E+04  0.23071608231E+04  0.25500000920E-02 0.  1.
    10030    2    1    2    0    0  0.00000000000E+00  0.00000000000E+00 -0.16290033406E+04  0.29853183056E+04  0.25016941264E+04 0.  0.
        3    1    3    3  502    0  0.35824701077E+03 -0.11976210232E+04 -0.86761882009E+03  0.15216436716E+04  0.10100000352E+00 0. -1.
       -3    1    3    3    0  502 -0.35824701077E+03  0.11976210232E+04 -0.76138452051E+03  0.14636746340E+04  0.10100000352E+00 0.  1.
</event>
<event>
 5   0  0.3808293E-06  0.2497655E+04  0.7818609E-02  0.8403821E-01
       -2   -1    0    0    0  501  0.00000000000E+00  0.00000000000E+00  0.18259130484E+04  0.18259130484E+04  0.25500000920E-02 0. -1.
        2   -1    0    0  501    0  0.00000000000E+00  0.00000000000E+00 -0.85413179845E+03  0.85413179846E+03  0.25500000920E-02 0.  1.
    10030    2    1    2    0    0  0.00000000000E+00  0.00000000000E+00  0.97178124998E+03  0.26800448469E+04  0.24976552171E+04 0.  0.
        1    1    3    3  502    0  0.32496741224E+02  0.75136777411E+03  0.15556699702E+04  0.17279232119E+04  0.50400001928E-02 0. -1.
       -1    1    3    3    0  502 -0.32496741224E+02 -0.75136777411E+03 -0.58388872020E+03  0.95212163496E+03  0.50400001928E-02 0.  1.
</event>
<event>
 5   0  0.1541852E-06  0.2496745E+04  0.7818609E-02  0.8404146E-01
       -1   -1    0    0    0  501  0.00000000000E+00  0.00000000000E+00  0.13029295899E+04  0.13029295899E+04  0.50400001928E-02 0.  1.
        1   -1    0    0  501    0  0.00000000000E+00  0.00000000000E+00 -0.11960994562E+04  0.11960994562E+04  0.50400001928E-02 0. -1.
    10030    2    1    2    0    0  0.00000000000E+00  0.00000000000E+00  0.10683013376E+03  0.24990290461E+04  0.24967445796E+04 0.  0.
        5    1    3    3  502    0 -0.65976484582E+03 -0.94474802400E+03  0.53403439077E+03  0.12700603533E+04  0.46999998093E+01 0.  1.
       -5    1    3    3    0  502  0.65976484582E+03  0.94474802400E+03 -0.42720425701E+03  0.12289686928E+04  0.46999998093E+01 0. -1.
</event>
<event>
 5   0  0.1501747E-06  0.2499840E+04  0.7818609E-02  0.8403043E-01
        1   -1    0    0  501    0  0.00000000000E+00  0.00000000000E+00  0.15356362123E+04  0.15356362123E+04  0.50400001928E-02 0. -1.
       -1   -1    0    0    0  501  0.00000000000E+00  0.00000000000E+00 -0.10173629679E+04  0.10173629679E+04  0.50400001928E-02 0.  1.
    10030    2    1    2    0    0  0.00000000000E+00  0.00000000000E+00  0.51827324436E+03  0.25529991802E+04  0.24998395265E+04 0.  0.
        2    1    3    3  502    0  0.93142510031E+03 -0.11271255747E+03 -0.58428414028E+03  0.11052804145E+04  0.25500000920E-02 0.  1.
       -2    1    3    3    0  502 -0.93142510031E+03  0.11271255747E+03  0.11025573846E+04  0.14477187657E+04  0.25500000920E-02 0. -1.
</event>
<event>
 5   0  0.3924441E-06  0.2500832E+04  0.7818609E-02  0.8402689E-01
        2   -1    0    0  501    0  0.00000000000E+00  0.00000000000E+00  0.15452957828E+04  0.15452957828E+04  0.25500000920E-02 0. -1.
       -2   -1    0    0    0  501  0.00000000000E+00  0.00000000000E+00 -0.10118062009E+04  0.10118062009E+04  0.25500000920E-02 0.  1.
    10030    2    1    2    0    0  0.00000000000E+00  0.00000000000E+00  0.53348958188E+03  0.25571019838E+04  0.25008317459E+04 0.  0.
        2    1    3    3  502    0 -0.11610028823E+04  0.41809939894E+03  0.47329258486E+03  0.13216431708E+04  0.25500000920E-02 0. -1.
       -2    1    3    3    0  502  0.11610028823E+04 -0.41809939894E+03  0.60196997019E+02  0.12354588130E+04  0.25500000920E-02 0.  1.
</event>
<event>
 5   0  0.3924441E-06  0.2489829E+04  0.7818609E-02  0.8406618E-01
       -2   -1    0    0    0  501  0.00000000000E+00  0.00000000000E+00  0.67742605475E+03  0.67742605475E+03  0.25500000920E-02 0.  1.
        2   -1    0    0  501    0  0.00000000000E+00  0.00000000000E+00 -0.22877945876E+04  0.22877945876E+04  0.25500000920E-02 0. -1.
    10030    2    1    2    0    0  0.00000000000E+00  0.00000000000E+00 -0.16103685329E+04  0.29652206424E+04  0.24898286379E+04 0.  0.
        2    1    3    3  502    0  0.52843641845E+03 -0.45464346221E+03 -0.20335593781E+04  0.21497231148E+04  0.25500000920E-02 0. -1.
       -2    1    3    3    0  502 -0.52843641845E+03  0.45464346221E+03  0.42319084519E+03  0.81549752761E+03  0.25500000920E-02 0.  1.
</event>
<event>
 5   0  0.1574896E-06  0.2503109E+04  0.7818609E-02  0.8401879E-01
        1   -1    0    0  501    0  0.00000000000E+00  0.00000000000E+00  0.14336752610E+04  0.14336752610E+04  0.50400001928E-02 0. -1.
       -1   -1    0    0    0  501  0.00000000000E+00  0.00000000000E+00 -0.10925684090E+04  0.10925684090E+04  0.50400001928E-02 0.  1.
    10030    2    1    2    0    0  0.00000000000E+00  0.00000000000E+00  0.34110685199E+03  0.25262436700E+04  0.25031087064E+04 0.  0.
        3    1    3    3  502    0 -0.12146920584E+02  0.67610395579E+02  0.14317712573E+04  0.14334181723E+04  0.10100000352E+00 0. -1.
       -3    1    3    3    0  502  0.12146920584E+02 -0.67610395579E+02 -0.10906644053E+04  0.10928254977E+04  0.10100000352E+00 0.  1.
</event>
<event>
 5   0  0.1501747E-06  0.2496620E+04  0.7818609E-02  0.8404191E-01
       -1   -1    0    0    0  501  0.00000000000E+00  0.00000000000E+00  0.10584558492E+04  0.10584558492E+04  0.50400001928E-02 0. -1.
        1   -1    0    0  501    0  0.00000000000E+00  0.00000000000E+00 -0.14722183537E+04  0.14722183537E+04  0.50400001928E-02 0.  1.
    10030    2    1    2    0    0  0.00000000000E+00  0.00000000000E+00 -0.41376250452E+03  0.25306742029E+04  0.24966202176E+04 0.  0.
        2    1    3    3  502    0  0.23822009377E+02 -0.69567431855E+03 -0.12572333690E+04  0.14370685404E+04  0.25500000920E-02 0.  1.
       -2    1    3    3    0  502 -0.23822009377E+02  0.69567431855E+03  0.84347086453E+03  0.10936056625E+04  0.25500000920E-02 0. -1.
</event>
<event>
 5   0  0.3808293E-06  0.2511052E+04  0.7818609E-02  0.8399059E-01
        2   -1    0    0  501    0  0.00000000000E+00  0.00000000000E+00  0.18595241804E+04  0.18595241804E+04  0.25500000920E-02 0. -1.
       -2   -1    0    0    0  501  0.00000000000E+00  0.00000000000E+00 -0.84771465166E+03  0.84771465166E+03  0.25500000920E-02 0.  1.
    10030    2    1    2    0    0  0.00000000000E+00  0.00000000000E+00  0.10118095287E+04  0.27072388320E+04  0.25110522837E+04 0.  0.
        1    1    3    3  502    0 -0.10633398467E+04  0.29441626442E+03 -0.14004970161E+03  0.11121989414E+04  0.50400001928E-02 0.  1.
       -1    1    3    3    0  502  0.10633398467E+04 -0.29441626442E+03  0.11518592303E+04  0.15950398907E+04  0.50400001928E-02 0. -1.
</event>
<event>
 5   0  0.1519145E-06  0.2497326E+04  0.7818609E-02  0.8403939E-01
        1   -1    0    0  501    0  0.00000000000E+00  0.00000000000E+00  0.81165787881E+03  0.81165787883E+03  0.50400001928E-02 0. -1.
       -1   -1    0    0    0  501  0.00000000000E+00  0.00000000000E+00 -0.19209569666E+04  0.19209569667E+04  0.50400001928E-02 0.  1.
    10030    2    1    2    0    0  0.00000000000E+00  0.00000000000E+00 -0.11092990878E+04  0.27326148455E+04  0.24973264559E+04 0.  0.
        4    1    3    3  502    0  0.64889029825E+03 -0.35785287584E+03 -0.16543454164E+04  0.18127265843E+04  0.12699999809E+01 0.  1.
       -4    1    3    3    0  502 -0.64889029825E+03  0.35785287584E+03  0.54504632853E+03  0.91988826118E+03  0.12699999809E+01 0. -1.
</event>
<event>
 5   0  0.3808293E-06  0.2514664E+04  0.7818609E-02  0.8397780E-01
       -2   -1    0    0    0  501  0.00000000000E+00  0.00000000000E+00  0.15226233408E+04  0.15226233408E+04  0.25500000920E-02 0. -1.
        2   -1    0    0  501    0  0.00000000000E+00  0.00000000000E+00 -0.10382634786E+04  0.10382634786E+04  0.25500000920E-02 0.  1.
    10030    2    1    2    0    0  0.00000000000E+00  0.00000000000E+00  0.48435986228E+03  0.25608868194E+04  0.25146643564E+04 0.  0.
        1    1    3    3  502    0 -0.12286743027E+04 -0.85616360662E+02 -0.15278234116E+02  0.12317484028E+04  0.50400001928E-02 0.  1.
       -1    1    3    3    0  502  0.12286743027E+04  0.85616360662E+02  0.49963809639E+03  0.13291384166E+04  0.50400001928E-02 0. -1.
</event>
<event>
 5   0  0.1553604E-06  0.2497458E+04  0.7818609E-02  0.8403892E-01
       -1   -1    0    0    0  501  0.00000000000E+00  0.00000000000E+00  0.13735025393E+04  0.13735025393E+04  0.50400001928E-02 0. -1.
        1   -1    0    0  501    0  0.00000000000E+00  0.00000000000E+00 -0.11352902349E+04  0.11352902349E+04  0.50400001928E-02 0.  1.
    10030    2    1    2    0    0  0.00000000000E+00  0.00000000000E+00  0.23821230440E+03  0.25087927742E+04  0.24974579239E+04 0.  0.
        1    1    3    3  502    0  0.42131657067E+02 -0.22012920056E+02 -0.11343810209E+04  0.11353765656E+04  0.50400001928E-02 0.  1.
       -1    1    3    3    0  502 -0.42131657067E+02  0.22012920056E+02  0.13725933253E+04  0.13734162086E+04  0.50400001928E-02 0. -1.
</event>
<event>
 5   0  0.3971759E-06  0.2495443E+04  0.7818609E-02  0.8404611E-01
        2   -1    0    0  501    0  0.00000000000E+00  0.00000000000E+00  0.18708501052E+04  0.18708501052E+04  0.25500000920E-02 0. -1.
       -2   -1    0    0    0  501  0.00000000000E+00  0.00000000000E+00 -0.83213981716E+03  0.83213981717E+03  0.25500000920E-02 0.  1.
    10030    2    1    2    0    0  0.00000000000E+00  0.00000000000E+00  0.10387102881E+04  0.27029899224E+04  0.24954429382E+04 0.  0.
        4    1    3    3  502    0  0.51334089897E+03  0.56223352859E+03  0.15900962483E+04  0.17629614604E+04  0.12699999809E+01 0. -1.
       -4    1    3    3    0  502 -0.51334089897E+03 -0.56223352859E+03 -0.55138596025E+03  0.94002846195E+03  0.12699999809E+01 0.  1.
</event>
<event>
 5   0  0.1287375E-06  0.2503840E+04  0.7818609E-02  0.8401619E-01
       -3   -1    0    0    0  501  0.00000000000E+00  0.00000000000E+00  0.97531342114E+03  0.97531342637E+03  0.10100000352E+00 0.  1.
        3   -1    0    0  501    0  0.00000000000E+00  0.00000000000E+00 -0.16069745472E+04  0.16069745503E+04  0.10100000352E+00 0. -1.
    10030    2    1    2    0    0  0.00000000000E+00  0.00000000000E+00 -0.63166112603E+03  0.25822879767E+04  0.25038401340E+04 0.  0.
        1    1    3    3  502    0 -0.63369639627E+03  0.40457420854E+03 -0.13482194046E+04  0.15436796870E+04  0.50400001928E-02 0. -1.
       -1    1    3    3    0  502  0.63369639627E+03 -0.40457420854E+03  0.71655827861E+03  0.10386082897E+04  0.50400001928E-02 0.  1.
</event>
<event>
 5   0  0.3713394E-06  0.2521893E+04  0.7818609E-02  0.8395227E-01
        2   -1    0    0  501    0  0.00000000000E+00  0.00000000000E+00  0.22768450922E+04  0.22768450922E+04  0.25500000920E-02 0. -1.
       -2   -1    0    0    0  501  0.00000000000E+00  0.00000000000E+00 -0.69832856085E+03  0.69832856086E+03  0.25500000920E-02 0.  1.
    10030    2    1    2    0    0  0.00000000000E+00  0.00000000000E+00  0.15785165314E+04  0.29751736531E+04  0.25218929054E+04 0.  0.
        3    1    3    3  502    0  0.74992571095E+03 -0.36319708404E+03 -0.32725372462E+03  0.89520707340E+03  0.10100000352E+00 0.  1.
       -3    1    3    3    0  502 -0.74992571095E+03  0.36319708404E+03  0.19057702560E+04  0.20799665797E+04  0.10100000352E+00 0. -1.
</event>
<event>
 5   0  0.3924441E-06  0.2493473E+04  0.7818609E-02  0.8405315E-01
       -2   -1    0    0    0  501  0.00000000000E+00  0.00000000000E+00  0.76542791246E+03  0.76542791247E+03  0.25500000920E-02 0.  1.
        2   -1    0    0  501    0  0.00000000000E+00  0.00000000000E+00 -0.20306959246E+04  0.20306959246E+04  0.25500000920E-02 0. -1.
    10030    2    1    2    0    0  0.00000000000E+00  0.00000000000E+00 -0.12652680121E+04  0.27961238371E+04  0.24934725524E+04 0.  0.
        2    1    3    3  502    0 -0.85118724346E+03  0.47872418107E+03 -0.15017230554E+04  0.17913315439E+04  0.25500000920E-02 0. -1.
       -2    1    3    3    0  502  0.85118724346E+03 -0.47872418107E+03  0.23645504327E+03  0.10047922932E+04  0.25500000920E-02 0.  1.
</event>
<event>
 5   0  0.3808293E-06  0.2489590E+04  0.7818609E-02  0.8406703E-01
       -2   -1    0    0    0  501  0.00000000000E+00  0.00000000000E+00  0.13992181148E+04  0.13992181148E+04  0.25500000920E-02 0. -1.
        2   -1    0    0  501    0  0.00000000000E+00  0.00000000000E+00 -0.11074150586E+04  0.11074150586E+04  0.25500000920E-02 0.  1.
    10030    2    1    2    0    0  0.00000000000E+00  0.00000000000E+00  0.29180305619E+03  0.25066331733E+04  0.24895904968E+04 0.  0.
        1    1    3    3  502    0  0.51652814426E+03  0.41776056352E+03 -0.91401088518E+03  0.11299296927E+04  0.50400001928E-02 0.  1.
       -1    1    3    3    0  502 -0.51652814426E+03 -0.41776056352E+03  0.12058139414E+04  0.13767034806E+04  0.50400001928E-02 0. -1.
</event>
<event>
 5   0  0.1519145E-06  0.2501782E+04  0.7818609E-02  0.8402351E-01
        1   -1    0    0  501    0  0.00000000000E+00  0.00000000000E+00  0.16800414154E+04  0.16800414154E+04  0.50400001928E-02 0. -1.
       -1   -1    0    0    0  501  0.00000000000E+00  0.00000000000E+00 -0.93136307808E+03  0.93136307809E+03  0.50400001928E-02 0.  1.
    10030    2    1    2    0    0  0.00000000000E+00  0.00000000000E+00  0.74867833732E+03  0.26114044935E+04  0.25017821999E+04 0.  0.
        4    1    3    3  502    0 -0.40858498015E+03  0.10841557212E+04  0.86658704986E+03  0.14468275784E+04  0.12699999809E+01 0. -1.
       -4    1    3    3    0  502  0.40858498015E+03 -0.10841557212E+04 -0.11790871253E+03  0.11645769151E+04  0.12699999809E+01 0.  1.
</event>
<event>
 5   0  0.3924441E-06  0.2485447E+04  0.7818609E-02  0.8408189E-01
        2   -1    0    0  501    0  0.00000000000E+00  0.00000000000E+00  0.17788026449E+04  0.17788026449E+04  0.25500000920E-02 0. -1.
       -2   -1    0    0    0  501  0.00000000000E+00  0.00000000000E+00 -0.86820280175E+03  0.86820280175E+03  0.25500000920E-02 0.  1.
    10030    2    1    2    0    0  0.00000000000E+00  0.00000000000E+00  0.91059984320E+03  0.26470054467E+04  0.24854467929E+04 0.  0.
        2    1    3    3  502    0 -0.42921530823E+03 -0.32359330762E+03  0.16485882979E+04  0.17340074353E+04  0.25500000920E-02 0. -1.
       -2    1    3    3    0  502  0.42921530823E+03  0.32359330762E+03 -0.73798845472E+03  0.91299801142E+03  0.25500000920E-02 0.  1.
</event>
<event>
 5   0  0.1541852E-06  0.2507139E+04  0.7818609E-02  0.8400447E-01
       -1   -1    0    0    0  501  0.00000000000E+00  0.00000000000E+00  0.12287580832E+04  0.12287580832E+04  0.50400001928E-02 0.  1.
        1   -1    0    0  501    0  0.00000000000E+00  0.00000000000E+00 -0.12788817714E+04  0.12788817714E+04  0.50400001928E-02 0. -1.
    10030    2    1    2    0    0  0.00000000000E+00  0.00000000000E+00 -0.50123688196E+02  0.25076398546E+04  0.25071388586E+04 0.  0.
        5    1    3    3  502    0 -0.91220829896E+03  0.17939114848E+03  0.81600396040E+03  0.12370083744E+04  0.46999998093E+01 0.  1.
       -5    1    3    3    0  502  0.91220829896E+03 -0.17939114848E+03 -0.86612764860E+03  0.12706314802E+04  0.46999998093E+01 0. -1.
</event>
<event>
 5   0  0.1519145E-06  0.2502948E+04  0.7818609E-02  0.8401936E-01
        1   -1    0    0  501    0  0.00000000000E+00  0.00000000000E+00  0.14124681576E+04  0.14124681576E+04  0.50400001928E-02 0.  1.
       -1   -1    0    0    0  501  0.00000000000E+00  0.00000000000E+00 -0.11088302982E+04  0.11088302982E+04  0.50400001928E-02 0. -1.
    10030    2    1    2    0    0  0.00000000000E+00  0.00000000000E+00  0.30363785938E+03  0.25212984559E+04  0.25029482523E+04 0.  0.
        4    1    3    3  502    0 -0.14119791214E+03 -0.26844313653E+03 -0.10712437683E+04  0.11133568125E+04  0.12699999809E+01 0. -1.
       -4    1    3    3    0  502  0.14119791214E+03  0.26844313653E+03  0.13748816277E+04  0.14079416433E+04  0.12699999809E+01 0.  1.
</event>
<event>
 5   0  0.1501747E-06  0.2498432E+04  0.7818609E-02  0.8403544E-01
        1   -1    0    0  501    0  0.00000000000E+00  0.00000000000E+00  0.16329016151E+04  0.16329016151E+04  0.50400001928E-02 0. -1.
       -1   -1    0    0    0  501  0.00000000000E+00  0.00000000000E+00 -0.95568537816E+03  0.95568537817E+03  0.50400001928E-02 0.  1.
    10030    2    1    2    0    0  0.00000000000E+00  0.00000000000E+00  0.67721623693E+03  0.25885869933E+04  0.24984316661E+04 0.  0.
        2    1    3    3  502    0 -0.56099237210E+03 -0.10242139277E+04 -0.12103718463E+03  0.11740428490E+04  0.25500000920E-02 0.  1.
       -2    1    3    3    0  502  0.56099237210E+03  0.10242139277E+04  0.79825342156E+03  0.14145441443E+04  0.25500000920E-02 0. -1.
</event>
<event>
 5   0  0.1541852E-06  0.2496477E+04  0.7818609E-02  0.8404242E-01
        1   -1    0    0  501    0  0.00000000000E+00  0.00000000000E+00  0.99879839973E+03  0.99879839974E+03  0.50400001928E-02 0. -1.
       -1   -1    0    0    0  501  0.00000000000E+00  0.00000000000E+00 -0.15599738397E+04  0.15599738397E+04  0.50400001928E-02 0.  1.
    10030    2    1    2    0    0  0.00000000000E+00  0.00000000000E+00 -0.56117543998E+03  0.25587722395E+04  0.24964770175E+04 0.  0.
        5    1    3    3  502    0 -0.20835261526E+03  0.82544782301E+03 -0.12162203621E+04  0.14845837733E+04  0.46999998093E+01 0.  1.
       -5    1    3    3    0  502  0.20835261526E+03 -0.82544782301E+03  0.65504492212E+03  0.10741884661E+04  0.46999998093E+01 0. -1.
</event>
<event>
 5   0  0.3713394E-06  0.2500536E+04  0.7818609E-02  0.8402795E-01
       -2   -1    0    0    0  501  0.00000000000E+00  0.00000000000E+00  0.96655831777E+03  0.96655831778E+03  0.25500000920E-02 0.  1.
        2   -1    0    0  501    0  0.00000000000E+00  0.00000000000E+00 -0.16172535708E+04  0.16172535708E+04  0.25500000920E-02 0. -1.
    10030    2    1    2    0    0  0.00000000000E+00  0.00000000000E+00 -0.65069525301E+03  0.25838118886E+04  0.25005358552E+04 0.  0.
        3    1    3    3  502    0  0.92827929163E+03  0.83462722325E+03 -0.39741884881E+03  0.13100560281E+04  0.10100000352E+00 0. -1.
       -3    1    3    3    0  502 -0.92827929163E+03 -0.83462722325E+03 -0.25327640420E+03  0.12737558605E+04  0.10100000352E+00 0.  1.
</event>
<event>
 5   0  0.3971759E-06  0.2502385E+04  0.7818609E-02  0.8402136E-01
       -2   -1    0    0    0  501  0.00000000000E+00  0.00000000000E+00  0.17108183329E+04  0.17108183329E+04  0.25500000920E-02 0.  1.
        2   -1    0    0  501    0  0.00000000000E+00  0.00000000000E+00 -0.91504916908E+03  0.91504916909E+03  0.25500000920E-02 0. -1.
    10030    2    1    2    0    0  0.00000000000E+00  0.00000000000E+00  0.79576916378E+03  0.26258675019E+04  0.25023851773E+04 0.  0.
        4    1    3    3  502    0  0.11057245563E+04  0.53206150987E+03  0.14135217040E+03  0.12351916020E+04  0.12699999809E+01 0.  1.
       -4    1    3    3    0  502 -0.11057245563E+04 -0.53206150987E+03  0.65441699338E+03  0.13906759000E+04  0.12699999809E+01 0. -1.
</event>
<event>
 5   0  0.3814260E-06  0.2500463E+04  0.7818609E-02  0.8402821E-01
        2   -1    0    0  501    0  0.00000000000E+00  0.00000000000E+00  0.16022993251E+04  0.16022993251E+04  0.25500000920E-02 0.  1.
       -2   -1    0    0    0  501  0.00000000000E+00  0.00000000000E+00 -0.97552206866E+03  0.97552206867E+03  0.25500000920E-02 0. -1.
    10030    2    1    2    0    0  0.00000000000E+00  0.00000000000E+00  0.62677725646E+03  0.25778213938E+04  0.25004626390E+04 0.  0.
        5    1    3    3  502    0 -0.80551166645E+03  0.40085957456E+03 -0.58152166919E+03  0.10713202066E+04  0.46999998093E+01 0. -1.
       -5    1    3    3    0  502  0.80551166645E+03 -0.40085957456E+03  0.12082989257E+04  0.15065011872E+04  0.46999998093E+01 0.  1.
</event>
<event>
 5   0  0.1501747E-06  0.2499205E+04  0.7818609E-02  0.8403269E-01
       -1   -1    0    0    0  501  0.00000000000E+00  0.00000000000E+00  0.65073393785E+03  0.65073393787E+03  0.50400001928E-02 0.  1.
        1   -1    0    0  501    0  0.00000000000E+00  0.00000000000E+00 -0.23996076720E+04  0.23996076720E+04  0.50400001928E-02 0. -1.
    10030    2    1    2    0    0  0.00000000000E+00  0.00000000000E+00 -0.17488737342E+04  0.30503416099E+04  0.24992047933E+04 0.  0.
        2    1    3    3  502    0 -0.46292025593E+03  0.62028733648E+03 -0.20718299958E+04  0.22116805996E+04  0.25500000920E-02 0. -1.
       -2    1    3    3    0  502  0.46292025593E+03 -0.62028733648E+03  0.32295626168E+03  0.83866101025E+03  0.25500000920E-02 0.  1.
</event>
<event>
 5   0  0.1501747E-06  0.2503174E+04  0.7818609E-02  0.8401856E-01
        1   -1    0    0  501    0  0.00000000000E+00  0.00000000000E+00  0.22395852452E+04  0.22395852452E+04  0.50400001928E-02 0. -1.
       -1   -1    0    0    0  501  0.00000000000E+00  0.00000000000E+00 -0.69944669849E+03  0.69944669851E+03  0.50400001928E-02 0.  1.
    10030    2    1    2    0    0  0.00000000000E+00  0.00000000000E+00  0.15401385467E+04  0.29390319437E+04  0.25031743893E+04 0.  0.
        2    1    3    3  502    0 -0.68005673543E+03  0.43097620221E+03 -0.35503906510E+03  0.87992635375E+03  0.25500000920E-02 0.  1.
       -2    1    3    3    0  502  0.68005673543E+03 -0.43097620221E+03  0.18951776118E+04  0.20591055899E+04  0.25500000920E-02 0. -1.
</event>
<event>
 5   0  0.1287375E-06  0.2507764E+04  0.7818609E-02  0.8400225E-01
       -3   -1    0    0    0  501  0.00000000000E+00  0.00000000000E+00  0.11681235256E+04  0.11681235299E+04  0.10100000352E+00 0. -1.
        3   -1    0    0  501    0  0.00000000000E+00  0.00000000000E+00 -0.13459369919E+04  0.13459369957E+04  0.10100000352E+00 0.  1.
    10030    2    1    2    0    0  0.00000000000E+00  0.00000000000E+00 -0.17781346638E+03  0.25140605256E+04  0.25077644821E+04 0.  0.
        5    1    3    3  502    0  0.60868291455E+03 -0.37904006887E+03 -0.11200961548E+04  0.13299638154E+04  0.46999998093E+01 0.  1.
       -5    1    3    3    0  502 -0.60868291455E+03  0.37904006887E+03  0.94228268844E+03  0.11840967102E+04  0.46999998093E+01 0. -1.
</event>
<event>
 5   0  0.1287375E-06  0.2544996E+04  0.7818609E-02  0.8387128E-01
        3   -1    0    0  501    0  0.00000000000E+00  0.00000000000E+00  0.95811765103E+03  0.95811765635E+03  0.10100000352E+00 0. -1.
       -3   -1    0    0    0  501  0.00000000000E+00  0.00000000000E+00 -0.16900340971E+04  0.16900341001E+04  0.10100000352E+00 0.  1.
    10030    2    1    2    0    0  0.00000000000E+00  0.00000000000E+00 -0.73191644608E+03  0.26481517565E+04  0.25449962753E+04 0.  0.
        1    1    3    3  502    0  0.11700475176E+04 -0.38999329477E+03 -0.69193827021E+03  0.14141727381E+04  0.50400001928E-02 0.  1.
       -1    1    3    3    0  502 -0.11700475176E+04  0.38999329477E+03 -0.39978175871E+02  0.12339790184E+04  0.50400001928E-02 0. -1.
</event>
<event>
 5   0  0.1519145E-06  0.2507222E+04  0.7818609E-02  0.8400417E-01
        1   -1    0    0  501    0  0.00000000000E+00  0.00000000000E+00  0.15463024688E+04  0.15463024689E+04  0.50400001928E-02 0. -1.
       -1   -1    0    0    0  501  0.00000000000E+00  0.00000000000E+00 -0.10163212559E+04  0.10163212559E+04  0.50400001928E-02 0.  1.
    10030    2    1    2    0    0  0.00000000000E+00  0.00000000000E+00  0.52998121292E+03  0.25626237248E+04  0.25072216234E+04 0.  0.
        4    1    3    3  502    0  0.36588806598E+03 -0.32928370443E+03  0.14433920517E+04  0.15250193647E+04  0.12699999809E+01 0. -1.
       -4    1    3    3    0  502 -0.36588806598E+03  0.32928370443E+03 -0.91341083878E+03  0.10376043601E+04  0.12699999809E+01 0.  1.
</event>
<event>
 5   0  0.1553604E-06  0.2498112E+04  0.7818609E-02  0.8403658E-01
        1   -1    0    0  501    0  0.00000000000E+00  0.00000000000E+00  0.20139336389E+04  0.20139336389E+04  0.50400001928E-02 0.  1.
       -1   -1    0    0    0  501  0.00000000000E+00  0.00000000000E+00 -0.77467354217E+03  0.77467354219E+03  0.50400001928E-02 0. -1.
    10030    2    1    2    0    0  0.00000000000E+00  0.00000000000E+00  0.12392600967E+04  0.27886071811E+04  0.24981121718E+04 0.  0.
        1    1    3    3  502    0  0.11642373221E+04  0.44598734144E+03  0.53470530994E+03  0.13565629434E+04  0.50400001928E-02 0. -1.
       -1    1    3    3    0  502 -0.11642373221E+04 -0.44598734144E+03  0.70455478677E+03  0.14320442376E+04  0.50400001928E-02 0.  1.
</event>
<event>
 5   0  0.3971759E-06  0.2502861E+04  0.7818609E-02  0.8401967E-01
       -2   -1    0    0    0  501  0.00000000000E+00  0.00000000000E+00  0.16784790515E+04  0.16784790515E+04  0.25500000920E-02 0.  1.
        2   -1    0    0  501    0  0.00000000000E+00  0.00000000000E+00 -0.93303398431E+03  0.93303398431E+03  0.25500000920E-02 0. -1.
    10030    2    1    2    0    0  0.00000000000E+00  0.00000000000E+00  0.74544506717E+03  0.26115130358E+04  0.25028607608E+04 0.  0.
        4    1    3    3  502    0 -0.65489479733E+02 -0.11946931988E+04 -0.99344682795E+01  0.11965287367E+04  0.12699999809E+01 0. -1.
       -4    1    3    3    0  502  0.65489479733E+02  0.11946931988E+04  0.75537953545E+03  0.14149842991E+04  0.12699999809E+01 0.  1.
</event>
<event>
 5   0  0.3814260E-06  0.2500015E+04  0.7818609E-02  0.8402980E-01
       -2   -1    0    0    0  501  0.00000000000E+00  0.00000000000E+00  0.13304910941E+04  0.13304910941E+04  0.25500000920E-02 0.  1.
        2   -1    0    0  501    0  0.00000000000E+00  0.00000000000E+00 -0.11743922773E+04  0.11743922773E+04  0.25500000920E-02 0. -1.
    10030    2    1    2    0    0  0.00000000000E+00  0.00000000000E+00  0.15609881684E+03  0.25048833715E+04  0.25000147727E+04 0.  0.
        5    1    3    3  502    0 -0.32070543239E+03  0.54413792064E+03  0.11588336745E+04  0.13197937817E+04  0.46999998093E+01 0.  1.
       -5    1    3    3    0  502  0.32070543239E+03 -0.54413792064E+03 -0.10027348576E+04  0.11850895898E+04  0.46999998093E+01 0. -1.
</event>
<event>
 5   0  0.1541852E-06  0.2499267E+04  0.7818609E-02  0.8403247E-01
       -1   -1    0    0    0  501  0.00000000000E+00  0.00000000000E+00  0.76938212730E+03  0.76938212732E+03  0.50400001928E-02 0.  1.
        1   -1    0    0  501    0  0.00000000000E+00  0.00000000000E+00 -0.20296592365E+04  0.20296592365E+04  0.50400001928E-02 0. -1.
    10030    2    1    2    0    0  0.00000000000E+00  0.00000000000E+00 -0.12602771092E+04  0.27990413638E+04  0.24992667254E+04 0.  0.
        5    1    3    3  502    0 -0.59497158505E+03 -0.10716624583E+04 -0.90242536186E+03  0.15221186666E+04  0.46999998093E+01 0. -1.
       -5    1    3    3    0  502  0.59497158505E+03  0.10716624583E+04 -0.35785174734E+03  0.12769226972E+04  0.46999998093E+01 0.  1.
</event>
<event>
 5   0  0.3808293E-06  0.2501877E+04  0.7818609E-02  0.8402317E-01
       -2   -1    0    0    0  501  0.00000000000E+00  0.00000000000E+00  0.14566189104E+04  0.14566189104E+04  0.25500000920E-02 0. -1.
        2   -1    0    0  501    0  0.00000000000E+00  0.00000000000E+00 -0.10743011805E+04  0.10743011805E+04  0.25500000920E-02 0.  1.
    10030    2    1    2    0    0  0.00000000000E+00  0.00000000000E+00  0.38231772992E+03  0.25309200909E+04  0.25018772272E+04 0.  0.
        1    1    3    3  502    0 -0.73920615753E+03  0.95300340499E+03  0.52698571599E+03  0.13161896437E+04  0.50400001928E-02 0.  1.
       -1    1    3    3    0  502  0.73920615753E+03 -0.95300340499E+03 -0.14466798607E+03  0.12147304473E+04  0.50400001928E-02 0. -1.
</event>
<event>
 5   0  0.3924441E-06  0.2502783E+04  0.7818609E-02  0.8401995E-01
       -2   -1    0    0    0  501  0.00000000000E+00  0.00000000000E+00  0.18491141456E+04  0.18491141456E+04  0.25500000920E-02 0.  1.
        2   -1    0    0  501    0  0.00000000000E+00  0.00000000000E+00 -0.84688168357E+03  0.84688168357E+03  0.25500000920E-02 0. -1.
    10030    2    1    2    0    0  0.00000000000E+00  0.00000000000E+00  0.10022324620E+04  0.26959958292E+04  0.25027831714E+04 0.  0.
        2    1    3    3  502    0 -0.85955476237E+03  0.68261858113E+03  0.11484926338E+04  0.15886591348E+04  0.25500000920E-02 0.  1.
       -2    1    3    3    0  502  0.85955476237E+03 -0.68261858113E+03 -0.14626017173E+03  0.11073366944E+04  0.25500000920E-02 0. -1.
</event>
<event>
 5   0  0.3924441E-06  0.2563268E+04  0.7818609E-02  0.8380786E-01
       -2   -1    0    0    0  501  0.00000000000E+00  0.00000000000E+00  0.76389940376E+03  0.76389940376E+03  0.25500000920E-02 0.  1.
        2   -1    0    0  501    0  0.00000000000E+00  0.00000000000E+00 -0.21502651057E+04  0.21502651057E+04  0.25500000920E-02 0. -1.
    10030    2    1    2    0    0  0.00000000000E+00  0.00000000000E+00 -0.13863657019E+04  0.29141645095E+04  0.25632684075E+04 0.  0.
        2    1    3    3  502    0  0.19266253063E+03  0.78562736503E+03  0.43701619144E+03  0.91940870073E+03  0.25500000920E-02 0.  1.
       -2    1    3    3    0  502 -0.19266253063E+03 -0.78562736503E+03 -0.18233818934E+04  0.19947558087E+04  0.25500000920E-02 0. -1.
</event>
<event>
 5   0  0.1519145E-06  0.2501401E+04  0.7818609E-02  0.8402486E-01
        1   -1    0    0  501    0  0.00000000000E+00  0.00000000000E+00  0.13517770655E+04  0.13517770655E+04  0.50400001928E-02 0. -1.
       -1   -1    0    0    0  501  0.00000000000E+00  0.00000000000E+00 -0.11571821197E+04  0.11571821197E+04  0.50400001928E-02 0.  1.
    10030    2    1    2    0    0  0.00000000000E+00  0.00000000000E+00  0.19459494580E+03  0.25089591852E+04  0.25014014072E+04 0.  0.
        4    1    3    3  502    0  0.96032471213E+03 -0.21139761944E+03 -0.67791423991E+03  0.11943541501E+04  0.12699999809E+01 0.  1.
       -4    1    3    3    0  502 -0.96032471213E+03  0.21139761944E+03  0.87250918571E+03  0.13146050351E+04  0.12699999809E+01 0. -1.
</event>
<event>
 5   0  0.1553604E-06  0.2499549E+04  0.7818609E-02  0.8403146E-01
       -1   -1    0    0    0  501  0.00000000000E+00  0.00000000000E+00  0.13579308198E+04  0.13579308198E+04  0.50400001928E-02 0.  1.
        1   -1    0    0  501    0  0.00000000000E+00  0.00000000000E+00 -0.11502329387E+04  0.11502329387E+04  0.50400001928E-02 0. -1.
    10030    2    1    2    0    0  0.00000000000E+00  0.00000000000E+00  0.20769788111E+03  0.25081637585E+04  0.24995493653E+04 0.  0.
        1    1    3    3  502    0 -0.67442524100E+03  0.95536842018E+03 -0.33853156092E+03  0.12174489072E+04  0.50400001928E-02 0. -1.
       -1    1    3    3    0  502  0.67442524100E+03 -0.95536842018E+03  0.54622944203E+03  0.12907148513E+04  0.50400001928E-02 0.  1.
</event>
<event>
 5   0  0.3814260E-06  0.2497771E+04  0.7818609E-02  0.8403780E-01
        2   -1    0    0  501    0  0.00000000000E+00  0.00000000000E+00  0.11121905155E+04  0.11121905155E+04  0.25500000920E-02 0. -1.
       -2   -1    0    0    0  501  0.00000000000E+00  0.00000000000E+00 -0.14023813014E+04  0.14023813014E+04  0.25500000920E-02 0.  1.
    10030    2    1    2    0    0  0.00000000000E+00  0.00000000000E+00 -0.29019078596E+03  0.25145718169E+04  0.24977711525E+04 0.  0.
        5    1    3    3  502    0 -0.52649276891E+03  0.86810489915E+03  0.58704612803E+03  0.11727940988E+04  0.46999998093E+01 0. -1.
       -5    1    3    3    0  502  0.52649276891E+03 -0.86810489915E+03 -0.87723691399E+03  0.13417777181E+04  0.46999998093E+01 0.  1.
</event>
<event>
 5   0  0.1541852E-06  0.2499177E+04  0.7818609E-02  0.8403279E-01
        1   -1    0    0  501    0  0.00000000000E+00  0.00000000000E+00  0.19175445619E+04  0.19175445619E+04  0.50400001928E-02 0. -1.
       -1   -1    0    0    0  501  0.00000000000E+00  0.00000000000E+00 -0.81430808429E+03  0.81430808431E+03  0.50400001928E-02 0.  1.
    10030    2    1    2    0    0  0.00000000000E+00  0.00000000000E+00  0.11032364776E+04  0.27318526463E+04  0.24991774957E+04 0.  0.
        5    1    3    3  502    0  0.41170424196E+03  0.38878631894E+03 -0.66599719611E+03  0.87420223054E+03  0.46999998093E+01 0.  1.
       -5    1    3    3    0  502 -0.41170424196E+03 -0.38878631894E+03  0.17692336738E+04  0.18576504157E+04  0.46999998093E+01 0. -1.
</event>
<event>
 5   0  0.3924441E-06  0.2434587E+04  0.7818609E-02  0.8426667E-01
        2   -1    0    0  501    0  0.00000000000E+00  0.00000000000E+00  0.19399324425E+04  0.19399324425E+04  0.25500000920E-02 0.  1.
       -2   -1    0    0    0  501  0.00000000000E+00  0.00000000000E+00 -0.76384253871E+03  0.76384253871E+03  0.25500000920E-02 0. -1.
    10030    2    1    2    0    0  0.00000000000E+00  0.00000000000E+00  0.11760899038E+04  0.27037749812E+04  0.24345865537E+04 0.  0.
        2    1    3    3  502    0 -0.66174823949E+01  0.30648161605E+03 -0.72027261309E+03  0.78279461497E+03  0.25500000920E-02 0. -1.
       -2    1    3    3    0  502  0.66174823949E+01 -0.30648161605E+03  0.18963625169E+04  0.19209803662E+04  0.25500000920E-02 0.  1.
</event>
<event>
 5   0  0.3971759E-06  0.2498452E+04  0.7818609E-02  0.8403537E-01
       -2   -1    0    0    0  501  0.00000000000E+00  0.00000000000E+00  0.80471050061E+03  0.80471050061E+03  0.25500000920E-02 0. -1.
        2   -1    0    0  501    0  0.00000000000E+00  0.00000000000E+00 -0.19392883784E+04  0.19392883784E+04  0.25500000920E-02 0.  1.
    10030    2    1    2    0    0  0.00000000000E+00  0.00000000000E+00 -0.11345778778E+04  0.27439988790E+04  0.24984520983E+04 0.  0.
        4    1    3    3  502    0  0.96290715462E+03 -0.65608542129E+03 -0.72543750732E+02  0.11674341425E+04  0.12699999809E+01 0. -1.
       -4    1    3    3    0  502 -0.96290715462E+03  0.65608542129E+03 -0.10620341271E+04  0.15765647365E+04  0.12699999809E+01 0.  1.
</event>
<event>
 5   0  0.1519145E-06  0.2501957E+04  0.7818609E-02  0.8402289E-01
        1   -1    0    0  501    0  0.00000000000E+00  0.00000000000E+00  0.16003441436E+04  0.16003441436E+04  0.50400001928E-02 0. -1.
       -1   -1    0    0    0  501  0.00000000000E+00  0.00000000000E+00 -0.97788138888E+03  0.97788138890E+03  0.50400001928E-02 0.  1.
    10030    2    1    2    0    0  0.00000000000E+00  0.00000000000E+00  0.62246275475E+03  0.25782255325E+04  0.25019566374E+04 0.  0.
        4    1    3    3  502    0 -0.10665075937E+04 -0.40599397153E+03  0.83937371522E+03  0.14166225323E+04  0.12699999809E+01 0. -1.
       -4    1    3    3    0  502  0.10665075937E+04  0.40599397153E+03 -0.21691096048E+03  0.11616030002E+04  0.12699999809E+01 0.  1.
</event>
<event>
 5   0  0.3814260E-06  0.2497787E+04  0.7818609E-02  0.8403774E-01
       -2   -1    0    0    0  501  0.00000000000E+00  0.00000000000E+00  0.18007309829E+04  0.18007309829E+04  0.25500000920E-02 0. -1.
        2   -1    0    0  501    0  0.00000000000E+00  0.00000000000E+00 -0.86616795357E+03  0.86616795357E+03  0.25500000920E-02 0.  1.
    10030    2    1    2    0    0  0.00000000000E+00  0.00000000000E+00  0.93456302932E+03  0.26668989365E+04  0.24977873972E+04 0.  0.
        5    1    3    3  502    0 -0.97095931661E+03  0.54710748228E+03  0.10690206848E+04  0.15443172945E+04  0.46999998093E+01 0. -1.
       -5    1    3    3    0  502  0.97095931661E+03 -0.54710748228E+03 -0.13445765548E+03  0.11225816419E+04  0.46999998093E+01 0.  1.
</event>
<event>
 5   0  0.3713394E-06  0.2482607E+04  0.7818609E-02  0.8409208E-01
        2   -1    0    0  501    0  0.00000000000E+00  0.00000000000E+00  0.11112558704E+04  0.11112558704E+04  0.25500000920E-02 0. -1.
       -2   -1    0    0    0  501  0.00000000000E+00  0.00000000000E+00 -0.13865705096E+04  0.13865705096E+04  0.25500000920E-02 0.  1.
    10030    2    1    2    0    0  0.00000000000E+00  0.00000000000E+00 -0.27531463918E+03  0.24978263799E+04  0.24826071928E+04 0.  0.
        3    1    3    3  502    0 -0.25861205946E+03 -0.42667018691E+03 -0.12812460266E+04  0.13749614673E+04  0.10100000352E+00 0.  1.
       -3    1    3    3    0  502  0.25861205946E+03  0.42667018691E+03  0.10059313874E+04  0.11228649127E+04  0.10100000352E+00 0. -1.
</event>
<event>
 5   0  0.3971759E-06  0.2505640E+04  0.7818609E-02  0.8400979E-01
       -2   -1    0    0    0  501  0.00000000000E+00  0.00000000000E+00  0.13546698871E+04  0.13546698871E+04  0.25500000920E-02 0.  1.
        2   -1    0    0  501    0  0.00000000000E+00  0.00000000000E+00 -0.11586274508E+04  0.11586274508E+04  0.25500000920E-02 0. -1.
    10030    2    1    2    0    0  0.00000000000E+00  0.00000000000E+00  0.19604243622E+03  0.25132973379E+04  0.25056398129E+04 0.  0.
        4    1    3    3  502    0 -0.73264751220E+03 -0.10264706777E+03 -0.91613117034E+03  0.11775426667E+04  0.12699999809E+01 0. -1.
       -4    1    3    3    0  502  0.73264751220E+03  0.10264706777E+03  0.11121736066E+04  0.13357546712E+04  0.12699999809E+01 0.  1.
</event>
<event>
 5   0  0.1501747E-06  0.2504284E+04  0.7818609E-02  0.8401461E-01
       -1   -1    0    0    0  501  0.00000000000E+00  0.00000000000E+00  0.12539715322E+04  0.12539715322E+04  0.50400001928E-02 0.  1.
        1   -1    0    0  501    0  0.00000000000E+00  0.00000000000E+00 -0.12503155978E+04  0.12503155978E+04  0.50400001928E-02 0. -1.
    10030    2    1    2    0    0  0.00000000000E+00  0.00000000000E+00  0.36559344607E+01  0.25042871300E+04  0.25042844614E+04 0.  0.
        2    1    3    3  502    0 -0.42152820061E+03  0.57120579080E+03  0.10332834214E+04  0.12536493562E+04  0.25500000920E-02 0.  1.
       -2    1    3    3    0  502  0.42152820061E+03 -0.57120579080E+03 -0.10296274870E+04  0.12506377738E+04  0.25500000920E-02 0. -1.
</event>
<event>
 5   0  0.3814260E-06  0.2494817E+04  0.7818609E-02  0.8404834E-01
        2   -1    0    0  501    0  0.00000000000E+00  0.00000000000E+00  0.10120406997E+04  0.10120406997E+04  0.25500000920E-02 0. -1.
       -2   -1    0    0    0  501  0.00000000000E+00  0.00000000000E+00 -0.15375152929E+04  0.15375152929E+04  0.25500000920E-02 0.  1.
    10030    2    1    2    0    0  0.00000000000E+00  0.00000000000E+00 -0.52547459319E+03  0.25495559925E+04  0.24948170696E+04 0.  0.
        5    1    3    3  502    0 -0.12439612281E+04  0.66707139527E+02 -0.19716894029E+03  0.12612640725E+04  0.46999998093E+01 0. -1.
       -5    1    3    3    0  502  0.12439612281E+04 -0.66707139527E+02 -0.32830565290E+03  0.12882919200E+04  0.46999998093E+01 0.  1.
</event>
<event>
 5   0  0.1541852E-06  0.2496769E+04  0.7818609E-02  0.8404137E-01
        1   -1    0    0  501    0  0.00000000000E+00  0.00000000000E+00  0.12175822562E+04  0.12175822563E+04  0.50400001928E-02 0. -1.
       -1   -1    0    0    0  501  0.00000000000E+00  0.00000000000E+00 -0.12799664738E+04  0.12799664738E+04  0.50400001928E-02 0.  1.
    10030    2    1    2    0    0  0.00000000000E+00  0.00000000000E+00 -0.62384217515E+02  0.24975487300E+04  0.24967694864E+04 0.  0.
        5    1    3    3  502    0  0.43024163954E+03 -0.10931241324E+04  0.39133069964E+03  0.12382205150E+04  0.46999998093E+01 0. -1.
       -5    1    3    3    0  502 -0.43024163954E+03  0.10931241324E+04 -0.45371491716E+03  0.12593282151E+04  0.46999998093E+01 0.  1.
</event>
<event>
 5   0  0.3971759E-06  0.2493416E+04  0.7818609E-02  0.8405335E-01
       -2   -1    0    0    0  501  0.00000000000E+00  0.00000000000E+00  0.11485021839E+04  0.11485021839E+04  0.25500000920E-02 0. -1.
        2   -1    0    0  501    0  0.00000000000E+00  0.00000000000E+00 -0.13533116861E+04  0.13533116861E+04  0.25500000920E-02 0.  1.
    10030    2    1    2    0    0  0.00000000000E+00  0.00000000000E+00 -0.20480950219E+03  0.25018138700E+04  0.24934164730E+04 0.  0.
        4    1    3    3  502    0  0.92930295236E+03  0.85028270574E+02 -0.93189690818E+03  0.13188128163E+04  0.12699999809E+01 0.  1.
       -4    1    3    3    0  502 -0.92930295236E+03 -0.85028270574E+02  0.72708740599E+03  0.11830010536E+04  0.12699999809E+01 0. -1.
</event>
<event>
 5   0  0.1553604E-06  0.2511186E+04  0.7818609E-02  0.8399011E-01
       -1   -1    0    0    0  501  0.00000000000E+00  0.00000000000E+00  0.91830896750E+03  0.91830896751E+03  0.50400001928E-02 0.  1.
        1   -1    0    0  501    0  0.00000000000E+00  0.00000000000E+00 -0.17167571187E+04  0.17167571187E+04  0.50400001928E-02 0. -1.
    10030    2    1    2    0    0  0.00000000000E+00  0.00000000000E+00 -0.79844815122E+03  0.26350660862E+04  0.25111857416E+04 0.  0.
        1    1    3    3  502    0 -0.88587520136E+03 -0.47637405996E+03 -0.11878343959E+04  0.15564888915E+04  0.50400001928E-02 0. -1.
       -1    1    3    3    0  502  0.88587520136E+03  0.47637405996E+03  0.38938624467E+03  0.10785771947E+04  0.50400001928E-02 0.  1.
</event>
<event>
 5   0  0.3814260E-06  0.2501410E+04  0.7818609E-02  0.8402484E-01
       -2   -1    0    0    0  501  0.00000000000E+00  0.00000000000E+00  0.63094582849E+03  0.63094582849E+03  0.25500000920E-02 0. -1.
        2   -1    0    0  501    0  0.00000000000E+00  0.00000000000E+00 -0.24792343454E+04  0.24792343454E+04  0.25500000920E-02 0.  1.
    10030    2    1    2    0    0  0.00000000000E+00  0.00000000000E+00 -0.18482885170E+04  0.31101801739E+04  0.25014096571E+04 0.  0.
        5    1    3    3  502    0  0.71997932867E+03 -0.98207438933E+03 -0.56940169699E+03  0.13442770259E+04  0.46999998093E+01 0. -1.
       -5    1    3    3    0  502 -0.71997932867E+03  0.98207438933E+03 -0.12788868200E+04  0.17659031480E+04  0.46999998093E+01 0.  1.
</event>
<event>
 5   0  0.1541852E-06  0.2512893E+04  0.7818609E-02  0.8398407E-01
        1   -1    0    0  501    0  0.00000000000E+00  0.00000000000E+00  0.99209326237E+03  0.99209326238E+03  0.50400001928E-02 0.  1.
       -1   -1    0    0    0  501  0.00000000000E+00  0.00000000000E+00 -0.15912395997E+04  0.15912395997E+04  0.50400001928E-02 0. -1.
    10030    2    1    2    0    0  0.00000000000E+00  0.00000000000E+00 -0.59914633733E+03  0.25833328621E+04  0.25128932215E+04 0.  0.
        5    1    3    3  502    0  0.85887265222E+03  0.63218049833E+03 -0.98251531663E+03  0.14500596031E+04  0.46999998093E+01 0.  1.
       -5    1    3    3    0  502 -0.85887265222E+03 -0.63218049833E+03  0.38336897930E+03  0.11332732590E+04  0.46999998093E+01 0. -1.
</event>
<event>
 5   0  0.1541852E-06  0.2496946E+04  0.7818609E-02  0.8404074E-01
        1   -1    0    0  501    0  0.00000000000E+00  0.00000000000E+00  0.23331416502E+04  0.23331416502E+04  0.50400001928E-02 0. -1.
       -1   -1    0    0    0  501  0.00000000000E+00  0.00000000000E+00 -0.66806245596E+03  0.66806245597E+03  0.50400001928E-02 0.  1.
    10030    2    1    2    0    0  0.00000000000E+00  0.00000000000E+00  0.16650791942E+04  0.30012041061E+04  0.24969456069E+04 0.  0.
        5    1    3    3  502    0 -0.86862497332E+03 -0.80913241150E+03  0.12972105455E+04  0.17584032225E+04  0.46999998093E+01 0. -1.
       -5    1    3    3    0  502  0.86862497332E+03  0.80913241150E+03  0.36786864869E+03  0.12428008836E+04  0.46999998093E+01 0.  1.
</event>
<event>
 5   0  0.3814260E-06  0.2494523E+04  0.7818609E-02  0.8404939E-01
       -2   -1    0    0    0  501  0.00000000000E+00  0.00000000000E+00  0.10441339372E+04  0.10441339372E+04  0.25500000920E-02 0.  1.
        2   -1    0    0  501    0  0.00000000000E+00  0.00000000000E+00 -0.14899060718E+04  0.14899060718E+04  0.25500000920E-02 0. -1.
    10030    2    1    2    0    0  0.00000000000E+00  0.00000000000E+00 -0.44577213460E+03  0.25340400090E+04  0.24945231952E+04 0.  0.
        5    1    3    3  502    0 -0.67618051193E+03  0.57351522635E+03 -0.11139936128E+04  0.14237779528E+04  0.46999998093E+01 0. -1.
       -5    1    3    3    0  502  0.67618051193E+03 -0.57351522635E+03  0.66822147816E+03  0.11102620562E+04  0.46999998093E+01 0.  1.
</event>
<event>
 5   0  0.1519145E-06  0.2493654E+04  0.7818609E-02  0.8405250E-01
        1   -1    0    0  501    0  0.00000000000E+00  0.00000000000E+00  0.17005169837E+04  0.17005169837E+04  0.50400001928E-02 0.  1.
       -1   -1    0    0    0  501  0.00000000000E+00  0.00000000000E+00 -0.91417962445E+03  0.91417962447E+03  0.50400001928E-02 0. -1.
    10030    2    1    2    0    0  0.00000000000E+00  0.00000000000E+00  0.78633735921E+03  0.26146966081E+04  0.24936543285E+04 0.  0.
        4    1    3    3  502    0  0.70032897611E+02  0.51144962166E+03  0.15831998372E+04  0.16652353166E+04  0.12699999809E+01 0.  1.
       -4    1    3    3    0  502 -0.70032897611E+02 -0.51144962166E+03 -0.79686247804E+03  0.94946129149E+03  0.12699999809E+01 0. -1.
</event>
<event>
 5   0  0.1519145E-06  0.2489853E+04  0.7818609E-02  0.8406609E-01
        1   -1    0    0  501    0  0.00000000000E+00  0.00000000000E+00  0.28757310114E+04  0.28757310114E+04  0.50400001928E-02 0.  1.
       -1   -1    0    0    0  501  0.00000000000E+00  0.00000000000E+00 -0.53893855272E+03  0.53893855274E+03  0.50400001928E-02 0. -1.
    10030    2    1    2    0    0  0.00000000000E+00  0.00000000000E+00  0.23367924586E+04  0.34146695641E+04  0.24898532562E+04 0.  0.
        4    1    3    3  502    0  0.79401352044E+03  0.52877143115E+03  0.71434139724E+02  0.95664055227E+03  0.12699999809E+01 0. -1.
       -4    1    3    3    0  502 -0.79401352044E+03 -0.52877143115E+03  0.22653583189E+04  0.24580290118E+04  0.12699999809E+01 0.  1.
</event>
<event>
 5   0  0.1541852E-06  0.2498751E+04  0.7818609E-02  0.8403431E-01
       -1   -1    0    0    0  501  0.00000000000E+00  0.00000000000E+00  0.12374380352E+04  0.12374380352E+04  0.50400001928E-02 0.  1.
        1   -1    0    0  501    0  0.00000000000E+00  0.00000000000E+00 -0.12614280940E+04  0.12614280940E+04  0.50400001928E-02 0. -1.
    10030    2    1    2    0    0  0.00000000000E+00  0.00000000000E+00 -0.23990058769E+02  0.24988661292E+04  0.24987509698E+04 0.  0.
        5    1    3    3  502    0  0.75106405654E+03  0.77451892690E+03  0.61806593223E+03  0.12433842414E+04  0.46999998093E+01 0.  1.
       -5    1    3    3    0  502 -0.75106405654E+03 -0.77451892690E+03 -0.64205599100E+03  0.12554818879E+04  0.46999998093E+01 0. -1.
</event>
<event>
 5   0  0.1519145E-06  0.2502150E+04  0.7818609E-02  0.8402220E-01
       -1   -1    0    0    0  501  0.00000000000E+00  0.00000000000E+00  0.13037450887E+04  0.13037450887E+04  0.50400001928E-02 0.  1.
        1   -1    0    0  501    0  0.00000000000E+00  0.00000000000E+00 -0.12005323283E+04  0.12005323283E+04  0.50400001928E-02 0. -1.
    10030    2    1    2    0    0  0.00000000000E+00  0.00000000000E+00  0.10321276042E+03  0.25042774170E+04  0.25021495773E+04 0.  0.
        4    1    3    3  502    0 -0.34876542839E+03  0.17581976172E+03 -0.11379482627E+04  0.12031117047E+04  0.12699999809E+01 0. -1.
       -4    1    3    3    0  502  0.34876542839E+03 -0.17581976172E+03  0.12411610231E+04  0.13011657123E+04  0.12699999809E+01 0.  1.
</event>
<event>
 5   0  0.1519145E-06  0.2502925E+04  0.7818609E-02  0.8401944E-01
        1   -1    0    0  501    0  0.00000000000E+00  0.00000000000E+00  0.15936139662E+04  0.15936139662E+04  0.50400001928E-02 0. -1.
       -1   -1    0    0    0  501  0.00000000000E+00  0.00000000000E+00 -0.98277168500E+03  0.98277168501E+03  0.50400001928E-02 0.  1.
    10030    2    1    2    0    0  0.00000000000E+00  0.00000000000E+00  0.61084228121E+03  0.25763856512E+04  0.25029252349E+04 0.  0.
        4    1    3    3  502    0  0.58978045917E+03  0.10990885596E+04  0.20085004923E+03  0.12633997811E+04  0.12699999809E+01 0.  1.
       -4    1    3    3    0  502 -0.58978045917E+03 -0.10990885596E+04  0.40999223198E+03  0.13129858701E+04  0.12699999809E+01 0. -1.
</event>
<event>
 5   0  0.1519145E-06  0.2497429E+04  0.7818609E-02  0.8403902E-01
       -1   -1    0    0    0  501  0.00000000000E+00  0.00000000000E+00  0.74525523232E+03  0.74525523234E+03  0.50400001928E-02 0. -1.
        1   -1    0    0  501    0  0.00000000000E+00  0.00000000000E+00 -0.20922878140E+04  0.20922878140E+04  0.50400001928E-02 0.  1.
    10030    2    1    2    0    0  0.00000000000E+00  0.00000000000E+00 -0.13470325817E+04  0.28375430464E+04  0.24974294312E+04 0.  0.
        4    1    3    3  502    0 -0.30932127812E+03  0.80236491432E+03 -0.17022616371E+04  0.19071353919E+04  0.12699999809E+01 0.  1.
       -4    1    3    3    0  502  0.30932127812E+03 -0.80236491432E+03  0.35522905542E+03  0.93040765449E+03  0.12699999809E+01 0. -1.
</event>
<event>
 5   0  0.1553604E-06  0.2497250E+04  0.7818609E-02  0.8403966E-01
       -1   -1    0    0    0  501  0.00000000000E+00  0.00000000000E+00  0.18019066129E+04  0.18019066129E+04  0.50400001928E-02 0. -1.
        1   -1    0    0  501    0  0.00000000000E+00  0.00000000000E+00 -0.86523049496E+03  0.86523049498E+03  0.50400001928E-02 0.  1.
    10030    2    1    2    0    0  0.00000000000E+00  0.00000000000E+00  0.93667611795E+03  0.26671371079E+04  0.24972501281E+04 0.  0.
        1    1    3    3  502    0 -0.85937948878E+03 -0.58267555110E+03 -0.27240084866E+03  0.10734272802E+04  0.50400001928E-02 0.  1.
       -1    1    3    3    0  502  0.85937948878E+03  0.58267555110E+03  0.12090769666E+04  0.15937098277E+04  0.50400001928E-02 0. -1.
</event>
<event>
 5   0  0.3924441E-06  0.2500734E+04  0.7818609E-02  0.8402724E-01
        2   -1    0    0  501    0  0.00000000000E+00  0.00000000000E+00  0.11832372622E+04  0.11832372622E+04  0.25500000920E-02 0. -1.
       -2   -1    0    0    0  501  0.00000000000E+00  0.00000000000E+00 -0.13213051566E+04  0.13213051566E+04  0.25500000920E-02 0.  1.
    10030    2    1    2    0    0  0.00000000000E+00  0.00000000000E+00 -0.13806789439E+03  0.25045424188E+04  0.25007338891E+04 0.  0.
        2    1    3    3  502    0 -0.49532303102E+03  0.64977973887E+03 -0.10169736515E+04  0.13045282756E+04  0.25500000920E-02 0.  1.
       -2    1    3    3    0  502  0.49532303102E+03 -0.64977973887E+03  0.87890575708E+03  0.12000141432E+04  0.25500000920E-02 0. -1.
</event>
<event>
 5   0  0.1553604E-06  0.2494922E+04  0.7818609E-02  0.8404797E-01
       -1   -1    0    0    0  501  0.00000000000E+00  0.00000000000E+00  0.78997559386E+03  0.78997559388E+03  0.50400001928E-02 0. -1.
        1   -1    0    0  501    0  0.00000000000E+00  0.00000000000E+00 -0.19698816128E+04  0.19698816128E+04  0.50400001928E-02 0.  1.
    10030    2    1    2    0    0  0.00000000000E+00  0.00000000000E+00 -0.11799060190E+04  0.27598572067E+04  0.24949215595E+04 0.  0.
        1    1    3    3  502    0 -0.87986602269E+03  0.88308332539E+03 -0.64134049862E+03  0.14018980037E+04  0.50400001928E-02 0. -1.
       -1    1    3    3    0  502  0.87986602269E+03 -0.88308332539E+03 -0.53856552036E+03  0.13579592031E+04  0.50400001928E-02 0.  1.
</event>
<event>
 5   0  0.1553604E-06  0.2501494E+04  0.7818609E-02  0.8402454E-01
       -1   -1    0    0    0  501  0.00000000000E+00  0.00000000000E+00  0.12781769918E+04  0.12781769918E+04  0.50400001928E-02 0.  1.
        1   -1    0    0  501    0  0.00000000000E+00  0.00000000000E+00 -0.12239052956E+04  0.12239052956E+04  0.50400001928E-02 0. -1.
    10030    2    1    2    0    0  0.00000000000E+00  0.00000000000E+00  0.54271696183E+02  0.25020822874E+04  0.25014936250E+04 0.  0.
        1    1    3    3  502    0  0.89393184596E+03  0.86434950681E+03  0.16190201107E+03  0.12539643043E+04  0.50400001928E-02 0. -1.
       -1    1    3    3    0  502 -0.89393184596E+03 -0.86434950681E+03 -0.10763031489E+03  0.12481179831E+04  0.50400001928E-02 0.  1.
</event>
<event>
 5   0  0.3814260E-06  0.2521920E+04  0.7818609E-02  0.8395218E-01
        2   -1    0    0  501    0  0.00000000000E+00  0.00000000000E+00  0.25426943587E+04  0.25426943587E+04  0.25500000920E-02 0. -1.
       -2   -1    0    0    0  501  0.00000000000E+00  0.00000000000E+00 -0.62532887125E+03  0.62532887126E+03  0.25500000920E-02 0.  1.
    10030    2    1    2    0    0  0.00000000000E+00  0.00000000000E+00  0.19173654875E+04  0.31680232300E+04  0.25219200568E+04 0.  0.
        5    1    3    3  502    0 -0.10481986343E+04  0.33747229653E+03  0.17303895610E+04  0.20510675393E+04  0.46999998093E+01 0. -1.
       -5    1    3    3    0  502  0.10481986343E+04 -0.33747229653E+03  0.18697592648E+03  0.11169556907E+04  0.46999998093E+01 0.  1.
</event>
<event>
 5   0  0.1501747E-06  0.2469943E+04  0.7818609E-02  0.8413772E-01
       -1   -1    0    0    0  501  0.00000000000E+00  0.00000000000E+00  0.87519901710E+03  0.87519901712E+03  0.50400001928E-02 0.  1.
        1   -1    0    0  501    0  0.00000000000E+00  0.00000000000E+00 -0.17426380620E+04  0.17426380620E+04  0.50400001928E-02 0. -1.
    10030    2    1    2    0    0  0.00000000000E+00  0.00000000000E+00 -0.86743904487E+03  0.26178370791E+04  0.24699434156E+04 0.  0.
        2    1    3    3  502    0  0.91486481458E+03  0.48813747027E+03 -0.11446273065E+04  0.15444829198E+04  0.25500000920E-02 0. -1.
       -2    1    3    3    0  502 -0.91486481458E+03 -0.48813747027E+03  0.27718826163E+03  0.10733541593E+04  0.25500000920E-02 0.  1.
</event>
<event>
 5   0  0.1574896E-06  0.2533168E+04  0.7818609E-02  0.8391264E-01
       -1   -1    0    0    0  501  0.00000000000E+00  0.00000000000E+00  0.31669657394E+04  0.31669657394E+04  0.50400001928E-02 0. -1.
        1   -1    0    0  501    0  0.00000000000E+00  0.00000000000E+00 -0.50655280856E+03  0.50655280858E+03  0.50400001928E-02 0.  1.
    10030    2    1    2    0    0  0.00000000000E+00  0.00000000000E+00  0.26604129309E+04  0.36735185480E+04  0.25331682849E+04 0.  0.
        3    1    3    3  502    0 -0.29566475813E+03 -0.12308878532E+04  0.12698400545E+04  0.17930410844E+04  0.10100000352E+00 0.  1.
       -3    1    3    3    0  502  0.29566475813E+03  0.12308878532E+04  0.13905728764E+04  0.18804774636E+04  0.10100000352E+00 0. -1.
</event>
<event>
 5   0  0.1519145E-06  0.2498892E+04  0.7818609E-02  0.8403380E-01
        1   -1    0    0  501    0  0.00000000000E+00  0.00000000000E+00  0.16846822119E+04  0.16846822119E+04  0.50400001928E-02 0.  1.
       -1   -1    0    0    0  501  0.00000000000E+00  0.00000000000E+00 -0.92665280585E+03  0.92665280587E+03  0.50400001928E-02 0. -1.
    10030    2    1    2    0    0  0.00000000000E+00  0.00000000000E+00  0.75802940609E+03  0.26113350178E+04  0.24988921535E+04 0.  0.
        4    1    3    3  502    0  0.85335267389E+03  0.24315034148E+03 -0.54021513530E+03  0.10388295721E+04  0.12699999809E+01 0. -1.
       -4    1    3    3    0  502 -0.85335267389E+03 -0.24315034148E+03  0.12982445414E+04  0.15725054457E+04  0.12699999809E+01 0.  1.
</event>
<event>
 5   0  0.1519145E-06  0.2501331E+04  0.7818609E-02  0.8402512E-01
       -1   -1    0    0    0  501  0.00000000000E+00  0.00000000000E+00  0.14861536607E+04  0.14861536607E+04  0.50400001928E-02 0. -1.
        1   -1    0    0  501    0  0.00000000000E+00  0.00000000000E+00 -0.10524913270E+04  0.10524913270E+04  0.50400001928E-02 0.  1.
    10030    2    1    2    0    0  0.00000000000E+00  0.00000000000E+00  0.43366233367E+03  0.25386449877E+04  0.25013307166E+04 0.  0.
        4    1    3    3  502    0 -0.11978204215E+04 -0.31405713566E+02  0.58050913686E+03  0.13314475401E+04  0.12699999809E+01 0. -1.
       -4    1    3    3    0  502  0.11978204215E+04  0.31405713566E+02 -0.14684680320E+03  0.12071974476E+04  0.12699999809E+01 0.  1.
</event>
<event>
 5   0  0.3971759E-06  0.2504129E+04  0.7818609E-02  0.8401516E-01
       -2   -1    0    0    0  501  0.00000000000E+00  0.00000000000E+00  0.97057001542E+03  0.97057001542E+03  0.25500000920E-02 0.  1.
        2   -1    0    0  501    0  0.00000000000E+00  0.00000000000E+00 -0.16152003012E+04  0.16152003012E+04  0.25500000920E-02 0. -1.
    10030    2    1    2    0    0  0.00000000000E+00  0.00000000000E+00 -0.64463028575E+03  0.25857703166E+04  0.25041285759E+04 0.  0.
        4    1    3    3  502    0  0.16238384147E+03 -0.76424253897E+03 -0.13325935323E+04  0.15447466801E+04  0.12699999809E+01 0. -1.
       -4    1    3    3    0  502 -0.16238384147E+03  0.76424253897E+03  0.68796324654E+03  0.10410236365E+04  0.12699999809E+01 0.  1.
</event>
<event>
 5   0  0.1287375E-06  0.2489523E+04  0.7818609E-02  0.8406727E-01
        3   -1    0    0  501    0  0.00000000000E+00  0.00000000000E+00  0.86577776130E+03  0.86577776719E+03  0.10100000352E+00 0. -1.
       -3   -1    0    0    0  501  0.00000000000E+00  0.00000000000E+00 -0.17896412825E+04  0.17896412854E+04  0.10100000352E+00 0.  1.
    10030    2    1    2    0    0  0.00000000000E+00  0.00000000000E+00 -0.92386352122E+03  0.26554190526E+04  0.24895233558E+04 0.  0.
        5    1    3    3  502    0 -0.10764148666E+03  0.67559414072E+03  0.64726635559E+03  0.94180144282E+03  0.46999998093E+01 0. -1.
       -5    1    3    3    0  502  0.10764148666E+03 -0.67559414072E+03 -0.15711298768E+04  0.17136176097E+04  0.46999998093E+01 0.  1.
</event>
<event>
 5   0  0.1574896E-06  0.2552672E+04  0.7818609E-02  0.8384457E-01
        1   -1    0    0  501    0  0.00000000000E+00  0.00000000000E+00  0.13805316181E+04  0.13805316181E+04  0.50400001928E-02 0. -1.
       -1   -1    0    0    0  501  0.00000000000E+00  0.00000000000E+00 -0.11800048265E+04  0.11800048265E+04  0.50400001928E-02 0.  1.
    10030    2    1    2    0    0  0.00000000000E+00  0.00000000000E+00  0.20052679167E+03  0.25605364446E+04  0.25526723037E+04 0.  0.
        3    1    3    3  502    0 -0.10353882193E+03 -0.71808038396E+03  0.11535814038E+04  0.13627581557E+04  0.10100000352E+00 0. -1.
       -3    1    3    3    0  502  0.10353882193E+03  0.71808038396E+03 -0.95305461214E+03  0.11977782889E+04  0.10100000352E+00 0.  1.
</event>
<event>
 5   0  0.3924441E-06  0.2485270E+04  0.7818609E-02  0.8408252E-01
       -2   -1    0    0    0  501  0.00000000000E+00  0.00000000000E+00  0.90898747822E+03  0.90898747822E+03  0.25500000920E-02 0.  1.
        2   -1    0    0  501    0  0.00000000000E+00  0.00000000000E+00 -0.16987485250E+04  0.16987485250E+04  0.25500000920E-02 0. -1.
    10030    2    1    2    0    0  0.00000000000E+00  0.00000000000E+00 -0.78976104675E+03  0.26077360032E+04  0.24852695128E+04 0.  0.
        2    1    3    3  502    0  0.44958814416E+03  0.85230915729E+03  0.42837118769E+03  0.10545436328E+04  0.25500000920E-02 0.  1.
       -2    1    3    3    0  502 -0.44958814416E+03 -0.85230915729E+03 -0.12181322344E+04  0.15531923704E+04  0.25500000920E-02 0. -1.
</event>
<event>
 5   0  0.3814260E-06  0.2502325E+04  0.7818609E-02  0.8402158E-01
       -2   -1    0    0    0  501  0.00000000000E+00  0.00000000000E+00  0.82721196034E+03  0.82721196034E+03  0.25500000920E-02 0. -1.
        2   -1    0    0  501    0  0.00000000000E+00  0.00000000000E+00 -0.18923902898E+04  0.18923902898E+04  0.25500000920E-02 0.  1.
    10030    2    1    2    0    0  0.00000000000E+00  0.00000000000E+00 -0.10651783295E+04  0.27196022502E+04  0.25023252238E+04 0.  0.
        5    1    3    3  502    0 -0.79227128964E+03  0.37619359526E+03 -0.15023500089E+04  0.17396244011E+04  0.46999998093E+01 0. -1.
       -5    1    3    3    0  502  0.79227128964E+03 -0.37619359526E+03  0.43717167940E+03  0.97997784912E+03  0.46999998093E+01 0.  1.
</event>
<event>
 5   0  0.3713394E-06  0.2505087E+04  0.7818609E-02  0.8401176E-01
       -2   -1    0    0    0  501  0.00000000000E+00  0.00000000000E+00  0.11117725958E+04  0.11117725958E+04  0.25500000920E-02 0.  1.
        2   -1    0    0  501    0  0.00000000000E+00  0.00000000000E+00 -0.14111382793E+04  0.14111382793E+04  0.25500000920E-02 0. -1.
    10030    2    1    2    0    0  0.00000000000E+00  0.00000000000E+00 -0.29936568350E+03  0.25229108750E+04  0.25050867192E+04 0.  0.
        3    1    3    3  502    0 -0.49886614829E+03  0.10668209289E+04  0.27983794612E+03  0.12104889981E+04  0.10100000352E+00 0.  1.
       -3    1    3    3    0  502  0.49886614829E+03 -0.10668209289E+04 -0.57920362962E+03  0.13124218769E+04  0.10100000352E+00 0. -1.
</event>
<event>
 5   0  0.1501747E-06  0.2494291E+04  0.7818609E-02  0.8405022E-01
       -1   -1    0    0    0  501  0.00000000000E+00  0.00000000000E+00  0.94115800660E+03  0.94115800662E+03  0.50400001928E-02 0.  1.
        1   -1    0    0  501    0  0.00000000000E+00  0.00000000000E+00 -0.16526151980E+04  0.16526151981E+04  0.50400001928E-02 0. -1.
    10030    2    1    2    0    0  0.00000000000E+00  0.00000000000E+00 -0.71145719144E+03  0.25937732047E+04  0.24942911021E+04 0.  0.
        2    1    3    3  502    0  0.17264702522E+02  0.53614928550E+03  0.81506150956E+03  0.97574555632E+03  0.25500000920E-02 0.  1.
       -2    1    3    3    0  502 -0.17264702522E+02 -0.53614928550E+03 -0.15265187010E+04  0.16180276483E+04  0.25500000920E-02 0. -1.
</event>
<event>
 5   0  0.3713394E-06  0.2493217E+04  0.7818609E-02  0.8405406E-01
       -2   -1    0    0    0  501  0.00000000000E+00  0.00000000000E+00  0.13352852701E+04  0.13352852701E+04  0.25500000920E-02 0. -1.
        2   -1    0    0  501    0  0.00000000000E+00  0.00000000000E+00 -0.11638207111E+04  0.11638207111E+04  0.25500000920E-02 0.  1.
    10030    2    1    2    0    0  0.00000000000E+00  0.00000000000E+00  0.17146455902E+03  0.24991059812E+04  0.24932169200E+04 0.  0.
        3    1    3    3  502    0 -0.86440786475E+03 -0.41093928295E+03 -0.71487868654E+03  0.11946227846E+04  0.10100000352E+00 0.  1.
       -3    1    3    3    0  502  0.86440786475E+03  0.41093928295E+03  0.88634324556E+03  0.13044831965E+04  0.10100000352E+00 0. -1.
</event>
<event>
 5   0  0.1541852E-06  0.2500591E+04  0.7818609E-02  0.8402775E-01
        1   -1    0    0  501    0  0.00000000000E+00  0.00000000000E+00  0.13802541842E+04  0.13802541842E+04  0.50400001928E-02 0.  1.
       -1   -1    0    0    0  501  0.00000000000E+00  0.00000000000E+00 -0.11325727595E+04  0.11325727595E+04  0.50400001928E-02 0. -1.
    10030    2    1    2    0    0  0.00000000000E+00  0.00000000000E+00  0.24768142472E+03  0.25128269438E+04  0.25005905625E+04 0.  0.
        5    1    3    3  502    0  0.37246123495E+03  0.72549010092E+03 -0.82850611828E+03  0.11625436491E+04  0.46999998093E+01 0. -1.
       -5    1    3    3    0  502 -0.37246123495E+03 -0.72549010092E+03  0.10761875430E+04  0.13502832946E+04  0.46999998093E+01 0.  1.
</event>
<event>
 5   0  0.1574896E-06  0.2498234E+04  0.7818609E-02  0.8403615E-01
        1   -1    0    0  501    0  0.00000000000E+00  0.00000000000E+00  0.11917856883E+04  0.11917856883E+04  0.50400001928E-02 0.  1.
       -1   -1    0    0    0  501  0.00000000000E+00  0.00000000000E+00 -0.13092066502E+04  0.13092066502E+04  0.50400001928E-02 0. -1.
    10030    2    1    2    0    0  0.00000000000E+00  0.00000000000E+00 -0.11742096188E+03  0.25009923385E+04  0.24982343755E+04 0.  0.
        3    1    3    3  502    0  0.91902116858E+02  0.10537403884E+04 -0.72388280878E+03  0.12817258429E+04  0.10100000352E+00 0. -1.
       -3    1    3    3    0  502 -0.91902116858E+02 -0.10537403884E+04  0.60646184689E+03  0.12192664956E+04  0.10100000352E+00 0.  1.
</event>
<event>
 5   0  0.1519145E-06  0.2498619E+04  0.7818609E-02  0.8403478E-01
       -1   -1    0    0    0  501  0.00000000000E+00  0.00000000000E+00  0.99096521849E+03  0.99096521850E+03  0.50400001928E-02 0. -1.
        1   -1    0    0  501    0  0.00000000000E+00  0.00000000000E+00 -0.15750039185E+04  0.15750039185E+04  0.50400001928E-02 0.  1.
    10030    2    1    2    0    0  0.00000000000E+00  0.00000000000E+00 -0.58403870000E+03  0.25659691370E+04  0.24986189003E+04 0.  0.
        4    1    3    3  502    0  0.25803342370E+03  0.66665236013E+03  0.76017903916E+03  0.10434943227E+04  0.12699999809E+01 0. -1.
       -4    1    3    3    0  502 -0.25803342370E+03 -0.66665236013E+03 -0.13442177392E+04  0.15224748143E+04  0.12699999809E+01 0.  1.
</event>
<event>
 5   0  0.3971759E-06  0.2499957E+04  0.7818609E-02  0.8403001E-01
        2   -1    0    0  501    0  0.00000000000E+00  0.00000000000E+00  0.19829073700E+04  0.19829073700E+04  0.25500000920E-02 0.  1.
       -2   -1    0    0    0  501  0.00000000000E+00  0.00000000000E+00 -0.78795696568E+03  0.78795696569E+03  0.25500000920E-02 0. -1.
    10030    2    1    2    0    0  0.00000000000E+00  0.00000000000E+00  0.11949504043E+04  0.27708643357E+04  0.24999565392E+04 0.  0.
        4    1    3    3  502    0 -0.20967853304E+03  0.11224341259E+04  0.11611315051E+04  0.16285120323E+04  0.12699999809E+01 0.  1.
       -4    1    3    3    0  502  0.20967853304E+03 -0.11224341259E+04  0.33818899270E+02  0.11423523034E+04  0.12699999809E+01 0. -1.
</event>
<event>
 5   0  0.1519145E-06  0.2500694E+04  0.7818609E-02  0.8402738E-01
       -1   -1    0    0    0  501  0.00000000000E+00  0.00000000000E+00  0.12652228248E+04  0.12652228248E+04  0.50400001928E-02 0.  1.
        1   -1    0    0  501    0  0.00000000000E+00  0.00000000000E+00 -0.12356456327E+04  0.12356456327E+04  0.50400001928E-02 0. -1.
    10030    2    1    2    0    0  0.00000000000E+00  0.00000000000E+00  0.29577192103E+02  0.25008684575E+04  0.25006935501E+04 0.  0.
        4    1    3    3  502    0 -0.42368481375E+03 -0.40903312746E+03  0.11178383273E+04  0.12634797425E+04  0.12699999809E+01 0.  1.
       -4    1    3    3    0  502  0.42368481375E+03  0.40903312746E+03 -0.10882611352E+04  0.12373887150E+04  0.12699999809E+01 0. -1.
</event>
<event>
 5   0  0.1287375E-06  0.2502620E+04  0.7818609E-02  0.8402053E-01
       -4   -1    0    0    0  501  0.00000000000E+00  0.00000000000E+00  0.12619469993E+04  0.12619476384E+04  0.12699999809E+01 0. -1.
        4   -1    0    0  501    0  0.00000000000E+00  0.00000000000E+00 -0.12407617740E+04  0.12407624239E+04  0.12699999809E+01 0.  1.
    10030    2    1    2    0    0  0.00000000000E+00  0.00000000000E+00  0.21185225343E+02  0.25027100623E+04  0.25026203951E+04 0.  0.
        5    1    3    3  502    0 -0.90528108920E+03  0.15051417285E+03  0.86125036087E+03  0.12585557758E+04  0.46999998093E+01 0. -1.
       -5    1    3    3    0  502  0.90528108920E+03 -0.15051417285E+03 -0.84006513553E+03  0.12441542865E+04  0.46999998093E+01 0.  1.
</event>
<event>
 5   0  0.1574896E-06  0.2504286E+04  0.7818609E-02  0.8401460E-01
        1   -1    0    0  501    0  0.00000000000E+00  0.00000000000E+00  0.17591487617E+04  0.17591487617E+04  0.50400001928E-02 0.  1.
       -1   -1    0    0    0  501  0.00000000000E+00  0.00000000000E+00 -0.89126154621E+03  0.89126154623E+03  0.50400001928E-02 0. -1.
    10030    2    1    2    0    0  0.00000000000E+00  0.00000000000E+00  0.86788721550E+03  0.26504103079E+04  0.25042856430E+04 0.  0.
        3    1    3    3  502    0  0.13521810901E+02 -0.16307224557E+03 -0.87989711683E+03  0.89498287305E+03  0.10100000352E+00 0. -1.
       -3    1    3    3    0  502 -0.13521810901E+02  0.16307224557E+03  0.17477843323E+04  0.17554274349E+04  0.10100000352E+00 0.  1.
</event>
<event>
 5   0  0.3924441E-06  0.2499322E+04  0.7818609E-02  0.8403227E-01
        2   -1    0    0  501    0  0.00000000000E+00  0.00000000000E+00  0.22145804453E+04  0.22145804453E+04  0.25500000920E-02 0. -1.
       -2   -1    0    0    0  501  0.00000000000E+00  0.00000000000E+00 -0.70516855652E+03  0.70516855653E+03  0.25500000920E-02 0.  1.
    10030    2    1    2    0    0  0.00000000000E+00  0.00000000000E+00  0.15094118888E+04  0.29197490019E+04  0.24993219048E+04 0.  0.
        2    1    3    3  502    0 -0.12070135935E+04  0.78181538166E+02  0.11216418400E+04  0.16495679995E+04  0.25500000920E-02 0. -1.
       -2    1    3    3    0  502  0.12070135935E+04 -0.78181538166E+02  0.38777004884E+03  0.12701810023E+04  0.25500000920E-02 0.  1.
</event>
<event>
 5   0  0.3971759E-06  0.2457709E+04  0.7818609E-02  0.8418209E-01
       -2   -1    0    0    0  501  0.00000000000E+00  0.00000000000E+00  0.10027661025E+04  0.10027661025E+04  0.25500000920E-02 0.  1.
        2   -1    0    0  501    0  0.00000000000E+00  0.00000000000E+00 -0.15059178285E+04  0.15059178285E+04  0.25500000920E-02 0. -1.
    10030    2    1    2    0    0  0.00000000000E+00  0.00000000000E+00 -0.50315172601E+03  0.25086839310E+04  0.24577089751E+04 0.  0.
        4    1    3    3  502    0 -0.87177152938E+03  0.86343173172E+03 -0.32066866268E+03  0.12681994949E+04  0.12699999809E+01 0. -1.
       -4    1    3    3    0  502  0.87177152938E+03 -0.86343173172E+03 -0.18248306333E+03  0.12404844360E+04  0.12699999809E+01 0.  1.
</event>
<event>
 5   0  0.3924441E-06  0.2499625E+04  0.7818609E-02  0.8403119E-01
        2   -1    0    0  501    0  0.00000000000E+00  0.00000000000E+00  0.10472196848E+04  0.10472196848E+04  0.25500000920E-02 0. -1.
       -2   -1    0    0    0  501  0.00000000000E+00  0.00000000000E+00 -0.14915984463E+04  0.14915984463E+04  0.25500000920E-02 0.  1.
    10030    2    1    2    0    0  0.00000000000E+00  0.00000000000E+00 -0.44437876148E+03  0.25388181311E+04  0.24996249757E+04 0.  0.
        2    1    3    3  502    0 -0.11051958735E+04 -0.37038671276E+03 -0.68024514352E+03  0.13495842660E+04  0.25500000920E-02 0.  1.
       -2    1    3    3    0  502  0.11051958735E+04  0.37038671276E+03  0.23586638204E+03  0.11892338651E+04  0.25500000920E-02 0. -1.
</event>
<event>
 5   0  0.1519145E-06  0.2501597E+04  0.7818609E-02  0.8402417E-01
        1   -1    0    0  501    0  0.00000000000E+00  0.00000000000E+00  0.14056603556E+04  0.14056603556E+04  0.50400001928E-02 0.  1.
       -1   -1    0    0    0  501  0.00000000000E+00  0.00000000000E+00 -0.11129973601E+04  0.11129973601E+04  0.50400001928E-02 0. -1.
    10030    2    1    2    0    0  0.00000000000E+00  0.00000000000E+00  0.29266299550E+03  0.25186577157E+04  0.25015965022E+04 0.  0.
        4    1    3    3  502    0  0.68809878864E+03  0.87803722412E+03 -0.42327012119E+03  0.11931422875E+04  0.12699999809E+01 0. -1.
       -4    1    3    3    0  502 -0.68809878864E+03 -0.87803722412E+03  0.71593311669E+03  0.13255154282E+04  0.12699999809E+01 0.  1.
</event>
<event>
 5   0  0.3814260E-06  0.2502220E+04  0.7818609E-02  0.8402195E-01
       -2   -1    0    0    0  501  0.00000000000E+00  0.00000000000E+00  0.68409934398E+03  0.68409934399E+03  0.25500000920E-02 0. -1.
        2   -1    0    0  501    0  0.00000000000E+00  0.00000000000E+00 -0.22880826860E+04  0.22880826860E+04  0.25500000920E-02 0.  1.
    10030    2    1    2    0    0  0.00000000000E+00  0.00000000000E+00 -0.16039833420E+04  0.29721820300E+04  0.25022197062E+04 0.  0.
        5    1    3    3  502    0  0.11207239992E+04 -0.69038881464E+02 -0.14574102390E+04  0.18397976368E+04  0.46999998093E+01 0.  1.
       -5    1    3    3    0  502 -0.11207239992E+04  0.69038881464E+02 -0.14657310295E+03  0.11323843932E+04  0.46999998093E+01 0. -1.
</event>
<event>
 5   0  0.1501747E-06  0.2500664E+04  0.7818609E-02  0.8402749E-01
       -1   -1    0    0    0  501  0.00000000000E+00  0.00000000000E+00  0.12908822570E+04  0.12908822570E+04  0.50400001928E-02 0. -1.
        1   -1    0    0  501    0  0.00000000000E+00  0.00000000000E+00 -0.12110552895E+04  0.12110552895E+04  0.50400001928E-02 0.  1.
    10030    2    1    2    0    0  0.00000000000E+00  0.00000000000E+00  0.79826967470E+02  0.25019375465E+04  0.25006637403E+04 0.  0.
        2    1    3    3  502    0  0.17637488957E+03  0.33289926894E+03  0.12327454984E+04  0.12890273421E+04  0.25500000920E-02 0. -1.
       -2    1    3    3    0  502 -0.17637488957E+03 -0.33289926894E+03 -0.11529185309E+04  0.12129102044E+04  0.25500000920E-02 0.  1.
</event>
<event>
 5   0  0.1553604E-06  0.2499921E+04  0.7818609E-02  0.8403014E-01
        1   -1    0    0  501    0  0.00000000000E+00  0.00000000000E+00  0.23085690352E+04  0.23085690352E+04  0.50400001928E-02 0.  1.
       -1   -1    0    0    0  501  0.00000000000E+00  0.00000000000E+00 -0.67678330591E+03  0.67678330592E+03  0.50400001928E-02 0. -1.
    10030    2    1    2    0    0  0.00000000000E+00  0.00000000000E+00  0.16317857293E+04  0.29853523411E+04  0.24999207856E+04 0.  0.
        1    1    3    3  502    0  0.25832334690E+03 -0.35586009780E+03  0.22131502217E+04  0.22564133630E+04  0.50400001928E-02 0.  1.
       -1    1    3    3    0  502 -0.25832334690E+03  0.35586009780E+03 -0.58136449243E+03  0.72893897813E+03  0.50400001928E-02 0. -1.
</event>
<event>
 5   0  0.1541852E-06  0.2503840E+04  0.7818609E-02  0.8401619E-01
        1   -1    0    0  501    0  0.00000000000E+00  0.00000000000E+00  0.95956189609E+03  0.95956189610E+03  0.50400001928E-02 0.  1.
       -1   -1    0    0    0  501  0.00000000000E+00  0.00000000000E+00 -0.16333535189E+04  0.16333535189E+04  0.50400001928E-02 0. -1.
    10030    2    1    2    0    0  0.00000000000E+00  0.00000000000E+00 -0.67379162277E+03  0.25929154150E+04  0.25038400904E+04 0.  0.
        5    1    3    3  502    0 -0.87591656770E+03  0.53277870369E+03 -0.10809254329E+04  0.14898002759E+04  0.46999998093E+01 0. -1.
       -5    1    3    3    0  502  0.87591656770E+03 -0.53277870369E+03  0.40713381011E+03  0.11031151391E+04  0.46999998093E+01 0.  1.
</event>
<event>
 5   0  0.1519145E-06  0.2496253E+04  0.7818609E-02  0.8404322E-01
       -1   -1    0    0    0  501  0.00000000000E+00  0.00000000000E+00  0.12107074358E+04  0.12107074358E+04  0.50400001928E-02 0.  1.
        1   -1    0    0  501    0  0.00000000000E+00  0.00000000000E+00 -0.12867017423E+04  0.12867017423E+04  0.50400001928E-02 0. -1.
    10030    2    1    2    0    0  0.00000000000E+00  0.00000000000E+00 -0.75994306499E+02  0.24974091781E+04  0.24962526852E+04 0.  0.
        4    1    3    3  502    0 -0.88364071683E+03 -0.76156536635E+03 -0.48206654379E+03  0.12622172908E+04  0.12699999809E+01 0.  1.
       -4    1    3    3    0  502  0.88364071683E+03  0.76156536635E+03  0.40607223729E+03  0.12351918873E+04  0.12699999809E+01 0. -1.
</event>
<event>
 5   0  0.3808293E-06  0.2500847E+04  0.7818609E-02  0.8402684E-01
       -2   -1    0    0    0  501  0.00000000000E+00  0.00000000000E+00  0.64300991745E+03  0.64300991745E+03  0.25500000920E-02 0.  1.
        2   -1    0    0  501    0  0.00000000000E+00  0.00000000000E+00 -0.24316245561E+04  0.24316245561E+04  0.25500000920E-02 0. -1.
    10030    2    1    2    0    0  0.00000000000E+00  0.00000000000E+00 -0.17886146387E+04  0.30746344736E+04  0.25008468207E+04 0.  0.
        1    1    3    3  502    0  0.11236516050E+04  0.43547079821E+02 -0.22196196194E+03  0.11461921262E+04  0.50400001928E-02 0. -1.
       -1    1    3    3    0  502 -0.11236516050E+04 -0.43547079821E+02 -0.15666526767E+04  0.19284423474E+04  0.50400001928E-02 0.  1.
</event>
<event>
 5   0  0.1553604E-06  0.2496883E+04  0.7818609E-02  0.8404097E-01
        1   -1    0    0  501    0  0.00000000000E+00  0.00000000000E+00  0.14149246434E+04  0.14149246434E+04  0.50400001928E-02 0.  1.
       -1   -1    0    0    0  501  0.00000000000E+00  0.00000000000E+00 -0.11015475632E+04  0.11015475632E+04  0.50400001928E-02 0. -1.
    10030    2    1    2    0    0  0.00000000000E+00  0.00000000000E+00  0.31337708021E+03  0.25164722066E+04  0.24968834919E+04 0.  0.
        1    1    3    3  502    0 -0.15221709397E+03  0.10930152794E+03 -0.10872921914E+04  0.11033227892E+04  0.50400001928E-02 0. -1.
       -1    1    3    3    0  502  0.15221709397E+03 -0.10930152794E+03  0.14006692716E+04  0.14131494174E+04  0.50400001928E-02 0.  1.
</event>
<event>
 5   0  0.3713394E-06  0.2500224E+04  0.7818609E-02  0.8402906E-01
        2   -1    0    0  501    0  0.00000000000E+00  0.00000000000E+00  0.12214862957E+04  0.12214862957E+04  0.25500000920E-02 0.  1.
       -2   -1    0    0    0  501  0.00000000000E+00  0.00000000000E+00 -0.12794089169E+04  0.12794089169E+04  0.25500000920E-02 0. -1.
    10030    2    1    2    0    0  0.00000000000E+00  0.00000000000E+00 -0.57922621188E+02  0.25008952127E+04  0.25002243569E+04 0.  0.
        3    1    3    3  502    0  0.98369069380E+03  0.23779322130E+03 -0.76304340119E+03  0.12674495017E+04  0.10100000352E+00 0. -1.
       -3    1    3    3    0  502 -0.98369069380E+03 -0.23779322130E+03  0.70512078000E+03  0.12334457109E+04  0.10100000352E+00 0.  1.
</event>
<event>
 5   0  0.3713394E-06  0.2495446E+04  0.7818609E-02  0.8404610E-01
       -2   -1    0    0    0  501  0.00000000000E+00  0.00000000000E+00  0.13637124991E+04  0.13637124991E+04  0.25500000920E-02 0.  1.
        2   -1    0    0  501    0  0.00000000000E+00  0.00000000000E+00 -0.11415991157E+04  0.11415991157E+04  0.25500000920E-02 0. -1.
    10030    2    1    2    0    0  0.00000000000E+00  0.00000000000E+00  0.22211338339E+03  0.25053116147E+04  0.24954462390E+04 0.  0.
        3    1    3    3  502    0 -0.93751793925E+03  0.72549452362E+03 -0.27975177760E+03  0.12180079053E+04  0.10100000352E+00 0. -1.
       -3    1    3    3    0  502  0.93751793925E+03 -0.72549452362E+03  0.50186516099E+03  0.12873037094E+04  0.10100000352E+00 0.  1.
</event>
<event>
 5   0  0.3808293E-06  0.2501433E+04  0.7818609E-02  0.8402475E-01
        2   -1    0    0  501    0  0.00000000000E+00  0.00000000000E+00  0.13776019054E+04  0.13776019054E+04  0.25500000920E-02 0. -1.
       -2   -1    0    0    0  501  0.00000000000E+00  0.00000000000E+00 -0.11355184480E+04  0.11355184480E+04  0.25500000920E-02 0.  1.
    10030    2    1    2    0    0  0.00000000000E+00  0.00000000000E+00  0.24208345737E+03  0.25131203535E+04  0.25014334912E+04 0.  0.
        1    1    3    3  502    0  0.45510733310E+02  0.33975497791E+03  0.13294862917E+04  0.13729670322E+04  0.50400001928E-02 0. -1.
       -1    1    3    3    0  502 -0.45510733310E+02 -0.33975497791E+03 -0.10874028343E+04  0.11401533212E+04  0.50400001928E-02 0.  1.
</event>
<event>
 5   0  0.3814260E-06  0.2472933E+04  0.7818609E-02  0.8412692E-01
        2   -1    0    0  501    0  0.00000000000E+00  0.00000000000E+00  0.11964850742E+04  0.11964850742E+04  0.25500000920E-02 0. -1.
       -2   -1    0    0    0  501  0.00000000000E+00  0.00000000000E+00 -0.12777841109E+04  0.12777841109E+04  0.25500000920E-02 0.  1.
    10030    2    1    2    0    0  0.00000000000E+00  0.00000000000E+00 -0.81299036777E+02  0.24742691851E+04  0.24729331708E+04 0.  0.
        5    1    3    3  502    0  0.35325415240E+03  0.60504571611E+02 -0.12246646191E+04  0.12760387214E+04  0.46999998093E+01 0.  1.
       -5    1    3    3    0  502 -0.35325415240E+03 -0.60504571611E+02  0.11433655823E+04  0.11982304637E+04  0.46999998093E+01 0. -1.
</event>
<event>
 5   0  0.1541852E-06  0.2496521E+04  0.7818609E-02  0.8404226E-01
       -1   -1    0    0    0  501  0.00000000000E+00  0.00000000000E+00  0.16893522465E+04  0.16893522465E+04  0.50400001928E-02 0.  1.
        1   -1    0    0  501    0  0.00000000000E+00  0.00000000000E+00 -0.92233864968E+03  0.92233864970E+03  0.50400001928E-02 0. -1.
    10030    2    1    2    0    0  0.00000000000E+00  0.00000000000E+00  0.76701359685E+03  0.26116908962E+04  0.24965214759E+04 0.  0.
        5    1    3    3  502    0  0.47106430777E+03 -0.11537284131E+04  0.45852216846E+03  0.13278763128E+04  0.46999998093E+01 0.  1.
       -5    1    3    3    0  502 -0.47106430777E+03  0.11537284131E+04  0.30849142839E+03  0.12838145834E+04  0.46999998093E+01 0. -1.
</event>
<event>
 5   0  0.3713394E-06  0.2499278E+04  0.7818609E-02  0.8403243E-01
        2   -1    0    0  501    0  0.00000000000E+00  0.00000000000E+00  0.11647634476E+04  0.11647634476E+04  0.25500000920E-02 0.  1.
       -2   -1    0    0    0  501  0.00000000000E+00  0.00000000000E+00 -0.13406988456E+04  0.13406988456E+04  0.25500000920E-02 0. -1.
    10030    2    1    2    0    0  0.00000000000E+00  0.00000000000E+00 -0.17593539799E+03  0.25054622932E+04  0.24992775032E+04 0.  0.
        3    1    3    3  502    0 -0.80658779170E+03  0.45660625816E+03 -0.92820881652E+03  0.13117334935E+04  0.10100000352E+00 0. -1.
       -3    1    3    3    0  502  0.80658779170E+03 -0.45660625816E+03  0.75227341853E+03  0.11937287997E+04  0.10100000352E+00 0.  1.
</event>
<event>
 5   0  0.1501747E-06  0.2499503E+04  0.7818609E-02  0.8403163E-01
       -1   -1    0    0    0  501  0.00000000000E+00  0.00000000000E+00  0.10709025503E+04  0.10709025504E+04  0.50400001928E-02 0. -1.
        1   -1    0    0  501    0  0.00000000000E+00  0.00000000000E+00 -0.14584697533E+04  0.14584697533E+04  0.50400001928E-02 0.  1.
    10030    2    1    2    0    0  0.00000000000E+00  0.00000000000E+00 -0.38756720299E+03  0.25293723037E+04  0.24995031334E+04 0.  0.
        2    1    3    3  502    0 -0.10798161337E+04 -0.15283722054E+03  0.42385161631E+03  0.11700479867E+04  0.25500000920E-02 0. -1.
       -2    1    3    3    0  502  0.10798161337E+04  0.15283722054E+03 -0.81141881929E+03  0.13593243170E+04  0.25500000920E-02 0.  1.
</event>
<event>
 5   0  0.1553604E-06  0.2499662E+04  0.7818609E-02  0.8403106E-01
        1   -1    0    0  501    0  0.00000000000E+00  0.00000000000E+00  0.26286100978E+04  0.26286100978E+04  0.50400001928E-02 0.  1.
       -1   -1    0    0    0  501  0.00000000000E+00  0.00000000000E+00 -0.59426000583E+03  0.59426000585E+03  0.50400001928E-02 0. -1.
    10030    2    1    2    0    0  0.00000000000E+00  0.00000000000E+00  0.20343500920E+04  0.32228701037E+04  0.24996622589E+04 0.  0.
        1    1    3    3  502    0 -0.95762414357E+02  0.47869748108E+03 -0.46624950184E+03  0.67506319437E+03  0.50400001928E-02 0. -1.
       -1    1    3    3    0  502  0.95762414357E+02 -0.47869748108E+03  0.25005995939E+04  0.25478069093E+04  0.50400001928E-02 0.  1.
</event>
<event>
 5   0  0.1574896E-06  0.2498462E+04  0.7818609E-02  0.8403533E-01
       -1   -1    0    0    0  501  0.00000000000E+00  0.00000000000E+00  0.95345258278E+03  0.95345258279E+03  0.50400001928E-02 0. -1.
        1   -1    0    0  501    0  0.00000000000E+00  0.00000000000E+00 -0.16367659373E+04  0.16367659373E+04  0.50400001928E-02 0.  1.
    10030    2    1    2    0    0  0.00000000000E+00  0.00000000000E+00 -0.68331335447E+03  0.25902185201E+04  0.24984624955E+04 0.  0.
        3    1    3    3  502    0 -0.33985256492E+03  0.63856554634E+03 -0.13975461870E+04  0.15736585011E+04  0.10100000352E+00 0.  1.
       -3    1    3    3    0  502  0.33985256492E+03 -0.63856554634E+03  0.71423283258E+03  0.10165600190E+04  0.10100000352E+00 0. -1.
</event>
<event>
 5   0  0.1574896E-06  0.2518081E+04  0.7818609E-02  0.8396572E-01
        1   -1    0    0  501    0  0.00000000000E+00  0.00000000000E+00  0.15262393905E+04  0.15262393905E+04  0.50400001928E-02 0.  1.
       -1   -1    0    0    0  501  0.00000000000E+00  0.00000000000E+00 -0.10386198082E+04  0.10386198082E+04  0.50400001928E-02 0. -1.
    10030    2    1    2    0    0  0.00000000000E+00  0.00000000000E+00  0.48761958224E+03  0.25648591987E+04  0.25180805889E+04 0.  0.
        3    1    3    3  502    0  0.56246494395E+03  0.52968618042E+03  0.12563841310E+04  0.14749357131E+04  0.10100000352E+00 0.  1.
       -3    1    3    3    0  502 -0.56246494395E+03 -0.52968618042E+03 -0.76876454877E+03  0.10899234856E+04  0.10100000352E+00 0. -1.
</event>
<event>
 5   0  0.3924441E-06  0.2499166E+04  0.7818609E-02  0.8403283E-01
       -2   -1    0    0    0  501  0.00000000000E+00  0.00000000000E+00  0.10204395741E+04  0.10204395741E+04  0.25500000920E-02 0. -1.
        2   -1    0    0  501    0  0.00000000000E+00  0.00000000000E+00 -0.15301810025E+04  0.15301810025E+04  0.25500000920E-02 0.  1.
    10030    2    1    2    0    0  0.00000000000E+00  0.00000000000E+00 -0.50974142847E+03  0.25506205766E+04  0.24991656611E+04 0.  0.
        2    1    3    3  502    0  0.34789981711E+03 -0.88079869271E+03 -0.10868957915E+04  0.14415904694E+04  0.25500000920E-02 0. -1.
       -2    1    3    3    0  502 -0.34789981711E+03  0.88079869271E+03  0.57715436306E+03  0.11090301072E+04  0.25500000920E-02 0.  1.
</event>
<event>
 5   0  0.1541852E-06  0.2494246E+04  0.7818609E-02  0.8405038E-01
       -1   -1    0    0    0  501  0.00000000000E+00  0.00000000000E+00  0.13218920717E+04  0.13218920717E+04  0.50400001928E-02 0.  1.
        1   -1    0    0  501    0  0.00000000000E+00  0.00000000000E+00 -0.11765827582E+04  0.11765827582E+04  0.50400001928E-02 0. -1.
    10030    2    1    2    0    0  0.00000000000E+00  0.00000000000E+00  0.14530931347E+03  0.24984748299E+04  0.24942457135E+04 0.  0.
        5    1    3    3  502    0 -0.23980730842E+03 -0.12889844076E+03  0.12917518766E+04  0.13201391419E+04  0.46999998093E+01 0.  1.
       -5    1    3    3    0  502  0.23980730842E+03  0.12889844076E+03 -0.11464425631E+04  0.11783356881E+04  0.46999998093E+01 0. -1.
</event>
<event>
 5   0  0.3814260E-06  0.2501924E+04  0.7818609E-02  0.8402301E-01
        2   -1    0    0  501    0  0.00000000000E+00  0.00000000000E+00  0.11140005528E+04  0.11140005528E+04  0.25500000920E-02 0. -1.
       -2   -1    0    0    0  501  0.00000000000E+00  0.00000000000E+00 -0.14047619675E+04  0.14047619675E+04  0.25500000920E-02 0.  1.
    10030    2    1    2    0    0  0.00000000000E+00  0.00000000000E+00 -0.29076141475E+03  0.25187625203E+04  0.25019237465E+04 0.  0.
        5    1    3    3  502    0 -0.47708700711E+03 -0.77334850422E+03 -0.10109367426E+04  0.13592994919E+04  0.46999998093E+01 0.  1.
       -5    1    3    3    0  502  0.47708700711E+03  0.77334850422E+03  0.72017532781E+03  0.11594630284E+04  0.46999998093E+01 0. -1.
</event>
<event>
 5   0  0.1501747E-06  0.2485036E+04  0.7818609E-02  0.8408336E-01
        1   -1    0    0  501    0  0.00000000000E+00  0.00000000000E+00  0.22171637477E+04  0.22171637477E+04  0.50400001928E-02 0.  1.
       -1   -1    0    0    0  501  0.00000000000E+00  0.00000000000E+00 -0.69631809393E+03  0.69631809395E+03  0.50400001928E-02 0. -1.
    10030    2    1    2    0    0  0.00000000000E+00  0.00000000000E+00  0.15208456538E+04  0.29134818417E+04  0.24850362048E+04 0.  0.
        2    1    3    3  502    0  0.13659690401E+03 -0.10529514617E+04  0.15170460437E+04  0.18517003520E+04  0.25500000920E-02 0.  1.
       -2    1    3    3    0  502 -0.13659690401E+03  0.10529514617E+04  0.37996100671E+01  0.10617814897E+04  0.25500000920E-02 0. -1.
</event>
<event>
 5   0  0.1501747E-06  0.2499527E+04  0.7818609E-02  0.8403154E-01
       -1   -1    0    0    0  501  0.00000000000E+00  0.00000000000E+00  0.64478778637E+03  0.64478778639E+03  0.50400001928E-02 0. -1.
        1   -1    0    0  501    0  0.00000000000E+00  0.00000000000E+00 -0.24223608270E+04  0.24223608270E+04  0.50400001928E-02 0.  1.
    10030    2    1    2    0    0  0.00000000000E+00  0.00000000000E+00 -0.17775730406E+04  0.30671486134E+04  0.24995268956E+04 0.  0.
        2    1    3    3  502    0  0.11562475878E+04 -0.62659799776E+02 -0.14657466218E+04  0.18679528619E+04  0.25500000920E-02 0.  1.
       -2    1    3    3    0  502 -0.11562475878E+04  0.62659799776E+02 -0.31182641879E+03  0.11991957515E+04  0.25500000920E-02 0. -1.
</event>
<event>
 5   0  0.1553604E-06  0.2498993E+04  0.7818609E-02  0.8403344E-01
        1   -1    0    0  501    0  0.00000000000E+00  0.00000000000E+00  0.17340663308E+04  0.17340663308E+04  0.50400001928E-02 0.  1.
       -1   -1    0    0    0  501  0.00000000000E+00  0.00000000000E+00 -0.90033534890E+03  0.90033534891E+03  0.50400001928E-02 0. -1.
    10030    2    1    2    0    0  0.00000000000E+00  0.00000000000E+00  0.83373098186E+03  0.26344016797E+04  0.24989927691E+04 0.  0.
        1    1    3    3  502    0  0.11822008606E+04  0.38002951518E+03  0.27071756894E+03  0.12709481930E+04  0.50400001928E-02 0. -1.
       -1    1    3    3    0  502 -0.11822008606E+04 -0.38002951518E+03  0.56301341292E+03  0.13634534867E+04  0.50400001928E-02 0.  1.
</event>
<event>
 5   0  0.1501747E-06  0.2499777E+04  0.7818609E-02  0.8403065E-01
       -1   -1    0    0    0  501  0.00000000000E+00  0.00000000000E+00  0.10659933515E+04  0.10659933515E+04  0.50400001928E-02 0.  1.
        1   -1    0    0  501    0  0.00000000000E+00  0.00000000000E+00 -0.14655078787E+04  0.14655078787E+04  0.50400001928E-02 0. -1.
    10030    2    1    2    0    0  0.00000000000E+00  0.00000000000E+00 -0.39951452717E+03  0.25315012302E+04  0.24997773143E+04 0.  0.
        2    1    3    3  502    0  0.12130020970E+03 -0.99045380075E+03 -0.96197718850E+03  0.13860420569E+04  0.25500000920E-02 0. -1.
       -2    1    3    3    0  502 -0.12130020970E+03  0.99045380075E+03  0.56246266133E+03  0.11454591733E+04  0.25500000920E-02 0.  1.
</event>
<event>
 5   0  0.3808293E-06  0.2500149E+04  0.7818609E-02  0.8402933E-01
        2   -1    0    0  501    0  0.00000000000E+00  0.00000000000E+00  0.17951294333E+04  0.17951294333E+04  0.25500000920E-02 0. -1.
       -2   -1    0    0    0  501  0.00000000000E+00  0.00000000000E+00 -0.87051436653E+03  0.87051436654E+03  0.25500000920E-02 0.  1.
    10030    2    1    2    0    0  0.00000000000E+00  0.00000000000E+00  0.92461506681E+03  0.26656437999E+04  0.25001487648E+04 0.  0.
        1    1    3    3  502    0 -0.78260477578E+02  0.19325101704E+03 -0.85184545828E+03  0.87698993310E+03  0.50400001928E-02 0.  1.
       -1    1    3    3    0  502  0.78260477578E+02 -0.19325101704E+03  0.17764605251E+04  0.17886538668E+04  0.50400001928E-02 0. -1.
</event>
<event>
 5   0  0.3808293E-06  0.2498320E+04  0.7818609E-02  0.8403584E-01
        2   -1    0    0  501    0  0.00000000000E+00  0.00000000000E+00  0.11772134387E+04  0.11772134387E+04  0.25500000920E-02 0.  1.
       -2   -1    0    0    0  501  0.00000000000E+00  0.00000000000E+00 -0.13255033226E+04  0.13255033226E+04  0.25500000920E-02 0. -1.
    10030    2    1    2    0    0  0.00000000000E+00  0.00000000000E+00 -0.14828988389E+03  0.25027167613E+04  0.24983196948E+04 0.  0.
        1    1    3    3  502    0 -0.36362127329E+03 -0.11733886313E+04 -0.30112486907E+03  0.12648072965E+04  0.50400001928E-02 0. -1.
       -1    1    3    3    0  502  0.36362127329E+03  0.11733886313E+04  0.15283498518E+03  0.12379094648E+04  0.50400001928E-02 0.  1.
</event>
<event>
 5   0  0.1287375E-06  0.2497991E+04  0.7818609E-02  0.8403702E-01
        3   -1    0    0  501    0  0.00000000000E+00  0.00000000000E+00  0.18003799115E+04  0.18003799143E+04  0.10100000352E+00 0.  1.
       -3   -1    0    0    0  501  0.00000000000E+00  0.00000000000E+00 -0.86647776907E+03  0.86647777495E+03  0.10100000352E+00 0. -1.
    10030    2    1    2    0    0  0.00000000000E+00  0.00000000000E+00  0.93390214243E+03  0.26668576893E+04  0.24979905371E+04 0.  0.
        5    1    3    3  502    0 -0.84881056769E+03 -0.46629253283E+03 -0.37507363786E+03  0.10385617121E+04  0.46999998093E+01 0. -1.
       -5    1    3    3    0  502  0.84881056769E+03  0.46629253283E+03  0.13089757803E+04  0.16282959772E+04  0.46999998093E+01 0.  1.
</event>
<event>
 5   0  0.1519145E-06  0.2499079E+04  0.7818609E-02  0.8403314E-01
        1   -1    0    0  501    0  0.00000000000E+00  0.00000000000E+00  0.14004889116E+04  0.14004889116E+04  0.50400001928E-02 0.  1.
       -1   -1    0    0    0  501  0.00000000000E+00  0.00000000000E+00 -0.11148599982E+04  0.11148599982E+04  0.50400001928E-02 0. -1.
    10030    2    1    2    0    0  0.00000000000E+00  0.00000000000E+00  0.28562891336E+03  0.25153489098E+04  0.24990790827E+04 0.  0.
        4    1    3    3  502    0  0.92821651081E+03 -0.36032804162E+03 -0.61703435850E+03  0.11713902855E+04  0.12699999809E+01 0. -1.
       -4    1    3    3    0  502 -0.92821651081E+03  0.36032804162E+03  0.90266327186E+03  0.13439586243E+04  0.12699999809E+01 0.  1.
</event>
<event>
 5   0  0.3814260E-06  0.2501220E+04  0.7818609E-02  0.8402551E-01
        2   -1    0    0  501    0  0.00000000000E+00  0.00000000000E+00  0.17260946793E+04  0.17260946793E+04  0.25500000920E-02 0.  1.
       -2   -1    0    0    0  501  0.00000000000E+00  0.00000000000E+00 -0.90610651423E+03  0.90610651423E+03  0.25500000920E-02 0. -1.
    10030    2    1    2    0    0  0.00000000000E+00  0.00000000000E+00  0.81998816502E+03  0.26322011935E+04  0.25012202087E+04 0.  0.
        5    1    3    3  502    0  0.72090008112E+03  0.54136734062E+03  0.13221163149E+04  0.16002465950E+04  0.46999998093E+01 0.  1.
       -5    1    3    3    0  502 -0.72090008112E+03 -0.54136734062E+03 -0.50212814992E+03  0.10319545985E+04  0.46999998093E+01 0. -1.
</event>
<event>
 5   0  0.1541852E-06  0.2486809E+04  0.7818609E-02  0.8407700E-01
       -1   -1    0    0    0  501  0.00000000000E+00  0.00000000000E+00  0.87087980587E+03  0.87087980589E+03  0.50400001928E-02 0.  1.
        1   -1    0    0  501    0  0.00000000000E+00  0.00000000000E+00 -0.17752790291E+04  0.17752790291E+04  0.50400001928E-02 0. -1.
    10030    2    1    2    0    0  0.00000000000E+00  0.00000000000E+00 -0.90439922327E+03  0.26461588350E+04  0.24868089241E+04 0.  0.
        5    1    3    3  502    0  0.62966483923E+03 -0.50427644277E+03  0.55461170518E+03  0.97897332651E+03  0.46999998093E+01 0.  1.
       -5    1    3    3    0  502 -0.62966483923E+03  0.50427644277E+03 -0.14590109284E+04  0.16671855085E+04  0.46999998093E+01 0. -1.
</event>
<event>
 5   0  0.1501747E-06  0.2501007E+04  0.7818609E-02  0.8402627E-01
        1   -1    0    0  501    0  0.00000000000E+00  0.00000000000E+00  0.12028485516E+04  0.12028485516E+04  0.50400001928E-02 0.  1.
       -1   -1    0    0    0  501  0.00000000000E+00  0.00000000000E+00 -0.13000463152E+04  0.13000463152E+04  0.50400001928E-02 0. -1.
    10030    2    1    2    0    0  0.00000000000E+00  0.00000000000E+00 -0.97197763641E+02  0.25028948668E+04  0.25010068590E+04 0.  0.
        2    1    3    3  502    0  0.27899687749E+03 -0.66793256309E+03  0.97186969671E+03  0.12118184162E+04  0.25500000920E-02 0.  1.
       -2    1    3    3    0  502 -0.27899687749E+03  0.66793256309E+03 -0.10690674603E+04  0.12910764506E+04  0.25500000920E-02 0. -1.
</event>
<event>
 5   0  0.3814260E-06  0.2500427E+04  0.7818609E-02  0.8402833E-01
        2   -1    0    0  501    0  0.00000000000E+00  0.00000000000E+00  0.11142454236E+04  0.11142454236E+04  0.25500000920E-02 0. -1.
       -2   -1    0    0    0  501  0.00000000000E+00  0.00000000000E+00 -0.14027735258E+04  0.14027735258E+04  0.25500000920E-02 0.  1.
    10030    2    1    2    0    0  0.00000000000E+00  0.00000000000E+00 -0.28852810219E+03  0.25170189494E+04  0.25004271487E+04 0.  0.
        5    1    3    3  502    0  0.10512420853E+04 -0.48953572385E+03 -0.61454362502E+03  0.13124180370E+04  0.46999998093E+01 0.  1.
       -5    1    3    3    0  502 -0.10512420853E+04  0.48953572385E+03  0.32601552283E+03  0.12046009124E+04  0.46999998093E+01 0. -1.
</event>
<event>
 5   0  0.3808293E-06  0.2495078E+04  0.7818609E-02  0.8404741E-01
        2   -1    0    0  501    0  0.00000000000E+00  0.00000000000E+00  0.89156084906E+03  0.89156084906E+03  0.25500000920E-02 0.  1.
       -2   -1    0    0    0  501  0.00000000000E+00  0.00000000000E+00 -0.17456502279E+04  0.17456502279E+04  0.25500000920E-02 0. -1.
    10030    2    1    2    0    0  0.00000000000E+00  0.00000000000E+00 -0.85408937885E+03  0.26372110770E+04  0.24950778740E+04 0.  0.
        1    1    3    3  502    0  0.69085503378E+03 -0.10900007894E+02 -0.15249432941E+04  0.16741718963E+04  0.50400001928E-02 0. -1.
       -1    1    3    3    0  502 -0.69085503378E+03  0.10900007894E+02  0.67085391530E+03  0.96303918070E+03  0.50400001928E-02 0.  1.
</event>
<event>
 5   0  0.1519145E-06  0.2511501E+04  0.7818609E-02  0.8398900E-01
       -1   -1    0    0    0  501  0.00000000000E+00  0.00000000000E+00  0.98969508816E+03  0.98969508817E+03  0.50400001928E-02 0. -1.
        1   -1    0    0  501    0  0.00000000000E+00  0.00000000000E+00 -0.15933286293E+04  0.15933286293E+04  0.50400001928E-02 0.  1.
    10030    2    1    2    0    0  0.00000000000E+00  0.00000000000E+00 -0.60363354118E+03  0.25830237175E+04  0.25115011593E+04 0.  0.
        4    1    3    3  502    0 -0.50881759463E+03 -0.11391472218E+04 -0.44855491481E+03  0.13258034779E+04  0.12699999809E+01 0.  1.
       -4    1    3    3    0  502  0.50881759463E+03  0.11391472218E+04 -0.15507862637E+03  0.12572202396E+04  0.12699999809E+01 0. -1.
</event>
<event>
 5   0  0.1541852E-06  0.2493434E+04  0.7818609E-02  0.8405329E-01
        1   -1    0    0  501    0  0.00000000000E+00  0.00000000000E+00  0.88494529174E+03  0.88494529175E+03  0.50400001928E-02 0.  1.
       -1   -1    0    0    0  501  0.00000000000E+00  0.00000000000E+00 -0.17563829553E+04  0.17563829553E+04  0.50400001928E-02 0. -1.
    10030    2    1    2    0    0  0.00000000000E+00  0.00000000000E+00 -0.87143766354E+03  0.26413282470E+04  0.24934336380E+04 0.  0.
        5    1    3    3  502    0 -0.92714175235E+03 -0.71737521059E+03  0.13786919731E+02  0.11723613738E+04  0.46999998093E+01 0.  1.
       -5    1    3    3    0  502  0.92714175235E+03  0.71737521059E+03 -0.88522458328E+03  0.14689668732E+04  0.46999998093E+01 0. -1.
</event>
<event>
 5   0  0.1574896E-06  0.2498529E+04  0.7818609E-02  0.8403510E-01
       -1   -1    0    0    0  501  0.00000000000E+00  0.00000000000E+00  0.25450598877E+04  0.25450598877E+04  0.50400001928E-02 0. -1.
        1   -1    0    0  501    0  0.00000000000E+00  0.00000000000E+00 -0.61321207755E+03  0.61321207757E+03  0.50400001928E-02 0.  1.
    10030    2    1    2    0    0  0.00000000000E+00  0.00000000000E+00  0.19318478102E+04  0.31582719653E+04  0.24985287361E+04 0.  0.
        3    1    3    3  502    0  0.52148688457E+03  0.10766101831E+04  0.14210239421E+04  0.18575109990E+04  0.10100000352E+00 0. -1.
       -3    1    3    3    0  502 -0.52148688457E+03 -0.10766101831E+04  0.51082386807E+03  0.13007609663E+04  0.10100000352E+00 0.  1.
</event>
<event>
 5   0  0.1574896E-06  0.2527648E+04  0.7818609E-02  0.8393202E-01
        1   -1    0    0  501    0  0.00000000000E+00  0.00000000000E+00  0.14435945590E+04  0.14435945590E+04  0.50400001928E-02 0.  1.
       -1   -1    0    0    0  501  0.00000000000E+00  0.00000000000E+00 -0.11064399913E+04  0.11064399913E+04  0.50400001928E-02 0. -1.
    10030    2    1    2    0    0  0.00000000000E+00  0.00000000000E+00  0.33715456765E+03  0.25500345503E+04  0.25276477217E+04 0.  0.
        3    1    3    3  502    0 -0.75804825861E+03 -0.68192726302E+03  0.92190948923E+03  0.13746196095E+04  0.10100000352E+00 0.  1.
       -3    1    3    3    0  502  0.75804825861E+03  0.68192726302E+03 -0.58475492158E+03  0.11754149408E+04  0.10100000352E+00 0. -1.
</event>
<event>
 5   0  0.1541852E-06  0.2499473E+04  0.7818609E-02  0.8403173E-01
       -1   -1    0    0    0  501  0.00000000000E+00  0.00000000000E+00  0.14303197692E+04  0.14303197692E+04  0.50400001928E-02 0.  1.
        1   -1    0    0  501    0  0.00000000000E+00  0.00000000000E+00 -0.10919527518E+04  0.10919527518E+04  0.50400001928E-02 0. -1.
    10030    2    1    2    0    0  0.00000000000E+00  0.00000000000E+00  0.33836701743E+03  0.25222725210E+04  0.24994732309E+04 0.  0.
        5    1    3    3  502    0 -0.12453751920E+04  0.69756797505E+02  0.24731154268E+03  0.12716172651E+04  0.46999998093E+01 0.  1.
       -5    1    3    3    0  502  0.12453751920E+04 -0.69756797505E+02  0.91055474750E+02  0.12506552559E+04  0.46999998093E+01 0. -1.
</event>
<event>
 5   0  0.1519145E-06  0.2516331E+04  0.7818609E-02  0.8397191E-01
       -1   -1    0    0    0  501  0.00000000000E+00  0.00000000000E+00  0.14122657002E+04  0.14122657002E+04  0.50400001928E-02 0.  1.
        1   -1    0    0  501    0  0.00000000000E+00  0.00000000000E+00 -0.11208796896E+04  0.11208796897E+04  0.50400001928E-02 0. -1.
    10030    2    1    2    0    0  0.00000000000E+00  0.00000000000E+00  0.29138601056E+03  0.25331453899E+04  0.25163306140E+04 0.  0.
        4    1    3    3  502    0  0.49009657332E+03  0.10886910677E+04 -0.25386657059E+03  0.12206116256E+04  0.12699999809E+01 0. -1.
       -4    1    3    3    0  502 -0.49009657332E+03 -0.10886910677E+04  0.54525258115E+03  0.13125337642E+04  0.12699999809E+01 0.  1.
</event>
<event>
 5   0  0.1541852E-06  0.2492397E+04  0.7818609E-02  0.8405699E-01
       -1   -1    0    0    0  501  0.00000000000E+00  0.00000000000E+00  0.15002857260E+04  0.15002857260E+04  0.50400001928E-02 0.  1.
        1   -1    0    0  501    0  0.00000000000E+00  0.00000000000E+00 -0.10351432911E+04  0.10351432911E+04  0.50400001928E-02 0. -1.
    10030    2    1    2    0    0  0.00000000000E+00  0.00000000000E+00  0.46514243485E+03  0.25354290171E+04  0.24923970021E+04 0.  0.
        5    1    3    3  502    0  0.64435586376E+03  0.64116599343E+02 -0.85055755070E+03  0.10690068543E+04  0.46999998093E+01 0. -1.
       -5    1    3    3    0  502 -0.64435586376E+03 -0.64116599343E+02  0.13156999856E+04  0.14664221628E+04  0.46999998093E+01 0.  1.
</event>
<event>
 5   0  0.3971759E-06  0.2503858E+04  0.7818609E-02  0.8401612E-01
        2   -1    0    0  501    0  0.00000000000E+00  0.00000000000E+00  0.16993452568E+04  0.16993452568E+04  0.25500000920E-02 0.  1.
       -2   -1    0    0    0  501  0.00000000000E+00  0.00000000000E+00 -0.92231185135E+03  0.92231185135E+03  0.25500000920E-02 0. -1.
    10030    2    1    2    0    0  0.00000000000E+00  0.00000000000E+00  0.77703340547E+03  0.26216571082E+04  0.25038580390E+04 0.  0.
        4    1    3    3  502    0  0.35396035158E+03  0.10443003262E+03  0.16410979218E+04  0.16820813191E+04  0.12699999809E+01 0.  1.
       -4    1    3    3    0  502 -0.35396035158E+03 -0.10443003262E+03 -0.86406451631E+03  0.93957578910E+03  0.12699999809E+01 0. -1.
</event>
<event>
 5   0  0.1541852E-06  0.2499986E+04  0.7818609E-02  0.8402991E-01
       -1   -1    0    0    0  501  0.00000000000E+00  0.00000000000E+00  0.62199664817E+03  0.62199664819E+03  0.50400001928E-02 0. -1.
        1   -1    0    0  501    0  0.00000000000E+00  0.00000000000E+00 -0.25120432840E+04  0.25120432840E+04  0.50400001928E-02 0.  1.
    10030    2    1    2    0    0  0.00000000000E+00  0.00000000000E+00 -0.18900466359E+04  0.31340399322E+04  0.24999860022E+04 0.  0.
        5    1    3    3  502    0  0.70868341808E+03 -0.10203672125E+04 -0.77186454702E+03  0.14625930413E+04  0.46999998093E+01 0. -1.
       -5    1    3    3    0  502 -0.70868341808E+03  0.10203672125E+04 -0.11181820888E+04  0.16714468910E+04  0.46999998093E+01 0.  1.
</event>
<event>
 5   0  0.3713394E-06  0.2489527E+04  0.7818609E-02  0.8406726E-01
       -2   -1    0    0    0  501  0.00000000000E+00  0.00000000000E+00  0.87771052872E+03  0.87771052872E+03  0.25500000920E-02 0. -1.
        2   -1    0    0  501    0  0.00000000000E+00  0.00000000000E+00 -0.17653160379E+04  0.17653160379E+04  0.25500000920E-02 0.  1.
    10030    2    1    2    0    0  0.00000000000E+00  0.00000000000E+00 -0.88760550914E+03  0.26430265666E+04  0.24895272426E+04 0.  0.
        3    1    3    3  502    0 -0.11030412118E+04  0.19715984072E+03 -0.10193198665E+04  0.15147887371E+04  0.10100000352E+00 0.  1.
       -3    1    3    3    0  502  0.11030412118E+04 -0.19715984072E+03  0.13171435734E+03  0.11282378295E+04  0.10100000352E+00 0. -1.
</event>
<event>
 5   0  0.3713394E-06  0.2534421E+04  0.7818609E-02  0.8390824E-01
        2   -1    0    0  501    0  0.00000000000E+00  0.00000000000E+00  0.10228606000E+04  0.10228606000E+04  0.25500000920E-02 0. -1.
       -2   -1    0    0    0  501  0.00000000000E+00  0.00000000000E+00 -0.15699330271E+04  0.15699330271E+04  0.25500000920E-02 0.  1.
    10030    2    1    2    0    0  0.00000000000E+00  0.00000000000E+00 -0.54707242702E+03  0.25927936271E+04  0.25344211474E+04 0.  0.
        3    1    3    3  502    0  0.80839702186E+01 -0.12628020843E+04 -0.16581055306E+03  0.12736669912E+04  0.10100000352E+00 0.  1.
       -3    1    3    3    0  502 -0.80839702186E+01  0.12628020843E+04 -0.38126187395E+03  0.13191266359E+04  0.10100000352E+00 0. -1.
</event>
<event>
 5   0  0.1501747E-06  0.2499117E+04  0.7818609E-02  0.8403300E-01
        1   -1    0    0  501    0  0.00000000000E+00  0.00000000000E+00  0.16505978220E+04  0.16505978220E+04  0.50400001928E-02 0. -1.
       -1   -1    0    0    0  501  0.00000000000E+00  0.00000000000E+00 -0.94595788204E+03  0.94595788205E+03  0.50400001928E-02 0.  1.
    10030    2    1    2    0    0  0.00000000000E+00  0.00000000000E+00  0.70463993997E+03  0.25965557041E+04  0.24991166598E+04 0.  0.
        2    1    3    3  502    0 -0.40614813883E+03 -0.92737768926E+03  0.11132762069E+04  0.15047822441E+04  0.25500000920E-02 0. -1.
       -2    1    3    3    0  502  0.40614813883E+03  0.92737768926E+03 -0.40863626696E+03  0.10917734600E+04  0.25500000920E-02 0.  1.
</event>
<event>
 5   0  0.3814260E-06  0.2499813E+04  0.7818609E-02  0.8403052E-01
       -2   -1    0    0    0  501  0.00000000000E+00  0.00000000000E+00  0.57145096792E+03  0.57145096793E+03  0.25500000920E-02 0. -1.
        2   -1    0    0  501    0  0.00000000000E+00  0.00000000000E+00 -0.27338579113E+04  0.27338579113E+04  0.25500000920E-02 0.  1.
    10030    2    1    2    0    0  0.00000000000E+00  0.00000000000E+00 -0.21624069433E+04  0.33053088792E+04  0.24998125926E+04 0.  0.
        5    1    3    3  502    0 -0.10464350025E+04  0.33117194210E+03 -0.29058220954E+03  0.11354123393E+04  0.46999998093E+01 0. -1.
       -5    1    3    3    0  502  0.10464350025E+04 -0.33117194210E+03 -0.18718247338E+04  0.21698965399E+04  0.46999998093E+01 0.  1.
</event>
<event>
 5   0  0.1541852E-06  0.2536445E+04  0.7818609E-02  0.8390116E-01
        1   -1    0    0  501    0  0.00000000000E+00  0.00000000000E+00  0.15064242578E+04  0.15064242579E+04  0.50400001928E-02 0. -1.
       -1   -1    0    0    0  501  0.00000000000E+00  0.00000000000E+00 -0.10676865333E+04  0.10676865333E+04  0.50400001928E-02 0.  1.
    10030    2    1    2    0    0  0.00000000000E+00  0.00000000000E+00  0.43873772459E+03  0.25741107911E+04  0.25364454605E+04 0.  0.
        5    1    3    3  502    0  0.64668934474E+03 -0.67956361419E+03 -0.64674035466E+03  0.11394336271E+04  0.46999998093E+01 0.  1.
       -5    1    3    3    0  502 -0.64668934474E+03  0.67956361419E+03  0.10854780792E+04  0.14346771640E+04  0.46999998093E+01 0. -1.
</event>
<event>
 5   0  0.1501747E-06  0.2464513E+04  0.7818609E-02  0.8415738E-01
       -1   -1    0    0    0  501  0.00000000000E+00  0.00000000000E+00  0.71559768074E+03  0.71559768076E+03  0.50400001928E-02 0.  1.
        1   -1    0    0  501    0  0.00000000000E+00  0.00000000000E+00 -0.21219413916E+04  0.21219413916E+04  0.50400001928E-02 0. -1.
    10030    2    1    2    0    0  0.00000000000E+00  0.00000000000E+00 -0.14063437108E+04  0.28375390723E+04  0.24645132083E+04 0.  0.
        2    1    3    3  502    0  0.28971137150E+03  0.61925641302E+03  0.47720690852E+03  0.83374913337E+03  0.25500000920E-02 0.  1.
       -2    1    3    3    0  502 -0.28971137150E+03 -0.61925641302E+03 -0.18835506193E+04  0.20037899390E+04  0.25500000920E-02 0. -1.
</event>
<event>
 5   0  0.3814260E-06  0.2497935E+04  0.7818609E-02  0.8403721E-01
        2   -1    0    0  501    0  0.00000000000E+00  0.00000000000E+00  0.14276314408E+04  0.14276314408E+04  0.25500000920E-02 0.  1.
       -2   -1    0    0    0  501  0.00000000000E+00  0.00000000000E+00 -0.10926630447E+04  0.10926630447E+04  0.25500000920E-02 0. -1.
    10030    2    1    2    0    0  0.00000000000E+00  0.00000000000E+00  0.33496839609E+03  0.25202944855E+04  0.24979352408E+04 0.  0.
        5    1    3    3  502    0 -0.19866202304E+03  0.97091866680E+03  0.93438550605E+03  0.13620748955E+04  0.46999998093E+01 0.  1.
       -5    1    3    3    0  502  0.19866202304E+03 -0.97091866680E+03 -0.59941710996E+03  0.11582195900E+04  0.46999998093E+01 0. -1.
</event>
<event>
 5   0  0.3808293E-06  0.2506753E+04  0.7818609E-02  0.8400584E-01
        2   -1    0    0  501    0  0.00000000000E+00  0.00000000000E+00  0.16596901827E+04  0.16596901827E+04  0.25500000920E-02 0. -1.
       -2   -1    0    0    0  501  0.00000000000E+00  0.00000000000E+00 -0.94653398529E+03  0.94653398530E+03  0.25500000920E-02 0.  1.
    10030    2    1    2    0    0  0.00000000000E+00  0.00000000000E+00  0.71315619737E+03  0.26062241680E+04  0.25067534087E+04 0.  0.
        1    1    3    3  502    0 -0.32950289900E+03 -0.99901385719E+03 -0.35189597394E+03  0.11092482246E+04  0.50400001928E-02 0.  1.
       -1    1    3    3    0  502  0.32950289900E+03  0.99901385719E+03  0.10650521713E+04  0.14969759433E+04  0.50400001928E-02 0. -1.
</event>
<event>
 5   0  0.1501747E-06  0.2500723E+04  0.7818609E-02  0.8402728E-01
       -1   -1    0    0    0  501  0.00000000000E+00  0.00000000000E+00  0.13520224699E+04  0.13520224699E+04  0.50400001928E-02 0.  1.
        1   -1    0    0  501    0  0.00000000000E+00  0.00000000000E+00 -0.11563443678E+04  0.11563443678E+04  0.50400001928E-02 0. -1.
    10030    2    1    2    0    0  0.00000000000E+00  0.00000000000E+00  0.19567810216E+03  0.25083668377E+04  0.25007227501E+04 0.  0.
        2    1    3    3  502    0  0.64746038325E+03  0.71274024507E+03  0.89789862263E+03  0.13165961952E+04  0.25500000920E-02 0.  1.
       -2    1    3    3    0  502 -0.64746038325E+03 -0.71274024507E+03 -0.70222052047E+03  0.11917706424E+04  0.25500000920E-02 0. -1.
</event>
<event>
 5   0  0.3713394E-06  0.2498316E+04  0.7818609E-02  0.8403586E-01
       -2   -1    0    0    0  501  0.00000000000E+00  0.00000000000E+00  0.69785524870E+03  0.69785524871E+03  0.25500000920E-02 0. -1.
        2   -1    0    0  501    0  0.00000000000E+00  0.00000000000E+00 -0.22359878297E+04  0.22359878297E+04  0.25500000920E-02 0.  1.
    10030    2    1    2    0    0  0.00000000000E+00  0.00000000000E+00 -0.15381325810E+04  0.29338430784E+04  0.24983161073E+04 0.  0.
        3    1    3    3  502    0 -0.38741808984E+03  0.90144719046E+03  0.13881627216E+03  0.99094388395E+03  0.10100000352E+00 0. -1.
       -3    1    3    3    0  502  0.38741808984E+03 -0.90144719046E+03 -0.16769488531E+04  0.19428991944E+04  0.10100000352E+00 0.  1.
</event>
<event>
 5   0  0.1519145E-06  0.2499159E+04  0.7818609E-02  0.8403285E-01
       -1   -1    0    0    0  501  0.00000000000E+00  0.00000000000E+00  0.18847094963E+04  0.18847094963E+04  0.50400001928E-02 0. -1.
        1   -1    0    0  501    0  0.00000000000E+00  0.00000000000E+00 -0.82848226073E+03  0.82848226075E+03  0.50400001928E-02 0.  1.
    10030    2    1    2    0    0  0.00000000000E+00  0.00000000000E+00  0.10562272356E+04  0.27131917570E+04  0.24991585659E+04 0.  0.
        4    1    3    3  502    0  0.69043241597E+03  0.28032319328E+03 -0.56087186692E+03  0.93266118055E+03  0.12699999809E+01 0.  1.
       -4    1    3    3    0  502 -0.69043241597E+03 -0.28032319328E+03  0.16170991025E+04  0.17805305765E+04  0.12699999809E+01 0. -1.
</event>
<event>
 5   0  0.3713394E-06  0.2500851E+04  0.7818609E-02  0.8402682E-01
       -2   -1    0    0    0  501  0.00000000000E+00  0.00000000000E+00  0.10440029521E+04  0.10440029521E+04  0.25500000920E-02 0.  1.
        2   -1    0    0  501    0  0.00000000000E+00  0.00000000000E+00 -0.14976621171E+04  0.14976621171E+04  0.25500000920E-02 0. -1.
    10030    2    1    2    0    0  0.00000000000E+00  0.00000000000E+00 -0.45365916499E+03  0.25416650692E+04  0.25008507925E+04 0.  0.
        3    1    3    3  502    0  0.88212151661E+03 -0.82081546478E+02  0.67000481138E+03  0.11107574928E+04  0.10100000352E+00 0.  1.
       -3    1    3    3    0  502 -0.88212151661E+03  0.82081546478E+02 -0.11236639764E+04  0.14309075764E+04  0.10100000352E+00 0. -1.
</event>
<event>
 5   0  0.1519145E-06  0.2507398E+04  0.7818609E-02  0.8400355E-01
        1   -1    0    0  501    0  0.00000000000E+00  0.00000000000E+00  0.19408275656E+04  0.19408275656E+04  0.50400001928E-02 0. -1.
       -1   -1    0    0    0  501  0.00000000000E+00  0.00000000000E+00 -0.80984103708E+03  0.80984103710E+03  0.50400001928E-02 0.  1.
    10030    2    1    2    0    0  0.00000000000E+00  0.00000000000E+00  0.11309865285E+04  0.27506686027E+04  0.25073984993E+04 0.  0.
        4    1    3    3  502    0 -0.90078009308E+03 -0.14910408443E+02  0.15219376685E+04  0.17685935022E+04  0.12699999809E+01 0. -1.
       -4    1    3    3    0  502  0.90078009308E+03  0.14910408443E+02 -0.39095113994E+03  0.98207510053E+03  0.12699999809E+01 0.  1.
</event>
<event>
 5   0  0.3713394E-06  0.2501326E+04  0.7818609E-02  0.8402513E-01
       -2   -1    0    0    0  501  0.00000000000E+00  0.00000000000E+00  0.14982650549E+04  0.14982650549E+04  0.25500000920E-02 0. -1.
        2   -1    0    0  501    0  0.00000000000E+00  0.00000000000E+00 -0.10439797450E+04  0.10439797451E+04  0.25500000920E-02 0.  1.
    10030    2    1    2    0    0  0.00000000000E+00  0.00000000000E+00  0.45428530987E+03  0.25422448000E+04  0.25013263442E+04 0.  0.
        3    1    3    3  502    0 -0.66321880312E+03 -0.10262808376E+04 -0.43763789861E+02  0.12227128927E+04  0.10100000352E+00 0.  1.
       -3    1    3    3    0  502  0.66321880312E+03  0.10262808376E+04  0.49804909973E+03  0.13195319073E+04  0.10100000352E+00 0. -1.
</event>
<event>
 5   0  0.3971759E-06  0.2498064E+04  0.7818609E-02  0.8403676E-01
       -2   -1    0    0    0  501  0.00000000000E+00  0.00000000000E+00  0.63158196841E+03  0.63158196841E+03  0.25500000920E-02 0. -1.
        2   -1    0    0  501    0  0.00000000000E+00  0.00000000000E+00 -0.24701163903E+04  0.24701163903E+04  0.25500000920E-02 0.  1.
    10030    2    1    2    0    0  0.00000000000E+00  0.00000000000E+00 -0.18385344219E+04  0.31016983588E+04  0.24980640280E+04 0.  0.
        4    1    3    3  502    0  0.42369125410E+03  0.10115196928E+03  0.53421295496E+03  0.68929753651E+03  0.12699999809E+01 0. -1.
       -4    1    3    3    0  502 -0.42369125410E+03 -0.10115196928E+03 -0.23727473769E+04  0.24124008222E+04  0.12699999809E+01 0.  1.
</event>
<event>
 5   0  0.3924441E-06  0.2491406E+04  0.7818609E-02  0.8406054E-01
       -2   -1    0    0    0  501  0.00000000000E+00  0.00000000000E+00  0.85774486915E+03  0.85774486916E+03  0.25500000920E-02 0.  1.
        2   -1    0    0  501    0  0.00000000000E+00  0.00000000000E+00 -0.18091343019E+04  0.18091343019E+04  0.25500000920E-02 0. -1.
    10030    2    1    2    0    0  0.00000000000E+00  0.00000000000E+00 -0.95138943276E+03  0.26668791711E+04  0.24914057599E+04 0.  0.
        2    1    3    3  502    0  0.16720128606E+03 -0.65890483226E+03 -0.15930856426E+04  0.17320605396E+04  0.25500000920E-02 0. -1.
       -2    1    3    3    0  502 -0.16720128606E+03  0.65890483226E+03  0.64169620986E+03  0.93481863149E+03  0.25500000920E-02 0.  1.
</event>
<event>
 5   0  0.3924441E-06  0.2500605E+04  0.7818609E-02  0.8402770E-01
       -2   -1    0    0    0  501  0.00000000000E+00  0.00000000000E+00  0.83912073864E+03  0.83912073865E+03  0.25500000920E-02 0.  1.
        2   -1    0    0  501    0  0.00000000000E+00  0.00000000000E+00 -0.18629691972E+04  0.18629691972E+04  0.25500000920E-02 0. -1.
    10030    2    1    2    0    0  0.00000000000E+00  0.00000000000E+00 -0.10238484585E+04  0.27020899358E+04  0.25006047979E+04 0.  0.
        2    1    3    3  502    0  0.10042740678E+04 -0.46983642233E+03  0.11251644826E+03  0.11144382523E+04  0.25500000920E-02 0.  1.
       -2    1    3    3    0  502 -0.10042740678E+04  0.46983642233E+03 -0.11363649068E+04  0.15876516836E+04  0.25500000920E-02 0. -1.
</event>
<event>
 5   0  0.1519145E-06  0.2504929E+04  0.7818609E-02  0.8401232E-01
        1   -1    0    0  501    0  0.00000000000E+00  0.00000000000E+00  0.14532756993E+04  0.14532756993E+04  0.50400001928E-02 0.  1.
       -1   -1    0    0    0  501  0.00000000000E+00  0.00000000000E+00 -0.10794013854E+04  0.10794013854E+04  0.50400001928E-02 0. -1.
    10030    2    1    2    0    0  0.00000000000E+00  0.00000000000E+00  0.37387431394E+03  0.25326770848E+04  0.25049293828E+04 0.  0.
        4    1    3    3  502    0 -0.63606473141E+03 -0.49239346657E+03  0.11575905389E+04  0.14096265949E+04  0.12699999809E+01 0.  1.
       -4    1    3    3    0  502  0.63606473141E+03  0.49239346657E+03 -0.78371622498E+03  0.11230504898E+04  0.12699999809E+01 0. -1.
</event>
<event>
 5   0  0.3924441E-06  0.2497451E+04  0.7818609E-02  0.8403894E-01
        2   -1    0    0  501    0  0.00000000000E+00  0.00000000000E+00  0.92395882135E+03  0.92395882135E+03  0.25500000920E-02 0.  1.
       -2   -1    0    0    0  501  0.00000000000E+00  0.00000000000E+00 -0.16876460730E+04  0.16876460730E+04  0.25500000920E-02 0. -1.
    10030    2    1    2    0    0  0.00000000000E+00  0.00000000000E+00 -0.76368725169E+03  0.26116048944E+04  0.24974510818E+04 0.  0.
        2    1    3    3  502    0 -0.80522832296E+03  0.82195616162E+02  0.61249598117E+03  0.10150369936E+04  0.25500000920E-02 0.  1.
       -2    1    3    3    0  502  0.80522832296E+03 -0.82195616162E+02 -0.13761832329E+04  0.15965679008E+04  0.25500000920E-02 0. -1.
</event>
<event>
 5   0  0.3814260E-06  0.2498141E+04  0.7818609E-02  0.8403648E-01
       -2   -1    0    0    0  501  0.00000000000E+00  0.00000000000E+00  0.15033448041E+04  0.15033448041E+04  0.25500000920E-02 0.  1.
        2   -1    0    0  501    0  0.00000000000E+00  0.00000000000E+00 -0.10378038192E+04  0.10378038192E+04  0.25500000920E-02 0. -1.
    10030    2    1    2    0    0  0.00000000000E+00  0.00000000000E+00  0.46554098485E+03  0.25411486233E+04  0.24981408921E+04 0.  0.
        5    1    3    3  502    0  0.55237494416E+03 -0.10758487712E+04 -0.84995496400E+02  0.12123592627E+04  0.46999998093E+01 0. -1.
       -5    1    3    3    0  502 -0.55237494416E+03  0.10758487712E+04  0.55053648125E+03  0.13287893605E+04  0.46999998093E+01 0.  1.
</event>
<event>
 5   0  0.3814260E-06  0.2498056E+04  0.7818609E-02  0.8403679E-01
        2   -1    0    0  501    0  0.00000000000E+00  0.00000000000E+00  0.11415984965E+04  0.11415984965E+04  0.25500000920E-02 0.  1.
       -2   -1    0    0    0  501  0.00000000000E+00  0.00000000000E+00 -0.13665668223E+04  0.13665668223E+04  0.25500000920E-02 0. -1.
    10030    2    1    2    0    0  0.00000000000E+00  0.00000000000E+00 -0.22496832583E+03  0.25081653188E+04  0.24980557477E+04 0.  0.
        5    1    3    3  502    0 -0.56523245353E+01  0.62391141857E+03  0.97390725375E+03  0.11566394580E+04  0.46999998093E+01 0.  1.
       -5    1    3    3    0  502  0.56523245353E+01 -0.62391141857E+03 -0.11988755796E+04  0.13515258608E+04  0.46999998093E+01 0. -1.
</event>
<event>
 5   0  0.3713394E-06  0.2494531E+04  0.7818609E-02  0.8404937E-01
        2   -1    0    0  501    0  0.00000000000E+00  0.00000000000E+00  0.11460454463E+04  0.11460454463E+04  0.25500000920E-02 0. -1.
       -2   -1    0    0    0  501  0.00000000000E+00  0.00000000000E+00 -0.13574250743E+04  0.13574250743E+04  0.25500000920E-02 0.  1.
    10030    2    1    2    0    0  0.00000000000E+00  0.00000000000E+00 -0.21137962792E+03  0.25034705206E+04  0.24945306774E+04 0.  0.
        3    1    3    3  502    0  0.34052597982E+03  0.11407504256E+04 -0.47904636639E+03  0.12832594858E+04  0.10100000352E+00 0.  1.
       -3    1    3    3    0  502 -0.34052597982E+03 -0.11407504256E+04  0.26766673847E+03  0.12202110348E+04  0.10100000352E+00 0. -1.
</event>
<event>
 5   0  0.1541852E-06  0.2499815E+04  0.7818609E-02  0.8403051E-01
        1   -1    0    0  501    0  0.00000000000E+00  0.00000000000E+00  0.20121730543E+04  0.20121730543E+04  0.50400001928E-02 0. -1.
       -1   -1    0    0    0  501  0.00000000000E+00  0.00000000000E+00 -0.77640871717E+03  0.77640871719E+03  0.50400001928E-02 0.  1.
    10030    2    1    2    0    0  0.00000000000E+00  0.00000000000E+00  0.12357643372E+04  0.27885817715E+04  0.24998149531E+04 0.  0.
        5    1    3    3  502    0 -0.10260712879E+04  0.89852231671E+02  0.14077354402E+04  0.17443155882E+04  0.46999998093E+01 0.  1.
       -5    1    3    3    0  502  0.10260712879E+04 -0.89852231671E+02 -0.17197110306E+03  0.10442661834E+04  0.46999998093E+01 0. -1.
</event>
<event>
 5   0  0.1553604E-06  0.2500208E+04  0.7818609E-02  0.8402911E-01
        1   -1    0    0  501    0  0.00000000000E+00  0.00000000000E+00  0.13307434502E+04  0.13307434502E+04  0.50400001928E-02 0.  1.
       -1   -1    0    0    0  501  0.00000000000E+00  0.00000000000E+00 -0.11743512585E+04  0.11743512586E+04  0.50400001928E-02 0. -1.
    10030    2    1    2    0    0  0.00000000000E+00  0.00000000000E+00  0.15639219162E+03  0.25050947087E+04  0.25002081878E+04 0.  0.
        1    1    3    3  502    0 -0.65041861447E+03 -0.16154942846E+03  0.11355394260E+04  0.13185569308E+04  0.50400001928E-02 0.  1.
       -1    1    3    3    0  502  0.65041861447E+03  0.16154942846E+03 -0.97914723433E+03  0.11865377779E+04  0.50400001928E-02 0. -1.
</event>
<event>
 5   0  0.3713394E-06  0.2510736E+04  0.7818609E-02  0.8399171E-01
       -2   -1    0    0    0  501  0.00000000000E+00  0.00000000000E+00  0.10005988087E+04  0.10005988087E+04  0.25500000920E-02 0.  1.
        2   -1    0    0  501    0  0.00000000000E+00  0.00000000000E+00 -0.15750061418E+04  0.15750061418E+04  0.25500000920E-02 0. -1.
    10030    2    1    2    0    0  0.00000000000E+00  0.00000000000E+00 -0.57440733304E+03  0.25756049505E+04  0.25107363615E+04 0.  0.
        3    1    3    3  502    0 -0.10461635114E+04 -0.56780883370E+03  0.12195503585E+03  0.11965525501E+04  0.10100000352E+00 0.  1.
       -3    1    3    3    0  502  0.10461635114E+04  0.56780883370E+03 -0.69636236889E+03  0.13790524004E+04  0.10100000352E+00 0. -1.
</event>
<event>
 5   0  0.1501747E-06  0.2505778E+04  0.7818609E-02  0.8400930E-01
        1   -1    0    0  501    0  0.00000000000E+00  0.00000000000E+00  0.22146695444E+04  0.22146695444E+04  0.50400001928E-02 0.  1.
       -1   -1    0    0    0  501  0.00000000000E+00  0.00000000000E+00 -0.70878786282E+03  0.70878786284E+03  0.50400001928E-02 0. -1.
    10030    2    1    2    0    0  0.00000000000E+00  0.00000000000E+00  0.15058816816E+04  0.29234574073E+04  0.25057780375E+04 0.  0.
        2    1    3    3  502    0  0.72033913709E+03  0.88672575905E+03  0.13530304951E+04  0.17708366850E+04  0.25500000920E-02 0.  1.
       -2    1    3    3    0  502 -0.72033913709E+03 -0.88672575905E+03  0.15285118648E+03  0.11526207223E+04  0.25500000920E-02 0. -1.
</event>
<event>
 5   0  0.3971759E-06  0.2500338E+04  0.7818609E-02  0.8402865E-01
        2   -1    0    0  501    0  0.00000000000E+00  0.00000000000E+00  0.23942692589E+04  0.23942692589E+04  0.25500000920E-02 0.  1.
       -2   -1    0    0    0  501  0.00000000000E+00  0.00000000000E+00 -0.65277633830E+03  0.65277633830E+03  0.25500000920E-02 0. -1.
    10030    2    1    2    0    0  0.00000000000E+00  0.00000000000E+00  0.17414929206E+04  0.30470455972E+04  0.25003378330E+04 0.  0.
        4    1    3    3  502    0  0.95719757532E+03 -0.24157346620E+03  0.18054908935E+04  0.20577618709E+04  0.12699999809E+01 0.  1.
       -4    1    3    3    0  502 -0.95719757532E+03  0.24157346620E+03 -0.63997972900E+02  0.98928372634E+03  0.12699999809E+01 0. -1.
</event>
<event>
 5   0  0.1519145E-06  0.2501077E+04  0.7818609E-02  0.8402602E-01
        1   -1    0    0  501    0  0.00000000000E+00  0.00000000000E+00  0.14824964225E+04  0.14824964225E+04  0.50400001928E-02 0.  1.
       -1   -1    0    0    0  501  0.00000000000E+00  0.00000000000E+00 -0.10548737631E+04  0.10548737631E+04  0.50400001928E-02 0. -1.
    10030    2    1    2    0    0  0.00000000000E+00  0.00000000000E+00  0.42762265941E+03  0.25373701856E+04  0.25010770320E+04 0.  0.
        4    1    3    3  502    0  0.56493823787E+03  0.88549800237E+03 -0.47469943795E+03  0.11526504648E+04  0.12699999809E+01 0. -1.
       -4    1    3    3    0  502 -0.56493823787E+03 -0.88549800237E+03  0.90232209736E+03  0.13847197208E+04  0.12699999809E+01 0.  1.
</event>
<event>
 5   0  0.3971759E-06  0.2498020E+04  0.7818609E-02  0.8403691E-01
        2   -1    0    0  501    0  0.00000000000E+00  0.00000000000E+00  0.15182417823E+04  0.15182417823E+04  0.25500000920E-02 0. -1.
       -2   -1    0    0    0  501  0.00000000000E+00  0.00000000000E+00 -0.10275216084E+04  0.10275216084E+04  0.25500000920E-02 0.  1.
    10030    2    1    2    0    0  0.00000000000E+00  0.00000000000E+00  0.49072017388E+03  0.25457633907E+04  0.24980202065E+04 0.  0.
        4    1    3    3  502    0 -0.88144140144E+03 -0.84518339263E+02 -0.65235146213E+03  0.10998392323E+04  0.12699999809E+01 0.  1.
       -4    1    3    3    0  502  0.88144140144E+03  0.84518339263E+02  0.11430716360E+04  0.14459241584E+04  0.12699999809E+01 0. -1.
</event>
<event>
 5   0  0.3808293E-06  0.2502732E+04  0.7818609E-02  0.8402013E-01
        2   -1    0    0  501    0  0.00000000000E+00  0.00000000000E+00  0.10410681709E+04  0.10410681709E+04  0.25500000920E-02 0. -1.
       -2   -1    0    0    0  501  0.00000000000E+00  0.00000000000E+00 -0.15041449786E+04  0.15041449786E+04  0.25500000920E-02 0.  1.
    10030    2    1    2    0    0  0.00000000000E+00  0.00000000000E+00 -0.46307680765E+03  0.25452131495E+04  0.25027324761E+04 0.  0.
        1    1    3    3  502    0 -0.17559691284E+02 -0.80648742651E+03 -0.12044305240E+04  0.14496148451E+04  0.50400001928E-02 0.  1.
       -1    1    3    3    0  502  0.17559691284E+02  0.80648742651E+03  0.74135371637E+03  0.10955983044E+04  0.50400001928E-02 0. -1.
</event>
<event>
 5   0  0.3924441E-06  0.2508882E+04  0.7818609E-02  0.8399828E-01
        2   -1    0    0  501    0  0.00000000000E+00  0.00000000000E+00  0.18794934489E+04  0.18794934489E+04  0.25500000920E-02 0.  1.
       -2   -1    0    0    0  501  0.00000000000E+00  0.00000000000E+00 -0.83725858698E+03  0.83725858698E+03  0.25500000920E-02 0. -1.
    10030    2    1    2    0    0  0.00000000000E+00  0.00000000000E+00  0.10422348619E+04  0.27167520359E+04  0.25088818460E+04 0.  0.
        2    1    3    3  502    0  0.82636407676E+03 -0.72269294956E+03 -0.13618400130E+03  0.11062137085E+04  0.25500000920E-02 0. -1.
       -2    1    3    3    0  502 -0.82636407676E+03  0.72269294956E+03  0.11784188632E+04  0.16105383274E+04  0.25500000920E-02 0.  1.
</event>
<event>
 5   0  0.1574896E-06  0.2499226E+04  0.7818609E-02  0.8403261E-01
       -1   -1    0    0    0  501  0.00000000000E+00  0.00000000000E+00  0.11338293461E+04  0.11338293462E+04  0.50400001928E-02 0.  1.
        1   -1    0    0  501    0  0.00000000000E+00  0.00000000000E+00 -0.13772205046E+04  0.13772205046E+04  0.50400001928E-02 0. -1.
    10030    2    1    2    0    0  0.00000000000E+00  0.00000000000E+00 -0.24339115842E+03  0.25110498507E+04  0.24992262996E+04 0.  0.
        3    1    3    3  502    0 -0.44264315283E+03  0.11566678458E+04  0.45583959393E+02  0.12393108464E+04  0.10100000352E+00 0. -1.
       -3    1    3    3    0  502  0.44264315283E+03 -0.11566678458E+04 -0.28897511782E+03  0.12717390044E+04  0.10100000352E+00 0.  1.
</event>
<event>
 5   0  0.1553604E-06  0.2497895E+04  0.7818609E-02  0.8403736E-01
       -1   -1    0    0    0  501  0.00000000000E+00  0.00000000000E+00  0.88312440747E+03  0.88312440749E+03  0.50400001928E-02 0. -1.
        1   -1    0    0  501    0  0.00000000000E+00  0.00000000000E+00 -0.17663074919E+04  0.17663074919E+04  0.50400001928E-02 0.  1.
    10030    2    1    2    0    0  0.00000000000E+00  0.00000000000E+00 -0.88318308444E+03  0.26494318994E+04  0.24978945192E+04 0.  0.
        1    1    3    3  502    0 -0.45956654868E+02  0.54874498278E+03  0.74741281674E+03  0.92836360813E+03  0.50400001928E-02 0. -1.
       -1    1    3    3    0  502  0.45956654868E+02 -0.54874498278E+03 -0.16305959012E+04  0.17210682913E+04  0.50400001928E-02 0.  1.
</event>
<event>
 5   0  0.1501747E-06  0.2500242E+04  0.7818609E-02  0.8402899E-01
       -1   -1    0    0    0  501  0.00000000000E+00  0.00000000000E+00  0.10219353789E+04  0.10219353789E+04  0.50400001928E-02 0.  1.
        1   -1    0    0  501    0  0.00000000000E+00  0.00000000000E+00 -0.15292577352E+04  0.15292577352E+04  0.50400001928E-02 0. -1.
    10030    2    1    2    0    0  0.00000000000E+00  0.00000000000E+00 -0.50732235626E+03  0.25511931141E+04  0.25002420547E+04 0.  0.
        2    1    3    3  502    0  0.11842165860E+04  0.92269934205E+02 -0.65137312710E+03  0.13546843227E+04  0.25500000920E-02 0. -1.
       -2    1    3    3    0  502 -0.11842165860E+04 -0.92269934205E+02  0.14405077084E+03  0.11965087914E+04  0.25500000920E-02 0.  1.
</event>
<event>
 5   0  0.3924441E-06  0.2498516E+04  0.7818609E-02  0.8403514E-01
        2   -1    0    0  501    0  0.00000000000E+00  0.00000000000E+00  0.16034200231E+04  0.16034200231E+04  0.25500000920E-02 0. -1.
       -2   -1    0    0    0  501  0.00000000000E+00  0.00000000000E+00 -0.97332331303E+03  0.97332331303E+03  0.25500000920E-02 0.  1.
    10030    2    1    2    0    0  0.00000000000E+00  0.00000000000E+00  0.63009671012E+03  0.25767433362E+04  0.24985164311E+04 0.  0.
        2    1    3    3  502    0  0.28218914945E+03  0.14319622469E+03  0.15614018936E+04  0.15931452376E+04  0.25500000920E-02 0. -1.
       -2    1    3    3    0  502 -0.28218914945E+03 -0.14319622469E+03 -0.93130518344E+03  0.98359809859E+03  0.25500000920E-02 0.  1.
</event>
<event>
 5   0  0.3814260E-06  0.2499699E+04  0.7818609E-02  0.8403093E-01
       -2   -1    0    0    0  501  0.00000000000E+00  0.00000000000E+00  0.16901335740E+04  0.16901335740E+04  0.25500000920E-02 0. -1.
        2   -1    0    0  501    0  0.00000000000E+00  0.00000000000E+00 -0.92426080658E+03  0.92426080659E+03  0.25500000920E-02 0.  1.
    10030    2    1    2    0    0  0.00000000000E+00  0.00000000000E+00  0.76587276744E+03  0.26143943806E+04  0.24996993582E+04 0.  0.
        5    1    3    3  502    0 -0.99117809867E+02  0.34180117106E+03 -0.87013934947E+03  0.94011539625E+03  0.46999998093E+01 0.  1.
       -5    1    3    3    0  502  0.99117809867E+02 -0.34180117106E+03  0.16360121169E+04  0.16742789844E+04  0.46999998093E+01 0. -1.
</event>
<event>
 5   0  0.1553604E-06  0.2498414E+04  0.7818609E-02  0.8403551E-01
       -1   -1    0    0    0  501  0.00000000000E+00  0.00000000000E+00  0.78958732021E+03  0.78958732023E+03  0.50400001928E-02 0.  1.
        1   -1    0    0  501    0  0.00000000000E+00  0.00000000000E+00 -0.19763712092E+04  0.19763712092E+04  0.50400001928E-02 0. -1.
    10030    2    1    2    0    0  0.00000000000E+00  0.00000000000E+00 -0.11867838890E+04  0.27659585294E+04  0.24984136141E+04 0.  0.
        1    1    3    3  502    0  0.10975388635E+04 -0.59152399326E+03 -0.67932816760E+03  0.14198517355E+04  0.50400001928E-02 0. -1.
       -1    1    3    3    0  502 -0.10975388635E+04  0.59152399326E+03 -0.50745572139E+03  0.13461067939E+04  0.50400001928E-02 0.  1.
</event>
<event>
 5   0  0.3808293E-06  0.2501970E+04  0.7818609E-02  0.8402284E-01
        2   -1    0    0  501    0  0.00000000000E+00  0.00000000000E+00  0.10142251854E+04  0.10142251854E+04  0.25500000920E-02 0.  1.
       -2   -1    0    0    0  501  0.00000000000E+00  0.00000000000E+00 -0.15430138342E+04  0.15430138342E+04  0.25500000920E-02 0. -1.
    10030    2    1    2    0    0  0.00000000000E+00  0.00000000000E+00 -0.52878864877E+03  0.25572390196E+04  0.25019700175E+04 0.  0.
        1    1    3    3  502    0 -0.90021241573E+03  0.57280589105E+02  0.62152857070E+03  0.10954274159E+04  0.50400001928E-02 0.  1.
       -1    1    3    3    0  502  0.90021241573E+03 -0.57280589105E+02 -0.11503172195E+04  0.14618116037E+04  0.50400001928E-02 0. -1.
</event>
<event>
 5   0  0.1553604E-06  0.2500499E+04  0.7818609E-02  0.8402808E-01
       -1   -1    0    0    0  501  0.00000000000E+00  0.00000000000E+00  0.19757431808E+04  0.19757431808E+04  0.50400001928E-02 0. -1.
        1   -1    0    0  501    0  0.00000000000E+00  0.00000000000E+00 -0.79115742790E+03  0.79115742791E+03  0.50400001928E-02 0.  1.
    10030    2    1    2    0    0  0.00000000000E+00  0.00000000000E+00  0.11845857529E+04  0.27669006087E+04  0.25004990647E+04 0.  0.
        1    1    3    3  502    0  0.45982764917E+03 -0.74864450216E+03 -0.39197610523E+03  0.96205785931E+03  0.50400001928E-02 0.  1.
       -1    1    3    3    0  502 -0.45982764917E+03  0.74864450216E+03  0.15765618581E+04  0.18048427494E+04  0.50400001928E-02 0. -1.
</event>
<event>
 5   0  0.3814260E-06  0.2486210E+04  0.7818609E-02  0.8407915E-01
        2   -1    0    0  501    0  0.00000000000E+00  0.00000000000E+00  0.12082426583E+04  0.12082426583E+04  0.25500000920E-02 0.  1.
       -2   -1    0    0    0  501  0.00000000000E+00  0.00000000000E+00 -0.12789735311E+04  0.12789735311E+04  0.25500000920E-02 0. -1.
    10030    2    1    2    0    0  0.00000000000E+00  0.00000000000E+00 -0.70730872778E+02  0.24872161895E+04  0.24862102720E+04 0.  0.
        5    1    3    3  502    0  0.69953796628E+03 -0.54634832105E+03  0.83529608005E+03  0.12188484260E+04  0.46999998093E+01 0.  1.
       -5    1    3    3    0  502 -0.69953796628E+03  0.54634832105E+03 -0.90602695282E+03  0.12683677635E+04  0.46999998093E+01 0. -1.
</event>
<event>
 5   0  0.3808293E-06  0.2496830E+04  0.7818609E-02  0.8404116E-01
       -2   -1    0    0    0  501  0.00000000000E+00  0.00000000000E+00  0.80177972273E+03  0.80177972274E+03  0.25500000920E-02 0.  1.
        2   -1    0    0  501    0  0.00000000000E+00  0.00000000000E+00 -0.19438507446E+04  0.19438507446E+04  0.25500000920E-02 0. -1.
    10030    2    1    2    0    0  0.00000000000E+00  0.00000000000E+00 -0.11420710219E+04  0.27456304674E+04  0.24968300792E+04 0.  0.
        1    1    3    3  502    0  0.21977593932E+03  0.95977502772E+03 -0.14150244424E+04  0.17238804309E+04  0.50400001928E-02 0.  1.
       -1    1    3    3    0  502 -0.21977593932E+03 -0.95977502772E+03  0.27295342048E+03  0.10217500365E+04  0.50400001928E-02 0. -1.
</event>
<event>
 5   0  0.3814260E-06  0.2498547E+04  0.7818609E-02  0.8403503E-01
        2   -1    0    0  501    0  0.00000000000E+00  0.00000000000E+00  0.27612520055E+04  0.27612520055E+04  0.25500000920E-02 0.  1.
       -2   -1    0    0    0  501  0.00000000000E+00  0.00000000000E+00 -0.56520873942E+03  0.56520873943E+03  0.25500000920E-02 0. -1.
    10030    2    1    2    0    0  0.00000000000E+00  0.00000000000E+00  0.21960432660E+04  0.33264607449E+04  0.24985465897E+04 0.  0.
        5    1    3    3  502    0 -0.84432631134E+03  0.54611321179E+03  0.20849660059E+04  0.23147854967E+04  0.46999998093E+01 0.  1.
       -5    1    3    3    0  502  0.84432631134E+03 -0.54611321179E+03  0.11107726019E+03  0.10116752482E+04  0.46999998093E+01 0. -1.
</event>
<event>
 5   0  0.3814260E-06  0.2497595E+04  0.7818609E-02  0.8403843E-01
       -2   -1    0    0    0  501  0.00000000000E+00  0.00000000000E+00  0.10834913022E+04  0.10834913022E+04  0.25500000920E-02 0.  1.
        2   -1    0    0  501    0  0.00000000000E+00  0.00000000000E+00 -0.14393239795E+04  0.14393239795E+04  0.25500000920E-02 0. -1.
    10030    2    1    2    0    0  0.00000000000E+00  0.00000000000E+00 -0.35583267724E+03  0.25228152817E+04  0.24975948533E+04 0.  0.
        5    1    3    3  502    0  0.10241720974E+04  0.63303214658E+03 -0.51264567716E+03  0.13086198318E+04  0.46999998093E+01 0. -1.
       -5    1    3    3    0  502 -0.10241720974E+04 -0.63303214658E+03  0.15681299992E+03  0.12141954500E+04  0.46999998093E+01 0.  1.
</event>
<event>
 5   0  0.1501747E-06  0.2511129E+04  0.7818609E-02  0.8399032E-01
       -1   -1    0    0    0  501  0.00000000000E+00  0.00000000000E+00  0.84795362153E+03  0.84795362155E+03  0.50400001928E-02 0. -1.
        1   -1    0    0  501    0  0.00000000000E+00  0.00000000000E+00 -0.18591133377E+04  0.18591133377E+04  0.50400001928E-02 0.  1.
    10030    2    1    2    0    0  0.00000000000E+00  0.00000000000E+00 -0.10111597162E+04  0.27070669593E+04  0.25111287403E+04 0.  0.
        2    1    3    3  502    0 -0.77427150134E+02 -0.94217198217E+02 -0.18527137239E+04  0.18567229160E+04  0.25500000920E-02 0.  1.
       -2    1    3    3    0  502  0.77427150134E+02  0.94217198217E+02  0.84155400772E+03  0.85034404328E+03  0.25500000920E-02 0. -1.
</event>
<event>
 5   0  0.3713394E-06  0.2503289E+04  0.7818609E-02  0.8401815E-01
       -2   -1    0    0    0  501  0.00000000000E+00  0.00000000000E+00  0.96654057787E+03  0.96654057787E+03  0.25500000920E-02 0. -1.
        2   -1    0    0  501    0  0.00000000000E+00  0.00000000000E+00 -0.16208471352E+04  0.16208471352E+04  0.25500000920E-02 0.  1.
    10030    2    1    2    0    0  0.00000000000E+00  0.00000000000E+00 -0.65430655731E+03  0.25873877131E+04  0.25032894572E+04 0.  0.
        3    1    3    3  502    0 -0.91231426239E+02 -0.76359967193E+03 -0.13478549370E+04  0.15518120291E+04  0.10100000352E+00 0.  1.
       -3    1    3    3    0  502  0.91231426239E+02  0.76359967193E+03  0.69354837970E+03  0.10355756840E+04  0.10100000352E+00 0. -1.
</event>
<event>
 5   0  0.1501747E-06  0.2502362E+04  0.7818609E-02  0.8402144E-01
        1   -1    0    0  501    0  0.00000000000E+00  0.00000000000E+00  0.47240678268E+03  0.47240678271E+03  0.50400001928E-02 0. -1.
       -1   -1    0    0    0  501  0.00000000000E+00  0.00000000000E+00 -0.33137844348E+04  0.33137844348E+04  0.50400001928E-02 0.  1.
    10030    2    1    2    0    0  0.00000000000E+00  0.00000000000E+00 -0.28413776521E+04  0.37861912175E+04  0.25023622786E+04 0.  0.
        2    1    3    3  502    0 -0.46832767025E+03  0.66049996778E+03  0.22557351762E+02  0.80999990635E+03  0.25500000920E-02 0. -1.
       -2    1    3    3    0  502  0.46832767025E+03 -0.66049996778E+03 -0.28639350039E+04  0.29761913111E+04  0.25500000920E-02 0.  1.
</event>
<event>
 5   0  0.3971759E-06  0.2500070E+04  0.7818609E-02  0.8402960E-01
        2   -1    0    0  501    0  0.00000000000E+00  0.00000000000E+00  0.20513862953E+04  0.20513862953E+04  0.25500000920E-02 0.  1.
       -2   -1    0    0    0  501  0.00000000000E+00  0.00000000000E+00 -0.76172288532E+03  0.76172288532E+03  0.25500000920E-02 0. -1.
    10030    2    1    2    0    0  0.00000000000E+00  0.00000000000E+00  0.12896634100E+04  0.28131091806E+04  0.25000703092E+04 0.  0.
        4    1    3    3  502    0  0.12631687377E+03  0.25548101590E+03 -0.72467650166E+03  0.77870671439E+03  0.12699999809E+01 0. -1.
       -4    1    3    3    0  502 -0.12631687377E+03 -0.25548101590E+03  0.20143399116E+04  0.20344024662E+04  0.12699999809E+01 0.  1.
</event>
<event>
 5   0  0.1574896E-06  0.2497651E+04  0.7818609E-02  0.8403823E-01
       -1   -1    0    0    0  501  0.00000000000E+00  0.00000000000E+00  0.98054806233E+03  0.98054806234E+03  0.50400001928E-02 0. -1.
        1   -1    0    0  501    0  0.00000000000E+00  0.00000000000E+00 -0.15905030438E+04  0.15905030438E+04  0.50400001928E-02 0.  1.
    10030    2    1    2    0    0  0.00000000000E+00  0.00000000000E+00 -0.60995498149E+03  0.25710511062E+04  0.24976506383E+04 0.  0.
        3    1    3    3  502    0 -0.10569032932E+04  0.18230625433E+03 -0.96353192946E+03  0.14417607051E+04  0.10100000352E+00 0.  1.
       -3    1    3    3    0  502  0.10569032932E+04 -0.18230625433E+03  0.35357694797E+03  0.11292904010E+04  0.10100000352E+00 0. -1.
</event>
<event>
 5   0  0.3713394E-06  0.2509305E+04  0.7818609E-02  0.8399678E-01
       -2   -1    0    0    0  501  0.00000000000E+00  0.00000000000E+00  0.10425672074E+04  0.10425672074E+04  0.25500000920E-02 0.  1.
        2   -1    0    0  501    0  0.00000000000E+00  0.00000000000E+00 -0.15098810344E+04  0.15098810344E+04  0.25500000920E-02 0. -1.
    10030    2    1    2    0    0  0.00000000000E+00  0.00000000000E+00 -0.46731382706E+03  0.25524482418E+04  0.25093046475E+04 0.  0.
        3    1    3    3  502    0 -0.14212331183E+03 -0.17628528233E+03  0.10216096301E+04  0.10464042159E+04  0.10100000352E+00 0.  1.
       -3    1    3    3    0  502  0.14212331183E+03  0.17628528233E+03 -0.14889234572E+04  0.15060440259E+04  0.10100000352E+00 0. -1.
</event>
<event>
 5   0  0.1519145E-06  0.2496000E+04  0.7818609E-02  0.8404412E-01
       -1   -1    0    0    0  501  0.00000000000E+00  0.00000000000E+00  0.10828135326E+04  0.10828135326E+04  0.50400001928E-02 0. -1.
        1   -1    0    0  501    0  0.00000000000E+00  0.00000000000E+00 -0.14383858203E+04  0.14383858203E+04  0.50400001928E-02 0.  1.
    10030    2    1    2    0    0  0.00000000000E+00  0.00000000000E+00 -0.35557228765E+03  0.25211993529E+04  0.24959997046E+04 0.  0.
        4    1    3    3  502    0 -0.18094861901E+03  0.84670879745E+03 -0.10856617832E+04  0.13886400941E+04  0.12699999809E+01 0.  1.
       -4    1    3    3    0  502  0.18094861901E+03 -0.84670879745E+03  0.73008949556E+03  0.11325592589E+04  0.12699999809E+01 0. -1.
</event>
<event>
 5   0  0.3808293E-06  0.2498624E+04  0.7818609E-02  0.8403476E-01
       -2   -1    0    0    0  501  0.00000000000E+00  0.00000000000E+00  0.59143324387E+03  0.59143324387E+03  0.25500000920E-02 0.  1.
        2   -1    0    0  501    0  0.00000000000E+00  0.00000000000E+00 -0.26389803954E+04  0.26389803954E+04  0.25500000920E-02 0. -1.
    10030    2    1    2    0    0  0.00000000000E+00  0.00000000000E+00 -0.20475471515E+04  0.32304136393E+04  0.24986242100E+04 0.  0.
        1    1    3    3  502    0 -0.18029581849E+03  0.29455385350E+03 -0.25760403078E+04  0.25990868055E+04  0.50400001928E-02 0. -1.
       -1    1    3    3    0  502  0.18029581849E+03 -0.29455385350E+03  0.52849315631E+03  0.63132683379E+03  0.50400001928E-02 0.  1.
</event>
<event>
 5   0  0.1541852E-06  0.2503537E+04  0.7818609E-02  0.8401727E-01
       -1   -1    0    0    0  501  0.00000000000E+00  0.00000000000E+00  0.10724243183E+04  0.10724243183E+04  0.50400001928E-02 0. -1.
        1   -1    0    0  501    0  0.00000000000E+00  0.00000000000E+00 -0.14611044710E+04  0.14611044710E+04  0.50400001928E-02 0.  1.
    10030    2    1    2    0    0  0.00000000000E+00  0.00000000000E+00 -0.38868015276E+03  0.25335287893E+04  0.25035366714E+04 0.  0.
        5    1    3    3  502    0 -0.10935902630E+04 -0.46465626036E+02 -0.80890702796E+03  0.13610479006E+04  0.46999998093E+01 0.  1.
       -5    1    3    3    0  502  0.10935902630E+04  0.46465626036E+02  0.42022687520E+03  0.11724808887E+04  0.46999998093E+01 0. -1.
</event>
<event>
 5   0  0.1519145E-06  0.2500569E+04  0.7818609E-02  0.8402783E-01
       -1   -1    0    0    0  501  0.00000000000E+00  0.00000000000E+00  0.21015439705E+04  0.21015439705E+04  0.50400001928E-02 0.  1.
        1   -1    0    0  501    0  0.00000000000E+00  0.00000000000E+00 -0.74383926420E+03  0.74383926422E+03  0.50400001928E-02 0. -1.
    10030    2    1    2    0    0  0.00000000000E+00  0.00000000000E+00  0.13577047063E+04  0.28453832348E+04  0.25005686719E+04 0.  0.
        4    1    3    3  502    0 -0.24079481230E+03 -0.11282306619E+04  0.13038871162E+03  0.11609863897E+04  0.12699999809E+01 0. -1.
       -4    1    3    3    0  502  0.24079481230E+03  0.11282306619E+04  0.12273159947E+04  0.16843968451E+04  0.12699999809E+01 0.  1.
</event>
<event>
 5   0  0.3713394E-06  0.2498591E+04  0.7818609E-02  0.8403488E-01
        2   -1    0    0  501    0  0.00000000000E+00  0.00000000000E+00  0.88940265030E+03  0.88940265030E+03  0.25500000920E-02 0.  1.
       -2   -1    0    0    0  501  0.00000000000E+00  0.00000000000E+00 -0.17548176670E+04  0.17548176670E+04  0.25500000920E-02 0. -1.
    10030    2    1    2    0    0  0.00000000000E+00  0.00000000000E+00 -0.86541501675E+03  0.26442203173E+04  0.24985911901E+04 0.  0.
        3    1    3    3  502    0 -0.54999702479E+03 -0.60528613320E+03 -0.14321402268E+04  0.16492100138E+04  0.10100000352E+00 0. -1.
       -3    1    3    3    0  502  0.54999702479E+03  0.60528613320E+03  0.56672521000E+03  0.99501030355E+03  0.10100000352E+00 0.  1.
</event>
<event>
 5   0  0.1541852E-06  0.2503379E+04  0.7818609E-02  0.8401783E-01
       -1   -1    0    0    0  501  0.00000000000E+00  0.00000000000E+00  0.15110396273E+04  0.15110396273E+04  0.50400001928E-02 0. -1.
        1   -1    0    0  501    0  0.00000000000E+00  0.00000000000E+00 -0.10368534613E+04  0.10368534613E+04  0.50400001928E-02 0.  1.
    10030    2    1    2    0    0  0.00000000000E+00  0.00000000000E+00  0.47418616599E+03  0.25478930886E+04  0.25033790506E+04 0.  0.
        5    1    3    3  502    0 -0.57474410590E+03 -0.73135679719E+03 -0.61535050206E+03  0.11152990103E+04  0.46999998093E+01 0.  1.
       -5    1    3    3    0  502  0.57474410590E+03  0.73135679719E+03  0.10895366681E+04  0.14325940783E+04  0.46999998093E+01 0. -1.
</event>
<event>
 5   0  0.1574896E-06  0.2497518E+04  0.7818609E-02  0.8403870E-01
       -1   -1    0    0    0  501  0.00000000000E+00  0.00000000000E+00  0.13251507040E+04  0.13251507040E+04  0.50400001928E-02 0.  1.
        1   -1    0    0  501    0  0.00000000000E+00  0.00000000000E+00 -0.11767708019E+04  0.11767708019E+04  0.50400001928E-02 0. -1.
    10030    2    1    2    0    0  0.00000000000E+00  0.00000000000E+00  0.14837990213E+03  0.25019215059E+04  0.24975176929E+04 0.  0.
        3    1    3    3  502    0 -0.10259010312E+04 -0.49895702816E+03 -0.43461073960E+03  0.12207856269E+04  0.10100000352E+00 0. -1.
       -3    1    3    3    0  502  0.10259010312E+04  0.49895702816E+03  0.58299064172E+03  0.12811358789E+04  0.10100000352E+00 0.  1.
</event>
<event>
 5   0  0.1501747E-06  0.2503002E+04  0.7818609E-02  0.8401917E-01
        1   -1    0    0  501    0  0.00000000000E+00  0.00000000000E+00  0.21669389428E+04  0.21669389428E+04  0.50400001928E-02 0. -1.
       -1   -1    0    0    0  501  0.00000000000E+00  0.00000000000E+00 -0.72279623751E+03  0.72279623753E+03  0.50400001928E-02 0.  1.
    10030    2    1    2    0    0  0.00000000000E+00  0.00000000000E+00  0.14441427053E+04  0.28897351803E+04  0.25030024489E+04 0.  0.
        2    1    3    3  502    0  0.38829016416E+03  0.11201161679E+04  0.25907808459E+03  0.12134870972E+04  0.25500000920E-02 0.  1.
       -2    1    3    3    0  502 -0.38829016416E+03 -0.11201161679E+04  0.11850646207E+04  0.16762480832E+04  0.25500000920E-02 0. -1.
</event>
<event>
 5   0  0.3924441E-06  0.2498009E+04  0.7818609E-02  0.8403695E-01
        2   -1    0    0  501    0  0.00000000000E+00  0.00000000000E+00  0.16231906077E+04  0.16231906077E+04  0.25500000920E-02 0. -1.
       -2   -1    0    0    0  501  0.00000000000E+00  0.00000000000E+00 -0.96107741577E+03  0.96107741577E+03  0.25500000920E-02 0.  1.
    10030    2    1    2    0    0  0.00000000000E+00  0.00000000000E+00  0.66211319198E+03  0.25842680235E+04  0.24980086746E+04 0.  0.
        2    1    3    3  502    0  0.25058549182E+03 -0.15735077853E+03 -0.92429473587E+03  0.97050147603E+03  0.25500000920E-02 0.  1.
       -2    1    3    3    0  502 -0.25058549182E+03  0.15735077853E+03  0.15864079279E+04  0.16137665475E+04  0.25500000920E-02 0. -1.
</event>
<event>
 5   0  0.1519145E-06  0.2507844E+04  0.7818609E-02  0.8400196E-01
        1   -1    0    0  501    0  0.00000000000E+00  0.00000000000E+00  0.12196352051E+04  0.12196352051E+04  0.50400001928E-02 0. -1.
       -1   -1    0    0    0  501  0.00000000000E+00  0.00000000000E+00 -0.12891730216E+04  0.12891730216E+04  0.50400001928E-02 0.  1.
    10030    2    1    2    0    0  0.00000000000E+00  0.00000000000E+00 -0.69537816510E+02  0.25088082267E+04  0.25078443354E+04 0.  0.
        4    1    3    3  502    0  0.11450738363E+04 -0.30143813089E+03  0.37801560797E+03  0.12429627710E+04  0.12699999809E+01 0. -1.
       -4    1    3    3    0  502 -0.11450738363E+04  0.30143813089E+03 -0.44755342448E+03  0.12658454558E+04  0.12699999809E+01 0.  1.
</event>
<event>
 5   0  0.1501747E-06  0.2495796E+04  0.7818609E-02  0.8404485E-01
        1   -1    0    0  501    0  0.00000000000E+00  0.00000000000E+00  0.14898534049E+04  0.14898534049E+04  0.50400001928E-02 0. -1.
       -1   -1    0    0    0  501  0.00000000000E+00  0.00000000000E+00 -0.10452365161E+04  0.10452365162E+04  0.50400001928E-02 0.  1.
    10030    2    1    2    0    0  0.00000000000E+00  0.00000000000E+00  0.44461688872E+03  0.25350899210E+04  0.24957958110E+04 0.  0.
        2    1    3    3  502    0 -0.10158774631E+04  0.71132284600E+03  0.81335853294E+02  0.12428204747E+04  0.25500000920E-02 0.  1.
       -2    1    3    3    0  502  0.10158774631E+04 -0.71132284600E+03  0.36328103543E+03  0.12922694464E+04  0.25500000920E-02 0. -1.
</event>
<event>
 5   0  0.1574896E-06  0.2500639E+04  0.7818609E-02  0.8402758E-01
        1   -1    0    0  501    0  0.00000000000E+00  0.00000000000E+00  0.11904277919E+04  0.11904277919E+04  0.50400001928E-02 0.  1.
       -1   -1    0    0    0  501  0.00000000000E+00  0.00000000000E+00 -0.13132243144E+04  0.13132243144E+04  0.50400001928E-02 0. -1.
    10030    2    1    2    0    0  0.00000000000E+00  0.00000000000E+00 -0.12279652249E+03  0.25036521063E+04  0.25006388950E+04 0.  0.
        3    1    3    3  502    0 -0.60456260255E+03 -0.19895768856E+03 -0.11389007172E+04  0.13046742720E+04  0.10100000352E+00 0. -1.
       -3    1    3    3    0  502  0.60456260255E+03  0.19895768856E+03  0.10161041947E+04  0.11989778342E+04  0.10100000352E+00 0.  1.
</event>
<event>
 5   0  0.3808293E-06  0.2500488E+04  0.7818609E-02  0.8402812E-01
       -2   -1    0    0    0  501  0.00000000000E+00  0.00000000000E+00  0.64493459647E+03  0.64493459647E+03  0.25500000920E-02 0. -1.
        2   -1    0    0  501    0  0.00000000000E+00  0.00000000000E+00 -0.24236714284E+04  0.24236714284E+04  0.25500000920E-02 0.  1.
    10030    2    1    2    0    0  0.00000000000E+00  0.00000000000E+00 -0.17787368319E+04  0.30686060249E+04  0.25004875962E+04 0.  0.
        1    1    3    3  502    0 -0.42142704846E+03  0.19507316502E+03 -0.23139049952E+04  0.23600446232E+04  0.50400001928E-02 0.  1.
       -1    1    3    3    0  502  0.42142704846E+03 -0.19507316502E+03  0.53516816327E+03  0.70856140163E+03  0.50400001928E-02 0. -1.
</event>
<event>
 5   0  0.3971759E-06  0.2501308E+04  0.7818609E-02  0.8402520E-01
       -2   -1    0    0    0  501  0.00000000000E+00  0.00000000000E+00  0.13085948225E+04  0.13085948225E+04  0.25500000920E-02 0. -1.
        2   -1    0    0  501    0  0.00000000000E+00  0.00000000000E+00 -0.11952785601E+04  0.11952785601E+04  0.25500000920E-02 0.  1.
    10030    2    1    2    0    0  0.00000000000E+00  0.00000000000E+00  0.11331626233E+03  0.25038733826E+04  0.25013079260E+04 0.  0.
        4    1    3    3  502    0 -0.10747727863E+04  0.19209635468E+03  0.66728063312E+03  0.12795712594E+04  0.12699999809E+01 0. -1.
       -4    1    3    3    0  502  0.10747727863E+04 -0.19209635468E+03 -0.55396437079E+03  0.12243021231E+04  0.12699999809E+01 0.  1.
</event>
<event>
 5   0  0.1553604E-06  0.2503158E+04  0.7818609E-02  0.8401861E-01
        1   -1    0    0  501    0  0.00000000000E+00  0.00000000000E+00  0.11795703593E+04  0.11795703593E+04  0.50400001928E-02 0.  1.
       -1   -1    0    0    0  501  0.00000000000E+00  0.00000000000E+00 -0.13279836400E+04  0.13279836400E+04  0.50400001928E-02 0. -1.
    10030    2    1    2    0    0  0.00000000000E+00  0.00000000000E+00 -0.14841328071E+03  0.25075539993E+04  0.25031581168E+04 0.  0.
        1    1    3    3  502    0  0.11528012825E+04  0.19170716010E+03 -0.52304225196E+03  0.12803419971E+04  0.50400001928E-02 0. -1.
       -1    1    3    3    0  502 -0.11528012825E+04 -0.19170716010E+03  0.37462897125E+03  0.12272120022E+04  0.50400001928E-02 0.  1.
</event>
<event>
 5   0  0.3808293E-06  0.2506316E+04  0.7818609E-02  0.8400739E-01
        2   -1    0    0  501    0  0.00000000000E+00  0.00000000000E+00  0.11476623199E+04  0.11476623199E+04  0.25500000920E-02 0.  1.
       -2   -1    0    0    0  501  0.00000000000E+00  0.00000000000E+00 -0.13683515458E+04  0.13683515458E+04  0.25500000920E-02 0. -1.
    10030    2    1    2    0    0  0.00000000000E+00  0.00000000000E+00 -0.22068922587E+03  0.25160138657E+04  0.25063164282E+04 0.  0.
        1    1    3    3  502    0 -0.23055725223E+03  0.12317512658E+04 -0.11650693610E+03  0.12585474539E+04  0.50400001928E-02 0. -1.
       -1    1    3    3    0  502  0.23055725223E+03 -0.12317512658E+04 -0.10418228977E+03  0.12574664119E+04  0.50400001928E-02 0.  1.
</event>
<event>
 5   0  0.3971759E-06  0.2497294E+04  0.7818609E-02  0.8403950E-01
        2   -1    0    0  501    0  0.00000000000E+00  0.00000000000E+00  0.13633645412E+04  0.13633645412E+04  0.25500000920E-02 0. -1.
       -2   -1    0    0    0  501  0.00000000000E+00  0.00000000000E+00 -0.11435825789E+04  0.11435825789E+04  0.25500000920E-02 0.  1.
    10030    2    1    2    0    0  0.00000000000E+00  0.00000000000E+00  0.21978196230E+03  0.25069471201E+04  0.24972944865E+04 0.  0.
        4    1    3    3  502    0 -0.44705697910E+03  0.83208584509E+03  0.92968173447E+03  0.13253439314E+04  0.12699999809E+01 0. -1.
       -4    1    3    3    0  502  0.44705697910E+03 -0.83208584509E+03 -0.70989977217E+03  0.11816031887E+04  0.12699999809E+01 0.  1.
</event>
<event>
 5   0  0.3814260E-06  0.2507194E+04  0.7818609E-02  0.8400427E-01
        2   -1    0    0  501    0  0.00000000000E+00  0.00000000000E+00  0.98137381789E+03  0.98137381790E+03  0.25500000920E-02 0. -1.
       -2   -1    0    0    0  501  0.00000000000E+00  0.00000000000E+00 -0.16013319675E+04  0.16013319675E+04  0.25500000920E-02 0.  1.
    10030    2    1    2    0    0  0.00000000000E+00  0.00000000000E+00 -0.61995814961E+03  0.25827057854E+04  0.25071938630E+04 0.  0.
        5    1    3    3  502    0 -0.61870558032E+03  0.85280238930E+03  0.38975450615E+03  0.11233873666E+04  0.46999998093E+01 0. -1.
       -5    1    3    3    0  502  0.61870558032E+03 -0.85280238930E+03 -0.10097126558E+04  0.14593184188E+04  0.46999998093E+01 0.  1.
</event>
<event>
 5   0  0.3808293E-06  0.2499842E+04  0.7818609E-02  0.8403042E-01
       -2   -1    0    0    0  501  0.00000000000E+00  0.00000000000E+00  0.96678915023E+03  0.96678915024E+03  0.25500000920E-02 0.  1.
        2   -1    0    0  501    0  0.00000000000E+00  0.00000000000E+00 -0.16159708211E+04  0.16159708211E+04  0.25500000920E-02 0. -1.
    10030    2    1    2    0    0  0.00000000000E+00  0.00000000000E+00 -0.64918167088E+03  0.25827599714E+04  0.24998424406E+04 0.  0.
        1    1    3    3  502    0  0.82181935857E+03  0.27405911039E+03  0.60629831182E+03  0.10573992137E+04  0.50400001928E-02 0.  1.
       -1    1    3    3    0  502 -0.82181935857E+03 -0.27405911039E+03 -0.12554799827E+04  0.15253607577E+04  0.50400001928E-02 0. -1.
</event>
<event>
 5   0  0.3814260E-06  0.2489737E+04  0.7818609E-02  0.8406651E-01
        2   -1    0    0  501    0  0.00000000000E+00  0.00000000000E+00  0.24702321628E+04  0.24702321628E+04  0.25500000920E-02 0. -1.
       -2   -1    0    0    0  501  0.00000000000E+00  0.00000000000E+00 -0.62734913541E+03  0.62734913541E+03  0.25500000920E-02 0.  1.
    10030    2    1    2    0    0  0.00000000000E+00  0.00000000000E+00  0.18428830274E+04  0.30975812982E+04  0.24897373449E+04 0.  0.
        5    1    3    3  502    0  0.10527148736E+04 -0.50965422642E+02  0.97233089242E+02  0.10584339578E+04  0.46999998093E+01 0.  1.
       -5    1    3    3    0  502 -0.10527148736E+04  0.50965422642E+02  0.17456499382E+04  0.20391473404E+04  0.46999998093E+01 0. -1.
</event>
<event>
 5   0  0.3808293E-06  0.2500868E+04  0.7818609E-02  0.8402676E-01
        2   -1    0    0  501    0  0.00000000000E+00  0.00000000000E+00  0.24454076183E+04  0.24454076183E+04  0.25500000920E-02 0.  1.
       -2   -1    0    0    0  501  0.00000000000E+00  0.00000000000E+00 -0.63939647433E+03  0.63939647434E+03  0.25500000920E-02 0. -1.
    10030    2    1    2    0    0  0.00000000000E+00  0.00000000000E+00  0.18060111440E+04  0.30848040927E+04  0.25008678569E+04 0.  0.
        1    1    3    3  502    0  0.11134713353E+04  0.55694401986E+03  0.10467483342E+04  0.16265568331E+04  0.50400001928E-02 0. -1.
       -1    1    3    3    0  502 -0.11134713353E+04 -0.55694401986E+03  0.75926280973E+03  0.14582472596E+04  0.50400001928E-02 0.  1.
</event>
<event>
 5   0  0.1519145E-06  0.2497960E+04  0.7818609E-02  0.8403712E-01
       -1   -1    0    0    0  501  0.00000000000E+00  0.00000000000E+00  0.78433487492E+03  0.78433487494E+03  0.50400001928E-02 0. -1.
        1   -1    0    0  501    0  0.00000000000E+00  0.00000000000E+00 -0.19888847130E+04  0.19888847130E+04  0.50400001928E-02 0.  1.
    10030    2    1    2    0    0  0.00000000000E+00  0.00000000000E+00 -0.12045498381E+04  0.27732195879E+04  0.24979604822E+04 0.  0.
        4    1    3    3  502    0  0.10044736278E+04 -0.44727201867E+03  0.55396932535E+02  0.11009495723E+04  0.12699999809E+01 0. -1.
       -4    1    3    3    0  502 -0.10044736278E+04  0.44727201867E+03 -0.12599467706E+04  0.16722700157E+04  0.12699999809E+01 0.  1.
</event>
<event>
 5   0  0.1574896E-06  0.2495922E+04  0.7818609E-02  0.8404440E-01
       -1   -1    0    0    0  501  0.00000000000E+00  0.00000000000E+00  0.10849903507E+04  0.10849903507E+04  0.50400001928E-02 0.  1.
        1   -1    0    0  501    0  0.00000000000E+00  0.00000000000E+00 -0.14354105021E+04  0.14354105021E+04  0.50400001928E-02 0. -1.
    10030    2    1    2    0    0  0.00000000000E+00  0.00000000000E+00 -0.35042015138E+03  0.25204008529E+04  0.24959219091E+04 0.  0.
        3    1    3    3  502    0  0.74938245137E+03 -0.79735448367E+03 -0.78114368152E+03  0.13444454963E+04  0.10100000352E+00 0. -1.
       -3    1    3    3    0  502 -0.74938245137E+03  0.79735448367E+03  0.43072353014E+03  0.11759553566E+04  0.10100000352E+00 0.  1.
</event>
<event>
 5   0  0.3808293E-06  0.2500915E+04  0.7818609E-02  0.8402659E-01
       -2   -1    0    0    0  501  0.00000000000E+00  0.00000000000E+00  0.12395207558E+04  0.12395207558E+04  0.25500000920E-02 0. -1.
        2   -1    0    0  501    0  0.00000000000E+00  0.00000000000E+00 -0.12614911284E+04  0.12614911284E+04  0.25500000920E-02 0.  1.
    10030    2    1    2    0    0  0.00000000000E+00  0.00000000000E+00 -0.21970372640E+02  0.25010118842E+04  0.25009153819E+04 0.  0.
        1    1    3    3  502    0 -0.10527954883E+04  0.57403350557E+03  0.34364326169E+03  0.12473906754E+04  0.50400001928E-02 0. -1.
       -1    1    3    3    0  502  0.10527954883E+04 -0.57403350557E+03 -0.36561363433E+03  0.12536212088E+04  0.50400001928E-02 0.  1.
</event>
<event>
 5   0  0.1501747E-06  0.2501382E+04  0.7818609E-02  0.8402493E-01
        1   -1    0    0  501    0  0.00000000000E+00  0.00000000000E+00  0.14360075773E+04  0.14360075773E+04  0.50400001928E-02 0. -1.
       -1   -1    0    0    0  501  0.00000000000E+00  0.00000000000E+00 -0.10892897771E+04  0.10892897771E+04  0.50400001928E-02 0.  1.
    10030    2    1    2    0    0  0.00000000000E+00  0.00000000000E+00  0.34671780023E+03  0.25252973544E+04  0.25013823168E+04 0.  0.
        2    1    3    3  502    0  0.75864911223E+02  0.11814992617E+03 -0.10813075945E+04  0.10903857133E+04  0.25500000920E-02 0.  1.
       -2    1    3    3    0  502 -0.75864911223E+02 -0.11814992617E+03  0.14280253947E+04  0.14349116411E+04  0.25500000920E-02 0. -1.
</event>
<event>
 5   0  0.3924441E-06  0.2495956E+04  0.7818609E-02  0.8404427E-01
        2   -1    0    0  501    0  0.00000000000E+00  0.00000000000E+00  0.15962208370E+04  0.15962208370E+04  0.25500000920E-02 0. -1.
       -2   -1    0    0    0  501  0.00000000000E+00  0.00000000000E+00 -0.97571063940E+03  0.97571063940E+03  0.25500000920E-02 0.  1.
    10030    2    1    2    0    0  0.00000000000E+00  0.00000000000E+00  0.62051019756E+03  0.25719314764E+04  0.24959564527E+04 0.  0.
        2    1    3    3  502    0 -0.54221169488E+03 -0.28044836412E+03 -0.81136504565E+03  0.10153610414E+04  0.25500000920E-02 0.  1.
       -2    1    3    3    0  502  0.54221169488E+03  0.28044836412E+03  0.14318752432E+04  0.15565704350E+04  0.25500000920E-02 0. -1.
</event>
<event>
 5   0  0.1519145E-06  0.2501889E+04  0.7818609E-02  0.8402313E-01
       -1   -1    0    0    0  501  0.00000000000E+00  0.00000000000E+00  0.15026514773E+04  0.15026514774E+04  0.50400001928E-02 0.  1.
        1   -1    0    0  501    0  0.00000000000E+00  0.00000000000E+00 -0.10414007805E+04  0.10414007805E+04  0.50400001928E-02 0. -1.
    10030    2    1    2    0    0  0.00000000000E+00  0.00000000000E+00  0.46125069682E+03  0.25440522579E+04  0.25018892233E+04 0.  0.
        4    1    3    3  502    0 -0.75661230258E+03  0.27026954360E+03 -0.74436227273E+03  0.10952554992E+04  0.12699999809E+01 0. -1.
       -4    1    3    3    0  502  0.75661230258E+03 -0.27026954360E+03  0.12056129696E+04  0.14487967587E+04  0.12699999809E+01 0.  1.
</event>
<event>
 5   0  0.3814260E-06  0.2498435E+04  0.7818609E-02  0.8403543E-01
        2   -1    0    0  501    0  0.00000000000E+00  0.00000000000E+00  0.15179949121E+04  0.15179949121E+04  0.25500000920E-02 0. -1.
       -2   -1    0    0    0  501  0.00000000000E+00  0.00000000000E+00 -0.10280304447E+04  0.10280304447E+04  0.25500000920E-02 0.  1.
    10030    2    1    2    0    0  0.00000000000E+00  0.00000000000E+00  0.48996446731E+03  0.25460253568E+04  0.24984354981E+04 0.  0.
        5    1    3    3  502    0 -0.10216246757E+04 -0.35774210037E+03 -0.39045478854E+03  0.11507273440E+04  0.46999998093E+01 0.  1.
       -5    1    3    3    0  502  0.10216246757E+04  0.35774210037E+03  0.88041925586E+03  0.13952980128E+04  0.46999998093E+01 0. -1.
</event>
<event>
 5   0  0.1553604E-06  0.2497771E+04  0.7818609E-02  0.8403780E-01
       -1   -1    0    0    0  501  0.00000000000E+00  0.00000000000E+00  0.11020590197E+04  0.11020590197E+04  0.50400001928E-02 0.  1.
        1   -1    0    0  501    0  0.00000000000E+00  0.00000000000E+00 -0.14152736586E+04  0.14152736586E+04  0.50400001928E-02 0. -1.
    10030    2    1    2    0    0  0.00000000000E+00  0.00000000000E+00 -0.31321463889E+03  0.25173326783E+04  0.24977710871E+04 0.  0.
        1    1    3    3  502    0  0.42801641402E+02  0.53349045658E+03  0.98062295428E+03  0.11171684861E+04  0.50400001928E-02 0.  1.
       -1    1    3    3    0  502 -0.42801641402E+02 -0.53349045658E+03 -0.12938375932E+04  0.14001641923E+04  0.50400001928E-02 0. -1.
</event>
<event>
 5   0  0.3808293E-06  0.2502861E+04  0.7818609E-02  0.8401967E-01
        2   -1    0    0  501    0  0.00000000000E+00  0.00000000000E+00  0.20161451449E+04  0.20161451449E+04  0.25500000920E-02 0.  1.
       -2   -1    0    0    0  501  0.00000000000E+00  0.00000000000E+00 -0.77676836730E+03  0.77676836730E+03  0.25500000920E-02 0. -1.
    10030    2    1    2    0    0  0.00000000000E+00  0.00000000000E+00  0.12393767776E+04  0.27929135122E+04  0.25028605814E+04 0.  0.
        1    1    3    3  502    0 -0.94643521380E+02 -0.12127854184E+04  0.29192871163E+03  0.12510108872E+04  0.50400001928E-02 0. -1.
       -1    1    3    3    0  502  0.94643521380E+02  0.12127854184E+04  0.94744806598E+03  0.15419026250E+04  0.50400001928E-02 0.  1.
</event>
<event>
 5   0  0.1501747E-06  0.2499247E+04  0.7818609E-02  0.8403254E-01
        1   -1    0    0  501    0  0.00000000000E+00  0.00000000000E+00  0.20807280392E+04  0.20807280392E+04  0.50400001928E-02 0. -1.
       -1   -1    0    0    0  501  0.00000000000E+00  0.00000000000E+00 -0.75048669745E+03  0.75048669747E+03  0.50400001928E-02 0.  1.
    10030    2    1    2    0    0  0.00000000000E+00  0.00000000000E+00  0.13302413418E+04  0.28312147367E+04  0.24992468581E+04 0.  0.
        2    1    3    3  502    0  0.12500777608E+02 -0.12085344882E+04  0.30537564864E+03  0.12465817925E+04  0.25500000920E-02 0.  1.
       -2    1    3    3    0  502 -0.12500777608E+02  0.12085344882E+04  0.10248656931E+04  0.15846329441E+04  0.25500000920E-02 0. -1.
</event>
<event>
 5   0  0.1501747E-06  0.2499845E+04  0.7818609E-02  0.8403041E-01
       -1   -1    0    0    0  501  0.00000000000E+00  0.00000000000E+00  0.10446196712E+04  0.10446196712E+04  0.50400001928E-02 0.  1.
        1   -1    0    0  501    0  0.00000000000E+00  0.00000000000E+00 -0.14955742230E+04  0.14955742230E+04  0.50400001928E-02 0. -1.
    10030    2    1    2    0    0  0.00000000000E+00  0.00000000000E+00 -0.45095455173E+03  0.25401938942E+04  0.24998449977E+04 0.  0.
        2    1    3    3  502    0 -0.20702963923E+03  0.68816015780E+03 -0.12646669815E+04  0.14545818122E+04  0.25500000920E-02 0. -1.
       -2    1    3    3    0  502  0.20702963923E+03 -0.68816015780E+03  0.81371242975E+03  0.10856120820E+04  0.25500000920E-02 0.  1.
</event>
<event>
 5   0  0.1541852E-06  0.2517100E+04  0.7818609E-02  0.8396919E-01
       -1   -1    0    0    0  501  0.00000000000E+00  0.00000000000E+00  0.19447492435E+04  0.19447492436E+04  0.50400001928E-02 0.  1.
        1   -1    0    0  501    0  0.00000000000E+00  0.00000000000E+00 -0.81447390092E+03  0.81447390093E+03  0.50400001928E-02 0. -1.
    10030    2    1    2    0    0  0.00000000000E+00  0.00000000000E+00  0.11302753426E+04  0.27592231445E+04  0.25170995234E+04 0.  0.
        5    1    3    3  502    0  0.11781180833E+04 -0.42730943657E+03  0.43838721198E+03  0.13276901033E+04  0.46999998093E+01 0. -1.
       -5    1    3    3    0  502 -0.11781180833E+04  0.42730943657E+03  0.69188813065E+03  0.14315330412E+04  0.46999998093E+01 0.  1.
</event>
<event>
 5   0  0.1541852E-06  0.2500431E+04  0.7818609E-02  0.8402832E-01
       -1   -1    0    0    0  501  0.00000000000E+00  0.00000000000E+00  0.10053682265E+04  0.10053682265E+04  0.50400001928E-02 0. -1.
        1   -1    0    0  501    0  0.00000000000E+00  0.00000000000E+00 -0.15546928628E+04  0.15546928628E+04  0.50400001928E-02 0.  1.
    10030    2    1    2    0    0  0.00000000000E+00  0.00000000000E+00 -0.54932463638E+03  0.25600610893E+04  0.25004310078E+04 0.  0.
        5    1    3    3  502    0 -0.71092180369E+03  0.11174629690E+03 -0.13213532550E+04  0.15046240595E+04  0.46999998093E+01 0.  1.
       -5    1    3    3    0  502  0.71092180369E+03 -0.11174629690E+03  0.77202861867E+03  0.10554370298E+04  0.46999998093E+01 0. -1.
</event>
<event>
 5   0  0.1519145E-06  0.2498780E+04  0.7818609E-02  0.8403420E-01
        1   -1    0    0  501    0  0.00000000000E+00  0.00000000000E+00  0.79969609201E+03  0.79969609203E+03  0.50400001928E-02 0.  1.
       -1   -1    0    0    0  501  0.00000000000E+00  0.00000000000E+00 -0.19519599959E+04  0.19519599959E+04  0.50400001928E-02 0. -1.
    10030    2    1    2    0    0  0.00000000000E+00  0.00000000000E+00 -0.11522639039E+04  0.27516560879E+04  0.24987795265E+04 0.  0.
        4    1    3    3  502    0  0.12355490848E+04 -0.88029228865E+02 -0.39638830429E+03  0.13005598744E+04  0.12699999809E+01 0.  1.
       -4    1    3    3    0  502 -0.12355490848E+04  0.88029228865E+02 -0.75587559959E+03  0.14510962136E+04  0.12699999809E+01 0. -1.
</event>
<event>
 5   0  0.3971759E-06  0.2502598E+04  0.7818609E-02  0.8402060E-01
        2   -1    0    0  501    0  0.00000000000E+00  0.00000000000E+00  0.64409001336E+03  0.64409001337E+03  0.25500000920E-02 0.  1.
       -2   -1    0    0    0  501  0.00000000000E+00  0.00000000000E+00 -0.24309486207E+04  0.24309486207E+04  0.25500000920E-02 0. -1.
    10030    2    1    2    0    0  0.00000000000E+00  0.00000000000E+00 -0.17868586074E+04  0.30750386341E+04  0.25025984333E+04 0.  0.
        4    1    3    3  502    0 -0.68637435041E+03  0.42975086099E+03 -0.20655404205E+04  0.22186154225E+04  0.12699999809E+01 0. -1.
       -4    1    3    3    0  502  0.68637435041E+03 -0.42975086099E+03  0.27868181315E+03  0.85642321156E+03  0.12699999809E+01 0.  1.
</event>
<event>
 5   0  0.3808293E-06  0.2496505E+04  0.7818609E-02  0.8404232E-01
       -2   -1    0    0    0  501  0.00000000000E+00  0.00000000000E+00  0.13851519617E+04  0.13851519617E+04  0.25500000920E-02 0. -1.
        2   -1    0    0  501    0  0.00000000000E+00  0.00000000000E+00 -0.11248834075E+04  0.11248834075E+04  0.25500000920E-02 0.  1.
    10030    2    1    2    0    0  0.00000000000E+00  0.00000000000E+00  0.26026855425E+03  0.25100353692E+04  0.24965051240E+04 0.  0.
        1    1    3    3  502    0 -0.39256477391E+02 -0.11576796515E+04 -0.33754391400E+03  0.12065235764E+04  0.50400001928E-02 0.  1.
       -1    1    3    3    0  502  0.39256477391E+02  0.11576796515E+04  0.59781246825E+03  0.13035117927E+04  0.50400001928E-02 0. -1.
</event>
<event>
 5   0  0.3814260E-06  0.2502742E+04  0.7818609E-02  0.8402009E-01
        2   -1    0    0  501    0  0.00000000000E+00  0.00000000000E+00  0.17412019965E+04  0.17412019965E+04  0.25500000920E-02 0. -1.
       -2   -1    0    0    0  501  0.00000000000E+00  0.00000000000E+00 -0.89933848583E+03  0.89933848584E+03  0.25500000920E-02 0.  1.
    10030    2    1    2    0    0  0.00000000000E+00  0.00000000000E+00  0.84186351070E+03  0.26405404824E+04  0.25027424694E+04 0.  0.
        5    1    3    3  502    0  0.48442650031E+03 -0.81533130163E+03 -0.44039547746E+03  0.10456598071E+04  0.46999998093E+01 0.  1.
       -5    1    3    3    0  502 -0.48442650031E+03  0.81533130163E+03  0.12822589882E+04  0.15948806753E+04  0.46999998093E+01 0. -1.
</event>
<event>
 5   0  0.3924441E-06  0.2499406E+04  0.7818609E-02  0.8403197E-01
       -2   -1    0    0    0  501  0.00000000000E+00  0.00000000000E+00  0.88286102631E+03  0.88286102631E+03  0.25500000920E-02 0. -1.
        2   -1    0    0  501    0  0.00000000000E+00  0.00000000000E+00 -0.17689737797E+04  0.17689737797E+04  0.25500000920E-02 0.  1.
    10030    2    1    2    0    0  0.00000000000E+00  0.00000000000E+00 -0.88611275342E+03  0.26518348060E+04  0.24994063349E+04 0.  0.
        2    1    3    3  502    0 -0.29048983817E+03 -0.74034193978E+03 -0.14658310572E+04  0.16676783929E+04  0.25500000920E-02 0.  1.
       -2    1    3    3    0  502  0.29048983817E+03  0.74034193978E+03  0.57971830375E+03  0.98415641317E+03  0.25500000920E-02 0. -1.
</event>
<event>
 5   0  0.1501747E-06  0.2499665E+04  0.7818609E-02  0.8403105E-01
        1   -1    0    0  501    0  0.00000000000E+00  0.00000000000E+00  0.23566373675E+04  0.23566373675E+04  0.50400001928E-02 0.  1.
       -1   -1    0    0    0  501  0.00000000000E+00  0.00000000000E+00 -0.66284353428E+03  0.66284353430E+03  0.50400001928E-02 0. -1.
    10030    2    1    2    0    0  0.00000000000E+00  0.00000000000E+00  0.16937938332E+04  0.30194809018E+04  0.24996654510E+04 0.  0.
        2    1    3    3  502    0 -0.38143783451E+03  0.17730535293E+03  0.22685668418E+04  0.23072337388E+04  0.25500000920E-02 0.  1.
       -2    1    3    3    0  502  0.38143783451E+03 -0.17730535293E+03 -0.57477300859E+03  0.71224716299E+03  0.25500000920E-02 0. -1.
</event>
<event>
 5   0  0.1553604E-06  0.2500293E+04  0.7818609E-02  0.8402881E-01
        1   -1    0    0  501    0  0.00000000000E+00  0.00000000000E+00  0.94234844365E+03  0.94234844366E+03  0.50400001928E-02 0. -1.
       -1   -1    0    0    0  501  0.00000000000E+00  0.00000000000E+00 -0.16584802707E+04  0.16584802707E+04  0.50400001928E-02 0.  1.
    10030    2    1    2    0    0  0.00000000000E+00  0.00000000000E+00 -0.71613182709E+03  0.26008287144E+04  0.25002930244E+04 0.  0.
        1    1    3    3  502    0  0.77148067293E+03 -0.97253880082E+03 -0.20429720400E+03  0.12580745190E+04  0.50400001928E-02 0. -1.
       -1    1    3    3    0  502 -0.77148067293E+03  0.97253880082E+03 -0.51183462309E+03  0.13427541954E+04  0.50400001928E-02 0.  1.
</event>
<event>
 5   0  0.3814260E-06  0.2501870E+04  0.7818609E-02  0.8402320E-01
        2   -1    0    0  501    0  0.00000000000E+00  0.00000000000E+00  0.10678214736E+04  0.10678214736E+04  0.25500000920E-02 0. -1.
       -2   -1    0    0    0  501  0.00000000000E+00  0.00000000000E+00 -0.14654489650E+04  0.14654489650E+04  0.25500000920E-02 0.  1.
    10030    2    1    2    0    0  0.00000000000E+00  0.00000000000E+00 -0.39762749138E+03  0.25332704386E+04  0.25018695995E+04 0.  0.
        5    1    3    3  502    0 -0.19404129655E+02  0.74869630947E+03 -0.12133337613E+04  0.14258764288E+04  0.46999998093E+01 0.  1.
       -5    1    3    3    0  502  0.19404129655E+02 -0.74869630947E+03  0.81570626989E+03  0.11073940097E+04  0.46999998093E+01 0. -1.
</event>
<event>
 5   0  0.3808293E-06  0.2507718E+04  0.7818609E-02  0.8400241E-01
       -2   -1    0    0    0  501  0.00000000000E+00  0.00000000000E+00  0.14926493127E+04  0.14926493127E+04  0.25500000920E-02 0.  1.
        2   -1    0    0  501    0  0.00000000000E+00  0.00000000000E+00 -0.10532695858E+04  0.10532695858E+04  0.25500000920E-02 0. -1.
    10030    2    1    2    0    0  0.00000000000E+00  0.00000000000E+00  0.43937972691E+03  0.25459188985E+04  0.25077177858E+04 0.  0.
        1    1    3    3  502    0 -0.50029402403E+03 -0.96530430435E+03 -0.41436840532E+03  0.11635324172E+04  0.50400001928E-02 0.  1.
       -1    1    3    3    0  502  0.50029402403E+03  0.96530430435E+03  0.85374813223E+03  0.13823864813E+04  0.50400001928E-02 0. -1.
</event>
<event>
 5   0  0.1541852E-06  0.2500436E+04  0.7818609E-02  0.8402830E-01
        1   -1    0    0  501    0  0.00000000000E+00  0.00000000000E+00  0.76438548333E+03  0.76438548335E+03  0.50400001928E-02 0.  1.
       -1   -1    0    0    0  501  0.00000000000E+00  0.00000000000E+00 -0.20448379588E+04  0.20448379588E+04  0.50400001928E-02 0. -1.
    10030    2    1    2    0    0  0.00000000000E+00  0.00000000000E+00 -0.12804524755E+04  0.28092234421E+04  0.25004355233E+04 0.  0.
        5    1    3    3  502    0  0.10016181131E+04  0.40395598471E+03  0.67309961997E+02  0.10821145979E+04  0.46999998093E+01 0.  1.
       -5    1    3    3    0  502 -0.10016181131E+04 -0.40395598471E+03 -0.13477624375E+04  0.17271088442E+04  0.46999998093E+01 0. -1.
</event>
<event>
 5   0  0.1574896E-06  0.2501177E+04  0.7818609E-02  0.8402566E-01
        1   -1    0    0  501    0  0.00000000000E+00  0.00000000000E+00  0.12745868742E+04  0.12745868742E+04  0.50400001928E-02 0. -1.
       -1   -1    0    0    0  501  0.00000000000E+00  0.00000000000E+00 -0.12270417266E+04  0.12270417266E+04  0.50400001928E-02 0.  1.
    10030    2    1    2    0    0  0.00000000000E+00  0.00000000000E+00  0.47545147584E+02  0.25016286008E+04  0.25011767461E+04 0.  0.
        3    1    3    3  502    0  0.66670715450E+03  0.76175521784E+03  0.75820886471E+03  0.12647727600E+04  0.10100000352E+00 0. -1.
       -3    1    3    3    0  502 -0.66670715450E+03 -0.76175521784E+03 -0.71066371713E+03  0.12368558407E+04  0.10100000352E+00 0.  1.
</event>
<event>
 5   0  0.3814260E-06  0.2502606E+04  0.7818609E-02  0.8402058E-01
        2   -1    0    0  501    0  0.00000000000E+00  0.00000000000E+00  0.21499330888E+04  0.21499330888E+04  0.25500000920E-02 0. -1.
       -2   -1    0    0    0  501  0.00000000000E+00  0.00000000000E+00 -0.72828278145E+03  0.72828278146E+03  0.25500000920E-02 0.  1.
    10030    2    1    2    0    0  0.00000000000E+00  0.00000000000E+00  0.14216503073E+04  0.28782158702E+04  0.25026060416E+04 0.  0.
        5    1    3    3  502    0  0.10898730696E+04 -0.39514893272E+03  0.12524310970E+04  0.17066258318E+04  0.46999998093E+01 0. -1.
       -5    1    3    3    0  502 -0.10898730696E+04  0.39514893272E+03  0.16921921026E+03  0.11715900384E+04  0.46999998093E+01 0.  1.
</event>
<event>
 5   0  0.1574896E-06  0.2517438E+04  0.7818609E-02  0.8396799E-01
       -1   -1    0    0    0  501  0.00000000000E+00  0.00000000000E+00  0.98633413772E+03  0.98633413774E+03  0.50400001928E-02 0. -1.
        1   -1    0    0  501    0  0.00000000000E+00  0.00000000000E+00 -0.16063259493E+04  0.16063259493E+04  0.50400001928E-02 0.  1.
    10030    2    1    2    0    0  0.00000000000E+00  0.00000000000E+00 -0.61999181154E+03  0.25926600870E+04  0.25174384760E+04 0.  0.
        3    1    3    3  502    0 -0.85282851120E+03  0.44812501313E+03 -0.11442889051E+04  0.14958374261E+04  0.10100000352E+00 0.  1.
       -3    1    3    3    0  502  0.85282851120E+03 -0.44812501313E+03  0.52429709355E+03  0.10968226609E+04  0.10100000352E+00 0. -1.
</event>
<event>
 5   0  0.3814260E-06  0.2500778E+04  0.7818609E-02  0.8402708E-01
        2   -1    0    0  501    0  0.00000000000E+00  0.00000000000E+00  0.20633130383E+04  0.20633130383E+04  0.25500000920E-02 0.  1.
       -2   -1    0    0    0  501  0.00000000000E+00  0.00000000000E+00 -0.75774868009E+03  0.75774868010E+03  0.25500000920E-02 0. -1.
    10030    2    1    2    0    0  0.00000000000E+00  0.00000000000E+00  0.13055643582E+04  0.28210617184E+04  0.25007780640E+04 0.  0.
        5    1    3    3  502    0 -0.27892205093E+03 -0.11357576961E+04  0.15373538821E+03  0.11795760740E+04  0.46999998093E+01 0. -1.
       -5    1    3    3    0  502  0.27892205093E+03  0.11357576961E+04  0.11518289700E+04  0.16414856444E+04  0.46999998093E+01 0.  1.
</event>
<event>
 5   0  0.1501747E-06  0.2498361E+04  0.7818609E-02  0.8403570E-01
        1   -1    0    0  501    0  0.00000000000E+00  0.00000000000E+00  0.90809627013E+03  0.90809627015E+03  0.50400001928E-02 0.  1.
       -1   -1    0    0    0  501  0.00000000000E+00  0.00000000000E+00 -0.17183768723E+04  0.17183768723E+04  0.50400001928E-02 0. -1.
    10030    2    1    2    0    0  0.00000000000E+00  0.00000000000E+00 -0.81028060218E+03  0.26264731425E+04  0.24983607653E+04 0.  0.
        2    1    3    3  502    0  0.38103667456E+03 -0.16579748820E+03 -0.16435865635E+04  0.16953036737E+04  0.25500000920E-02 0. -1.
       -2    1    3    3    0  502 -0.38103667456E+03  0.16579748820E+03  0.83330596128E+03  0.93116946877E+03  0.25500000920E-02 0.  1.
</event>
<event>
 5   0  0.3808293E-06  0.2507472E+04  0.7818609E-02  0.8400329E-01
       -2   -1    0    0    0  501  0.00000000000E+00  0.00000000000E+00  0.10238417232E+04  0.10238417232E+04  0.25500000920E-02 0.  1.
        2   -1    0    0  501    0  0.00000000000E+00  0.00000000000E+00 -0.15352506677E+04  0.15352506677E+04  0.25500000920E-02 0. -1.
    10030    2    1    2    0    0  0.00000000000E+00  0.00000000000E+00 -0.51140894455E+03  0.25590923909E+04  0.25074717858E+04 0.  0.
        1    1    3    3  502    0 -0.39092024286E+03 -0.69798055237E+03 -0.12409054324E+04  0.14764287250E+04  0.50400001928E-02 0. -1.
       -1    1    3    3    0  502  0.39092024286E+03  0.69798055237E+03  0.72949648783E+03  0.10826636659E+04  0.50400001928E-02 0.  1.
</event>
<event>
 5   0  0.1501747E-06  0.2494452E+04  0.7818609E-02  0.8404965E-01
       -1   -1    0    0    0  501  0.00000000000E+00  0.00000000000E+00  0.10028483404E+04  0.10028483404E+04  0.50400001928E-02 0. -1.
        1   -1    0    0  501    0  0.00000000000E+00  0.00000000000E+00 -0.15511545438E+04  0.15511545438E+04  0.50400001928E-02 0.  1.
    10030    2    1    2    0    0  0.00000000000E+00  0.00000000000E+00 -0.54830620332E+03  0.25540028842E+04  0.24944520520E+04 0.  0.
        2    1    3    3  502    0  0.10488938542E+04 -0.29521268332E+03 -0.89547121103E+03  0.14103891433E+04  0.25500000920E-02 0. -1.
       -2    1    3    3    0  502 -0.10488938542E+04  0.29521268332E+03  0.34716500771E+03  0.11436137409E+04  0.25500000920E-02 0.  1.
</event>
<event>
 5   0  0.3971759E-06  0.2498529E+04  0.7818609E-02  0.8403510E-01
        2   -1    0    0  501    0  0.00000000000E+00  0.00000000000E+00  0.13310068673E+04  0.13310068673E+04  0.25500000920E-02 0. -1.
       -2   -1    0    0    0  501  0.00000000000E+00  0.00000000000E+00 -0.11725425333E+04  0.11725425333E+04  0.25500000920E-02 0.  1.
    10030    2    1    2    0    0  0.00000000000E+00  0.00000000000E+00  0.15846433398E+03  0.25035494006E+04  0.24985292986E+04 0.  0.
        4    1    3    3  502    0  0.11803525708E+04  0.28496305854E+03 -0.21499776209E+03  0.12331511613E+04  0.12699999809E+01 0. -1.
       -4    1    3    3    0  502 -0.11803525708E+04 -0.28496305854E+03  0.37346209607E+03  0.12703982392E+04  0.12699999809E+01 0.  1.
</event>
<event>
 5   0  0.1519145E-06  0.2498606E+04  0.7818609E-02  0.8403482E-01
        1   -1    0    0  501    0  0.00000000000E+00  0.00000000000E+00  0.12330330370E+04  0.12330330370E+04  0.50400001928E-02 0.  1.
       -1   -1    0    0    0  501  0.00000000000E+00  0.00000000000E+00 -0.12657872574E+04  0.12657872574E+04  0.50400001928E-02 0. -1.
    10030    2    1    2    0    0  0.00000000000E+00  0.00000000000E+00 -0.32754220430E+02  0.24988202944E+04  0.24986056161E+04 0.  0.
        4    1    3    3  502    0 -0.79610476365E+03 -0.92939177006E+03  0.23504861963E+03  0.12461144905E+04  0.12699999809E+01 0.  1.
       -4    1    3    3    0  502  0.79610476365E+03  0.92939177006E+03 -0.26780284006E+03  0.12527058039E+04  0.12699999809E+01 0. -1.
</event>
<event>
 5   0  0.1501747E-06  0.2504504E+04  0.7818609E-02  0.8401383E-01
       -1   -1    0    0    0  501  0.00000000000E+00  0.00000000000E+00  0.70827990991E+03  0.70827990993E+03  0.50400001928E-02 0.  1.
        1   -1    0    0  501    0  0.00000000000E+00  0.00000000000E+00 -0.22140055163E+04  0.22140055163E+04  0.50400001928E-02 0. -1.
    10030    2    1    2    0    0  0.00000000000E+00  0.00000000000E+00 -0.15057256064E+04  0.29222854262E+04  0.25045044441E+04 0.  0.
        2    1    3    3  502    0  0.77401460706E+03 -0.11514223382E+03  0.38785870868E+03  0.87337891196E+03  0.25500000920E-02 0.  1.
       -2    1    3    3    0  502 -0.77401460706E+03  0.11514223382E+03 -0.18935843151E+04  0.20489065143E+04  0.25500000920E-02 0. -1.
</event>
<event>
 5   0  0.1541852E-06  0.2501563E+04  0.7818609E-02  0.8402429E-01
        1   -1    0    0  501    0  0.00000000000E+00  0.00000000000E+00  0.92420908355E+03  0.92420908357E+03  0.50400001928E-02 0. -1.
       -1   -1    0    0    0  501  0.00000000000E+00  0.00000000000E+00 -0.16927493372E+04  0.16927493372E+04  0.50400001928E-02 0.  1.
    10030    2    1    2    0    0  0.00000000000E+00  0.00000000000E+00 -0.76854025363E+03  0.26169584208E+04  0.25015629623E+04 0.  0.
        5    1    3    3  502    0 -0.62524003737E+03  0.14366802995E+03  0.73897596452E+03  0.97860777296E+03  0.46999998093E+01 0. -1.
       -5    1    3    3    0  502  0.62524003737E+03 -0.14366802995E+03 -0.15075162181E+04  0.16383506478E+04  0.46999998093E+01 0.  1.
</event>
<event>
 5   0  0.1501747E-06  0.2497812E+04  0.7818609E-02  0.8403765E-01
        1   -1    0    0  501    0  0.00000000000E+00  0.00000000000E+00  0.21665793040E+04  0.21665793040E+04  0.50400001928E-02 0. -1.
       -1   -1    0    0    0  501  0.00000000000E+00  0.00000000000E+00 -0.71992115364E+03  0.71992115366E+03  0.50400001928E-02 0.  1.
    10030    2    1    2    0    0  0.00000000000E+00  0.00000000000E+00  0.14466581504E+04  0.28865004577E+04  0.24978120602E+04 0.  0.
        2    1    3    3  502    0 -0.55397565103E+03 -0.45656703188E+03 -0.45767188714E+03  0.85135540922E+03  0.25500000920E-02 0.  1.
       -2    1    3    3    0  502  0.55397565103E+03  0.45656703188E+03  0.19043300375E+04  0.20351450485E+04  0.25500000920E-02 0. -1.
</event>
<event>
 5   0  0.1574896E-06  0.2500613E+04  0.7818609E-02  0.8402767E-01
        1   -1    0    0  501    0  0.00000000000E+00  0.00000000000E+00  0.21772420105E+04  0.21772420105E+04  0.50400001928E-02 0.  1.
       -1   -1    0    0    0  501  0.00000000000E+00  0.00000000000E+00 -0.71800299062E+03  0.71800299064E+03  0.50400001928E-02 0. -1.
    10030    2    1    2    0    0  0.00000000000E+00  0.00000000000E+00  0.14592390198E+04  0.28952450011E+04  0.25006129447E+04 0.  0.
        3    1    3    3  502    0  0.22452045264E+03 -0.10702653091E+04  0.14314010163E+04  0.18013289942E+04  0.10100000352E+00 0.  1.
       -3    1    3    3    0  502 -0.22452045264E+03  0.10702653091E+04  0.27838003520E+02  0.10939160069E+04  0.10100000352E+00 0. -1.
</event>
<event>
 5   0  0.1541852E-06  0.2501277E+04  0.7818609E-02  0.8402531E-01
       -1   -1    0    0    0  501  0.00000000000E+00  0.00000000000E+00  0.11600451604E+04  0.11600451604E+04  0.50400001928E-02 0.  1.
        1   -1    0    0  501    0  0.00000000000E+00  0.00000000000E+00 -0.13483068535E+04  0.13483068535E+04  0.50400001928E-02 0. -1.
    10030    2    1    2    0    0  0.00000000000E+00  0.00000000000E+00 -0.18826169312E+03  0.25083520139E+04  0.25012771459E+04 0.  0.
        5    1    3    3  502    0  0.77127954879E+03  0.81855687167E+03  0.45437807729E+03  0.12130082529E+04  0.46999998093E+01 0.  1.
       -5    1    3    3    0  502 -0.77127954879E+03 -0.81855687167E+03 -0.64263977041E+03  0.12953437610E+04  0.46999998093E+01 0. -1.
</event>
<event>
 5   0  0.1541852E-06  0.2498072E+04  0.7818609E-02  0.8403673E-01
       -1   -1    0    0    0  501  0.00000000000E+00  0.00000000000E+00  0.10584262001E+04  0.10584262001E+04  0.50400001928E-02 0.  1.
        1   -1    0    0  501    0  0.00000000000E+00  0.00000000000E+00 -0.14739719798E+04  0.14739719798E+04  0.50400001928E-02 0. -1.
    10030    2    1    2    0    0  0.00000000000E+00  0.00000000000E+00 -0.41554577970E+03  0.25323981798E+04  0.24980717056E+04 0.  0.
        5    1    3    3  502    0 -0.81023227394E+03 -0.89108816264E+03  0.12776475504E+03  0.12111401133E+04  0.46999998093E+01 0.  1.
       -5    1    3    3    0  502  0.81023227394E+03  0.89108816264E+03 -0.54331053475E+03  0.13212580666E+04  0.46999998093E+01 0. -1.
</event>
<event>
 5   0  0.1541852E-06  0.2502408E+04  0.7818609E-02  0.8402128E-01
        1   -1    0    0  501    0  0.00000000000E+00  0.00000000000E+00  0.10242101599E+04  0.10242101599E+04  0.50400001928E-02 0.  1.
       -1   -1    0    0    0  501  0.00000000000E+00  0.00000000000E+00 -0.15285059153E+04  0.15285059153E+04  0.50400001928E-02 0. -1.
    10030    2    1    2    0    0  0.00000000000E+00  0.00000000000E+00 -0.50429575540E+03  0.25527160751E+04  0.25024078707E+04 0.  0.
        5    1    3    3  502    0  0.67093524879E+03 -0.33223343949E+02  0.82464479792E+03  0.10636348205E+04  0.46999998093E+01 0.  1.
       -5    1    3    3    0  502 -0.67093524879E+03  0.33223343949E+02 -0.13289405533E+04  0.14890812546E+04  0.46999998093E+01 0. -1.
</event>
<event>
 5   0  0.3971759E-06  0.2499146E+04  0.7818609E-02  0.8403290E-01
        2   -1    0    0  501    0  0.00000000000E+00  0.00000000000E+00  0.20788970186E+04  0.20788970186E+04  0.25500000920E-02 0. -1.
       -2   -1    0    0    0  501  0.00000000000E+00  0.00000000000E+00 -0.75108685777E+03  0.75108685777E+03  0.25500000920E-02 0.  1.
    10030    2    1    2    0    0  0.00000000000E+00  0.00000000000E+00  0.13278101608E+04  0.28299838763E+04  0.24991456375E+04 0.  0.
        4    1    3    3  502    0  0.37335620359E+03 -0.59376707892E+02  0.20125841649E+04  0.20477834558E+04  0.12699999809E+01 0. -1.
       -4    1    3    3    0  502 -0.37335620359E+03  0.59376707892E+02 -0.68477400413E+03  0.78220042050E+03  0.12699999809E+01 0.  1.
</event>
<event>
 5   0  0.1519145E-06  0.2496293E+04  0.7818609E-02  0.8404307E-01
        1   -1    0    0  501    0  0.00000000000E+00  0.00000000000E+00  0.33871648859E+04  0.33871648859E+04  0.50400001928E-02 0. -1.
       -1   -1    0    0    0  501  0.00000000000E+00  0.00000000000E+00 -0.45993309341E+03  0.45993309343E+03  0.50400001928E-02 0.  1.
    10030    2    1    2    0    0  0.00000000000E+00  0.00000000000E+00  0.29272317925E+04  0.38470979794E+04  0.24962926302E+04 0.  0.
        4    1    3    3  502    0  0.10756789946E+04 -0.20338235488E+03  0.23875428172E+04  0.26265589654E+04  0.12699999809E+01 0. -1.
       -4    1    3    3    0  502 -0.10756789946E+04  0.20338235488E+03  0.53968897530E+03  0.12205390140E+04  0.12699999809E+01 0.  1.
</event>
<event>
 5   0  0.3713394E-06  0.2502732E+04  0.7818609E-02  0.8402013E-01
        2   -1    0    0  501    0  0.00000000000E+00  0.00000000000E+00  0.11222178496E+04  0.11222178496E+04  0.25500000920E-02 0.  1.
       -2   -1    0    0    0  501  0.00000000000E+00  0.00000000000E+00 -0.13953764622E+04  0.13953764622E+04  0.25500000920E-02 0. -1.
    10030    2    1    2    0    0  0.00000000000E+00  0.00000000000E+00 -0.27315861265E+03  0.25175943118E+04  0.25027316059E+04 0.  0.
        3    1    3    3  502    0  0.71473880804E+03 -0.20646491458E+03  0.87559540571E+03  0.11489763485E+04  0.10100000352E+00 0.  1.
       -3    1    3    3    0  502 -0.71473880804E+03  0.20646491458E+03 -0.11487540184E+04  0.13686179633E+04  0.10100000352E+00 0. -1.
</event>
<event>
 5   0  0.3808293E-06  0.2507537E+04  0.7818609E-02  0.8400305E-01
        2   -1    0    0  501    0  0.00000000000E+00  0.00000000000E+00  0.17612582283E+04  0.17612582283E+04  0.25500000920E-02 0.  1.
       -2   -1    0    0    0  501  0.00000000000E+00  0.00000000000E+00 -0.89250700029E+03  0.89250700030E+03  0.25500000920E-02 0. -1.
    10030    2    1    2    0    0  0.00000000000E+00  0.00000000000E+00  0.86875122802E+03  0.26537652286E+04  0.25075368776E+04 0.  0.
        1    1    3    3  502    0  0.22068932201E+03 -0.48881824147E+03 -0.76497572647E+03  0.93425634178E+03  0.50400001928E-02 0. -1.
       -1    1    3    3    0  502 -0.22068932201E+03  0.48881824147E+03  0.16337269545E+04  0.17195088868E+04  0.50400001928E-02 0.  1.
</event>
<event>
 5   0  0.1519145E-06  0.2499612E+04  0.7818609E-02  0.8403124E-01
        1   -1    0    0  501    0  0.00000000000E+00  0.00000000000E+00  0.15890544125E+04  0.15890544125E+04  0.50400001928E-02 0.  1.
       -1   -1    0    0    0  501  0.00000000000E+00  0.00000000000E+00 -0.98298402515E+03  0.98298402516E+03  0.50400001928E-02 0. -1.
    10030    2    1    2    0    0  0.00000000000E+00  0.00000000000E+00  0.60607038738E+03  0.25720384377E+04  0.24996120520E+04 0.  0.
        4    1    3    3  502    0 -0.46914115357E+03  0.10221663858E+03 -0.88429314993E+03  0.10062393607E+04  0.12699999809E+01 0. -1.
       -4    1    3    3    0  502  0.46914115357E+03 -0.10221663858E+03  0.14903635373E+04  0.15657990770E+04  0.12699999809E+01 0.  1.
</event>
<event>
 5   0  0.3808293E-06  0.2500374E+04  0.7818609E-02  0.8402852E-01
       -2   -1    0    0    0  501  0.00000000000E+00  0.00000000000E+00  0.80339332164E+03  0.80339332164E+03  0.25500000920E-02 0. -1.
        2   -1    0    0  501    0  0.00000000000E+00  0.00000000000E+00 -0.19454581535E+04  0.19454581535E+04  0.25500000920E-02 0.  1.
    10030    2    1    2    0    0  0.00000000000E+00  0.00000000000E+00 -0.11420648319E+04  0.27488514751E+04  0.25003744424E+04 0.  0.
        1    1    3    3  502    0  0.88701294931E+03  0.37756755256E+03  0.30407279779E+03  0.10108459306E+04  0.50400001928E-02 0. -1.
       -1    1    3    3    0  502 -0.88701294931E+03 -0.37756755256E+03 -0.14461376297E+04  0.17380055446E+04  0.50400001928E-02 0.  1.
</event>
<event>
 5   0  0.3713394E-06  0.2501465E+04  0.7818609E-02  0.8402464E-01
       -2   -1    0    0    0  501  0.00000000000E+00  0.00000000000E+00  0.16044248486E+04  0.16044248486E+04  0.25500000920E-02 0.  1.
        2   -1    0    0  501    0  0.00000000000E+00  0.00000000000E+00 -0.97501118237E+03  0.97501118238E+03  0.25500000920E-02 0. -1.
    10030    2    1    2    0    0  0.00000000000E+00  0.00000000000E+00  0.62941366626E+03  0.25794360310E+04  0.25014653055E+04 0.  0.
        3    1    3    3  502    0  0.36741587371E+02  0.64593202979E+03  0.14184701960E+04  0.15590496588E+04  0.10100000352E+00 0.  1.
       -3    1    3    3    0  502 -0.36741587371E+02 -0.64593202979E+03 -0.78905652974E+03  0.10203863723E+04  0.10100000352E+00 0. -1.
</event>
<event>
 5   0  0.1501747E-06  0.2467189E+04  0.7818609E-02  0.8414769E-01
        1   -1    0    0  501    0  0.00000000000E+00  0.00000000000E+00  0.11011750911E+04  0.11011750911E+04  0.50400001928E-02 0. -1.
       -1   -1    0    0    0  501  0.00000000000E+00  0.00000000000E+00 -0.13819381571E+04  0.13819381571E+04  0.50400001928E-02 0.  1.
    10030    2    1    2    0    0  0.00000000000E+00  0.00000000000E+00 -0.28076306608E+03  0.24831132482E+04  0.24671893936E+04 0.  0.
        2    1    3    3  502    0 -0.11019923361E+04 -0.27997169880E+03  0.34123034521E+03  0.11871012634E+04  0.25500000920E-02 0. -1.
       -2    1    3    3    0  502  0.11019923361E+04  0.27997169880E+03 -0.62199341129E+03  0.12960119848E+04  0.25500000920E-02 0.  1.
</event>
<event>
 5   0  0.3713394E-06  0.2504281E+04  0.7818609E-02  0.8401462E-01
        2   -1    0    0  501    0  0.00000000000E+00  0.00000000000E+00  0.26860271205E+04  0.26860271205E+04  0.25500000920E-02 0. -1.
       -2   -1    0    0    0  501  0.00000000000E+00  0.00000000000E+00 -0.58370823784E+03  0.58370823784E+03  0.25500000920E-02 0.  1.
    10030    2    1    2    0    0  0.00000000000E+00  0.00000000000E+00  0.21023188826E+04  0.32697353583E+04  0.25042812600E+04 0.  0.
        3    1    3    3  502    0  0.26334951188E+03 -0.85331155857E+03 -0.94820683482E+02  0.89804485056E+03  0.10100000352E+00 0.  1.
       -3    1    3    3    0  502 -0.26334951188E+03  0.85331155857E+03  0.21971395661E+04  0.23716905078E+04  0.10100000352E+00 0. -1.
</event>
<event>
 5   0  0.1553604E-06  0.2497400E+04  0.7818609E-02  0.8403912E-01
       -1   -1    0    0    0  501  0.00000000000E+00  0.00000000000E+00  0.87938163845E+03  0.87938163847E+03  0.50400001928E-02 0.  1.
        1   -1    0    0  501    0  0.00000000000E+00  0.00000000000E+00 -0.17731232487E+04  0.17731232487E+04  0.50400001928E-02 0. -1.
    10030    2    1    2    0    0  0.00000000000E+00  0.00000000000E+00 -0.89374161021E+03  0.26525048871E+04  0.24974002704E+04 0.  0.
        1    1    3    3  502    0  0.48953274304E+03  0.52454546758E+03  0.63859041763E+03  0.96051443278E+03  0.50400001928E-02 0.  1.
       -1    1    3    3    0  502 -0.48953274304E+03 -0.52454546758E+03 -0.15323320278E+04  0.16919904544E+04  0.50400001928E-02 0. -1.
</event>
<event>
 5   0  0.1501747E-06  0.2525909E+04  0.7818609E-02  0.8393813E-01
       -1   -1    0    0    0  501  0.00000000000E+00  0.00000000000E+00  0.62502949924E+03  0.62502949926E+03  0.50400001928E-02 0.  1.
        1   -1    0    0  501    0  0.00000000000E+00  0.00000000000E+00 -0.25519658898E+04  0.25519658898E+04  0.50400001928E-02 0. -1.
    10030    2    1    2    0    0  0.00000000000E+00  0.00000000000E+00 -0.19269363906E+04  0.31769953891E+04  0.25259089154E+04 0.  0.
        2    1    3    3  502    0  0.66239728836E+02 -0.96172035767E+03  0.62792787378E+02  0.96604176006E+03  0.25500000920E-02 0.  1.
       -2    1    3    3    0  502 -0.66239728836E+02  0.96172035767E+03 -0.19897291780E+04  0.22109536290E+04  0.25500000920E-02 0. -1.
</event>
<event>
 5   0  0.1553604E-06  0.2497498E+04  0.7818609E-02  0.8403877E-01
        1   -1    0    0  501    0  0.00000000000E+00  0.00000000000E+00  0.11658609594E+04  0.11658609594E+04  0.50400001928E-02 0.  1.
       -1   -1    0    0    0  501  0.00000000000E+00  0.00000000000E+00 -0.13375302161E+04  0.13375302161E+04  0.50400001928E-02 0. -1.
    10030    2    1    2    0    0  0.00000000000E+00  0.00000000000E+00 -0.17166925668E+03  0.25033911756E+04  0.24974981570E+04 0.  0.
        1    1    3    3  502    0  0.85793068845E+02  0.11098313254E+04 -0.65311014068E+03  0.12905963263E+04  0.50400001928E-02 0. -1.
       -1    1    3    3    0  502 -0.85793068845E+02 -0.11098313254E+04  0.48144088400E+03  0.12127948493E+04  0.50400001928E-02 0.  1.
</event>
<event>
 5   0  0.3808293E-06  0.2499669E+04  0.7818609E-02  0.8403104E-01
        2   -1    0    0  501    0  0.00000000000E+00  0.00000000000E+00  0.11814458582E+04  0.11814458582E+04  0.25500000920E-02 0. -1.
       -2   -1    0    0    0  501  0.00000000000E+00  0.00000000000E+00 -0.13221814107E+04  0.13221814107E+04  0.25500000920E-02 0.  1.
    10030    2    1    2    0    0  0.00000000000E+00  0.00000000000E+00 -0.14073555258E+03  0.25036272689E+04  0.24996685792E+04 0.  0.
        1    1    3    3  502    0  0.30897019360E+03 -0.92684430795E+03  0.71034264640E+03  0.12079278236E+04  0.50400001928E-02 0. -1.
       -1    1    3    3    0  502 -0.30897019360E+03  0.92684430795E+03 -0.85107819898E+03  0.12956994453E+04  0.50400001928E-02 0.  1.
</event>
<event>
 5   0  0.1553604E-06  0.2462838E+04  0.7818609E-02  0.8416345E-01
        1   -1    0    0  501    0  0.00000000000E+00  0.00000000000E+00  0.17291421113E+04  0.17291421113E+04  0.50400001928E-02 0. -1.
       -1   -1    0    0    0  501  0.00000000000E+00  0.00000000000E+00 -0.87696272766E+03  0.87696272768E+03  0.50400001928E-02 0.  1.
    10030    2    1    2    0    0  0.00000000000E+00  0.00000000000E+00  0.85217938364E+03  0.26061048390E+04  0.24628383483E+04 0.  0.
        1    1    3    3  502    0 -0.25368425757E+03  0.11855371042E+04  0.19781083660E+03  0.12284067141E+04  0.50400001928E-02 0.  1.
       -1    1    3    3    0  502  0.25368425757E+03 -0.11855371042E+04  0.65436854705E+03  0.13776981249E+04  0.50400001928E-02 0. -1.
</event>
<event>
 5   0  0.1519145E-06  0.2498841E+04  0.7818609E-02  0.8403399E-01
       -1   -1    0    0    0  501  0.00000000000E+00  0.00000000000E+00  0.62010466511E+03  0.62010466513E+03  0.50400001928E-02 0.  1.
        1   -1    0    0  501    0  0.00000000000E+00  0.00000000000E+00 -0.25174002176E+04  0.25174002176E+04  0.50400001928E-02 0. -1.
    10030    2    1    2    0    0  0.00000000000E+00  0.00000000000E+00 -0.18972955525E+04  0.31375048827E+04  0.24988410265E+04 0.  0.
        4    1    3    3  502    0 -0.11498034579E+04  0.33004063690E+03 -0.14014859402E+04  0.18425903688E+04  0.12699999809E+01 0. -1.
       -4    1    3    3    0  502  0.11498034579E+04 -0.33004063690E+03 -0.49580961231E+03  0.12949145139E+04  0.12699999809E+01 0.  1.
</event>
<event>
 5   0  0.3924441E-06  0.2501485E+04  0.7818609E-02  0.8402457E-01
       -2   -1    0    0    0  501  0.00000000000E+00  0.00000000000E+00  0.71772807527E+03  0.71772807527E+03  0.25500000920E-02 0.  1.
        2   -1    0    0  501    0  0.00000000000E+00  0.00000000000E+00 -0.21795958383E+04  0.21795958383E+04  0.25500000920E-02 0. -1.
    10030    2    1    2    0    0  0.00000000000E+00  0.00000000000E+00 -0.14618677631E+04  0.28973239136E+04  0.25014852595E+04 0.  0.
        2    1    3    3  502    0 -0.54382200096E+03  0.56916540049E+03  0.39480620518E+03  0.88066086634E+03  0.25500000920E-02 0.  1.
       -2    1    3    3    0  502  0.54382200096E+03 -0.56916540049E+03 -0.18566739683E+04  0.20166630473E+04  0.25500000920E-02 0. -1.
</event>
<event>
 5   0  0.3924441E-06  0.2503111E+04  0.7818609E-02  0.8401878E-01
       -2   -1    0    0    0  501  0.00000000000E+00  0.00000000000E+00  0.18052134205E+04  0.18052134205E+04  0.25500000920E-02 0. -1.
        2   -1    0    0  501    0  0.00000000000E+00  0.00000000000E+00 -0.86770384367E+03  0.86770384367E+03  0.25500000920E-02 0.  1.
    10030    2    1    2    0    0  0.00000000000E+00  0.00000000000E+00  0.93750957681E+03  0.26729172642E+04  0.25031105638E+04 0.  0.
        2    1    3    3  502    0 -0.57376747249E+03 -0.98740146859E+03  0.10155670772E+04  0.15282497377E+04  0.25500000920E-02 0. -1.
       -2    1    3    3    0  502  0.57376747249E+03  0.98740146859E+03 -0.78057500363E+02  0.11446675264E+04  0.25500000920E-02 0.  1.
</event>
<event>
 5   0  0.1501747E-06  0.2517449E+04  0.7818609E-02  0.8396796E-01
       -1   -1    0    0    0  501  0.00000000000E+00  0.00000000000E+00  0.75064978606E+03  0.75064978608E+03  0.50400001928E-02 0. -1.
        1   -1    0    0  501    0  0.00000000000E+00  0.00000000000E+00 -0.21106870630E+04  0.21106870630E+04  0.50400001928E-02 0.  1.
    10030    2    1    2    0    0  0.00000000000E+00  0.00000000000E+00 -0.13600372770E+04  0.28613368491E+04  0.25174485435E+04 0.  0.
        2    1    3    3  502    0  0.90851906895E+03 -0.59534148106E+03  0.42907016713E+02  0.10870507761E+04  0.25500000920E-02 0.  1.
       -2    1    3    3    0  502 -0.90851906895E+03  0.59534148106E+03 -0.14029442937E+04  0.17742860730E+04  0.25500000920E-02 0. -1.
</event>
<event>
 5   0  0.3808293E-06  0.2500321E+04  0.7818609E-02  0.8402871E-01
       -2   -1    0    0    0  501  0.00000000000E+00  0.00000000000E+00  0.14238988335E+04  0.14238988335E+04  0.25500000920E-02 0.  1.
        2   -1    0    0  501    0  0.00000000000E+00  0.00000000000E+00 -0.10976208896E+04  0.10976208897E+04  0.25500000920E-02 0. -1.
    10030    2    1    2    0    0  0.00000000000E+00  0.00000000000E+00  0.32627794390E+03  0.25215197232E+04  0.25003208630E+04 0.  0.
        1    1    3    3  502    0  0.34775354141E+03  0.12551454041E+03  0.13675066060E+04  0.14166018293E+04  0.50400001928E-02 0.  1.
       -1    1    3    3    0  502 -0.34775354141E+03 -0.12551454041E+03 -0.10412286621E+04  0.11049178939E+04  0.50400001928E-02 0. -1.
</event>
<event>
 5   0  0.1574896E-06  0.2465920E+04  0.7818609E-02  0.8415228E-01
        1   -1    0    0  501    0  0.00000000000E+00  0.00000000000E+00  0.12260023714E+04  0.12260023714E+04  0.50400001928E-02 0.  1.
       -1   -1    0    0    0  501  0.00000000000E+00  0.00000000000E+00 -0.12399573640E+04  0.12399573640E+04  0.50400001928E-02 0. -1.
    10030    2    1    2    0    0  0.00000000000E+00  0.00000000000E+00 -0.13954992535E+02  0.24659597354E+04  0.24659202491E+04 0.  0.
        3    1    3    3  502    0 -0.11710155460E+04  0.15128578507E+03 -0.36198439324E+03  0.12349888699E+04  0.10100000352E+00 0. -1.
       -3    1    3    3    0  502  0.11710155460E+04 -0.15128578507E+03  0.34802940070E+03  0.12309708655E+04  0.10100000352E+00 0.  1.
</event>
<event>
 5   0  0.3971759E-06  0.2503979E+04  0.7818609E-02  0.8401569E-01
       -2   -1    0    0    0  501  0.00000000000E+00  0.00000000000E+00  0.12484525743E+04  0.12484525743E+04  0.25500000920E-02 0.  1.
        2   -1    0    0  501    0  0.00000000000E+00  0.00000000000E+00 -0.12555366546E+04  0.12555366546E+04  0.25500000920E-02 0. -1.
    10030    2    1    2    0    0  0.00000000000E+00  0.00000000000E+00 -0.70840802834E+01  0.25039892288E+04  0.25039792080E+04 0.  0.
        4    1    3    3  502    0 -0.11617448341E+04  0.35975507974E+03 -0.30086725985E+03  0.12528357825E+04  0.12699999809E+01 0.  1.
       -4    1    3    3    0  502  0.11617448341E+04 -0.35975507974E+03  0.29378317957E+03  0.12511534464E+04  0.12699999809E+01 0. -1.
</event>
<event>
 5   0  0.3814260E-06  0.2505171E+04  0.7818609E-02  0.8401146E-01
       -2   -1    0    0    0  501  0.00000000000E+00  0.00000000000E+00  0.11075106651E+04  0.11075106651E+04  0.25500000920E-02 0. -1.
        2   -1    0    0  501    0  0.00000000000E+00  0.00000000000E+00 -0.14166639280E+04  0.14166639280E+04  0.25500000920E-02 0.  1.
    10030    2    1    2    0    0  0.00000000000E+00  0.00000000000E+00 -0.30915326287E+03  0.25241745932E+04  0.25051709795E+04 0.  0.
        5    1    3    3  502    0 -0.97500712484E+03  0.62851030626E+03  0.32153746000E+03  0.12037742840E+04  0.46999998093E+01 0. -1.
       -5    1    3    3    0  502  0.97500712484E+03 -0.62851030626E+03 -0.63069072287E+03  0.13204003092E+04  0.46999998093E+01 0.  1.
</event>
<event>
 5   0  0.3713394E-06  0.2498713E+04  0.7818609E-02  0.8403444E-01
       -2   -1    0    0    0  501  0.00000000000E+00  0.00000000000E+00  0.91430536094E+03  0.91430536095E+03  0.25500000920E-02 0.  1.
        2   -1    0    0  501    0  0.00000000000E+00  0.00000000000E+00 -0.17071891170E+04  0.17071891170E+04  0.25500000920E-02 0. -1.
    10030    2    1    2    0    0  0.00000000000E+00  0.00000000000E+00 -0.79288375601E+03  0.26214944779E+04  0.24987133984E+04 0.  0.
        3    1    3    3  502    0  0.10675641741E+04 -0.60268559107E+03 -0.64904008981E+03  0.13871467968E+04  0.10100000352E+00 0.  1.
       -3    1    3    3    0  502 -0.10675641741E+04  0.60268559107E+03 -0.14384366620E+03  0.12343476811E+04  0.10100000352E+00 0. -1.
</event>
<event>
 5   0  0.1553604E-06  0.2496519E+04  0.7818609E-02  0.8404227E-01
       -1   -1    0    0    0  501  0.00000000000E+00  0.00000000000E+00  0.10798035370E+04  0.10798035370E+04  0.50400001928E-02 0. -1.
        1   -1    0    0  501    0  0.00000000000E+00  0.00000000000E+00 -0.14429959399E+04  0.14429959399E+04  0.50400001928E-02 0.  1.
    10030    2    1    2    0    0  0.00000000000E+00  0.00000000000E+00 -0.36319240290E+03  0.25227994769E+04  0.24965192728E+04 0.  0.
        1    1    3    3  502    0 -0.25322199789E+03  0.65282556919E+03  0.86264983786E+03  0.11110658607E+04  0.50400001928E-02 0. -1.
       -1    1    3    3    0  502  0.25322199789E+03 -0.65282556919E+03 -0.12258422408E+04  0.14117336162E+04  0.50400001928E-02 0.  1.
</event>
<event>
 5   0  0.1501747E-06  0.2498614E+04  0.7818609E-02  0.8403479E-01
       -1   -1    0    0    0  501  0.00000000000E+00  0.00000000000E+00  0.86671541593E+03  0.86671541595E+03  0.50400001928E-02 0. -1.
        1   -1    0    0  501    0  0.00000000000E+00  0.00000000000E+00 -0.18007847872E+04  0.18007847872E+04  0.50400001928E-02 0.  1.
    10030    2    1    2    0    0  0.00000000000E+00  0.00000000000E+00 -0.93406937127E+03  0.26675002032E+04  0.24986139645E+04 0.  0.
        2    1    3    3  502    0 -0.92558968482E+03  0.52119079209E+03  0.23499274445E+03  0.10879235710E+04  0.25500000920E-02 0. -1.
       -2    1    3    3    0  502  0.92558968482E+03 -0.52119079209E+03 -0.11690621157E+04  0.15795766321E+04  0.25500000920E-02 0.  1.
</event>
<event>
 5   0  0.1501747E-06  0.2521128E+04  0.7818609E-02  0.8395497E-01
        1   -1    0    0  501    0  0.00000000000E+00  0.00000000000E+00  0.13970510554E+04  0.13970510554E+04  0.50400001928E-02 0.  1.
       -1   -1    0    0    0  501  0.00000000000E+00  0.00000000000E+00 -0.11374116599E+04  0.11374116599E+04  0.50400001928E-02 0. -1.
    10030    2    1    2    0    0  0.00000000000E+00  0.00000000000E+00  0.25963939543E+03  0.25344627153E+04  0.25211284457E+04 0.  0.
        2    1    3    3  502    0 -0.96235044844E+03  0.60539496171E+03 -0.41748674090E+03  0.12111633350E+04  0.25500000920E-02 0. -1.
       -2    1    3    3    0  502  0.96235044844E+03 -0.60539496171E+03  0.67712613634E+03  0.13232993803E+04  0.25500000920E-02 0.  1.
</event>
<event>
 5   0  0.3924441E-06  0.2498527E+04  0.7818609E-02  0.8403510E-01
        2   -1    0    0  501    0  0.00000000000E+00  0.00000000000E+00  0.17154080795E+04  0.17154080795E+04  0.25500000920E-02 0. -1.
       -2   -1    0    0    0  501  0.00000000000E+00  0.00000000000E+00 -0.90978920059E+03  0.90978920060E+03  0.25500000920E-02 0.  1.
    10030    2    1    2    0    0  0.00000000000E+00  0.00000000000E+00  0.80561887893E+03  0.26251972801E+04  0.24985273626E+04 0.  0.
        2    1    3    3  502    0 -0.98509045746E+03 -0.64930753169E+03  0.83430772569E+03  0.14450165609E+04  0.25500000920E-02 0. -1.
       -2    1    3    3    0  502  0.98509045746E+03  0.64930753169E+03 -0.28688846762E+02  0.11801807192E+04  0.25500000920E-02 0.  1.
</event>
<event>
 5   0  0.3971759E-06  0.2496750E+04  0.7818609E-02  0.8404144E-01
       -2   -1    0    0    0  501  0.00000000000E+00  0.00000000000E+00  0.13493695980E+04  0.13493695980E+04  0.25500000920E-02 0. -1.
        2   -1    0    0  501    0  0.00000000000E+00  0.00000000000E+00 -0.11549396429E+04  0.11549396429E+04  0.25500000920E-02 0.  1.
    10030    2    1    2    0    0  0.00000000000E+00  0.00000000000E+00  0.19442995514E+03  0.25043092409E+04  0.24967502411E+04 0.  0.
        4    1    3    3  502    0  0.64132160206E+03 -0.34047142799E+03 -0.92135177459E+03  0.11730749746E+04  0.12699999809E+01 0.  1.
       -4    1    3    3    0  502 -0.64132160206E+03  0.34047142799E+03  0.11157817297E+04  0.13312342663E+04  0.12699999809E+01 0. -1.
</event>
<event>
 5   0  0.3814260E-06  0.2496461E+04  0.7818609E-02  0.8404247E-01
       -2   -1    0    0    0  501  0.00000000000E+00  0.00000000000E+00  0.12388848702E+04  0.12388848702E+04  0.25500000920E-02 0. -1.
        2   -1    0    0  501    0  0.00000000000E+00  0.00000000000E+00 -0.12576471025E+04  0.12576471025E+04  0.25500000920E-02 0.  1.
    10030    2    1    2    0    0  0.00000000000E+00  0.00000000000E+00 -0.18762232275E+02  0.24965319726E+04  0.24964614696E+04 0.  0.
        5    1    3    3  502    0 -0.26584634830E+03  0.33220490775E+03  0.11641184682E+04  0.12394467635E+04  0.46999998093E+01 0. -1.
       -5    1    3    3    0  502  0.26584634830E+03 -0.33220490775E+03 -0.11828807004E+04  0.12570852092E+04  0.46999998093E+01 0.  1.
</event>
<event>
 5   0  0.1553604E-06  0.2499749E+04  0.7818609E-02  0.8403075E-01
       -1   -1    0    0    0  501  0.00000000000E+00  0.00000000000E+00  0.10912496517E+04  0.10912496517E+04  0.50400001928E-02 0.  1.
        1   -1    0    0  501    0  0.00000000000E+00  0.00000000000E+00 -0.14315576366E+04  0.14315576366E+04  0.50400001928E-02 0. -1.
    10030    2    1    2    0    0  0.00000000000E+00  0.00000000000E+00 -0.34030798489E+03  0.25228072883E+04  0.24997494053E+04 0.  0.
        1    1    3    3  502    0 -0.70009569638E+03  0.11915510266E+03  0.86785387200E+03  0.11213840849E+04  0.50400001928E-02 0.  1.
       -1    1    3    3    0  502  0.70009569638E+03 -0.11915510266E+03 -0.12081618569E+04  0.14014232034E+04  0.50400001928E-02 0. -1.
</event>
<event>
 5   0  0.1519145E-06  0.2501088E+04  0.7818609E-02  0.8402598E-01
       -1   -1    0    0    0  501  0.00000000000E+00  0.00000000000E+00  0.96286925668E+03  0.96286925669E+03  0.50400001928E-02 0.  1.
        1   -1    0    0  501    0  0.00000000000E+00  0.00000000000E+00 -0.16241669631E+04  0.16241669631E+04  0.50400001928E-02 0. -1.
    10030    2    1    2    0    0  0.00000000000E+00  0.00000000000E+00 -0.66129770645E+03  0.25870362198E+04  0.25010881124E+04 0.  0.
        4    1    3    3  502    0  0.67667445215E+03  0.56358819584E+03  0.58774714604E+03  0.10587578993E+04  0.12699999809E+01 0.  1.
       -4    1    3    3    0  502 -0.67667445215E+03 -0.56358819584E+03 -0.12490448525E+04  0.15282783206E+04  0.12699999809E+01 0. -1.
</event>
<event>
 5   0  0.3924441E-06  0.2528867E+04  0.7818609E-02  0.8392773E-01
        2   -1    0    0  501    0  0.00000000000E+00  0.00000000000E+00  0.16050786136E+04  0.16050786136E+04  0.25500000920E-02 0. -1.
       -2   -1    0    0    0  501  0.00000000000E+00  0.00000000000E+00 -0.99608332600E+03  0.99608332600E+03  0.25500000920E-02 0.  1.
    10030    2    1    2    0    0  0.00000000000E+00  0.00000000000E+00  0.60899528758E+03  0.26011619396E+04  0.25288669747E+04 0.  0.
        2    1    3    3  502    0  0.18715291061E+03 -0.95918241305E+03  0.11297655262E+04  0.14937962570E+04  0.25500000920E-02 0. -1.
       -2    1    3    3    0  502 -0.18715291061E+03  0.95918241305E+03 -0.52077023857E+03  0.11073656825E+04  0.25500000920E-02 0.  1.
</event>
<event>
 5   0  0.3808293E-06  0.2499591E+04  0.7818609E-02  0.8403131E-01
        2   -1    0    0  501    0  0.00000000000E+00  0.00000000000E+00  0.23599915415E+04  0.23599915415E+04  0.25500000920E-02 0. -1.
       -2   -1    0    0    0  501  0.00000000000E+00  0.00000000000E+00 -0.66186182467E+03  0.66186182468E+03  0.25500000920E-02 0.  1.
    10030    2    1    2    0    0  0.00000000000E+00  0.00000000000E+00  0.16981297168E+04  0.30218533661E+04  0.24995906128E+04 0.  0.
        1    1    3    3  502    0  0.16949940142E+03 -0.10581331849E+03  0.23405558860E+04  0.23490696799E+04  0.50400001928E-02 0. -1.
       -1    1    3    3    0  502 -0.16949940142E+03  0.10581331849E+03 -0.64242616926E+03  0.67278368621E+03  0.50400001928E-02 0.  1.
</event>
<event>
 5   0  0.3808293E-06  0.2504188E+04  0.7818609E-02  0.8401495E-01
        2   -1    0    0  501    0  0.00000000000E+00  0.00000000000E+00  0.71162449740E+03  0.71162449741E+03  0.25500000920E-02 0.  1.
       -2   -1    0    0    0  501  0.00000000000E+00  0.00000000000E+00 -0.22030433589E+04  0.22030433589E+04  0.25500000920E-02 0. -1.
    10030    2    1    2    0    0  0.00000000000E+00  0.00000000000E+00 -0.14914188615E+04  0.29146678564E+04  0.25041881903E+04 0.  0.
        1    1    3    3  502    0 -0.35444597938E+03  0.11998244002E+04 -0.80424277513E+03  0.14872851055E+04  0.50400001928E-02 0.  1.
       -1    1    3    3    0  502  0.35444597938E+03 -0.11998244002E+04 -0.68717608641E+03  0.14273827509E+04  0.50400001928E-02 0. -1.
</event>
<event>
 5   0  0.1501747E-06  0.2498809E+04  0.7818609E-02  0.8403410E-01
       -1   -1    0    0    0  501  0.00000000000E+00  0.00000000000E+00  0.57422043699E+03  0.57422043702E+03  0.50400001928E-02 0.  1.
        1   -1    0    0  501    0  0.00000000000E+00  0.00000000000E+00 -0.27184873362E+04  0.27184873362E+04  0.50400001928E-02 0. -1.
    10030    2    1    2    0    0  0.00000000000E+00  0.00000000000E+00 -0.21442668992E+04  0.32927077733E+04  0.24988085050E+04 0.  0.
        2    1    3    3  502    0 -0.33911239285E+03 -0.15674135137E+03 -0.26431667263E+04  0.26694372833E+04  0.25500000920E-02 0. -1.
       -2    1    3    3    0  502  0.33911239285E+03  0.15674135137E+03  0.49889982708E+03  0.62327048998E+03  0.25500000920E-02 0.  1.
</event>
<event>
 5   0  0.3814260E-06  0.2497957E+04  0.7818609E-02  0.8403714E-01
        2   -1    0    0  501    0  0.00000000000E+00  0.00000000000E+00  0.15762000052E+04  0.15762000052E+04  0.25500000920E-02 0.  1.
       -2   -1    0    0    0  501  0.00000000000E+00  0.00000000000E+00 -0.98968831964E+03  0.98968831965E+03  0.25500000920E-02 0. -1.
    10030    2    1    2    0    0  0.00000000000E+00  0.00000000000E+00  0.58651168554E+03  0.25658883248E+04  0.24979565525E+04 0.  0.
        5    1    3    3  502    0 -0.11890780723E+03 -0.10746413373E+04 -0.34899287279E+03  0.11361387177E+04  0.46999998093E+01 0.  1.
       -5    1    3    3    0  502  0.11890780723E+03  0.10746413373E+04  0.93550455833E+03  0.14297496072E+04  0.46999998093E+01 0. -1.
</event>
<event>
 5   0  0.1519145E-06  0.2510617E+04  0.7818609E-02  0.8399213E-01
       -1   -1    0    0    0  501  0.00000000000E+00  0.00000000000E+00  0.13200956645E+04  0.13200956645E+04  0.50400001928E-02 0. -1.
        1   -1    0    0  501    0  0.00000000000E+00  0.00000000000E+00 -0.11937009302E+04  0.11937009302E+04  0.50400001928E-02 0.  1.
    10030    2    1    2    0    0  0.00000000000E+00  0.00000000000E+00  0.12639473435E+03  0.25137965947E+04  0.25106169941E+04 0.  0.
        4    1    3    3  502    0  0.69163001594E+03 -0.32473202488E+03 -0.93405339429E+03  0.12067561159E+04  0.12699999809E+01 0.  1.
       -4    1    3    3    0  502 -0.69163001594E+03  0.32473202488E+03  0.10604481286E+04  0.13070404789E+04  0.12699999809E+01 0. -1.
</event>
<event>
 5   0  0.1553604E-06  0.2493380E+04  0.7818609E-02  0.8405348E-01
       -1   -1    0    0    0  501  0.00000000000E+00  0.00000000000E+00  0.84623948901E+03  0.84623948902E+03  0.50400001928E-02 0.  1.
        1   -1    0    0  501    0  0.00000000000E+00  0.00000000000E+00 -0.18366384200E+04  0.18366384200E+04  0.50400001928E-02 0. -1.
    10030    2    1    2    0    0  0.00000000000E+00  0.00000000000E+00 -0.99039893099E+03  0.26828779090E+04  0.24933800016E+04 0.  0.
        1    1    3    3  502    0  0.26946062321E+03 -0.35106057620E+03  0.75887585384E+03  0.87849024877E+03  0.50400001928E-02 0.  1.
       -1    1    3    3    0  502 -0.26946062321E+03  0.35106057620E+03 -0.17492747848E+04  0.18043876603E+04  0.50400001928E-02 0. -1.
</event>
<event>
 5   0  0.1553604E-06  0.2499198E+04  0.7818609E-02  0.8403271E-01
       -1   -1    0    0    0  501  0.00000000000E+00  0.00000000000E+00  0.77189322012E+03  0.77189322013E+03  0.50400001928E-02 0. -1.
        1   -1    0    0  501    0  0.00000000000E+00  0.00000000000E+00 -0.20229446139E+04  0.20229446139E+04  0.50400001928E-02 0.  1.
    10030    2    1    2    0    0  0.00000000000E+00  0.00000000000E+00 -0.12510513938E+04  0.27948378341E+04  0.24991976570E+04 0.  0.
        1    1    3    3  502    0 -0.55683987925E+03 -0.10871486955E+04 -0.92041263523E+03  0.15294189604E+04  0.50400001928E-02 0.  1.
       -1    1    3    3    0  502  0.55683987925E+03  0.10871486955E+04 -0.33063875858E+03  0.12654188737E+04  0.50400001928E-02 0. -1.
</event>
<event>
 5   0  0.1501747E-06  0.2499536E+04  0.7818609E-02  0.8403151E-01
        1   -1    0    0  501    0  0.00000000000E+00  0.00000000000E+00  0.82688019802E+03  0.82688019804E+03  0.50400001928E-02 0.  1.
       -1   -1    0    0    0  501  0.00000000000E+00  0.00000000000E+00 -0.18889317679E+04  0.18889317679E+04  0.50400001928E-02 0. -1.
    10030    2    1    2    0    0  0.00000000000E+00  0.00000000000E+00 -0.10620515699E+04  0.27158119659E+04  0.24995361764E+04 0.  0.
        2    1    3    3  502    0 -0.46532858786E+03  0.79063566672E+02 -0.17883666300E+04  0.18496045376E+04  0.25500000920E-02 0. -1.
       -2    1    3    3    0  502  0.46532858786E+03 -0.79063566672E+02  0.72631506014E+03  0.86620742831E+03  0.25500000920E-02 0.  1.
</event>
<event>
 5   0  0.1574896E-06  0.2498542E+04  0.7818609E-02  0.8403505E-01
       -1   -1    0    0    0  501  0.00000000000E+00  0.00000000000E+00  0.13139305545E+04  0.13139305545E+04  0.50400001928E-02 0. -1.
        1   -1    0    0  501    0  0.00000000000E+00  0.00000000000E+00 -0.11877930409E+04  0.11877930409E+04  0.50400001928E-02 0.  1.
    10030    2    1    2    0    0  0.00000000000E+00  0.00000000000E+00  0.12613751363E+03  0.25017235953E+04  0.24985416297E+04 0.  0.
        3    1    3    3  502    0  0.68977510876E+03 -0.30673564894E+03 -0.93358882470E+03  0.12006100794E+04  0.10100000352E+00 0.  1.
       -3    1    3    3    0  502 -0.68977510876E+03  0.30673564894E+03  0.10597263383E+04  0.13011135159E+04  0.10100000352E+00 0. -1.
</event>
<event>
 5   0  0.3713394E-06  0.2464448E+04  0.7818609E-02  0.8415762E-01
       -2   -1    0    0    0  501  0.00000000000E+00  0.00000000000E+00  0.18836222218E+04  0.18836222218E+04  0.25500000920E-02 0.  1.
        2   -1    0    0  501    0  0.00000000000E+00  0.00000000000E+00 -0.80609337827E+03  0.80609337828E+03  0.25500000920E-02 0. -1.
    10030    2    1    2    0    0  0.00000000000E+00  0.00000000000E+00  0.10775288436E+04  0.26897156001E+04  0.24644475244E+04 0.  0.
        3    1    3    3  502    0  0.46905723821E+03 -0.10833517579E+04  0.92418672714E+03  0.14992620988E+04  0.10100000352E+00 0.  1.
       -3    1    3    3    0  502 -0.46905723821E+03  0.10833517579E+04  0.15334211642E+03  0.11904535013E+04  0.10100000352E+00 0. -1.
</event>
<event>
 5   0  0.1574896E-06  0.2502697E+04  0.7818609E-02  0.8402025E-01
       -1   -1    0    0    0  501  0.00000000000E+00  0.00000000000E+00  0.74631391298E+03  0.74631391299E+03  0.50400001928E-02 0. -1.
        1   -1    0    0  501    0  0.00000000000E+00  0.00000000000E+00 -0.20981433757E+04  0.20981433758E+04  0.50400001928E-02 0.  1.
    10030    2    1    2    0    0  0.00000000000E+00  0.00000000000E+00 -0.13518294628E+04  0.28444572887E+04  0.25026974190E+04 0.  0.
        3    1    3    3  502    0 -0.36226587664E+03 -0.42176075917E+03 -0.19500524171E+04  0.20277630885E+04  0.10100000352E+00 0.  1.
       -3    1    3    3    0  502  0.36226587664E+03  0.42176075917E+03  0.59822295437E+03  0.81669420023E+03  0.10100000352E+00 0. -1.
</event>
<event>
 5   0  0.3971759E-06  0.2496622E+04  0.7818609E-02  0.8404190E-01
        2   -1    0    0  501    0  0.00000000000E+00  0.00000000000E+00  0.17624273577E+04  0.17624273577E+04  0.25500000920E-02 0.  1.
       -2   -1    0    0    0  501  0.00000000000E+00  0.00000000000E+00 -0.88416717504E+03  0.88416717504E+03  0.25500000920E-02 0. -1.
    10030    2    1    2    0    0  0.00000000000E+00  0.00000000000E+00  0.87826018264E+03  0.26465945327E+04  0.24966220523E+04 0.  0.
        4    1    3    3  502    0 -0.30259155987E+03  0.12110293386E+04  0.45098649434E+03  0.13272317590E+04  0.12699999809E+01 0. -1.
       -4    1    3    3    0  502  0.30259155987E+03 -0.12110293386E+04  0.42727368830E+03  0.13193627737E+04  0.12699999809E+01 0.  1.
</event>
<event>
 5   0  0.3713394E-06  0.2504014E+04  0.7818609E-02  0.8401557E-01
        2   -1    0    0  501    0  0.00000000000E+00  0.00000000000E+00  0.12735750601E+04  0.12735750601E+04  0.25500000920E-02 0. -1.
       -2   -1    0    0    0  501  0.00000000000E+00  0.00000000000E+00 -0.12308037952E+04  0.12308037952E+04  0.25500000920E-02 0.  1.
    10030    2    1    2    0    0  0.00000000000E+00  0.00000000000E+00  0.42771264873E+02  0.25043788553E+04  0.25040135921E+04 0.  0.
        3    1    3    3  502    0  0.13997564462E+03  0.12410496661E+04 -0.66510931106E+02  0.12506882781E+04  0.10100000352E+00 0.  1.
       -3    1    3    3    0  502 -0.13997564462E+03 -0.12410496661E+04  0.10928219598E+03  0.12536905772E+04  0.10100000352E+00 0. -1.
</event>
<event>
 5   0  0.3924441E-06  0.2487586E+04  0.7818609E-02  0.8407421E-01
       -2   -1    0    0    0  501  0.00000000000E+00  0.00000000000E+00  0.16382292688E+04  0.16382292689E+04  0.25500000920E-02 0.  1.
        2   -1    0    0  501    0  0.00000000000E+00  0.00000000000E+00 -0.94432504252E+03  0.94432504252E+03  0.25500000920E-02 0. -1.
    10030    2    1    2    0    0  0.00000000000E+00  0.00000000000E+00  0.69390422633E+03  0.25825543114E+04  0.24875859173E+04 0.  0.
        2    1    3    3  502    0  0.25780503246E+03 -0.84021108190E+03  0.12606674462E+04  0.15367825178E+04  0.25500000920E-02 0.  1.
       -2    1    3    3    0  502 -0.25780503246E+03  0.84021108190E+03 -0.56676321989E+03  0.10457717936E+04  0.25500000920E-02 0. -1.
</event>
<event>
 5   0  0.1541852E-06  0.2504075E+04  0.7818609E-02  0.8401535E-01
       -1   -1    0    0    0  501  0.00000000000E+00  0.00000000000E+00  0.14642817050E+04  0.14642817050E+04  0.50400001928E-02 0.  1.
        1   -1    0    0  501    0  0.00000000000E+00  0.00000000000E+00 -0.10705575862E+04  0.10705575862E+04  0.50400001928E-02 0. -1.
    10030    2    1    2    0    0  0.00000000000E+00  0.00000000000E+00  0.39372411888E+03  0.25348392912E+04  0.25040749890E+04 0.  0.
        5    1    3    3  502    0  0.55596557060E+03 -0.13540686925E+03  0.13241607272E+04  0.14425174028E+04  0.46999998093E+01 0.  1.
       -5    1    3    3    0  502 -0.55596557060E+03  0.13540686925E+03 -0.93043660828E+03  0.10923218884E+04  0.46999998093E+01 0. -1.
</event>
<event>
 5   0  0.1553604E-06  0.2430239E+04  0.7818609E-02  0.8428268E-01
       -1   -1    0    0    0  501  0.00000000000E+00  0.00000000000E+00  0.14970026088E+04  0.14970026088E+04  0.50400001928E-02 0.  1.
        1   -1    0    0  501    0  0.00000000000E+00  0.00000000000E+00 -0.98631482645E+03  0.98631482646E+03  0.50400001928E-02 0. -1.
    10030    2    1    2    0    0  0.00000000000E+00  0.00000000000E+00  0.51068778231E+03  0.24833174352E+04  0.24302393860E+04 0.  0.
        1    1    3    3  502    0 -0.76118664472E+03 -0.91740860516E+03  0.14674465208E+02  0.11921656751E+04  0.50400001928E-02 0. -1.
       -1    1    3    3    0  502  0.76118664472E+03  0.91740860516E+03  0.49601331710E+03  0.12911517601E+04  0.50400001928E-02 0.  1.
</event>
<event>
 5   0  0.3808293E-06  0.2494994E+04  0.7818609E-02  0.8404771E-01
       -2   -1    0    0    0  501  0.00000000000E+00  0.00000000000E+00  0.13974610189E+04  0.13974610189E+04  0.25500000920E-02 0. -1.
        2   -1    0    0  501    0  0.00000000000E+00  0.00000000000E+00 -0.11136256298E+04  0.11136256298E+04  0.25500000920E-02 0.  1.
    10030    2    1    2    0    0  0.00000000000E+00  0.00000000000E+00  0.28383538916E+03  0.25110866487E+04  0.24949937132E+04 0.  0.
        1    1    3    3  502    0 -0.87775355839E+03  0.89150326743E+02 -0.74572867403E+03  0.11552100871E+04  0.50400001928E-02 0.  1.
       -1    1    3    3    0  502  0.87775355839E+03 -0.89150326743E+02  0.10295640632E+04  0.13558765616E+04  0.50400001928E-02 0. -1.
</event>
<event>
 5   0  0.3971759E-06  0.2496247E+04  0.7818609E-02  0.8404324E-01
        2   -1    0    0  501    0  0.00000000000E+00  0.00000000000E+00  0.11083476001E+04  0.11083476001E+04  0.25500000920E-02 0.  1.
       -2   -1    0    0    0  501  0.00000000000E+00  0.00000000000E+00 -0.14055268735E+04  0.14055268735E+04  0.25500000920E-02 0. -1.
    10030    2    1    2    0    0  0.00000000000E+00  0.00000000000E+00 -0.29717927342E+03  0.25138744736E+04  0.24962470528E+04 0.  0.
        4    1    3    3  502    0 -0.50785114241E+03 -0.27924465089E+03 -0.12618005998E+04  0.13885361804E+04  0.12699999809E+01 0. -1.
       -4    1    3    3    0  502  0.50785114241E+03  0.27924465089E+03  0.96462132635E+03  0.11253382932E+04  0.12699999809E+01 0.  1.
</event>
<event>
 5   0  0.1287375E-06  0.2502800E+04  0.7818609E-02  0.8401989E-01
        4   -1    0    0  501    0  0.00000000000E+00  0.00000000000E+00  0.10412204411E+04  0.10412212157E+04  0.12699999809E+01 0.  1.
       -4   -1    0    0    0  501  0.00000000000E+00  0.00000000000E+00 -0.15040043408E+04  0.15040048770E+04  0.12699999809E+01 0. -1.
    10030    2    1    2    0    0  0.00000000000E+00  0.00000000000E+00 -0.46278389963E+03  0.25452260926E+04  0.25027998172E+04 0.  0.
        1    1    3    3  502    0  0.46205423972E+03 -0.11610072218E+04 -0.16264541261E+03  0.12601132567E+04  0.50400001928E-02 0. -1.
       -1    1    3    3    0  502 -0.46205423972E+03  0.11610072218E+04 -0.30013848701E+03  0.12851128359E+04  0.50400001928E-02 0.  1.
</event>
<event>
 5   0  0.3713394E-06  0.2495161E+04  0.7818609E-02  0.8404712E-01
       -2   -1    0    0    0  501  0.00000000000E+00  0.00000000000E+00  0.13914532834E+04  0.13914532834E+04  0.25500000920E-02 0. -1.
        2   -1    0    0  501    0  0.00000000000E+00  0.00000000000E+00 -0.11185833684E+04  0.11185833684E+04  0.25500000920E-02 0.  1.
    10030    2    1    2    0    0  0.00000000000E+00  0.00000000000E+00  0.27286991505E+03  0.25100366518E+04  0.24951605165E+04 0.  0.
        3    1    3    3  502    0  0.10963588635E+04 -0.95997215485E+02 -0.45463792886E+03  0.11907618904E+04  0.10100000352E+00 0.  1.
       -3    1    3    3    0  502 -0.10963588635E+04  0.95997215485E+02  0.72750784391E+03  0.13192747614E+04  0.10100000352E+00 0. -1.
</event>
<event>
 5   0  0.3971759E-06  0.2500339E+04  0.7818609E-02  0.8402865E-01
       -2   -1    0    0    0  501  0.00000000000E+00  0.00000000000E+00  0.18727986828E+04  0.18727986828E+04  0.25500000920E-02 0. -1.
        2   -1    0    0  501    0  0.00000000000E+00  0.00000000000E+00 -0.83453895047E+03  0.83453895047E+03  0.25500000920E-02 0.  1.
    10030    2    1    2    0    0  0.00000000000E+00  0.00000000000E+00  0.10382597323E+04  0.27073376333E+04  0.25003387348E+04 0.  0.
        4    1    3    3  502    0  0.11667394740E+04  0.28693584303E+02  0.10043562001E+04  0.15397523540E+04  0.12699999809E+01 0. -1.
       -4    1    3    3    0  502 -0.11667394740E+04 -0.28693584303E+02  0.33903532272E+02  0.11675852793E+04  0.12699999809E+01 0.  1.
</event>
<event>
 5   0  0.1541852E-06  0.2503231E+04  0.7818609E-02  0.8401836E-01
        1   -1    0    0  501    0  0.00000000000E+00  0.00000000000E+00  0.16094778574E+04  0.16094778574E+04  0.50400001928E-02 0. -1.
       -1   -1    0    0    0  501  0.00000000000E+00  0.00000000000E+00 -0.97332244981E+03  0.97332244982E+03  0.50400001928E-02 0.  1.
    10030    2    1    2    0    0  0.00000000000E+00  0.00000000000E+00  0.63615540756E+03  0.25828003072E+04  0.25032306574E+04 0.  0.
        5    1    3    3  502    0  0.60453421358E+03 -0.10183429697E+04 -0.99808454218E+02  0.11884729012E+04  0.46999998093E+01 0.  1.
       -5    1    3    3    0  502 -0.60453421358E+03  0.10183429697E+04  0.73596386178E+03  0.13943274060E+04  0.46999998093E+01 0. -1.
</event>
<event>
 5   0  0.1501747E-06  0.2497592E+04  0.7818609E-02  0.8403844E-01
        1   -1    0    0  501    0  0.00000000000E+00  0.00000000000E+00  0.13258546122E+04  0.13258546122E+04  0.50400001928E-02 0.  1.
       -1   -1    0    0    0  501  0.00000000000E+00  0.00000000000E+00 -0.11762162274E+04  0.11762162274E+04  0.50400001928E-02 0. -1.
    10030    2    1    2    0    0  0.00000000000E+00  0.00000000000E+00  0.14963838477E+03  0.25020708396E+04  0.24975922086E+04 0.  0.
        2    1    3    3  502    0 -0.81648232918E+03  0.20645061172E+03  0.99854989572E+03  0.13062798870E+04  0.25500000920E-02 0.  1.
       -2    1    3    3    0  502  0.81648232918E+03 -0.20645061172E+03 -0.84891151095E+03  0.11957909526E+04  0.25500000920E-02 0. -1.
</event>
<event>
 5   0  0.3971759E-06  0.2463337E+04  0.7818609E-02  0.8416165E-01
       -2   -1    0    0    0  501  0.00000000000E+00  0.00000000000E+00  0.61682714667E+03  0.61682714668E+03  0.25500000920E-02 0. -1.
        2   -1    0    0  501    0  0.00000000000E+00  0.00000000000E+00 -0.24593713717E+04  0.24593713717E+04  0.25500000920E-02 0.  1.
    10030    2    1    2    0    0  0.00000000000E+00  0.00000000000E+00 -0.18425442250E+04  0.30761985183E+04  0.24633367823E+04 0.  0.
        4    1    3    3  502    0  0.12311133235E+04 -0.36735792190E+02 -0.91629584051E+03  0.15351186319E+04  0.12699999809E+01 0. -1.
       -4    1    3    3    0  502 -0.12311133235E+04  0.36735792190E+02 -0.92624838448E+03  0.15410798864E+04  0.12699999809E+01 0.  1.
</event>
<event>
 5   0  0.3713394E-06  0.2499453E+04  0.7818609E-02  0.8403181E-01
       -2   -1    0    0    0  501  0.00000000000E+00  0.00000000000E+00  0.65705741737E+03  0.65705741738E+03  0.25500000920E-02 0.  1.
        2   -1    0    0  501    0  0.00000000000E+00  0.00000000000E+00 -0.23769852194E+04  0.23769852194E+04  0.25500000920E-02 0. -1.
    10030    2    1    2    0    0  0.00000000000E+00  0.00000000000E+00 -0.17199278020E+04  0.30340426368E+04  0.24994525556E+04 0.  0.
        3    1    3    3  502    0 -0.97502528093E+03  0.73849200527E+03 -0.54865318735E+03  0.13405465566E+04  0.10100000352E+00 0. -1.
       -3    1    3    3    0  502  0.97502528093E+03 -0.73849200527E+03 -0.11712746147E+04  0.16934960802E+04  0.10100000352E+00 0.  1.
</event>
<event>
 5   0  0.1287375E-06  0.2492698E+04  0.7818609E-02  0.8405592E-01
       -3   -1    0    0    0  501  0.00000000000E+00  0.00000000000E+00  0.71874299336E+03  0.71874300046E+03  0.10100000352E+00 0. -1.
        3   -1    0    0  501    0  0.00000000000E+00  0.00000000000E+00 -0.21612533966E+04  0.21612533989E+04  0.10100000352E+00 0.  1.
    10030    2    1    2    0    0  0.00000000000E+00  0.00000000000E+00 -0.14425104032E+04  0.28799963994E+04  0.24926979354E+04 0.  0.
        3    1    3    3  502    0 -0.28467082128E+03 -0.56327961798E+03 -0.19629800670E+04  0.20619437815E+04  0.10100000352E+00 0.  1.
       -3    1    3    3    0  502  0.28467082128E+03  0.56327961798E+03  0.52046966377E+03  0.81805261789E+03  0.10100000352E+00 0. -1.
</event>
<event>
 5   0  0.3924441E-06  0.2501326E+04  0.7818609E-02  0.8402513E-01
       -2   -1    0    0    0  501  0.00000000000E+00  0.00000000000E+00  0.17814223934E+04  0.17814223934E+04  0.25500000920E-02 0. -1.
        2   -1    0    0  501    0  0.00000000000E+00  0.00000000000E+00 -0.87803850706E+03  0.87803850706E+03  0.25500000920E-02 0.  1.
    10030    2    1    2    0    0  0.00000000000E+00  0.00000000000E+00  0.90338388637E+03  0.26594609005E+04  0.25013256156E+04 0.  0.
        2    1    3    3  502    0 -0.12031869955E+04  0.26258796165E+03  0.68352785768E+03  0.14084820609E+04  0.25500000920E-02 0. -1.
       -2    1    3    3    0  502  0.12031869955E+04 -0.26258796165E+03  0.21985602869E+03  0.12509788396E+04  0.25500000920E-02 0.  1.
</event>
<event>
 5   0  0.3971759E-06  0.2481803E+04  0.7818609E-02  0.8409497E-01
        2   -1    0    0  501    0  0.00000000000E+00  0.00000000000E+00  0.14953566806E+04  0.14953566806E+04  0.25500000920E-02 0.  1.
       -2   -1    0    0    0  501  0.00000000000E+00  0.00000000000E+00 -0.10297454701E+04  0.10297454701E+04  0.25500000920E-02 0. -1.
    10030    2    1    2    0    0  0.00000000000E+00  0.00000000000E+00  0.46561121049E+03  0.25251021506E+04  0.24818031896E+04 0.  0.
        4    1    3    3  502    0 -0.82344850147E+03 -0.77380273738E+03 -0.28897393660E+03  0.11663385700E+04  0.12699999809E+01 0. -1.
       -4    1    3    3    0  502  0.82344850147E+03  0.77380273738E+03  0.75458514710E+03  0.13587635806E+04  0.12699999809E+01 0.  1.
</event>
<event>
 5   0  0.1553604E-06  0.2501874E+04  0.7818609E-02  0.8402318E-01
       -1   -1    0    0    0  501  0.00000000000E+00  0.00000000000E+00  0.10322232392E+04  0.10322232393E+04  0.50400001928E-02 0.  1.
        1   -1    0    0  501    0  0.00000000000E+00  0.00000000000E+00 -0.15159932387E+04  0.15159932387E+04  0.50400001928E-02 0. -1.
    10030    2    1    2    0    0  0.00000000000E+00  0.00000000000E+00 -0.48376999942E+03  0.25482164779E+04  0.25018740588E+04 0.  0.
        1    1    3    3  502    0  0.10250301906E+03  0.61454717449E+03 -0.13467212422E+04  0.14838575413E+04  0.50400001928E-02 0. -1.
       -1    1    3    3    0  502 -0.10250301906E+03 -0.61454717449E+03  0.86295124279E+03  0.10643589367E+04  0.50400001928E-02 0.  1.
</event>
<event>
 5   0  0.3924441E-06  0.2502703E+04  0.7818609E-02  0.8402023E-01
        2   -1    0    0  501    0  0.00000000000E+00  0.00000000000E+00  0.24496723118E+04  0.24496723119E+04  0.25500000920E-02 0.  1.
       -2   -1    0    0    0  501  0.00000000000E+00  0.00000000000E+00 -0.63922029312E+03  0.63922029313E+03  0.25500000920E-02 0. -1.
    10030    2    1    2    0    0  0.00000000000E+00  0.00000000000E+00  0.18104520187E+04  0.30888926050E+04  0.25027027416E+04 0.  0.
        2    1    3    3  502    0  0.70542125268E+03 -0.78158778986E+03  0.70521227515E+02  0.10552117610E+04  0.25500000920E-02 0. -1.
       -2    1    3    3    0  502 -0.70542125268E+03  0.78158778986E+03  0.17399307912E+04  0.20336808440E+04  0.25500000920E-02 0.  1.
</event>
<event>
 5   0  0.1541852E-06  0.2499715E+04  0.7818609E-02  0.8403087E-01
        1   -1    0    0  501    0  0.00000000000E+00  0.00000000000E+00  0.14743847865E+04  0.14743847865E+04  0.50400001928E-02 0.  1.
       -1   -1    0    0    0  501  0.00000000000E+00  0.00000000000E+00 -0.10595222382E+04  0.10595222382E+04  0.50400001928E-02 0. -1.
    10030    2    1    2    0    0  0.00000000000E+00  0.00000000000E+00  0.41486254829E+03  0.25339070246E+04  0.24997147588E+04 0.  0.
        5    1    3    3  502    0  0.46294926847E+03  0.83006581797E+03  0.10301923746E+04  0.14016596256E+04  0.46999998093E+01 0.  1.
       -5    1    3    3    0  502 -0.46294926847E+03 -0.83006581797E+03 -0.61532982636E+03  0.11322473990E+04  0.46999998093E+01 0. -1.
</event>
<event>
 5   0  0.1574896E-06  0.2502730E+04  0.7818609E-02  0.8402014E-01
       -1   -1    0    0    0  501  0.00000000000E+00  0.00000000000E+00  0.77032438470E+03  0.77032438472E+03  0.50400001928E-02 0.  1.
        1   -1    0    0  501    0  0.00000000000E+00  0.00000000000E+00 -0.20327985139E+04  0.20327985139E+04  0.50400001928E-02 0. -1.
    10030    2    1    2    0    0  0.00000000000E+00  0.00000000000E+00 -0.12624741292E+04  0.28031228986E+04  0.25027299211E+04 0.  0.
        3    1    3    3  502    0 -0.86128100386E+02  0.43003637980E+03 -0.19438985660E+04  0.19927596400E+04  0.10100000352E+00 0. -1.
       -3    1    3    3    0  502  0.86128100386E+02 -0.43003637980E+03  0.68142443682E+03  0.81036325862E+03  0.10100000352E+00 0.  1.
</event>
<event>
 5   0  0.3814260E-06  0.2501080E+04  0.7818609E-02  0.8402601E-01
        2   -1    0    0  501    0  0.00000000000E+00  0.00000000000E+00  0.22619136674E+04  0.22619136674E+04  0.25500000920E-02 0. -1.
       -2   -1    0    0    0  501  0.00000000000E+00  0.00000000000E+00 -0.69138351231E+03  0.69138351231E+03  0.25500000920E-02 0.  1.
    10030    2    1    2    0    0  0.00000000000E+00  0.00000000000E+00  0.15705301551E+04  0.29532971797E+04  0.25010796196E+04 0.  0.
        5    1    3    3  502    0  0.36528398011E+03  0.10564463916E+04  0.12325724533E+03  0.11246002858E+04  0.46999998093E+01 0.  1.
       -5    1    3    3    0  502 -0.36528398011E+03 -0.10564463916E+04  0.14472729097E+04  0.18286968939E+04  0.46999998093E+01 0. -1.
</event>
<event>
 5   0  0.1541852E-06  0.2466875E+04  0.7818609E-02  0.8414882E-01
       -1   -1    0    0    0  501  0.00000000000E+00  0.00000000000E+00  0.94447457182E+03  0.94447457184E+03  0.50400001928E-02 0. -1.
        1   -1    0    0  501    0  0.00000000000E+00  0.00000000000E+00 -0.16108086497E+04  0.16108086497E+04  0.50400001928E-02 0.  1.
    10030    2    1    2    0    0  0.00000000000E+00  0.00000000000E+00 -0.66633407792E+03  0.25552832216E+04  0.24668747919E+04 0.  0.
        5    1    3    3  502    0 -0.10622760834E+03 -0.85946566959E+03  0.57659156903E+03  0.10404063963E+04  0.46999998093E+01 0. -1.
       -5    1    3    3    0  502  0.10622760834E+03  0.85946566959E+03 -0.12429256469E+04  0.15148768253E+04  0.46999998093E+01 0.  1.
</event>
<event>
 5   0  0.3713394E-06  0.2505038E+04  0.7818609E-02  0.8401193E-01
        2   -1    0    0  501    0  0.00000000000E+00  0.00000000000E+00  0.23701189811E+04  0.23701189811E+04  0.25500000920E-02 0.  1.
       -2   -1    0    0    0  501  0.00000000000E+00  0.00000000000E+00 -0.66190922398E+03  0.66190922398E+03  0.25500000920E-02 0. -1.
    10030    2    1    2    0    0  0.00000000000E+00  0.00000000000E+00  0.17082097572E+04  0.30320282051E+04  0.25050378165E+04 0.  0.
        3    1    3    3  502    0  0.20664118383E+03  0.98534377500E+03  0.17559748811E+04  0.20241172710E+04  0.10100000352E+00 0.  1.
       -3    1    3    3    0  502 -0.20664118383E+03 -0.98534377500E+03 -0.47765123896E+02  0.10079109341E+04  0.10100000352E+00 0. -1.
</event>
<event>
 5   0  0.1553604E-06  0.2502614E+04  0.7818609E-02  0.8402055E-01
        1   -1    0    0  501    0  0.00000000000E+00  0.00000000000E+00  0.68822286602E+03  0.68822286604E+03  0.50400001928E-02 0. -1.
       -1   -1    0    0    0  501  0.00000000000E+00  0.00000000000E+00 -0.22750899015E+04  0.22750899015E+04  0.50400001928E-02 0.  1.
    10030    2    1    2    0    0  0.00000000000E+00  0.00000000000E+00 -0.15868670355E+04  0.29633127676E+04  0.25026137477E+04 0.  0.
        1    1    3    3  502    0 -0.61580298923E+03 -0.93740474229E+03 -0.14503916155E+04  0.18334603380E+04  0.50400001928E-02 0.  1.
       -1    1    3    3    0  502  0.61580298923E+03  0.93740474229E+03 -0.13647541996E+03  0.11298524296E+04  0.50400001928E-02 0. -1.
</event>
<event>
 5   0  0.1541852E-06  0.2502716E+04  0.7818609E-02  0.8402019E-01
       -1   -1    0    0    0  501  0.00000000000E+00  0.00000000000E+00  0.79538395693E+03  0.79538395695E+03  0.50400001928E-02 0.  1.
        1   -1    0    0  501    0  0.00000000000E+00  0.00000000000E+00 -0.19687309676E+04  0.19687309676E+04  0.50400001928E-02 0. -1.
    10030    2    1    2    0    0  0.00000000000E+00  0.00000000000E+00 -0.11733470106E+04  0.27641149245E+04  0.25027161462E+04 0.  0.
        5    1    3    3  502    0 -0.35852030038E+03 -0.11808838085E+04 -0.81530067002E+03  0.14791080580E+04  0.46999998093E+01 0. -1.
       -5    1    3    3    0  502  0.35852030038E+03  0.11808838085E+04 -0.35804634062E+03  0.12850068665E+04  0.46999998093E+01 0.  1.
</event>
<event>
 5   0  0.3713394E-06  0.2489839E+04  0.7818609E-02  0.8406614E-01
        2   -1    0    0  501    0  0.00000000000E+00  0.00000000000E+00  0.18622327920E+04  0.18622327920E+04  0.25500000920E-02 0. -1.
       -2   -1    0    0    0  501  0.00000000000E+00  0.00000000000E+00 -0.83224011630E+03  0.83224011631E+03  0.25500000920E-02 0.  1.
    10030    2    1    2    0    0  0.00000000000E+00  0.00000000000E+00  0.10299926757E+04  0.26944729083E+04  0.24898392200E+04 0.  0.
        3    1    3    3  502    0  0.90004809183E+03 -0.33430239602E+03 -0.34258531504E+03  0.10194161897E+04  0.10100000352E+00 0.  1.
       -3    1    3    3    0  502 -0.90004809183E+03  0.33430239602E+03  0.13725779907E+04  0.16750567185E+04  0.10100000352E+00 0. -1.
</event>
<event>
 5   0  0.3814260E-06  0.2499831E+04  0.7818609E-02  0.8403046E-01
       -2   -1    0    0    0  501  0.00000000000E+00  0.00000000000E+00  0.69337604020E+03  0.69337604020E+03  0.25500000920E-02 0. -1.
        2   -1    0    0  501    0  0.00000000000E+00  0.00000000000E+00 -0.22531628821E+04  0.22531628821E+04  0.25500000920E-02 0.  1.
    10030    2    1    2    0    0  0.00000000000E+00  0.00000000000E+00 -0.15597868419E+04  0.29465389223E+04  0.24998313200E+04 0.  0.
        5    1    3    3  502    0  0.50089778768E+03  0.37030085517E+03  0.49737147363E+03  0.79713348307E+03  0.46999998093E+01 0. -1.
       -5    1    3    3    0  502 -0.50089778768E+03 -0.37030085517E+03 -0.20571583155E+04  0.21494054392E+04  0.46999998093E+01 0.  1.
</event>
<event>
 5   0  0.3814260E-06  0.2499972E+04  0.7818609E-02  0.8402996E-01
        2   -1    0    0  501    0  0.00000000000E+00  0.00000000000E+00  0.19577366293E+04  0.19577366293E+04  0.25500000920E-02 0.  1.
       -2   -1    0    0    0  501  0.00000000000E+00  0.00000000000E+00 -0.79809765150E+03  0.79809765150E+03  0.25500000920E-02 0. -1.
    10030    2    1    2    0    0  0.00000000000E+00  0.00000000000E+00  0.11596389778E+04  0.27558342808E+04  0.24999720047E+04 0.  0.
        5    1    3    3  502    0  0.98025709719E+03  0.44160357394E+03  0.12826679547E+04  0.16736716719E+04  0.46999998093E+01 0.  1.
       -5    1    3    3    0  502 -0.98025709719E+03 -0.44160357394E+03 -0.12302897688E+03  0.10821626090E+04  0.46999998093E+01 0. -1.
</event>
<event>
 5   0  0.1519145E-06  0.2500685E+04  0.7818609E-02  0.8402741E-01
       -1   -1    0    0    0  501  0.00000000000E+00  0.00000000000E+00  0.16953556878E+04  0.16953556878E+04  0.50400001928E-02 0. -1.
        1   -1    0    0  501    0  0.00000000000E+00  0.00000000000E+00 -0.92214078125E+03  0.92214078127E+03  0.50400001928E-02 0.  1.
    10030    2    1    2    0    0  0.00000000000E+00  0.00000000000E+00  0.77321490653E+03  0.26174964691E+04  0.25006852009E+04 0.  0.
        4    1    3    3  502    0  0.21820937445E+03 -0.87625359687E+03  0.12918281045E+04  0.15761526454E+04  0.12699999809E+01 0. -1.
       -4    1    3    3    0  502 -0.21820937445E+03  0.87625359687E+03 -0.51861319794E+03  0.10413438237E+04  0.12699999809E+01 0.  1.
</event>
<event>
 5   0  0.1287375E-06  0.2499465E+04  0.7818609E-02  0.8403176E-01
        3   -1    0    0  501    0  0.00000000000E+00  0.00000000000E+00  0.17566812501E+04  0.17566812530E+04  0.10100000352E+00 0. -1.
       -3   -1    0    0    0  501  0.00000000000E+00  0.00000000000E+00 -0.88908074088E+03  0.88908074662E+03  0.10100000352E+00 0.  1.
    10030    2    1    2    0    0  0.00000000000E+00  0.00000000000E+00  0.86760050926E+03  0.26457619997E+04  0.24994651258E+04 0.  0.
        4    1    3    3  502    0 -0.46830253760E+03 -0.49955610476E+03 -0.67284156513E+03  0.95999007974E+03  0.12699999809E+01 0.  1.
       -4    1    3    3    0  502  0.46830253760E+03  0.49955610476E+03  0.15404420744E+04  0.16857719199E+04  0.12699999809E+01 0. -1.
</event>
<event>
 5   0  0.1519145E-06  0.2518262E+04  0.7818609E-02  0.8396508E-01
        1   -1    0    0  501    0  0.00000000000E+00  0.00000000000E+00  0.28544406765E+04  0.28544406765E+04  0.50400001928E-02 0. -1.
       -1   -1    0    0    0  501  0.00000000000E+00  0.00000000000E+00 -0.55541894501E+03  0.55541894503E+03  0.50400001928E-02 0.  1.
    10030    2    1    2    0    0  0.00000000000E+00  0.00000000000E+00  0.22990217315E+04  0.34098596215E+04  0.25182616458E+04 0.  0.
        4    1    3    3  502    0 -0.64857792674E+03 -0.69716747024E+03  0.33987335690E+02  0.95281297247E+03  0.12699999809E+01 0.  1.
       -4    1    3    3    0  502  0.64857792674E+03  0.69716747024E+03  0.22650343958E+04  0.24570466491E+04  0.12699999809E+01 0. -1.
</event>
<event>
 5   0  0.1574896E-06  0.2506069E+04  0.7818609E-02  0.8400827E-01
       -1   -1    0    0    0  501  0.00000000000E+00  0.00000000000E+00  0.98557810548E+03  0.98557810549E+03  0.50400001928E-02 0.  1.
        1   -1    0    0  501    0  0.00000000000E+00  0.00000000000E+00 -0.15930700194E+04  0.15930700194E+04  0.50400001928E-02 0. -1.
    10030    2    1    2    0    0  0.00000000000E+00  0.00000000000E+00 -0.60749191388E+03  0.25786481249E+04  0.25060685798E+04 0.  0.
        3    1    3    3  502    0 -0.20705942753E+03  0.12318734187E+04 -0.40513493560E+03  0.13132098280E+04  0.10100000352E+00 0. -1.
       -3    1    3    3    0  502  0.20705942753E+03 -0.12318734187E+04 -0.20235697828E+03  0.12654382968E+04  0.10100000352E+00 0.  1.
</event>
<event>
 5   0  0.1553604E-06  0.2461633E+04  0.7818609E-02  0.8416783E-01
        1   -1    0    0  501    0  0.00000000000E+00  0.00000000000E+00  0.15036678601E+04  0.15036678601E+04  0.50400001928E-02 0.  1.
       -1   -1    0    0    0  501  0.00000000000E+00  0.00000000000E+00 -0.10074762311E+04  0.10074762311E+04  0.50400001928E-02 0. -1.
    10030    2    1    2    0    0  0.00000000000E+00  0.00000000000E+00  0.49619162897E+03  0.25111440912E+04  0.24616333021E+04 0.  0.
        1    1    3    3  502    0 -0.53268236134E+03  0.93806399068E+03  0.85263225751E+03  0.13750259326E+04  0.50400001928E-02 0.  1.
       -1    1    3    3    0  502  0.53268236134E+03 -0.93806399068E+03 -0.35644062854E+03  0.11361181586E+04  0.50400001928E-02 0. -1.
</event>
<event>
 5   0  0.3814260E-06  0.2508122E+04  0.7818609E-02  0.8400098E-01
       -2   -1    0    0    0  501  0.00000000000E+00  0.00000000000E+00  0.10522163687E+04  0.10522163687E+04  0.25500000920E-02 0. -1.
        2   -1    0    0  501    0  0.00000000000E+00  0.00000000000E+00 -0.14946247161E+04  0.14946247161E+04  0.25500000920E-02 0.  1.
    10030    2    1    2    0    0  0.00000000000E+00  0.00000000000E+00 -0.44240834740E+03  0.25468410848E+04  0.25081216808E+04 0.  0.
        5    1    3    3  502    0 -0.61258547058E+03 -0.55918978034E+03  0.73389699479E+03  0.11075112000E+04  0.46999998093E+01 0. -1.
       -5    1    3    3    0  502  0.61258547058E+03  0.55918978034E+03 -0.11763053422E+04  0.14393298848E+04  0.46999998093E+01 0.  1.
</event>
<event>
 5   0  0.3814260E-06  0.2503171E+04  0.7818609E-02  0.8401857E-01
        2   -1    0    0  501    0  0.00000000000E+00  0.00000000000E+00  0.17539059560E+04  0.17539059560E+04  0.25500000920E-02 0.  1.
       -2   -1    0    0    0  501  0.00000000000E+00  0.00000000000E+00 -0.89313001123E+03  0.89313001124E+03  0.25500000920E-02 0. -1.
    10030    2    1    2    0    0  0.00000000000E+00  0.00000000000E+00  0.86077594477E+03  0.26470359672E+04  0.25031708261E+04 0.  0.
        5    1    3    3  502    0 -0.70390536043E+03 -0.72554600184E+03 -0.34995571554E+03  0.10697620530E+04  0.46999998093E+01 0. -1.
       -5    1    3    3    0  502  0.70390536043E+03  0.72554600184E+03  0.12107316603E+04  0.15772739142E+04  0.46999998093E+01 0.  1.
</event>
<event>
 5   0  0.3814260E-06  0.2538924E+04  0.7818609E-02  0.8389248E-01
        2   -1    0    0  501    0  0.00000000000E+00  0.00000000000E+00  0.23078049797E+04  0.23078049797E+04  0.25500000920E-02 0.  1.
       -2   -1    0    0    0  501  0.00000000000E+00  0.00000000000E+00 -0.69829713342E+03  0.69829713343E+03  0.25500000920E-02 0. -1.
    10030    2    1    2    0    0  0.00000000000E+00  0.00000000000E+00  0.16095078463E+04  0.30061021131E+04  0.25389238680E+04 0.  0.
        5    1    3    3  502    0  0.10533133697E+04 -0.53197085296E+03  0.25060671114E+03  0.12063531228E+04  0.46999998093E+01 0. -1.
       -5    1    3    3    0  502 -0.10533133697E+04  0.53197085296E+03  0.13589011351E+04  0.17997489904E+04  0.46999998093E+01 0.  1.
</event>
<event>
 5   0  0.1553604E-06  0.2496854E+04  0.7818609E-02  0.8404107E-01
       -1   -1    0    0    0  501  0.00000000000E+00  0.00000000000E+00  0.78804475300E+03  0.78804475302E+03  0.50400001928E-02 0.  1.
        1   -1    0    0  501    0  0.00000000000E+00  0.00000000000E+00 -0.19777686355E+04  0.19777686355E+04  0.50400001928E-02 0. -1.
    10030    2    1    2    0    0  0.00000000000E+00  0.00000000000E+00 -0.11897238825E+04  0.27658133886E+04  0.24968541775E+04 0.  0.
        1    1    3    3  502    0  0.45691361463E+03  0.11614948080E+04 -0.56493392526E+03  0.13700330581E+04  0.50400001928E-02 0. -1.
       -1    1    3    3    0  502 -0.45691361463E+03 -0.11614948080E+04 -0.62478995728E+03  0.13957803305E+04  0.50400001928E-02 0.  1.
</event>
<event>
 5   0  0.3808293E-06  0.2486053E+04  0.7818609E-02  0.8407971E-01
       -2   -1    0    0    0  501  0.00000000000E+00  0.00000000000E+00  0.12391116477E+04  0.12391116477E+04  0.25500000920E-02 0.  1.
        2   -1    0    0  501    0  0.00000000000E+00  0.00000000000E+00 -0.12469541773E+04  0.12469541773E+04  0.25500000920E-02 0. -1.
    10030    2    1    2    0    0  0.00000000000E+00  0.00000000000E+00 -0.78425296093E+01  0.24860658250E+04  0.24860534549E+04 0.  0.
        1    1    3    3  502    0 -0.77387109200E+03  0.40330021037E+03  0.88128815471E+03  0.12402404357E+04  0.50400001928E-02 0.  1.
       -1    1    3    3    0  502  0.77387109200E+03 -0.40330021037E+03 -0.88913068432E+03  0.12458253893E+04  0.50400001928E-02 0. -1.
</event>
<event>
 5   0  0.3808293E-06  0.2500366E+04  0.7818609E-02  0.8402855E-01
        2   -1    0    0  501    0  0.00000000000E+00  0.00000000000E+00  0.14166533655E+04  0.14166533655E+04  0.25500000920E-02 0. -1.
       -2   -1    0    0    0  501  0.00000000000E+00  0.00000000000E+00 -0.11032747927E+04  0.11032747927E+04  0.25500000920E-02 0.  1.
    10030    2    1    2    0    0  0.00000000000E+00  0.00000000000E+00  0.31337857282E+03  0.25199281582E+04  0.25003663317E+04 0.  0.
        1    1    3    3  502    0 -0.51057021209E+02 -0.53413204491E+03 -0.98132790038E+03  0.11184401231E+04  0.50400001928E-02 0.  1.
       -1    1    3    3    0  502  0.51057021209E+02  0.53413204491E+03  0.12947064732E+04  0.14014880351E+04  0.50400001928E-02 0. -1.
</event>
<event>
 5   0  0.1574896E-06  0.2494369E+04  0.7818609E-02  0.8404994E-01
       -1   -1    0    0    0  501  0.00000000000E+00  0.00000000000E+00  0.14961045423E+04  0.14961045423E+04  0.50400001928E-02 0.  1.
        1   -1    0    0  501    0  0.00000000000E+00  0.00000000000E+00 -0.10396796219E+04  0.10396796219E+04  0.50400001928E-02 0. -1.
    10030    2    1    2    0    0  0.00000000000E+00  0.00000000000E+00  0.45642492040E+03  0.25357841642E+04  0.24943691827E+04 0.  0.
        3    1    3    3  502    0  0.11007495733E+04  0.31498682312E+03  0.73099768574E+03  0.13583902048E+04  0.10100000352E+00 0.  1.
       -3    1    3    3    0  502 -0.11007495733E+04 -0.31498682312E+03 -0.27457276534E+03  0.11773939594E+04  0.10100000352E+00 0. -1.
</event>
<event>
 5   0  0.3971759E-06  0.2492536E+04  0.7818609E-02  0.8405649E-01
       -2   -1    0    0    0  501  0.00000000000E+00  0.00000000000E+00  0.87475510967E+03  0.87475510968E+03  0.25500000920E-02 0.  1.
        2   -1    0    0  501    0  0.00000000000E+00  0.00000000000E+00 -0.17755645795E+04  0.17755645795E+04  0.25500000920E-02 0. -1.
    10030    2    1    2    0    0  0.00000000000E+00  0.00000000000E+00 -0.90080946984E+03  0.26503196892E+04  0.24925362092E+04 0.  0.
        4    1    3    3  502    0 -0.75743006657E+03  0.64123551143E+03 -0.12519819118E+04  0.15976055857E+04  0.12699999809E+01 0. -1.
       -4    1    3    3    0  502  0.75743006657E+03 -0.64123551143E+03  0.35117244199E+03  0.10527141035E+04  0.12699999809E+01 0.  1.
</event>
<event>
 5   0  0.1501747E-06  0.2512121E+04  0.7818609E-02  0.8398680E-01
        1   -1    0    0  501    0  0.00000000000E+00  0.00000000000E+00  0.88962971617E+03  0.88962971618E+03  0.50400001928E-02 0.  1.
       -1   -1    0    0    0  501  0.00000000000E+00  0.00000000000E+00 -0.17734212391E+04  0.17734212391E+04  0.50400001928E-02 0. -1.
    10030    2    1    2    0    0  0.00000000000E+00  0.00000000000E+00 -0.88379152289E+03  0.26630509552E+04  0.25121212021E+04 0.  0.
        2    1    3    3  502    0 -0.88539977120E+03  0.13321061791E+03 -0.13757361669E+04  0.16414407770E+04  0.25500000920E-02 0. -1.
       -2    1    3    3    0  502  0.88539977120E+03 -0.13321061791E+03  0.49194464398E+03  0.10216101782E+04  0.25500000920E-02 0.  1.
</event>
<event>
 5   0  0.3924441E-06  0.2477639E+04  0.7818609E-02  0.8410995E-01
        2   -1    0    0  501    0  0.00000000000E+00  0.00000000000E+00  0.21689243678E+04  0.21689243678E+04  0.25500000920E-02 0.  1.
       -2   -1    0    0    0  501  0.00000000000E+00  0.00000000000E+00 -0.70757350272E+03  0.70757350273E+03  0.25500000920E-02 0. -1.
    10030    2    1    2    0    0  0.00000000000E+00  0.00000000000E+00  0.14613508651E+04  0.28764978705E+04  0.24776387243E+04 0.  0.
        2    1    3    3  502    0 -0.71191397493E+03 -0.16591565684E+03  0.18918470159E+04  0.20281604089E+04  0.25500000920E-02 0.  1.
       -2    1    3    3    0  502  0.71191397493E+03  0.16591565684E+03 -0.43049615080E+03  0.84833746159E+03  0.25500000920E-02 0. -1.
</event>
<event>
 5   0  0.1553604E-06  0.2498234E+04  0.7818609E-02  0.8403615E-01
       -1   -1    0    0    0  501  0.00000000000E+00  0.00000000000E+00  0.11732346868E+04  0.11732346868E+04  0.50400001928E-02 0. -1.
        1   -1    0    0  501    0  0.00000000000E+00  0.00000000000E+00 -0.13299071975E+04  0.13299071975E+04  0.50400001928E-02 0.  1.
    10030    2    1    2    0    0  0.00000000000E+00  0.00000000000E+00 -0.15667251071E+03  0.25031418843E+04  0.24982339797E+04 0.  0.
        1    1    3    3  502    0 -0.12171685669E+04  0.26802440877E+03  0.52353390999E+01  0.12463401673E+04  0.50400001928E-02 0. -1.
       -1    1    3    3    0  502  0.12171685669E+04 -0.26802440877E+03 -0.16190784981E+03  0.12568017170E+04  0.50400001928E-02 0.  1.
</event>
<event>
 5   0  0.3924441E-06  0.2500277E+04  0.7818609E-02  0.8402887E-01
       -2   -1    0    0    0  501  0.00000000000E+00  0.00000000000E+00  0.11057169294E+04  0.11057169294E+04  0.25500000920E-02 0. -1.
        2   -1    0    0  501    0  0.00000000000E+00  0.00000000000E+00 -0.14134236918E+04  0.14134236918E+04  0.25500000920E-02 0.  1.
    10030    2    1    2    0    0  0.00000000000E+00  0.00000000000E+00 -0.30770676234E+03  0.25191406212E+04  0.25002771882E+04 0.  0.
        2    1    3    3  502    0  0.51984961135E+03 -0.10564911797E+04 -0.57705719716E+03  0.13112636043E+04  0.25500000920E-02 0.  1.
       -2    1    3    3    0  502 -0.51984961135E+03  0.10564911797E+04  0.26935043482E+03  0.12078770169E+04  0.25500000920E-02 0. -1.
</event>
<event>
 5   0  0.3814260E-06  0.2499310E+04  0.7818609E-02  0.8403231E-01
        2   -1    0    0  501    0  0.00000000000E+00  0.00000000000E+00  0.16550549559E+04  0.16550549559E+04  0.25500000920E-02 0.  1.
       -2   -1    0    0    0  501  0.00000000000E+00  0.00000000000E+00 -0.94355612385E+03  0.94355612385E+03  0.25500000920E-02 0. -1.
    10030    2    1    2    0    0  0.00000000000E+00  0.00000000000E+00  0.71149883204E+03  0.25986110797E+04  0.24993096958E+04 0.  0.
        5    1    3    3  502    0 -0.78607768920E+03  0.57874336268E+02 -0.65249405106E+03  0.10232488206E+04  0.46999998093E+01 0. -1.
       -5    1    3    3    0  502  0.78607768920E+03 -0.57874336268E+02  0.13639928831E+04  0.15753622591E+04  0.46999998093E+01 0.  1.
</event>
<event>
 5   0  0.3814260E-06  0.2507508E+04  0.7818609E-02  0.8400316E-01
        2   -1    0    0  501    0  0.00000000000E+00  0.00000000000E+00  0.18374874928E+04  0.18374874928E+04  0.25500000920E-02 0.  1.
       -2   -1    0    0    0  501  0.00000000000E+00  0.00000000000E+00 -0.85546083198E+03  0.85546083198E+03  0.25500000920E-02 0. -1.
    10030    2    1    2    0    0  0.00000000000E+00  0.00000000000E+00  0.98202666079E+03  0.26929483247E+04  0.25075075907E+04 0.  0.
        5    1    3    3  502    0  0.20776232708E+03 -0.93253607319E+03 -0.38086802802E+03  0.10285286856E+04  0.46999998093E+01 0. -1.
       -5    1    3    3    0  502 -0.20776232708E+03  0.93253607319E+03  0.13628946888E+04  0.16644196391E+04  0.46999998093E+01 0.  1.
</event>
<event>
 5   0  0.1287375E-06  0.2496045E+04  0.7818609E-02  0.8404396E-01
       -4   -1    0    0    0  501  0.00000000000E+00  0.00000000000E+00  0.16885360969E+04  0.16885365745E+04  0.12699999809E+01 0. -1.
        4   -1    0    0  501    0  0.00000000000E+00  0.00000000000E+00 -0.92243149419E+03  0.92243236846E+03  0.12699999809E+01 0.  1.
    10030    2    1    2    0    0  0.00000000000E+00  0.00000000000E+00  0.76610460273E+03  0.26109689430E+04  0.24960453840E+04 0.  0.
        5    1    3    3  502    0 -0.27149735710E+01  0.12462173366E+04  0.31308834824E+03  0.12849558066E+04  0.46999998093E+01 0.  1.
       -5    1    3    3    0  502  0.27149735710E+01 -0.12462173366E+04  0.45301625449E+03  0.13260131364E+04  0.46999998093E+01 0. -1.
</event>
<event>
 5   0  0.1574896E-06  0.2501588E+04  0.7818609E-02  0.8402420E-01
       -1   -1    0    0    0  501  0.00000000000E+00  0.00000000000E+00  0.13532542149E+04  0.13532542149E+04  0.50400001928E-02 0. -1.
        1   -1    0    0  501    0  0.00000000000E+00  0.00000000000E+00 -0.11560911344E+04  0.11560911344E+04  0.50400001928E-02 0.  1.
    10030    2    1    2    0    0  0.00000000000E+00  0.00000000000E+00  0.19716308048E+03  0.25093453494E+04  0.25015876563E+04 0.  0.
        3    1    3    3  502    0 -0.42178624735E+03 -0.45498450611E+03  0.11880300000E+04  0.13402722971E+04  0.10100000352E+00 0. -1.
       -3    1    3    3    0  502  0.42178624735E+03  0.45498450611E+03 -0.99086691949E+03  0.11690730523E+04  0.10100000352E+00 0.  1.
</event>
<event>
 5   0  0.1574896E-06  0.2496935E+04  0.7818609E-02  0.8404078E-01
       -1   -1    0    0    0  501  0.00000000000E+00  0.00000000000E+00  0.63164301512E+03  0.63164301514E+03  0.50400001928E-02 0.  1.
        1   -1    0    0  501    0  0.00000000000E+00  0.00000000000E+00 -0.24676462398E+04  0.24676462398E+04  0.50400001928E-02 0. -1.
    10030    2    1    2    0    0  0.00000000000E+00  0.00000000000E+00 -0.18360032247E+04  0.30992892550E+04  0.24969353305E+04 0.  0.
        3    1    3    3  502    0 -0.78375358074E+03 -0.69100213313E+03 -0.69846923094E+02  0.10472020942E+04  0.10100000352E+00 0.  1.
       -3    1    3    3    0  502  0.78375358074E+03  0.69100213313E+03 -0.17661563016E+04  0.20520871607E+04  0.10100000352E+00 0. -1.
</event>
<event>
 5   0  0.1574896E-06  0.2500214E+04  0.7818609E-02  0.8402909E-01
        1   -1    0    0  501    0  0.00000000000E+00  0.00000000000E+00  0.20296705368E+04  0.20296705368E+04  0.50400001928E-02 0.  1.
       -1   -1    0    0    0  501  0.00000000000E+00  0.00000000000E+00 -0.76996100758E+03  0.76996100759E+03  0.50400001928E-02 0. -1.
    10030    2    1    2    0    0  0.00000000000E+00  0.00000000000E+00  0.12597095292E+04  0.27996315444E+04  0.25002137282E+04 0.  0.
        3    1    3    3  502    0  0.96265927814E+03 -0.27530811870E+03  0.14679983797E+04  0.17769430770E+04  0.10100000352E+00 0.  1.
       -3    1    3    3    0  502 -0.96265927814E+03  0.27530811870E+03 -0.20828885041E+03  0.10226884674E+04  0.10100000352E+00 0. -1.
</event>
<event>
 5   0  0.3808293E-06  0.2490213E+04  0.7818609E-02  0.8406481E-01
       -2   -1    0    0    0  501  0.00000000000E+00  0.00000000000E+00  0.13709633652E+04  0.13709633653E+04  0.25500000920E-02 0.  1.
        2   -1    0    0  501    0  0.00000000000E+00  0.00000000000E+00 -0.11308034700E+04  0.11308034700E+04  0.25500000920E-02 0. -1.
    10030    2    1    2    0    0  0.00000000000E+00  0.00000000000E+00  0.24015989526E+03  0.25017668352E+04  0.24902129472E+04 0.  0.
        1    1    3    3  502    0  0.10276415793E+04 -0.70302327403E+03  0.11898342657E+03  0.12507781559E+04  0.50400001928E-02 0. -1.
       -1    1    3    3    0  502 -0.10276415793E+04  0.70302327403E+03  0.12117646869E+03  0.12509886794E+04  0.50400001928E-02 0.  1.
</event>
<event>
 5   0  0.1541852E-06  0.2529856E+04  0.7818609E-02  0.8392426E-01
        1   -1    0    0  501    0  0.00000000000E+00  0.00000000000E+00  0.74722843810E+03  0.74722843811E+03  0.50400001928E-02 0. -1.
       -1   -1    0    0    0  501  0.00000000000E+00  0.00000000000E+00 -0.21413041123E+04  0.21413041123E+04  0.50400001928E-02 0.  1.
    10030    2    1    2    0    0  0.00000000000E+00  0.00000000000E+00 -0.13940756742E+04  0.28885325504E+04  0.25298563812E+04 0.  0.
        5    1    3    3  502    0  0.99556342083E+03  0.46489842654E+03  0.18506039815E+02  0.10989274932E+04  0.46999998093E+01 0. -1.
       -5    1    3    3    0  502 -0.99556342083E+03 -0.46489842654E+03 -0.14125817140E+04  0.17896050571E+04  0.46999998093E+01 0.  1.
</event>
<event>
 5   0  0.3808293E-06  0.2503914E+04  0.7818609E-02  0.8401593E-01
       -2   -1    0    0    0  501  0.00000000000E+00  0.00000000000E+00  0.96697518271E+03  0.96697518272E+03  0.25500000920E-02 0. -1.
        2   -1    0    0  501    0  0.00000000000E+00  0.00000000000E+00 -0.16209268395E+04  0.16209268396E+04  0.25500000920E-02 0.  1.
    10030    2    1    2    0    0  0.00000000000E+00  0.00000000000E+00 -0.65395165684E+03  0.25879020223E+04  0.25039137580E+04 0.  0.
        1    1    3    3  502    0 -0.29544870823E+03  0.11338925002E+04 -0.78266610713E+03  0.14091019752E+04  0.50400001928E-02 0.  1.
       -1    1    3    3    0  502  0.29544870823E+03 -0.11338925002E+04  0.12871445029E+03  0.11788000471E+04  0.50400001928E-02 0. -1.
</event>
<event>
 5   0  0.3713394E-06  0.2498956E+04  0.7818609E-02  0.8403357E-01
       -2   -1    0    0    0  501  0.00000000000E+00  0.00000000000E+00  0.77810195019E+03  0.77810195019E+03  0.25500000920E-02 0.  1.
        2   -1    0    0  501    0  0.00000000000E+00  0.00000000000E+00 -0.20064154660E+04  0.20064154660E+04  0.25500000920E-02 0. -1.
    10030    2    1    2    0    0  0.00000000000E+00  0.00000000000E+00 -0.12283135158E+04  0.27845174162E+04  0.24989564118E+04 0.  0.
        3    1    3    3  502    0  0.75356814928E+03 -0.58621664904E+03  0.28397756648E+03  0.99607137479E+03  0.10100000352E+00 0.  1.
       -3    1    3    3    0  502 -0.75356814928E+03  0.58621664904E+03 -0.15122910823E+04  0.17884460414E+04  0.10100000352E+00 0. -1.
</event>
<event>
 5   0  0.3924441E-06  0.2487564E+04  0.7818609E-02  0.8407429E-01
       -2   -1    0    0    0  501  0.00000000000E+00  0.00000000000E+00  0.11651095255E+04  0.11651095255E+04  0.25500000920E-02 0.  1.
        2   -1    0    0  501    0  0.00000000000E+00  0.00000000000E+00 -0.13277668835E+04  0.13277668835E+04  0.25500000920E-02 0. -1.
    10030    2    1    2    0    0  0.00000000000E+00  0.00000000000E+00 -0.16265735802E+03  0.24928764091E+04  0.24875641448E+04 0.  0.
        2    1    3    3  502    0 -0.44643799588E+03 -0.43863074477E+03  0.99581086978E+03  0.11761560708E+04  0.25500000920E-02 0.  1.
       -2    1    3    3    0  502  0.44643799588E+03  0.43863074477E+03 -0.11584682278E+04  0.13167203383E+04  0.25500000920E-02 0. -1.
</event>
<event>
 5   0  0.1501747E-06  0.2502302E+04  0.7818609E-02  0.8402166E-01
        1   -1    0    0  501    0  0.00000000000E+00  0.00000000000E+00  0.96181416660E+03  0.96181416662E+03  0.50400001928E-02 0.  1.
       -1   -1    0    0    0  501  0.00000000000E+00  0.00000000000E+00 -0.16275267018E+04  0.16275267018E+04  0.50400001928E-02 0. -1.
    10030    2    1    2    0    0  0.00000000000E+00  0.00000000000E+00 -0.66571253517E+03  0.25893408684E+04  0.25023015312E+04 0.  0.
        2    1    3    3  502    0  0.83100717888E+03  0.35054983711E+03 -0.12301516584E+04  0.15253626527E+04  0.25500000920E-02 0. -1.
       -2    1    3    3    0  502 -0.83100717888E+03 -0.35054983711E+03  0.56443912321E+03  0.10639782157E+04  0.25500000920E-02 0.  1.
</event>
<event>
 5   0  0.3814260E-06  0.2504003E+04  0.7818609E-02  0.8401561E-01
       -2   -1    0    0    0  501  0.00000000000E+00  0.00000000000E+00  0.88216535919E+03  0.88216535919E+03  0.25500000920E-02 0. -1.
        2   -1    0    0  501    0  0.00000000000E+00  0.00000000000E+00 -0.17768871001E+04  0.17768871001E+04  0.25500000920E-02 0.  1.
    10030    2    1    2    0    0  0.00000000000E+00  0.00000000000E+00 -0.89472174090E+03  0.26590524593E+04  0.25040033921E+04 0.  0.
        5    1    3    3  502    0  0.56761384165E+03 -0.10230167551E+04  0.26042992159E+02  0.11702346269E+04  0.46999998093E+01 0. -1.
       -5    1    3    3    0  502 -0.56761384165E+03  0.10230167551E+04 -0.92076473306E+03  0.14888178324E+04  0.46999998093E+01 0.  1.
</event>
<event>
 5   0  0.3814260E-06  0.2503097E+04  0.7818609E-02  0.8401883E-01
       -2   -1    0    0    0  501  0.00000000000E+00  0.00000000000E+00  0.72864494149E+03  0.72864494150E+03  0.25500000920E-02 0. -1.
        2   -1    0    0  501    0  0.00000000000E+00  0.00000000000E+00 -0.21497076758E+04  0.21497076758E+04  0.25500000920E-02 0.  1.
    10030    2    1    2    0    0  0.00000000000E+00  0.00000000000E+00 -0.14210627343E+04  0.28783526173E+04  0.25030969807E+04 0.  0.
        5    1    3    3  502    0  0.12373045199E+04  0.18754055457E+03 -0.72898740671E+03  0.14482881839E+04  0.46999998093E+01 0.  1.
       -5    1    3    3    0  502 -0.12373045199E+04 -0.18754055457E+03 -0.69207532760E+03  0.14300644334E+04  0.46999998093E+01 0. -1.
</event>
<event>
 5   0  0.3808293E-06  0.2498423E+04  0.7818609E-02  0.8403547E-01
       -2   -1    0    0    0  501  0.00000000000E+00  0.00000000000E+00  0.75862541012E+03  0.75862541012E+03  0.25500000920E-02 0.  1.
        2   -1    0    0  501    0  0.00000000000E+00  0.00000000000E+00 -0.20570493114E+04  0.20570493114E+04  0.25500000920E-02 0. -1.
    10030    2    1    2    0    0  0.00000000000E+00  0.00000000000E+00 -0.12984239012E+04  0.28156747215E+04  0.24984234049E+04 0.  0.
        1    1    3    3  502    0 -0.97795551017E+03 -0.26523539148E+03  0.17416526627E+03  0.10281441206E+04  0.50400001928E-02 0.  1.
       -1    1    3    3    0  502  0.97795551017E+03  0.26523539148E+03 -0.14725891675E+04  0.17875306009E+04  0.50400001928E-02 0. -1.
</event>
<event>
 5   0  0.3971759E-06  0.2465422E+04  0.7818609E-02  0.8415409E-01
        2   -1    0    0  501    0  0.00000000000E+00  0.00000000000E+00  0.16397645023E+04  0.16397645023E+04  0.25500000920E-02 0. -1.
       -2   -1    0    0    0  501  0.00000000000E+00  0.00000000000E+00 -0.92670429376E+03  0.92670429376E+03  0.25500000920E-02 0.  1.
    10030    2    1    2    0    0  0.00000000000E+00  0.00000000000E+00  0.71306020857E+03  0.25664687961E+04  0.24654223209E+04 0.  0.
        4    1    3    3  502    0 -0.91246063924E+03 -0.82374783397E+03  0.45210980479E+03  0.13097899834E+04  0.12699999809E+01 0. -1.
       -4    1    3    3    0  502  0.91246063924E+03  0.82374783397E+03  0.26095040378E+03  0.12566788127E+04  0.12699999809E+01 0.  1.
</event>
<event>
 5   0  0.1501747E-06  0.2501705E+04  0.7818609E-02  0.8402378E-01
        1   -1    0    0  501    0  0.00000000000E+00  0.00000000000E+00  0.87596612230E+03  0.87596612231E+03  0.50400001928E-02 0.  1.
       -1   -1    0    0    0  501  0.00000000000E+00  0.00000000000E+00 -0.17861784675E+04  0.17861784675E+04  0.50400001928E-02 0. -1.
    10030    2    1    2    0    0  0.00000000000E+00  0.00000000000E+00 -0.91021234517E+03  0.26621445898E+04  0.25017048794E+04 0.  0.
        2    1    3    3  502    0 -0.24272416871E+03  0.55121857549E+02 -0.17595596167E+04  0.17770772313E+04  0.25500000920E-02 0. -1.
       -2    1    3    3    0  502  0.24272416871E+03 -0.55121857549E+02  0.84934727158E+03  0.88506735845E+03  0.25500000920E-02 0.  1.
</event>
<event>
 5   0  0.1501747E-06  0.2492100E+04  0.7818609E-02  0.8405805E-01
       -1   -1    0    0    0  501  0.00000000000E+00  0.00000000000E+00  0.71658411167E+03  0.71658411169E+03  0.50400001928E-02 0. -1.
        1   -1    0    0  501    0  0.00000000000E+00  0.00000000000E+00 -0.21667250063E+04  0.21667250063E+04  0.50400001928E-02 0.  1.
    10030    2    1    2    0    0  0.00000000000E+00  0.00000000000E+00 -0.14501408947E+04  0.28833091180E+04  0.24921000894E+04 0.  0.
        2    1    3    3  502    0 -0.19452570451E+03 -0.11106491822E+04 -0.11147966130E+03  0.11330532072E+04  0.25500000920E-02 0. -1.
       -2    1    3    3    0  502  0.19452570451E+03  0.11106491822E+04 -0.13386612334E+04  0.17502559108E+04  0.25500000920E-02 0.  1.
</event>
<event>
 5   0  0.3814260E-06  0.2504554E+04  0.7818609E-02  0.8401365E-01
        2   -1    0    0  501    0  0.00000000000E+00  0.00000000000E+00  0.21382196059E+04  0.21382196059E+04  0.25500000920E-02 0. -1.
       -2   -1    0    0    0  501  0.00000000000E+00  0.00000000000E+00 -0.73341293891E+03  0.73341293891E+03  0.25500000920E-02 0.  1.
    10030    2    1    2    0    0  0.00000000000E+00  0.00000000000E+00  0.14048066670E+04  0.28716325448E+04  0.25045541920E+04 0.  0.
        5    1    3    3  502    0  0.48436147978E+03  0.94986979844E+03  0.14554064975E+04  0.18041864760E+04  0.46999998093E+01 0. -1.
       -5    1    3    3    0  502 -0.48436147978E+03 -0.94986979844E+03 -0.50599830492E+02  0.10674460689E+04  0.46999998093E+01 0.  1.
</event>
<event>
 5   0  0.3713394E-06  0.2511674E+04  0.7818609E-02  0.8398838E-01
       -2   -1    0    0    0  501  0.00000000000E+00  0.00000000000E+00  0.95251946021E+03  0.95251946021E+03  0.25500000920E-02 0. -1.
        2   -1    0    0  501    0  0.00000000000E+00  0.00000000000E+00 -0.16557422480E+04  0.16557422480E+04  0.25500000920E-02 0.  1.
    10030    2    1    2    0    0  0.00000000000E+00  0.00000000000E+00 -0.70322278776E+03  0.26082617082E+04  0.25116741128E+04 0.  0.
        3    1    3    3  502    0 -0.27691825937E+03 -0.66187099324E+02 -0.16217839005E+04  0.16465866162E+04  0.10100000352E+00 0.  1.
       -3    1    3    3    0  502  0.27691825937E+03  0.66187099324E+02  0.91856111275E+03  0.96167509199E+03  0.10100000352E+00 0. -1.
</event>
<event>
 5   0  0.1501747E-06  0.2507043E+04  0.7818609E-02  0.8400481E-01
        1   -1    0    0  501    0  0.00000000000E+00  0.00000000000E+00  0.11559447362E+04  0.11559447363E+04  0.50400001928E-02 0.  1.
       -1   -1    0    0    0  501  0.00000000000E+00  0.00000000000E+00 -0.13593346939E+04  0.13593346939E+04  0.50400001928E-02 0. -1.
    10030    2    1    2    0    0  0.00000000000E+00  0.00000000000E+00 -0.20338995763E+03  0.25152794301E+04  0.25070427074E+04 0.  0.
        2    1    3    3  502    0  0.10370844082E+04 -0.58316327033E+03  0.29418003787E+03  0.12256285588E+04  0.25500000920E-02 0.  1.
       -2    1    3    3    0  502 -0.10370844082E+04  0.58316327033E+03 -0.49756999550E+03  0.12896508713E+04  0.25500000920E-02 0. -1.
</event>
<event>
 5   0  0.3971759E-06  0.2498741E+04  0.7818609E-02  0.8403434E-01
       -2   -1    0    0    0  501  0.00000000000E+00  0.00000000000E+00  0.68980294128E+03  0.68980294129E+03  0.25500000920E-02 0. -1.
        2   -1    0    0  501    0  0.00000000000E+00  0.00000000000E+00 -0.22628588068E+04  0.22628588068E+04  0.25500000920E-02 0.  1.
    10030    2    1    2    0    0  0.00000000000E+00  0.00000000000E+00 -0.15730558655E+04  0.29526617481E+04  0.24987410115E+04 0.  0.
        4    1    3    3  502    0 -0.18408246934E+03 -0.45552662247E+03 -0.21439120913E+04  0.21994889241E+04  0.12699999809E+01 0.  1.
       -4    1    3    3    0  502  0.18408246934E+03  0.45552662247E+03  0.57085622579E+03  0.75317282394E+03  0.12699999809E+01 0. -1.
</event>
<event>
 5   0  0.1519145E-06  0.2498868E+04  0.7818609E-02  0.8403389E-01
       -1   -1    0    0    0  501  0.00000000000E+00  0.00000000000E+00  0.14263838746E+04  0.14263838746E+04  0.50400001928E-02 0.  1.
        1   -1    0    0  501    0  0.00000000000E+00  0.00000000000E+00 -0.10944354765E+04  0.10944354765E+04  0.50400001928E-02 0. -1.
    10030    2    1    2    0    0  0.00000000000E+00  0.00000000000E+00  0.33194839811E+03  0.25208193512E+04  0.24988678361E+04 0.  0.
        4    1    3    3  502    0 -0.62361263685E+03 -0.98124212403E+03  0.62754653265E+03  0.13211907850E+04  0.12699999809E+01 0.  1.
       -4    1    3    3    0  502  0.62361263685E+03  0.98124212403E+03 -0.29559813454E+03  0.11996285662E+04  0.12699999809E+01 0. -1.
</event>
<event>
 5   0  0.1574896E-06  0.2499373E+04  0.7818609E-02  0.8403209E-01
        1   -1    0    0  501    0  0.00000000000E+00  0.00000000000E+00  0.30195540961E+04  0.30195540961E+04  0.50400001928E-02 0. -1.
       -1   -1    0    0    0  501  0.00000000000E+00  0.00000000000E+00 -0.51720078357E+03  0.51720078360E+03  0.50400001928E-02 0.  1.
    10030    2    1    2    0    0  0.00000000000E+00  0.00000000000E+00  0.25023533125E+04  0.35367548797E+04  0.24993725169E+04 0.  0.
        3    1    3    3  502    0 -0.86726393118E+02 -0.80546573903E+03  0.25976532978E+04  0.27210474435E+04  0.10100000352E+00 0. -1.
       -3    1    3    3    0  502  0.86726393118E+02  0.80546573903E+03 -0.95299985308E+02  0.81570743617E+03  0.10100000352E+00 0.  1.
</event>
<event>
 5   0  0.3713394E-06  0.2504859E+04  0.7818609E-02  0.8401257E-01
        2   -1    0    0  501    0  0.00000000000E+00  0.00000000000E+00  0.14059435540E+04  0.14059435540E+04  0.25500000920E-02 0.  1.
       -2   -1    0    0    0  501  0.00000000000E+00  0.00000000000E+00 -0.11156772960E+04  0.11156772960E+04  0.25500000920E-02 0. -1.
    10030    2    1    2    0    0  0.00000000000E+00  0.00000000000E+00  0.29026625796E+03  0.25216208500E+04  0.25048587207E+04 0.  0.
        3    1    3    3  502    0 -0.55210380297E+03 -0.89096489482E+03 -0.54497762025E+03  0.11813710974E+04  0.10100000352E+00 0.  1.
       -3    1    3    3    0  502  0.55210380297E+03  0.89096489482E+03  0.83524387822E+03  0.13402497526E+04  0.10100000352E+00 0. -1.
</event>
<event>
 5   0  0.1501747E-06  0.2514470E+04  0.7818609E-02  0.8397849E-01
       -1   -1    0    0    0  501  0.00000000000E+00  0.00000000000E+00  0.12704045328E+04  0.12704045328E+04  0.50400001928E-02 0. -1.
        1   -1    0    0  501    0  0.00000000000E+00  0.00000000000E+00 -0.12442017886E+04  0.12442017886E+04  0.50400001928E-02 0.  1.
    10030    2    1    2    0    0  0.00000000000E+00  0.00000000000E+00  0.26202744233E+02  0.25146063214E+04  0.25144697986E+04 0.  0.
        2    1    3    3  502    0 -0.15018012292E+03  0.33678614809E+03 -0.11889042405E+04  0.12447780011E+04  0.25500000920E-02 0.  1.
       -2    1    3    3    0  502  0.15018012292E+03 -0.33678614809E+03  0.12151069847E+04  0.12698283204E+04  0.25500000920E-02 0. -1.
</event>
<event>
 5   0  0.3808293E-06  0.2498449E+04  0.7818609E-02  0.8403538E-01
       -2   -1    0    0    0  501  0.00000000000E+00  0.00000000000E+00  0.90740316340E+03  0.90740316340E+03  0.25500000920E-02 0.  1.
        2   -1    0    0  501    0  0.00000000000E+00  0.00000000000E+00 -0.17198108461E+04  0.17198108461E+04  0.25500000920E-02 0. -1.
    10030    2    1    2    0    0  0.00000000000E+00  0.00000000000E+00 -0.81240768266E+03  0.26272140095E+04  0.24984489606E+04 0.  0.
        1    1    3    3  502    0 -0.16845483781E+03  0.15130106662E+03  0.88564503959E+03  0.91413138078E+03  0.50400001928E-02 0.  1.
       -1    1    3    3    0  502  0.16845483781E+03 -0.15130106662E+03 -0.16980527223E+04  0.17130826287E+04  0.50400001928E-02 0. -1.
</event>
<event>
 5   0  0.3713394E-06  0.2498542E+04  0.7818609E-02  0.8403505E-01
        2   -1    0    0  501    0  0.00000000000E+00  0.00000000000E+00  0.22599490953E+04  0.22599490953E+04  0.25500000920E-02 0. -1.
       -2   -1    0    0    0  501  0.00000000000E+00  0.00000000000E+00 -0.69058125557E+03  0.69058125558E+03  0.25500000920E-02 0.  1.
    10030    2    1    2    0    0  0.00000000000E+00  0.00000000000E+00  0.15693678397E+04  0.29505303509E+04  0.24985423621E+04 0.  0.
        3    1    3    3  502    0  0.10432506462E+04  0.43709388861E+03  0.15841064758E+03  0.11421545087E+04  0.10100000352E+00 0.  1.
       -3    1    3    3    0  502 -0.10432506462E+04 -0.43709388861E+03  0.14109571921E+04  0.18083758422E+04  0.10100000352E+00 0. -1.
</event>
<event>
 5   0  0.1553604E-06  0.2500643E+04  0.7818609E-02  0.8402756E-01
        1   -1    0    0  501    0  0.00000000000E+00  0.00000000000E+00  0.11539264539E+04  0.11539264539E+04  0.50400001928E-02 0. -1.
       -1   -1    0    0    0  501  0.00000000000E+00  0.00000000000E+00 -0.13547690495E+04  0.13547690495E+04  0.50400001928E-02 0.  1.
    10030    2    1    2    0    0  0.00000000000E+00  0.00000000000E+00 -0.20084259568E+03  0.25086955034E+04  0.25006429934E+04 0.  0.
        1    1    3    3  502    0  0.53855628100E+03  0.11234970795E+04 -0.20571301736E+03  0.12627772571E+04  0.50400001928E-02 0.  1.
       -1    1    3    3    0  502 -0.53855628100E+03 -0.11234970795E+04  0.48704216876E+01  0.12459182463E+04  0.50400001928E-02 0. -1.
</event>
<event>
 5   0  0.1553604E-06  0.2501092E+04  0.7818609E-02  0.8402597E-01
       -1   -1    0    0    0  501  0.00000000000E+00  0.00000000000E+00  0.94704404781E+03  0.94704404782E+03  0.50400001928E-02 0.  1.
        1   -1    0    0  501    0  0.00000000000E+00  0.00000000000E+00 -0.16513124056E+04  0.16513124056E+04  0.50400001928E-02 0. -1.
    10030    2    1    2    0    0  0.00000000000E+00  0.00000000000E+00 -0.70426835777E+03  0.25983564534E+04  0.25010922293E+04 0.  0.
        1    1    3    3  502    0 -0.73989769665E+03  0.29405407164E+03  0.64970643024E+03  0.10276355600E+04  0.50400001928E-02 0.  1.
       -1    1    3    3    0  502  0.73989769665E+03 -0.29405407164E+03 -0.13539747880E+04  0.15707208935E+04  0.50400001928E-02 0. -1.
</event>
<event>
 5   0  0.3808293E-06  0.2459782E+04  0.7818609E-02  0.8417455E-01
        2   -1    0    0  501    0  0.00000000000E+00  0.00000000000E+00  0.19467491190E+04  0.19467491190E+04  0.25500000920E-02 0. -1.
       -2   -1    0    0    0  501  0.00000000000E+00  0.00000000000E+00 -0.77700369786E+03  0.77700369787E+03  0.25500000920E-02 0.  1.
    10030    2    1    2    0    0  0.00000000000E+00  0.00000000000E+00  0.11697454212E+04  0.27237528169E+04  0.24597815060E+04 0.  0.
        1    1    3    3  502    0 -0.37717936502E+03 -0.11645716318E+04  0.45320041419E+03  0.13053283014E+04  0.50400001928E-02 0.  1.
       -1    1    3    3    0  502  0.37717936502E+03  0.11645716318E+04  0.71654500698E+03  0.14184245155E+04  0.50400001928E-02 0. -1.
</event>
<event>
 5   0  0.1501747E-06  0.2502654E+04  0.7818609E-02  0.8402041E-01
       -1   -1    0    0    0  501  0.00000000000E+00  0.00000000000E+00  0.13983838389E+04  0.13983838389E+04  0.50400001928E-02 0. -1.
        1   -1    0    0  501    0  0.00000000000E+00  0.00000000000E+00 -0.11197350618E+04  0.11197350618E+04  0.50400001928E-02 0.  1.
    10030    2    1    2    0    0  0.00000000000E+00  0.00000000000E+00  0.27864877703E+03  0.25181189007E+04  0.25026541226E+04 0.  0.
        2    1    3    3  502    0 -0.62164328550E+03  0.55758825929E+03  0.10770027721E+04  0.13628206090E+04  0.25500000920E-02 0. -1.
       -2    1    3    3    0  502  0.62164328550E+03 -0.55758825929E+03 -0.79835399506E+03  0.11552982917E+04  0.25500000920E-02 0.  1.
</event>
<event>
 5   0  0.1553604E-06  0.2497957E+04  0.7818609E-02  0.8403714E-01
        1   -1    0    0  501    0  0.00000000000E+00  0.00000000000E+00  0.17478946933E+04  0.17478946934E+04  0.50400001928E-02 0. -1.
       -1   -1    0    0    0  501  0.00000000000E+00  0.00000000000E+00 -0.89247227159E+03  0.89247227160E+03  0.50400001928E-02 0.  1.
    10030    2    1    2    0    0  0.00000000000E+00  0.00000000000E+00  0.85542242176E+03  0.26403669650E+04  0.24979572034E+04 0.  0.
        1    1    3    3  502    0 -0.11077099840E+04 -0.27189621791E+03  0.96564397016E+03  0.14944621906E+04  0.50400001928E-02 0. -1.
       -1    1    3    3    0  502  0.11077099840E+04  0.27189621791E+03 -0.11022154840E+03  0.11459047743E+04  0.50400001928E-02 0.  1.
</event>
<event>
 5   0  0.3713394E-06  0.2497903E+04  0.7818609E-02  0.8403733E-01
        2   -1    0    0  501    0  0.00000000000E+00  0.00000000000E+00  0.12895522775E+04  0.12895522775E+04  0.25500000920E-02 0. -1.
       -2   -1    0    0    0  501  0.00000000000E+00  0.00000000000E+00 -0.12096287432E+04  0.12096287432E+04  0.25500000920E-02 0.  1.
    10030    2    1    2    0    0  0.00000000000E+00  0.00000000000E+00  0.79923534294E+02  0.24991810207E+04  0.24979027209E+04 0.  0.
        3    1    3    3  502    0  0.48567222062E+03  0.66000553802E+03  0.98299102317E+03  0.12797484823E+04  0.10100000352E+00 0. -1.
       -3    1    3    3    0  502 -0.48567222062E+03 -0.66000553802E+03 -0.90306748888E+03  0.12194325384E+04  0.10100000352E+00 0.  1.
</event>
<event>
 5   0  0.1519145E-06  0.2498576E+04  0.7818609E-02  0.8403493E-01
       -1   -1    0    0    0  501  0.00000000000E+00  0.00000000000E+00  0.81665962078E+03  0.81665962080E+03  0.50400001928E-02 0.  1.
        1   -1    0    0  501    0  0.00000000000E+00  0.00000000000E+00 -0.19111032008E+04  0.19111032008E+04  0.50400001928E-02 0. -1.
    10030    2    1    2    0    0  0.00000000000E+00  0.00000000000E+00 -0.10944435800E+04  0.27277628216E+04  0.24985762468E+04 0.  0.
        4    1    3    3  502    0  0.70740670589E+02  0.66384332151E+03 -0.17000290202E+04  0.18264151993E+04  0.12699999809E+01 0. -1.
       -4    1    3    3    0  502 -0.70740670589E+02 -0.66384332151E+03  0.60558544014E+03  0.90134762229E+03  0.12699999809E+01 0.  1.
</event>
<event>
 5   0  0.1553604E-06  0.2507550E+04  0.7818609E-02  0.8400301E-01
       -1   -1    0    0    0  501  0.00000000000E+00  0.00000000000E+00  0.17948823993E+04  0.17948823993E+04  0.50400001928E-02 0. -1.
        1   -1    0    0  501    0  0.00000000000E+00  0.00000000000E+00 -0.87579636107E+03  0.87579636109E+03  0.50400001928E-02 0.  1.
    10030    2    1    2    0    0  0.00000000000E+00  0.00000000000E+00  0.91908603823E+03  0.26706787604E+04  0.25075497793E+04 0.  0.
        1    1    3    3  502    0 -0.98829471285E+03 -0.22016862338E+03 -0.32798643829E+03  0.10643193909E+04  0.50400001928E-02 0.  1.
       -1    1    3    3    0  502  0.98829471285E+03  0.22016862338E+03  0.12470724765E+04  0.16063593695E+04  0.50400001928E-02 0. -1.
</event>
<event>
 5   0  0.1553604E-06  0.2502406E+04  0.7818609E-02  0.8402129E-01
       -1   -1    0    0    0  501  0.00000000000E+00  0.00000000000E+00  0.99226668039E+03  0.99226668041E+03  0.50400001928E-02 0. -1.
        1   -1    0    0  501    0  0.00000000000E+00  0.00000000000E+00 -0.15777095802E+04  0.15777095802E+04  0.50400001928E-02 0.  1.
    10030    2    1    2    0    0  0.00000000000E+00  0.00000000000E+00 -0.58544289978E+03  0.25699762606E+04  0.25024057607E+04 0.  0.
        1    1    3    3  502    0  0.12223780122E+04 -0.13753557120E+03 -0.52777847583E+03  0.13385343319E+04  0.50400001928E-02 0.  1.
       -1    1    3    3    0  502 -0.12223780122E+04  0.13753557120E+03 -0.57664423950E+02  0.12314419287E+04  0.50400001928E-02 0. -1.
</event>
<event>
 5   0  0.3924441E-06  0.2532103E+04  0.7818609E-02  0.8391637E-01
       -2   -1    0    0    0  501  0.00000000000E+00  0.00000000000E+00  0.98912916282E+03  0.98912916283E+03  0.25500000920E-02 0. -1.
        2   -1    0    0  501    0  0.00000000000E+00  0.00000000000E+00 -0.16205022450E+04  0.16205022450E+04  0.25500000920E-02 0.  1.
    10030    2    1    2    0    0  0.00000000000E+00  0.00000000000E+00 -0.63137308213E+03  0.26096314078E+04  0.25321027064E+04 0.  0.
        2    1    3    3  502    0 -0.12441072358E+04  0.50569245658E+02 -0.79483829881E+02  0.12476689232E+04  0.25500000920E-02 0. -1.
       -2    1    3    3    0  502  0.12441072358E+04 -0.50569245658E+02 -0.55188925225E+03  0.13619624846E+04  0.25500000920E-02 0.  1.
</event>
<event>
 5   0  0.3971759E-06  0.2498246E+04  0.7818609E-02  0.8403611E-01
       -2   -1    0    0    0  501  0.00000000000E+00  0.00000000000E+00  0.78905676861E+03  0.78905676862E+03  0.25500000920E-02 0. -1.
        2   -1    0    0  501    0  0.00000000000E+00  0.00000000000E+00 -0.19774342255E+04  0.19774342255E+04  0.25500000920E-02 0.  1.
    10030    2    1    2    0    0  0.00000000000E+00  0.00000000000E+00 -0.11883774569E+04  0.27664909942E+04  0.24982456726E+04 0.  0.
        4    1    3    3  502    0  0.95906797354E+03 -0.27937077965E+03  0.23630212991E+03  0.10264987676E+04  0.12699999809E+01 0. -1.
       -4    1    3    3    0  502 -0.95906797354E+03  0.27937077965E+03 -0.14246795868E+04  0.17399922265E+04  0.12699999809E+01 0.  1.
</event>
<event>
 5   0  0.3713394E-06  0.2495725E+04  0.7818609E-02  0.8404510E-01
        2   -1    0    0  501    0  0.00000000000E+00  0.00000000000E+00  0.14456374888E+04  0.14456374888E+04  0.25500000920E-02 0.  1.
       -2   -1    0    0    0  501  0.00000000000E+00  0.00000000000E+00 -0.10771448281E+04  0.10771448281E+04  0.25500000920E-02 0. -1.
    10030    2    1    2    0    0  0.00000000000E+00  0.00000000000E+00  0.36849266074E+03  0.25227823169E+04  0.24957251006E+04 0.  0.
        3    1    3    3  502    0 -0.85434057565E+03 -0.69467821205E+03  0.77771037256E+03  0.13480760629E+04  0.10100000352E+00 0.  1.
       -3    1    3    3    0  502  0.85434057565E+03  0.69467821205E+03 -0.40921771182E+03  0.11747062541E+04  0.10100000352E+00 0. -1.
</event>
<event>
 5   0  0.1574896E-06  0.2500080E+04  0.7818609E-02  0.8402957E-01
        1   -1    0    0  501    0  0.00000000000E+00  0.00000000000E+00  0.19307405238E+04  0.19307405238E+04  0.50400001928E-02 0.  1.
       -1   -1    0    0    0  501  0.00000000000E+00  0.00000000000E+00 -0.80932688588E+03  0.80932688589E+03  0.50400001928E-02 0. -1.
    10030    2    1    2    0    0  0.00000000000E+00  0.00000000000E+00  0.11214136379E+04  0.27400674097E+04  0.25000801712E+04 0.  0.
        3    1    3    3  502    0 -0.31084610324E+03  0.36158653673E+03  0.18271489962E+04  0.18883441392E+04  0.10100000352E+00 0.  1.
       -3    1    3    3    0  502  0.31084610324E+03 -0.36158653673E+03 -0.70573535827E+03  0.85172327053E+03  0.10100000352E+00 0. -1.
</event>
<event>
 5   0  0.3814260E-06  0.2498075E+04  0.7818609E-02  0.8403672E-01
        2   -1    0    0  501    0  0.00000000000E+00  0.00000000000E+00  0.29390789058E+04  0.29390789058E+04  0.25500000920E-02 0. -1.
       -2   -1    0    0    0  501  0.00000000000E+00  0.00000000000E+00 -0.53081078438E+03  0.53081078439E+03  0.25500000920E-02 0.  1.
    10030    2    1    2    0    0  0.00000000000E+00  0.00000000000E+00  0.24082681214E+04  0.34698896902E+04  0.24980750824E+04 0.  0.
        5    1    3    3  502    0  0.59174382833E+03 -0.10408286555E+04  0.70993054084E+03  0.13919441481E+04  0.46999998093E+01 0.  1.
       -5    1    3    3    0  502 -0.59174382833E+03  0.10408286555E+04  0.16983375806E+04  0.20779455421E+04  0.46999998093E+01 0. -1.
</event>
<event>
 5   0  0.3924441E-06  0.2483461E+04  0.7818609E-02  0.8408901E-01
       -2   -1    0    0    0  501  0.00000000000E+00  0.00000000000E+00  0.11261245512E+04  0.11261245512E+04  0.25500000920E-02 0. -1.
        2   -1    0    0  501    0  0.00000000000E+00  0.00000000000E+00 -0.13692044360E+04  0.13692044360E+04  0.25500000920E-02 0.  1.
    10030    2    1    2    0    0  0.00000000000E+00  0.00000000000E+00 -0.24307988488E+03  0.24953289872E+04  0.24834610776E+04 0.  0.
        2    1    3    3  502    0 -0.40115567321E+03 -0.10548016583E+03 -0.12975358709E+04  0.13622229171E+04  0.25500000920E-02 0.  1.
       -2    1    3    3    0  502  0.40115567321E+03  0.10548016583E+03  0.10544559861E+04  0.11331060701E+04  0.25500000920E-02 0. -1.
</event>
<event>
 5   0  0.1574896E-06  0.2498830E+04  0.7818609E-02  0.8403402E-01
        1   -1    0    0  501    0  0.00000000000E+00  0.00000000000E+00  0.18999028679E+04  0.18999028679E+04  0.50400001928E-02 0. -1.
       -1   -1    0    0    0  501  0.00000000000E+00  0.00000000000E+00 -0.82164108450E+03  0.82164108452E+03  0.50400001928E-02 0.  1.
    10030    2    1    2    0    0  0.00000000000E+00  0.00000000000E+00  0.10782617834E+04  0.27215439524E+04  0.24988303286E+04 0.  0.
        3    1    3    3  502    0 -0.65212557938E+03  0.18821930538E+03 -0.60333387887E+03  0.90813328196E+03  0.10100000352E+00 0.  1.
       -3    1    3    3    0  502  0.65212557938E+03 -0.18821930538E+03  0.16815956622E+04  0.18134106704E+04  0.10100000352E+00 0. -1.
</event>
<event>
 5   0  0.3814260E-06  0.2505547E+04  0.7818609E-02  0.8401012E-01
       -2   -1    0    0    0  501  0.00000000000E+00  0.00000000000E+00  0.14184244155E+04  0.14184244155E+04  0.25500000920E-02 0.  1.
        2   -1    0    0  501    0  0.00000000000E+00  0.00000000000E+00 -0.11064677545E+04  0.11064677545E+04  0.25500000920E-02 0. -1.
    10030    2    1    2    0    0  0.00000000000E+00  0.00000000000E+00  0.31195666102E+03  0.25248921700E+04  0.25055465495E+04 0.  0.
        5    1    3    3  502    0 -0.96259039526E+03  0.63911281829E+03  0.64383747500E+03  0.13227222867E+04  0.46999998093E+01 0.  1.
       -5    1    3    3    0  502  0.96259039526E+03 -0.63911281829E+03 -0.33188081398E+03  0.12021698833E+04  0.46999998093E+01 0. -1.
</event>
<event>
 5   0  0.1287375E-06  0.2499713E+04  0.7818609E-02  0.8403088E-01
        3   -1    0    0  501    0  0.00000000000E+00  0.00000000000E+00  0.59291186270E+03  0.59291187130E+03  0.10100000352E+00 0.  1.
       -3   -1    0    0    0  501  0.00000000000E+00  0.00000000000E+00 -0.26346947781E+04  0.26346947801E+04  0.10100000352E+00 0. -1.
    10030    2    1    2    0    0  0.00000000000E+00  0.00000000000E+00 -0.20417829154E+04  0.32276066514E+04  0.24997134280E+04 0.  0.
        4    1    3    3  502    0 -0.37617221484E+03 -0.76420567342E+03 -0.22019070405E+04  0.23609133983E+04  0.12699999809E+01 0. -1.
       -4    1    3    3    0  502  0.37617221484E+03  0.76420567342E+03  0.16012412508E+03  0.86669325303E+03  0.12699999809E+01 0.  1.
</event>
<event>
 5   0  0.3814260E-06  0.2499490E+04  0.7818609E-02  0.8403167E-01
        2   -1    0    0  501    0  0.00000000000E+00  0.00000000000E+00  0.16171875071E+04  0.16171875071E+04  0.25500000920E-02 0. -1.
       -2   -1    0    0    0  501  0.00000000000E+00  0.00000000000E+00 -0.96578911004E+03  0.96578911004E+03  0.25500000920E-02 0.  1.
    10030    2    1    2    0    0  0.00000000000E+00  0.00000000000E+00  0.65139839708E+03  0.25829766172E+04  0.24994896145E+04 0.  0.
        5    1    3    3  502    0  0.52909480428E+03  0.43062540945E+03 -0.75639637684E+03  0.10185956627E+04  0.46999998093E+01 0.  1.
       -5    1    3    3    0  502 -0.52909480428E+03 -0.43062540945E+03  0.14077947739E+04  0.15643809545E+04  0.46999998093E+01 0. -1.
</event>
<event>
 5   0  0.3808293E-06  0.2510296E+04  0.7818609E-02  0.8399327E-01
        2   -1    0    0  501    0  0.00000000000E+00  0.00000000000E+00  0.17098505395E+04  0.17098505395E+04  0.25500000920E-02 0. -1.
       -2   -1    0    0    0  501  0.00000000000E+00  0.00000000000E+00 -0.92136495116E+03  0.92136495117E+03  0.25500000920E-02 0.  1.
    10030    2    1    2    0    0  0.00000000000E+00  0.00000000000E+00  0.78848558838E+03  0.26312154907E+04  0.25102958860E+04 0.  0.
        1    1    3    3  502    0 -0.44738736463E+03 -0.77953689911E+02  0.16207193721E+04  0.16831409670E+04  0.50400001928E-02 0. -1.
       -1    1    3    3    0  502  0.44738736463E+03  0.77953689911E+02 -0.83223378368E+03  0.94807452371E+03  0.50400001928E-02 0.  1.
</event>
<event>
 5   0  0.3971759E-06  0.2500034E+04  0.7818609E-02  0.8402973E-01
        2   -1    0    0  501    0  0.00000000000E+00  0.00000000000E+00  0.14354687076E+04  0.14354687076E+04  0.25500000920E-02 0. -1.
       -2   -1    0    0    0  501  0.00000000000E+00  0.00000000000E+00 -0.10885241486E+04  0.10885241486E+04  0.25500000920E-02 0.  1.
    10030    2    1    2    0    0  0.00000000000E+00  0.00000000000E+00  0.34694455903E+03  0.25239928562E+04  0.25000338820E+04 0.  0.
        4    1    3    3  502    0  0.67715509027E+03  0.93688901785E+03 -0.30673372580E+03  0.11959879763E+04  0.12699999809E+01 0.  1.
       -4    1    3    3    0  502 -0.67715509027E+03 -0.93688901785E+03  0.65367828483E+03  0.13280048799E+04  0.12699999809E+01 0. -1.
</event>
<event>
 5   0  0.1574896E-06  0.2500207E+04  0.7818609E-02  0.8402912E-01
        1   -1    0    0  501    0  0.00000000000E+00  0.00000000000E+00  0.21516220141E+04  0.21516220141E+04  0.50400001928E-02 0.  1.
       -1   -1    0    0    0  501  0.00000000000E+00  0.00000000000E+00 -0.72631644729E+03  0.72631644730E+03  0.50400001928E-02 0. -1.
    10030    2    1    2    0    0  0.00000000000E+00  0.00000000000E+00  0.14253055668E+04  0.28779384614E+04  0.25002067572E+04 0.  0.
        3    1    3    3  502    0  0.23101091256E+03  0.65012022873E+03  0.19126151458E+04  0.20332533191E+04  0.10100000352E+00 0.  1.
       -3    1    3    3    0  502 -0.23101091256E+03 -0.65012022873E+03 -0.48730957903E+03  0.84468514225E+03  0.10100000352E+00 0. -1.
</event>
<event>
 5   0  0.1519145E-06  0.2499956E+04  0.7818609E-02  0.8403001E-01
        1   -1    0    0  501    0  0.00000000000E+00  0.00000000000E+00  0.30961010367E+04  0.30961010367E+04  0.50400001928E-02 0.  1.
       -1   -1    0    0    0  501  0.00000000000E+00  0.00000000000E+00 -0.50464915073E+03  0.50464915076E+03  0.50400001928E-02 0. -1.
    10030    2    1    2    0    0  0.00000000000E+00  0.00000000000E+00  0.25914518860E+04  0.36007501875E+04  0.24999558067E+04 0.  0.
        4    1    3    3  502    0  0.44484672566E+03  0.47837284074E+03  0.28306791584E+04  0.29050775023E+04  0.12699999809E+01 0.  1.
       -4    1    3    3    0  502 -0.44484672566E+03 -0.47837284074E+03 -0.23922727238E+03  0.69567268514E+03  0.12699999809E+01 0. -1.
</event>
<event>
 5   0  0.3808293E-06  0.2499289E+04  0.7818609E-02  0.8403239E-01
       -2   -1    0    0    0  501  0.00000000000E+00  0.00000000000E+00  0.11292829943E+04  0.11292829943E+04  0.25500000920E-02 0. -1.
        2   -1    0    0  501    0  0.00000000000E+00  0.00000000000E+00 -0.13828341447E+04  0.13828341447E+04  0.25500000920E-02 0.  1.
    10030    2    1    2    0    0  0.00000000000E+00  0.00000000000E+00 -0.25355115041E+03  0.25121171389E+04  0.24992887656E+04 0.  0.
        1    1    3    3  502    0  0.74373911784E+03  0.10016482203E+04 -0.54545394084E+02  0.12487682862E+04  0.50400001928E-02 0.  1.
       -1    1    3    3    0  502 -0.74373911784E+03 -0.10016482203E+04 -0.19900575632E+03  0.12633488527E+04  0.50400001928E-02 0. -1.
</event>
<event>
 5   0  0.1553604E-06  0.2495254E+04  0.7818609E-02  0.8404678E-01
       -1   -1    0    0    0  501  0.00000000000E+00  0.00000000000E+00  0.93635310353E+03  0.93635310354E+03  0.50400001928E-02 0. -1.
        1   -1    0    0  501    0  0.00000000000E+00  0.00000000000E+00 -0.16623787032E+04  0.16623787032E+04  0.50400001928E-02 0.  1.
    10030    2    1    2    0    0  0.00000000000E+00  0.00000000000E+00 -0.72602559964E+03  0.25987318067E+04  0.24952542620E+04 0.  0.
        1    1    3    3  502    0 -0.21763749401E+03  0.10502725420E+03 -0.16377720399E+04  0.16555041702E+04  0.50400001928E-02 0.  1.
       -1    1    3    3    0  502  0.21763749401E+03 -0.10502725420E+03  0.91174644025E+03  0.94322763650E+03  0.50400001928E-02 0. -1.
</event>
<event>
 5   0  0.3971759E-06  0.2502218E+04  0.7818609E-02  0.8402196E-01
       -2   -1    0    0    0  501  0.00000000000E+00  0.00000000000E+00  0.93030436771E+03  0.93030436771E+03  0.25500000920E-02 0. -1.
        2   -1    0    0  501    0  0.00000000000E+00  0.00000000000E+00 -0.16825395050E+04  0.16825395050E+04  0.25500000920E-02 0.  1.
    10030    2    1    2    0    0  0.00000000000E+00  0.00000000000E+00 -0.75223513731E+03  0.26128438727E+04  0.25022180963E+04 0.  0.
        4    1    3    3  502    0 -0.79356956470E+03 -0.81853492351E+03 -0.91418542897E+03  0.14613311351E+04  0.12699999809E+01 0.  1.
       -4    1    3    3    0  502  0.79356956470E+03  0.81853492351E+03  0.16195029166E+03  0.11515127376E+04  0.12699999809E+01 0. -1.
</event>
<event>
 5   0  0.3814260E-06  0.2508391E+04  0.7818609E-02  0.8400002E-01
       -2   -1    0    0    0  501  0.00000000000E+00  0.00000000000E+00  0.93027601271E+03  0.93027601272E+03  0.25500000920E-02 0. -1.
        2   -1    0    0  501    0  0.00000000000E+00  0.00000000000E+00 -0.16909024913E+04  0.16909024913E+04  0.25500000920E-02 0.  1.
    10030    2    1    2    0    0  0.00000000000E+00  0.00000000000E+00 -0.76062647856E+03  0.26211785040E+04  0.25083907411E+04 0.  0.
        5    1    3    3  502    0  0.74357432013E+03  0.76686773671E+03  0.30650337138E+03  0.11112854277E+04  0.46999998093E+01 0. -1.
       -5    1    3    3    0  502 -0.74357432013E+03 -0.76686773671E+03 -0.10671298499E+04  0.15098930763E+04  0.46999998093E+01 0.  1.
</event>
<event>
 5   0  0.3814260E-06  0.2500386E+04  0.7818609E-02  0.8402848E-01
       -2   -1    0    0    0  501  0.00000000000E+00  0.00000000000E+00  0.91223620786E+03  0.91223620787E+03  0.25500000920E-02 0. -1.
        2   -1    0    0  501    0  0.00000000000E+00  0.00000000000E+00 -0.17133532182E+04  0.17133532182E+04  0.25500000920E-02 0.  1.
    10030    2    1    2    0    0  0.00000000000E+00  0.00000000000E+00 -0.80111701035E+03  0.26255894261E+04  0.25003862442E+04 0.  0.
        5    1    3    3  502    0 -0.12206045154E+04 -0.22740862127E+03 -0.55406578276E+03  0.13596326878E+04  0.46999998093E+01 0.  1.
       -5    1    3    3    0  502  0.12206045154E+04  0.22740862127E+03 -0.24705122760E+03  0.12659567383E+04  0.46999998093E+01 0. -1.
</event>
<event>
 5   0  0.1519145E-06  0.2498231E+04  0.7818609E-02  0.8403616E-01
        1   -1    0    0  501    0  0.00000000000E+00  0.00000000000E+00  0.16453644318E+04  0.16453644318E+04  0.50400001928E-02 0.  1.
       -1   -1    0    0    0  501  0.00000000000E+00  0.00000000000E+00 -0.94829389281E+03  0.94829389282E+03  0.50400001928E-02 0. -1.
    10030    2    1    2    0    0  0.00000000000E+00  0.00000000000E+00  0.69707053897E+03  0.25936583246E+04  0.24982306076E+04 0.  0.
        4    1    3    3  502    0 -0.64736600326E+03 -0.67098766333E+03  0.12115397565E+04  0.15287698914E+04  0.12699999809E+01 0.  1.
       -4    1    3    3    0  502  0.64736600326E+03  0.67098766333E+03 -0.51446921748E+03  0.10648884332E+04  0.12699999809E+01 0. -1.
</event>
<event>
 5   0  0.1519145E-06  0.2459920E+04  0.7818609E-02  0.8417405E-01
        1   -1    0    0  501    0  0.00000000000E+00  0.00000000000E+00  0.17262904939E+04  0.17262904939E+04  0.50400001928E-02 0.  1.
       -1   -1    0    0    0  501  0.00000000000E+00  0.00000000000E+00 -0.87633071403E+03  0.87633071405E+03  0.50400001928E-02 0. -1.
    10030    2    1    2    0    0  0.00000000000E+00  0.00000000000E+00  0.84995977984E+03  0.26026212079E+04  0.24599198208E+04 0.  0.
        4    1    3    3  502    0  0.41862618403E+03 -0.50129816794E+03  0.15276746573E+04  0.16614268586E+04  0.12699999809E+01 0.  1.
       -4    1    3    3    0  502 -0.41862618403E+03  0.50129816794E+03 -0.67771487745E+03  0.94119434930E+03  0.12699999809E+01 0. -1.
</event>
<event>
 5   0  0.1553604E-06  0.2463729E+04  0.7818609E-02  0.8416022E-01
       -1   -1    0    0    0  501  0.00000000000E+00  0.00000000000E+00  0.17638089868E+04  0.17638089868E+04  0.50400001928E-02 0. -1.
        1   -1    0    0  501    0  0.00000000000E+00  0.00000000000E+00 -0.86034819086E+03  0.86034819088E+03  0.50400001928E-02 0.  1.
    10030    2    1    2    0    0  0.00000000000E+00  0.00000000000E+00  0.90346079597E+03  0.26241571777E+04  0.24637287764E+04 0.  0.
        1    1    3    3  502    0 -0.90624878489E+02 -0.10288334775E+04  0.11668499147E+04  0.15582842862E+04  0.50400001928E-02 0. -1.
       -1    1    3    3    0  502  0.90624878489E+02  0.10288334775E+04 -0.26338911877E+03  0.10658728915E+04  0.50400001928E-02 0.  1.
</event>
<event>
 5   0  0.3814260E-06  0.2501056E+04  0.7818609E-02  0.8402609E-01
        2   -1    0    0  501    0  0.00000000000E+00  0.00000000000E+00  0.10924239085E+04  0.10924239085E+04  0.25500000920E-02 0. -1.
       -2   -1    0    0    0  501  0.00000000000E+00  0.00000000000E+00 -0.14315143744E+04  0.14315143744E+04  0.25500000920E-02 0.  1.
    10030    2    1    2    0    0  0.00000000000E+00  0.00000000000E+00 -0.33909046599E+03  0.25239382829E+04  0.25010561992E+04 0.  0.
        5    1    3    3  502    0  0.39474483846E+03 -0.11603479442E+04  0.80853074449E+02  0.12283281926E+04  0.46999998093E+01 0. -1.
       -5    1    3    3    0  502 -0.39474483846E+03  0.11603479442E+04 -0.41994354043E+03  0.12956100903E+04  0.46999998093E+01 0.  1.
</event>
<event>
 5   0  0.3808293E-06  0.2498906E+04  0.7818609E-02  0.8403375E-01
       -2   -1    0    0    0  501  0.00000000000E+00  0.00000000000E+00  0.12501631466E+04  0.12501631466E+04  0.25500000920E-02 0. -1.
        2   -1    0    0  501    0  0.00000000000E+00  0.00000000000E+00 -0.12487434072E+04  0.12487434072E+04  0.25500000920E-02 0.  1.
    10030    2    1    2    0    0  0.00000000000E+00  0.00000000000E+00  0.14197394348E+01  0.24989065538E+04  0.24989061505E+04 0.  0.
        1    1    3    3  502    0  0.77578272471E+03  0.76150728756E+03  0.61666516411E+03  0.12498032284E+04  0.50400001928E-02 0. -1.
       -1    1    3    3    0  502 -0.77578272471E+03 -0.76150728756E+03 -0.61524542468E+03  0.12491033254E+04  0.50400001928E-02 0.  1.
</event>
<event>
 5   0  0.3808293E-06  0.2505515E+04  0.7818609E-02  0.8401024E-01
        2   -1    0    0  501    0  0.00000000000E+00  0.00000000000E+00  0.18516788391E+04  0.18516788391E+04  0.25500000920E-02 0. -1.
       -2   -1    0    0    0  501  0.00000000000E+00  0.00000000000E+00 -0.84755561106E+03  0.84755561106E+03  0.25500000920E-02 0.  1.
    10030    2    1    2    0    0  0.00000000000E+00  0.00000000000E+00  0.10041232281E+04  0.26992344502E+04  0.25055145499E+04 0.  0.
        1    1    3    3  502    0 -0.70027493635E+03 -0.85419401489E+03 -0.13471262031E+03  0.11127353197E+04  0.50400001928E-02 0.  1.
       -1    1    3    3    0  502  0.70027493635E+03  0.85419401489E+03  0.11388358484E+04  0.15864991305E+04  0.50400001928E-02 0. -1.
</event>
<event>
 5   0  0.3808293E-06  0.2507899E+04  0.7818609E-02  0.8400177E-01
       -2   -1    0    0    0  501  0.00000000000E+00  0.00000000000E+00  0.12014447035E+04  0.12014447035E+04  0.25500000920E-02 0.  1.
        2   -1    0    0  501    0  0.00000000000E+00  0.00000000000E+00 -0.13087490445E+04  0.13087490446E+04  0.25500000920E-02 0. -1.
    10030    2    1    2    0    0  0.00000000000E+00  0.00000000000E+00 -0.10730434109E+03  0.25101937480E+04  0.25078992067E+04 0.  0.
        1    1    3    3  502    0  0.27667041988E+03  0.45067705732E+01 -0.12778094974E+04  0.13074264583E+04  0.50400001928E-02 0. -1.
       -1    1    3    3    0  502 -0.27667041988E+03 -0.45067705732E+01  0.11705051563E+04  0.12027672897E+04  0.50400001928E-02 0.  1.
</event>
<event>
 5   0  0.1501747E-06  0.2497758E+04  0.7818609E-02  0.8403785E-01
        1   -1    0    0  501    0  0.00000000000E+00  0.00000000000E+00  0.26842079482E+04  0.26842079482E+04  0.50400001928E-02 0. -1.
       -1   -1    0    0    0  501  0.00000000000E+00  0.00000000000E+00 -0.58106473680E+03  0.58106473682E+03  0.50400001928E-02 0.  1.
    10030    2    1    2    0    0  0.00000000000E+00  0.00000000000E+00  0.21031432114E+04  0.32652726850E+04  0.24977578625E+04 0.  0.
        2    1    3    3  502    0 -0.11516163215E+04 -0.21476222254E+03  0.16174231220E+04  0.19970980246E+04  0.25500000920E-02 0. -1.
       -2    1    3    3    0  502  0.11516163215E+04  0.21476222254E+03  0.48572008940E+03  0.12681746605E+04  0.25500000920E-02 0.  1.
</event>
<event>
 5   0  0.1541852E-06  0.2502151E+04  0.7818609E-02  0.8402220E-01
       -1   -1    0    0    0  501  0.00000000000E+00  0.00000000000E+00  0.14222109637E+04  0.14222109637E+04  0.50400001928E-02 0. -1.
        1   -1    0    0  501    0  0.00000000000E+00  0.00000000000E+00 -0.11005330590E+04  0.11005330591E+04  0.50400001928E-02 0.  1.
    10030    2    1    2    0    0  0.00000000000E+00  0.00000000000E+00  0.32167790465E+03  0.25227440228E+04  0.25021512205E+04 0.  0.
        5    1    3    3  502    0  0.73309554188E+03  0.51952058885E+03 -0.71686416958E+03  0.11494551072E+04  0.46999998093E+01 0.  1.
       -5    1    3    3    0  502 -0.73309554188E+03 -0.51952058885E+03  0.10385420742E+04  0.13732889156E+04  0.46999998093E+01 0. -1.
</event>
<event>
 5   0  0.3814260E-06  0.2498318E+04  0.7818609E-02  0.8403585E-01
       -2   -1    0    0    0  501  0.00000000000E+00  0.00000000000E+00  0.13213570766E+04  0.13213570766E+04  0.25500000920E-02 0. -1.
        2   -1    0    0  501    0  0.00000000000E+00  0.00000000000E+00 -0.11809062189E+04  0.11809062189E+04  0.25500000920E-02 0.  1.
    10030    2    1    2    0    0  0.00000000000E+00  0.00000000000E+00  0.14045085770E+03  0.25022632955E+04  0.24983184658E+04 0.  0.
        5    1    3    3  502    0 -0.53904700101E+03 -0.10072318722E+04 -0.43583367978E+03  0.12227267889E+04  0.46999998093E+01 0. -1.
       -5    1    3    3    0  502  0.53904700101E+03  0.10072318722E+04  0.57628453748E+03  0.12795365067E+04  0.46999998093E+01 0.  1.
</event>
<event>
 5   0  0.1519145E-06  0.2499646E+04  0.7818609E-02  0.8403112E-01
       -1   -1    0    0    0  501  0.00000000000E+00  0.00000000000E+00  0.99257598244E+03  0.99257598245E+03  0.50400001928E-02 0.  1.
        1   -1    0    0  501    0  0.00000000000E+00  0.00000000000E+00 -0.15737404567E+04  0.15737404567E+04  0.50400001928E-02 0. -1.
    10030    2    1    2    0    0  0.00000000000E+00  0.00000000000E+00 -0.58116447430E+03  0.25663164392E+04  0.24996455588E+04 0.  0.
        4    1    3    3  502    0  0.92750248687E+03 -0.27406338758E+03  0.52216592445E+03  0.10991043941E+04  0.12699999809E+01 0.  1.
       -4    1    3    3    0  502 -0.92750248687E+03  0.27406338758E+03 -0.11033303987E+04  0.14672120451E+04  0.12699999809E+01 0. -1.
</event>
<event>
 5   0  0.3924441E-06  0.2498925E+04  0.7818609E-02  0.8403368E-01
        2   -1    0    0  501    0  0.00000000000E+00  0.00000000000E+00  0.97084340096E+03  0.97084340097E+03  0.25500000920E-02 0.  1.
       -2   -1    0    0    0  501  0.00000000000E+00  0.00000000000E+00 -0.16080420419E+04  0.16080420419E+04  0.25500000920E-02 0. -1.
    10030    2    1    2    0    0  0.00000000000E+00  0.00000000000E+00 -0.63719864091E+03  0.25788854428E+04  0.24989253729E+04 0.  0.
        2    1    3    3  502    0  0.30217791825E+03 -0.55127866543E+03  0.79573721598E+03  0.10141091549E+04  0.25500000920E-02 0.  1.
       -2    1    3    3    0  502 -0.30217791825E+03  0.55127866543E+03 -0.14329358569E+04  0.15647762879E+04  0.25500000920E-02 0. -1.
</event>
<event>
 5   0  0.1553604E-06  0.2499827E+04  0.7818609E-02  0.8403047E-01
        1   -1    0    0  501    0  0.00000000000E+00  0.00000000000E+00  0.10375031756E+04  0.10375031757E+04  0.50400001928E-02 0. -1.
       -1   -1    0    0    0  501  0.00000000000E+00  0.00000000000E+00 -0.15058116090E+04  0.15058116090E+04  0.50400001928E-02 0.  1.
    10030    2    1    2    0    0  0.00000000000E+00  0.00000000000E+00 -0.46830843333E+03  0.25433147846E+04  0.24998274550E+04 0.  0.
        1    1    3    3  502    0 -0.40489343988E+03  0.11818096972E+04 -0.19255940802E+03  0.12639984113E+04  0.50400001928E-02 0.  1.
       -1    1    3    3    0  502  0.40489343988E+03 -0.11818096972E+04 -0.27574902531E+03  0.12793163733E+04  0.50400001928E-02 0. -1.
</event>
<event>
 5   0  0.3713394E-06  0.2501021E+04  0.7818609E-02  0.8402622E-01
       -2   -1    0    0    0  501  0.00000000000E+00  0.00000000000E+00  0.91951174220E+03  0.91951174221E+03  0.25500000920E-02 0. -1.
        2   -1    0    0  501    0  0.00000000000E+00  0.00000000000E+00 -0.17006593524E+04  0.17006593524E+04  0.25500000920E-02 0.  1.
    10030    2    1    2    0    0  0.00000000000E+00  0.00000000000E+00 -0.78114761018E+03  0.26201710946E+04  0.25010207868E+04 0.  0.
        3    1    3    3  502    0  0.33440370375E+02  0.12021490914E+04 -0.74968011472E+03  0.14171453634E+04  0.10100000352E+00 0.  1.
       -3    1    3    3    0  502 -0.33440370375E+02 -0.12021490914E+04 -0.31467495461E+02  0.12030257312E+04  0.10100000352E+00 0. -1.
</event>
<event>
 5   0  0.1287375E-06  0.2500614E+04  0.7818609E-02  0.8402767E-01
       -4   -1    0    0    0  501  0.00000000000E+00  0.00000000000E+00  0.10519483939E+04  0.10519491606E+04  0.12699999809E+01 0. -1.
        4   -1    0    0  501    0  0.00000000000E+00  0.00000000000E+00 -0.14860669760E+04  0.14860675186E+04  0.12699999809E+01 0.  1.
    10030    2    1    2    0    0  0.00000000000E+00  0.00000000000E+00 -0.43411858204E+03  0.25380166792E+04  0.25006138688E+04 0.  0.
        2    1    3    3  502    0  0.14140645764E+03  0.71196158933E+03  0.81619647653E+03  0.10922736742E+04  0.25500000920E-02 0. -1.
       -2    1    3    3    0  502 -0.14140645764E+03 -0.71196158933E+03 -0.12503150586E+04  0.14457430051E+04  0.25500000920E-02 0.  1.
</event>
<event>
 5   0  0.1553604E-06  0.2508618E+04  0.7818609E-02  0.8399922E-01
        1   -1    0    0  501    0  0.00000000000E+00  0.00000000000E+00  0.15448181714E+04  0.15448181715E+04  0.50400001928E-02 0.  1.
       -1   -1    0    0    0  501  0.00000000000E+00  0.00000000000E+00 -0.10184312314E+04  0.10184312314E+04  0.50400001928E-02 0. -1.
    10030    2    1    2    0    0  0.00000000000E+00  0.00000000000E+00  0.52638694003E+03  0.25632494029E+04  0.25086180042E+04 0.  0.
        1    1    3    3  502    0 -0.33516987102E+03  0.37067156532E+03  0.14387060932E+04  0.15230270761E+04  0.50400001928E-02 0.  1.
       -1    1    3    3    0  502  0.33516987102E+03 -0.37067156532E+03 -0.91231915322E+03  0.10402223268E+04  0.50400001928E-02 0. -1.
</event>
<event>
 5   0  0.1519145E-06  0.2499181E+04  0.7818609E-02  0.8403277E-01
       -1   -1    0    0    0  501  0.00000000000E+00  0.00000000000E+00  0.88995254337E+03  0.88995254339E+03  0.50400001928E-02 0.  1.
        1   -1    0    0  501    0  0.00000000000E+00  0.00000000000E+00 -0.17545609666E+04  0.17545609667E+04  0.50400001928E-02 0. -1.
    10030    2    1    2    0    0  0.00000000000E+00  0.00000000000E+00 -0.86460842327E+03  0.26445135100E+04  0.24991806616E+04 0.  0.
        4    1    3    3  502    0  0.42454932074E+03 -0.78599195175E+03  0.49226223292E+03  0.10199750942E+04  0.12699999809E+01 0.  1.
       -4    1    3    3    0  502 -0.42454932074E+03  0.78599195175E+03 -0.13568706562E+04  0.16245384158E+04  0.12699999809E+01 0. -1.
</event>
<event>
 5   0  0.1287375E-06  0.2496071E+04  0.7818609E-02  0.8404387E-01
       -3   -1    0    0    0  501  0.00000000000E+00  0.00000000000E+00  0.11995667115E+04  0.11995667158E+04  0.10100000352E+00 0. -1.
        3   -1    0    0  501    0  0.00000000000E+00  0.00000000000E+00 -0.12984622019E+04  0.12984622058E+04  0.10100000352E+00 0.  1.
    10030    2    1    2    0    0  0.00000000000E+00  0.00000000000E+00 -0.98895490378E+02  0.24980289216E+04  0.24960705469E+04 0.  0.
        4    1    3    3  502    0 -0.91248178262E+03  0.63356421518E+03  0.51982524476E+03  0.12264772792E+04  0.12699999809E+01 0. -1.
       -4    1    3    3    0  502  0.91248178262E+03 -0.63356421518E+03 -0.61872073514E+03  0.12715516424E+04  0.12699999809E+01 0.  1.
</event>
<event>
 5   0  0.1541852E-06  0.2501351E+04  0.7818609E-02  0.8402505E-01
        1   -1    0    0  501    0  0.00000000000E+00  0.00000000000E+00  0.15791249132E+04  0.15791249132E+04  0.50400001928E-02 0.  1.
       -1   -1    0    0    0  501  0.00000000000E+00  0.00000000000E+00 -0.99054152041E+03  0.99054152043E+03  0.50400001928E-02 0. -1.
    10030    2    1    2    0    0  0.00000000000E+00  0.00000000000E+00  0.58858339274E+03  0.25696664336E+04  0.25013506691E+04 0.  0.
        5    1    3    3  502    0 -0.49593240545E+03  0.69557700825E+03  0.12326891366E+04  0.14997736238E+04  0.46999998093E+01 0.  1.
       -5    1    3    3    0  502  0.49593240545E+03 -0.69557700825E+03 -0.64410574385E+03  0.10698928098E+04  0.46999998093E+01 0. -1.
</event>
<event>
 5   0  0.3814260E-06  0.2428406E+04  0.7818609E-02  0.8428945E-01
       -2   -1    0    0    0  501  0.00000000000E+00  0.00000000000E+00  0.62346843199E+03  0.62346843200E+03  0.25500000920E-02 0.  1.
        2   -1    0    0  501    0  0.00000000000E+00  0.00000000000E+00 -0.23646566007E+04  0.23646566007E+04  0.25500000920E-02 0. -1.
    10030    2    1    2    0    0  0.00000000000E+00  0.00000000000E+00 -0.17411881687E+04  0.29881250327E+04  0.24284058500E+04 0.  0.
        5    1    3    3  502    0  0.22849088515E+03 -0.22826580130E+01  0.59676174421E+03  0.63903048790E+03  0.46999998093E+01 0.  1.
       -5    1    3    3    0  502 -0.22849088515E+03  0.22826580130E+01 -0.23379499129E+04  0.23490945448E+04  0.46999998093E+01 0. -1.
</event>
<event>
 5   0  0.3814260E-06  0.2508584E+04  0.7818609E-02  0.8399934E-01
       -2   -1    0    0    0  501  0.00000000000E+00  0.00000000000E+00  0.83217255715E+03  0.83217255715E+03  0.25500000920E-02 0.  1.
        2   -1    0    0  501    0  0.00000000000E+00  0.00000000000E+00 -0.18905307467E+04  0.18905307467E+04  0.25500000920E-02 0. -1.
    10030    2    1    2    0    0  0.00000000000E+00  0.00000000000E+00 -0.10583581896E+04  0.27227033039E+04  0.25085835094E+04 0.  0.
        5    1    3    3  502    0  0.99842252900E+03 -0.49025392839E+03  0.99979740750E+02  0.11167875802E+04  0.46999998093E+01 0. -1.
       -5    1    3    3    0  502 -0.99842252900E+03  0.49025392839E+03 -0.11583379303E+04  0.16059157237E+04  0.46999998093E+01 0.  1.
</event>
<event>
 5   0  0.3814260E-06  0.2493447E+04  0.7818609E-02  0.8405324E-01
       -2   -1    0    0    0  501  0.00000000000E+00  0.00000000000E+00  0.89370663192E+03  0.89370663192E+03  0.25500000920E-02 0. -1.
        2   -1    0    0  501    0  0.00000000000E+00  0.00000000000E+00 -0.17391834541E+04  0.17391834541E+04  0.25500000920E-02 0.  1.
    10030    2    1    2    0    0  0.00000000000E+00  0.00000000000E+00 -0.84547682215E+03  0.26328900860E+04  0.24934472419E+04 0.  0.
        5    1    3    3  502    0  0.57366374086E+03  0.68936891817E+03 -0.13371818279E+04  0.16100922098E+04  0.46999998093E+01 0.  1.
       -5    1    3    3    0  502 -0.57366374086E+03 -0.68936891817E+03  0.49170500580E+03  0.10227978762E+04  0.46999998093E+01 0. -1.
</event>
<event>
 5   0  0.3814260E-06  0.2481002E+04  0.7818609E-02  0.8409785E-01
        2   -1    0    0  501    0  0.00000000000E+00  0.00000000000E+00  0.97727790629E+03  0.97727790629E+03  0.25500000920E-02 0.  1.
       -2   -1    0    0    0  501  0.00000000000E+00  0.00000000000E+00 -0.15746208997E+04  0.15746208997E+04  0.25500000920E-02 0. -1.
    10030    2    1    2    0    0  0.00000000000E+00  0.00000000000E+00 -0.59734299337E+03  0.25518988060E+04  0.24810015849E+04 0.  0.
        5    1    3    3  502    0 -0.10799974023E+04 -0.34017033995E+03  0.22247244821E+03  0.11539611473E+04  0.46999998093E+01 0.  1.
       -5    1    3    3    0  502  0.10799974023E+04  0.34017033995E+03 -0.81981544158E+03  0.13979376587E+04  0.46999998093E+01 0. -1.
</event>
<event>
 5   0  0.1501747E-06  0.2500788E+04  0.7818609E-02  0.8402705E-01
       -1   -1    0    0    0  501  0.00000000000E+00  0.00000000000E+00  0.10140970647E+04  0.10140970647E+04  0.50400001928E-02 0.  1.
        1   -1    0    0  501    0  0.00000000000E+00  0.00000000000E+00 -0.15417513927E+04  0.15417513927E+04  0.50400001928E-02 0. -1.
    10030    2    1    2    0    0  0.00000000000E+00  0.00000000000E+00 -0.52765432793E+03  0.25558484574E+04  0.25007883252E+04 0.  0.
        2    1    3    3  502    0  0.71815488738E+03  0.50449887476E+03  0.64641090676E+03  0.10900057877E+04  0.25500000920E-02 0. -1.
       -2    1    3    3    0  502 -0.71815488738E+03 -0.50449887476E+03 -0.11740652347E+04  0.14658426697E+04  0.25500000920E-02 0.  1.
</event>
<event>
 5   0  0.3713394E-06  0.2525123E+04  0.7818609E-02  0.8394090E-01
        2   -1    0    0  501    0  0.00000000000E+00  0.00000000000E+00  0.32557030212E+04  0.32557030212E+04  0.25500000920E-02 0.  1.
       -2   -1    0    0    0  501  0.00000000000E+00  0.00000000000E+00 -0.48962134331E+03  0.48962134332E+03  0.25500000920E-02 0. -1.
    10030    2    1    2    0    0  0.00000000000E+00  0.00000000000E+00  0.27660816779E+04  0.37453243645E+04  0.25251231151E+04 0.  0.
        3    1    3    3  502    0  0.17803909562E+03  0.53440346247E+03 -0.29292187339E+03  0.63489228566E+03  0.10100000352E+00 0. -1.
       -3    1    3    3    0  502 -0.17803909562E+03 -0.53440346247E+03  0.30590035513E+04  0.31104320788E+04  0.10100000352E+00 0.  1.
</event>
<event>
 5   0  0.3971759E-06  0.2499739E+04  0.7818609E-02  0.8403078E-01
       -2   -1    0    0    0  501  0.00000000000E+00  0.00000000000E+00  0.13566085494E+04  0.13566085494E+04  0.25500000920E-02 0. -1.
        2   -1    0    0  501    0  0.00000000000E+00  0.00000000000E+00 -0.11515288704E+04  0.11515288704E+04  0.25500000920E-02 0.  1.
    10030    2    1    2    0    0  0.00000000000E+00  0.00000000000E+00  0.20507967907E+03  0.25081374198E+04  0.24997391148E+04 0.  0.
        4    1    3    3  502    0  0.67165310563E+03  0.10510845599E+04  0.18202499747E+03  0.12605678716E+04  0.12699999809E+01 0.  1.
       -4    1    3    3    0  502 -0.67165310563E+03 -0.10510845599E+04  0.23054681599E+02  0.12475695482E+04  0.12699999809E+01 0. -1.
</event>
<event>
 5   0  0.3713394E-06  0.2503059E+04  0.7818609E-02  0.8401897E-01
       -2   -1    0    0    0  501  0.00000000000E+00  0.00000000000E+00  0.88153974834E+03  0.88153974834E+03  0.25500000920E-02 0. -1.
        2   -1    0    0  501    0  0.00000000000E+00  0.00000000000E+00 -0.17768070402E+04  0.17768070403E+04  0.25500000920E-02 0.  1.
    10030    2    1    2    0    0  0.00000000000E+00  0.00000000000E+00 -0.89526729191E+03  0.26583467886E+04  0.25030589534E+04 0.  0.
        3    1    3    3  502    0  0.34353033670E+03  0.82241433522E+02  0.82749881820E+03  0.89973943447E+03  0.10100000352E+00 0. -1.
       -3    1    3    3    0  502 -0.34353033670E+03 -0.82241433522E+02 -0.17227661101E+04  0.17586073541E+04  0.10100000352E+00 0.  1.
</event>
<event>
 5   0  0.1501747E-06  0.2503755E+04  0.7818609E-02  0.8401649E-01
       -1   -1    0    0    0  501  0.00000000000E+00  0.00000000000E+00  0.93572220864E+03  0.93572220865E+03  0.50400001928E-02 0.  1.
        1   -1    0    0  501    0  0.00000000000E+00  0.00000000000E+00 -0.16748537924E+04  0.16748537925E+04  0.50400001928E-02 0. -1.
    10030    2    1    2    0    0  0.00000000000E+00  0.00000000000E+00 -0.73913158380E+03  0.26105760011E+04  0.25037554911E+04 0.  0.
        2    1    3    3  502    0  0.96444784597E+02  0.89486050824E+03 -0.12768159704E+04  0.15621574658E+04  0.25500000920E-02 0. -1.
       -2    1    3    3    0  502 -0.96444784597E+02 -0.89486050824E+03  0.53768438656E+03  0.10484185353E+04  0.25500000920E-02 0.  1.
</event>
<event>
 5   0  0.3924441E-06  0.2511453E+04  0.7818609E-02  0.8398917E-01
        2   -1    0    0  501    0  0.00000000000E+00  0.00000000000E+00  0.11589247707E+04  0.11589247707E+04  0.25500000920E-02 0.  1.
       -2   -1    0    0    0  501  0.00000000000E+00  0.00000000000E+00 -0.13606143295E+04  0.13606143295E+04  0.25500000920E-02 0. -1.
    10030    2    1    2    0    0  0.00000000000E+00  0.00000000000E+00 -0.20168955882E+03  0.25195391001E+04  0.25114534834E+04 0.  0.
        2    1    3    3  502    0 -0.65739275719E+03  0.39496782015E+03  0.89668277262E+03  0.11799172898E+04  0.25500000920E-02 0.  1.
       -2    1    3    3    0  502  0.65739275719E+03 -0.39496782015E+03 -0.10983723314E+04  0.13396218103E+04  0.25500000920E-02 0. -1.
</event>
<event>
 5   0  0.1519145E-06  0.2502056E+04  0.7818609E-02  0.8402253E-01
        1   -1    0    0  501    0  0.00000000000E+00  0.00000000000E+00  0.22343148969E+04  0.22343148969E+04  0.50400001928E-02 0. -1.
       -1   -1    0    0    0  501  0.00000000000E+00  0.00000000000E+00 -0.70047024738E+03  0.70047024740E+03  0.50400001928E-02 0.  1.
    10030    2    1    2    0    0  0.00000000000E+00  0.00000000000E+00  0.15338446496E+04  0.29347851443E+04  0.25020560414E+04 0.  0.
        4    1    3    3  502    0  0.32291683871E+03  0.10575088533E+04  0.14533425346E+04  0.18261452285E+04  0.12699999809E+01 0. -1.
       -4    1    3    3    0  502 -0.32291683871E+03 -0.10575088533E+04  0.80502114920E+02  0.11086399159E+04  0.12699999809E+01 0.  1.
</event>
<event>
 5   0  0.1519145E-06  0.2502260E+04  0.7818609E-02  0.8402181E-01
        1   -1    0    0  501    0  0.00000000000E+00  0.00000000000E+00  0.18645727613E+04  0.18645727613E+04  0.50400001928E-02 0.  1.
       -1   -1    0    0    0  501  0.00000000000E+00  0.00000000000E+00 -0.83950927303E+03  0.83950927305E+03  0.50400001928E-02 0. -1.
    10030    2    1    2    0    0  0.00000000000E+00  0.00000000000E+00  0.10250634883E+04  0.27040820344E+04  0.25022598773E+04 0.  0.
        4    1    3    3  502    0 -0.12405540329E+04  0.16229701533E+03  0.50913485357E+03  0.13507533238E+04  0.12699999809E+01 0. -1.
       -4    1    3    3    0  502  0.12405540329E+04 -0.16229701533E+03  0.51592863472E+03  0.13533287106E+04  0.12699999809E+01 0.  1.
</event>
<event>
 5   0  0.3971759E-06  0.2448390E+04  0.7818609E-02  0.8421606E-01
        2   -1    0    0  501    0  0.00000000000E+00  0.00000000000E+00  0.26841561459E+04  0.26841561459E+04  0.25500000920E-02 0. -1.
       -2   -1    0    0    0  501  0.00000000000E+00  0.00000000000E+00 -0.55833299363E+03  0.55833299363E+03  0.25500000920E-02 0.  1.
    10030    2    1    2    0    0  0.00000000000E+00  0.00000000000E+00  0.21258231522E+04  0.32424891395E+04  0.24483896228E+04 0.  0.
        4    1    3    3  502    0  0.77003317687E+03  0.74718551553E+03  0.28232391896E+03  0.11094799215E+04  0.12699999809E+01 0. -1.
       -4    1    3    3    0  502 -0.77003317687E+03 -0.74718551553E+03  0.18434992333E+04  0.21330092180E+04  0.12699999809E+01 0.  1.
</event>
<event>
 5   0  0.1574896E-06  0.2501262E+04  0.7818609E-02  0.8402536E-01
       -1   -1    0    0    0  501  0.00000000000E+00  0.00000000000E+00  0.11853256126E+04  0.11853256126E+04  0.50400001928E-02 0. -1.
        1   -1    0    0  501    0  0.00000000000E+00  0.00000000000E+00 -0.13195340497E+04  0.13195340497E+04  0.50400001928E-02 0.  1.
    10030    2    1    2    0    0  0.00000000000E+00  0.00000000000E+00 -0.13420843704E+03  0.25048596623E+04  0.25012616863E+04 0.  0.
        3    1    3    3  502    0  0.65012352925E+03  0.40172696886E+03  0.92428563720E+03  0.11993119320E+04  0.10100000352E+00 0. -1.
       -3    1    3    3    0  502 -0.65012352925E+03 -0.40172696886E+03 -0.10584940742E+04  0.13055477303E+04  0.10100000352E+00 0.  1.
</event>
<event>
 5   0  0.1501747E-06  0.2504873E+04  0.7818609E-02  0.8401252E-01
        1   -1    0    0  501    0  0.00000000000E+00  0.00000000000E+00  0.14642540286E+04  0.14642540286E+04  0.50400001928E-02 0.  1.
       -1   -1    0    0    0  501  0.00000000000E+00  0.00000000000E+00 -0.10712600295E+04  0.10712600296E+04  0.50400001928E-02 0. -1.
    10030    2    1    2    0    0  0.00000000000E+00  0.00000000000E+00  0.39299399908E+03  0.25355140582E+04  0.25048727025E+04 0.  0.
        2    1    3    3  502    0 -0.79073635695E+03  0.12798497318E+02 -0.78655191483E+03  0.11153885881E+04  0.25500000920E-02 0. -1.
       -2    1    3    3    0  502  0.79073635695E+03 -0.12798497318E+02  0.11795459139E+04  0.14201254701E+04  0.25500000920E-02 0.  1.
</event>
<event>
 5   0  0.3713394E-06  0.2485748E+04  0.7818609E-02  0.8408081E-01
       -2   -1    0    0    0  501  0.00000000000E+00  0.00000000000E+00  0.14640099637E+04  0.14640099637E+04  0.25500000920E-02 0.  1.
        2   -1    0    0  501    0  0.00000000000E+00  0.00000000000E+00 -0.10551398562E+04  0.10551398562E+04  0.25500000920E-02 0. -1.
    10030    2    1    2    0    0  0.00000000000E+00  0.00000000000E+00  0.40887010754E+03  0.25191498199E+04  0.24857475838E+04 0.  0.
        3    1    3    3  502    0 -0.22713593584E+03 -0.40823414895E+03 -0.96277457775E+03  0.10701311842E+04  0.10100000352E+00 0. -1.
       -3    1    3    3    0  502  0.22713593584E+03  0.40823414895E+03  0.13716446853E+04  0.14490186357E+04  0.10100000352E+00 0.  1.
</event>
<event>
 5   0  0.3713394E-06  0.2501197E+04  0.7818609E-02  0.8402559E-01
       -2   -1    0    0    0  501  0.00000000000E+00  0.00000000000E+00  0.74994591714E+03  0.74994591715E+03  0.25500000920E-02 0. -1.
        2   -1    0    0  501    0  0.00000000000E+00  0.00000000000E+00 -0.20854789105E+04  0.20854789105E+04  0.25500000920E-02 0.  1.
    10030    2    1    2    0    0  0.00000000000E+00  0.00000000000E+00 -0.13355329933E+04  0.28354248276E+04  0.25011968289E+04 0.  0.
        3    1    3    3  502    0  0.91363587940E+03  0.38637366228E+03 -0.15310973223E+04  0.18243558171E+04  0.10100000352E+00 0.  1.
       -3    1    3    3    0  502 -0.91363587940E+03 -0.38637366228E+03  0.19556432894E+03  0.10110690105E+04  0.10100000352E+00 0. -1.
</event>
<event>
 5   0  0.3971759E-06  0.2499250E+04  0.7818609E-02  0.8403253E-01
       -2   -1    0    0    0  501  0.00000000000E+00  0.00000000000E+00  0.14600337864E+04  0.14600337864E+04  0.25500000920E-02 0. -1.
        2   -1    0    0  501    0  0.00000000000E+00  0.00000000000E+00 -0.10695385517E+04  0.10695385517E+04  0.25500000920E-02 0.  1.
    10030    2    1    2    0    0  0.00000000000E+00  0.00000000000E+00  0.39049523466E+03  0.25295723381E+04  0.24992498245E+04 0.  0.
        4    1    3    3  502    0 -0.22847094693E+03 -0.10644004213E+04  0.81621683704E+03  0.13606464524E+04  0.12699999809E+01 0. -1.
       -4    1    3    3    0  502  0.22847094693E+03  0.10644004213E+04 -0.42572160238E+03  0.11689258857E+04  0.12699999809E+01 0.  1.
</event>
<event>
 5   0  0.1553604E-06  0.2524765E+04  0.7818609E-02  0.8394216E-01
        1   -1    0    0  501    0  0.00000000000E+00  0.00000000000E+00  0.23601618992E+04  0.23601618992E+04  0.50400001928E-02 0.  1.
       -1   -1    0    0    0  501  0.00000000000E+00  0.00000000000E+00 -0.67521213515E+03  0.67521213517E+03  0.50400001928E-02 0. -1.
    10030    2    1    2    0    0  0.00000000000E+00  0.00000000000E+00  0.16849497641E+04  0.30353740344E+04  0.25247653002E+04 0.  0.
        1    1    3    3  502    0 -0.90873657544E+03 -0.73814865458E+03  0.27481337917E+03  0.12025755665E+04  0.50400001928E-02 0. -1.
       -1    1    3    3    0  502  0.90873657544E+03  0.73814865458E+03  0.14101363849E+04  0.18327984679E+04  0.50400001928E-02 0.  1.
</event>
<event>
 5   0  0.3971759E-06  0.2494770E+04  0.7818609E-02  0.8404851E-01
       -2   -1    0    0    0  501  0.00000000000E+00  0.00000000000E+00  0.87078014380E+03  0.87078014381E+03  0.25500000920E-02 0.  1.
        2   -1    0    0  501    0  0.00000000000E+00  0.00000000000E+00 -0.17868685821E+04  0.17868685821E+04  0.25500000920E-02 0. -1.
    10030    2    1    2    0    0  0.00000000000E+00  0.00000000000E+00 -0.91608843829E+03  0.26576487259E+04  0.24947702747E+04 0.  0.
        4    1    3    3  502    0  0.16708386341E+03 -0.10031982746E+04 -0.12274478625E+04  0.15940369079E+04  0.12699999809E+01 0. -1.
       -4    1    3    3    0  502 -0.16708386341E+03  0.10031982746E+04  0.31135942423E+03  0.10636118180E+04  0.12699999809E+01 0.  1.
</event>
<event>
 5   0  0.1574896E-06  0.2500502E+04  0.7818609E-02  0.8402807E-01
       -1   -1    0    0    0  501  0.00000000000E+00  0.00000000000E+00  0.13237312645E+04  0.13237312645E+04  0.50400001928E-02 0.  1.
        1   -1    0    0  501    0  0.00000000000E+00  0.00000000000E+00 -0.11808497960E+04  0.11808497960E+04  0.50400001928E-02 0. -1.
    10030    2    1    2    0    0  0.00000000000E+00  0.00000000000E+00  0.14288146853E+03  0.25045810605E+04  0.25005021845E+04 0.  0.
        3    1    3    3  502    0  0.61616176630E+02 -0.55087032886E+03  0.11939262220E+04  0.13163261398E+04  0.10100000352E+00 0.  1.
       -3    1    3    3    0  502 -0.61616176630E+02  0.55087032886E+03 -0.10510447535E+04  0.11882549207E+04  0.10100000352E+00 0. -1.
</event>
<event>
 5   0  0.3713394E-06  0.2527501E+04  0.7818609E-02  0.8393253E-01
        2   -1    0    0  501    0  0.00000000000E+00  0.00000000000E+00  0.13235096502E+04  0.13235096502E+04  0.25500000920E-02 0. -1.
       -2   -1    0    0    0  501  0.00000000000E+00  0.00000000000E+00 -0.12066895917E+04  0.12066895917E+04  0.25500000920E-02 0.  1.
    10030    2    1    2    0    0  0.00000000000E+00  0.00000000000E+00  0.11682005854E+03  0.25301992419E+04  0.25275009946E+04 0.  0.
        3    1    3    3  502    0 -0.75063465030E+02 -0.11261697698E+04  0.62749948833E+03  0.12913746521E+04  0.10100000352E+00 0. -1.
       -3    1    3    3    0  502  0.75063465030E+02  0.11261697698E+04 -0.51067942979E+03  0.12388245898E+04  0.10100000352E+00 0.  1.
</event>
<event>
 5   0  0.3814260E-06  0.2500850E+04  0.7818609E-02  0.8402683E-01
        2   -1    0    0  501    0  0.00000000000E+00  0.00000000000E+00  0.14263992091E+04  0.14263992091E+04  0.25500000920E-02 0. -1.
       -2   -1    0    0    0  501  0.00000000000E+00  0.00000000000E+00 -0.10961610356E+04  0.10961610356E+04  0.25500000920E-02 0.  1.
    10030    2    1    2    0    0  0.00000000000E+00  0.00000000000E+00  0.33023817354E+03  0.25225602447E+04  0.25008504428E+04 0.  0.
        5    1    3    3  502    0  0.10666043660E+04 -0.41011177995E+03 -0.34693390828E+03  0.11942452731E+04  0.46999998093E+01 0. -1.
       -5    1    3    3    0  502 -0.10666043660E+04  0.41011177995E+03  0.67717208182E+03  0.13283149717E+04  0.46999998093E+01 0.  1.
</event>
<event>
 5   0  0.1553604E-06  0.2509598E+04  0.7818609E-02  0.8399574E-01
       -1   -1    0    0    0  501  0.00000000000E+00  0.00000000000E+00  0.31037645355E+04  0.31037645355E+04  0.50400001928E-02 0.  1.
        1   -1    0    0  501    0  0.00000000000E+00  0.00000000000E+00 -0.50729361479E+03  0.50729361482E+03  0.50400001928E-02 0. -1.
    10030    2    1    2    0    0  0.00000000000E+00  0.00000000000E+00  0.25964709207E+04  0.36110581503E+04  0.25095975221E+04 0.  0.
        1    1    3    3  502    0 -0.25329036511E+03 -0.12229996924E+04  0.11241603133E+04  0.16803632543E+04  0.50400001928E-02 0.  1.
       -1    1    3    3    0  502  0.25329036511E+03  0.12229996924E+04  0.14723106074E+04  0.19306948960E+04  0.50400001928E-02 0. -1.
</event>
<event>
 5   0  0.1553604E-06  0.2497300E+04  0.7818609E-02  0.8403948E-01
        1   -1    0    0  501    0  0.00000000000E+00  0.00000000000E+00  0.18858715327E+04  0.18858715328E+04  0.50400001928E-02 0.  1.
       -1   -1    0    0    0  501  0.00000000000E+00  0.00000000000E+00 -0.82674078875E+03  0.82674078876E+03  0.50400001928E-02 0. -1.
    10030    2    1    2    0    0  0.00000000000E+00  0.00000000000E+00  0.10591307440E+04  0.27126123215E+04  0.24973000769E+04 0.  0.
        1    1    3    3  502    0 -0.48792811380E+03 -0.10070476177E+04 -0.72191729736E+02  0.11213520386E+04  0.50400001928E-02 0. -1.
       -1    1    3    3    0  502  0.48792811380E+03  0.10070476177E+04  0.11313224737E+04  0.15912602830E+04  0.50400001928E-02 0.  1.
</event>
<event>
 5   0  0.3808293E-06  0.2498325E+04  0.7818609E-02  0.8403583E-01
        2   -1    0    0  501    0  0.00000000000E+00  0.00000000000E+00  0.15341487188E+04  0.15341487188E+04  0.25500000920E-02 0.  1.
       -2   -1    0    0    0  501  0.00000000000E+00  0.00000000000E+00 -0.10171158170E+04  0.10171158170E+04  0.25500000920E-02 0. -1.
    10030    2    1    2    0    0  0.00000000000E+00  0.00000000000E+00  0.51703290178E+03  0.25512645359E+04  0.24983249810E+04 0.  0.
        1    1    3    3  502    0 -0.36026489466E+03  0.87580332100E+03 -0.57335215732E+03  0.11070478525E+04  0.50400001928E-02 0. -1.
       -1    1    3    3    0  502  0.36026489466E+03 -0.87580332100E+03  0.10903850591E+04  0.14442166834E+04  0.50400001928E-02 0.  1.
</event>
<event>
 5   0  0.1519145E-06  0.2496417E+04  0.7818609E-02  0.8404263E-01
        1   -1    0    0  501    0  0.00000000000E+00  0.00000000000E+00  0.16253020705E+04  0.16253020705E+04  0.50400001928E-02 0. -1.
       -1   -1    0    0    0  501  0.00000000000E+00  0.00000000000E+00 -0.95860634057E+03  0.95860634058E+03  0.50400001928E-02 0.  1.
    10030    2    1    2    0    0  0.00000000000E+00  0.00000000000E+00  0.66669572996E+03  0.25839084111E+04  0.24964173290E+04 0.  0.
        4    1    3    3  502    0  0.11634492515E+03  0.67923038732E+03  0.14105590653E+04  0.15698944392E+04  0.12699999809E+01 0. -1.
       -4    1    3    3    0  502 -0.11634492515E+03 -0.67923038732E+03 -0.74386333534E+03  0.10140139719E+04  0.12699999809E+01 0.  1.
</event>
<event>
 5   0  0.3814260E-06  0.2498979E+04  0.7818609E-02  0.8403349E-01
        2   -1    0    0  501    0  0.00000000000E+00  0.00000000000E+00  0.10999690778E+04  0.10999690778E+04  0.25500000920E-02 0.  1.
       -2   -1    0    0    0  501  0.00000000000E+00  0.00000000000E+00 -0.14193345382E+04  0.14193345382E+04  0.25500000920E-02 0. -1.
    10030    2    1    2    0    0  0.00000000000E+00  0.00000000000E+00 -0.31936546039E+03  0.25193036159E+04  0.24989790739E+04 0.  0.
        5    1    3    3  502    0  0.54234267273E+03  0.61310567649E+03 -0.11113774288E+04  0.13802956294E+04  0.46999998093E+01 0. -1.
       -5    1    3    3    0  502 -0.54234267273E+03 -0.61310567649E+03  0.79201196845E+03  0.11390079865E+04  0.46999998093E+01 0.  1.
</event>
<event>
 5   0  0.1501747E-06  0.2500185E+04  0.7818609E-02  0.8402920E-01
        1   -1    0    0  501    0  0.00000000000E+00  0.00000000000E+00  0.17316183096E+04  0.17316183096E+04  0.50400001928E-02 0. -1.
       -1   -1    0    0    0  501  0.00000000000E+00  0.00000000000E+00 -0.90246880387E+03  0.90246880388E+03  0.50400001928E-02 0.  1.
    10030    2    1    2    0    0  0.00000000000E+00  0.00000000000E+00  0.82914950575E+03  0.26340871135E+04  0.25001851969E+04 0.  0.
        2    1    3    3  502    0  0.85363677483E+03 -0.78158233313E+03 -0.83128888929E+02  0.11603779983E+04  0.25500000920E-02 0.  1.
       -2    1    3    3    0  502 -0.85363677483E+03  0.78158233313E+03  0.91227839468E+03  0.14737091152E+04  0.25500000920E-02 0. -1.
</event>
<event>
 5   0  0.1541852E-06  0.2494352E+04  0.7818609E-02  0.8405001E-01
        1   -1    0    0  501    0  0.00000000000E+00  0.00000000000E+00  0.14689445645E+04  0.14689445645E+04  0.50400001928E-02 0.  1.
       -1   -1    0    0    0  501  0.00000000000E+00  0.00000000000E+00 -0.10588878177E+04  0.10588878177E+04  0.50400001928E-02 0. -1.
    10030    2    1    2    0    0  0.00000000000E+00  0.00000000000E+00  0.41005674681E+03  0.25278323823E+04  0.24943516226E+04 0.  0.
        5    1    3    3  502    0 -0.53676823899E+03 -0.81274445657E+03  0.99442652701E+03  0.13919697919E+04  0.46999998093E+01 0.  1.
       -5    1    3    3    0  502  0.53676823899E+03  0.81274445657E+03 -0.58436978019E+03  0.11358625903E+04  0.46999998093E+01 0. -1.
</event>
<event>
 5   0  0.1553604E-06  0.2500462E+04  0.7818609E-02  0.8402821E-01
       -1   -1    0    0    0  501  0.00000000000E+00  0.00000000000E+00  0.10295560206E+04  0.10295560207E+04  0.50400001928E-02 0. -1.
        1   -1    0    0  501    0  0.00000000000E+00  0.00000000000E+00 -0.15182054338E+04  0.15182054338E+04  0.50400001928E-02 0.  1.
    10030    2    1    2    0    0  0.00000000000E+00  0.00000000000E+00 -0.48864941318E+03  0.25477614545E+04  0.25004619933E+04 0.  0.
        1    1    3    3  502    0  0.29701776997E+02 -0.11198518943E+04 -0.80991694649E+03  0.13823588250E+04  0.50400001928E-02 0.  1.
       -1    1    3    3    0  502 -0.29701776997E+02  0.11198518943E+04  0.32126753331E+03  0.11654026295E+04  0.50400001928E-02 0. -1.
</event>
<event>
 5   0  0.3814260E-06  0.2500271E+04  0.7818609E-02  0.8402889E-01
        2   -1    0    0  501    0  0.00000000000E+00  0.00000000000E+00  0.17387207959E+04  0.17387207959E+04  0.25500000920E-02 0. -1.
       -2   -1    0    0    0  501  0.00000000000E+00  0.00000000000E+00 -0.89884388227E+03  0.89884388228E+03  0.25500000920E-02 0.  1.
    10030    2    1    2    0    0  0.00000000000E+00  0.00000000000E+00  0.83987691361E+03  0.26375646782E+04  0.25002708256E+04 0.  0.
        5    1    3    3  502    0  0.35511318553E+03 -0.27648102586E+02  0.16840494844E+04  0.17213118684E+04  0.46999998093E+01 0. -1.
       -5    1    3    3    0  502 -0.35511318553E+03  0.27648102586E+02 -0.84417257083E+03  0.91625280980E+03  0.46999998093E+01 0.  1.
</event>
<event>
 5   0  0.1501747E-06  0.2498378E+04  0.7818609E-02  0.8403564E-01
       -1   -1    0    0    0  501  0.00000000000E+00  0.00000000000E+00  0.10601265763E+04  0.10601265763E+04  0.50400001928E-02 0.  1.
        1   -1    0    0  501    0  0.00000000000E+00  0.00000000000E+00 -0.14719682007E+04  0.14719682007E+04  0.50400001928E-02 0. -1.
    10030    2    1    2    0    0  0.00000000000E+00  0.00000000000E+00 -0.41184162443E+03  0.25320947770E+04  0.24983775607E+04 0.  0.
        2    1    3    3  502    0 -0.77578548254E+03 -0.69423852224E+03 -0.90564569818E+03  0.13798566488E+04  0.25500000920E-02 0. -1.
       -2    1    3    3    0  502  0.77578548254E+03  0.69423852224E+03  0.49380407374E+03  0.11522381281E+04  0.25500000920E-02 0.  1.
</event>
<event>
 5   0  0.1574896E-06  0.2502086E+04  0.7818609E-02  0.8402243E-01
        1   -1    0    0  501    0  0.00000000000E+00  0.00000000000E+00  0.77631194421E+03  0.77631194423E+03  0.50400001928E-02 0.  1.
       -1   -1    0    0    0  501  0.00000000000E+00  0.00000000000E+00 -0.20160821575E+04  0.20160821575E+04  0.50400001928E-02 0. -1.
    10030    2    1    2    0    0  0.00000000000E+00  0.00000000000E+00 -0.12397702133E+04  0.27923941017E+04  0.25020860572E+04 0.  0.
        3    1    3    3  502    0  0.80199674348E+03  0.92908343717E+03 -0.34946143224E+03  0.12761340496E+04  0.10100000352E+00 0.  1.
       -3    1    3    3    0  502 -0.80199674348E+03 -0.92908343717E+03 -0.89030878104E+03  0.15162600521E+04  0.10100000352E+00 0. -1.
</event>
<event>
 5   0  0.3713394E-06  0.2498947E+04  0.7818609E-02  0.8403361E-01
       -2   -1    0    0    0  501  0.00000000000E+00  0.00000000000E+00  0.80467938975E+03  0.80467938976E+03  0.25500000920E-02 0. -1.
        2   -1    0    0  501    0  0.00000000000E+00  0.00000000000E+00 -0.19401320752E+04  0.19401320752E+04  0.25500000920E-02 0.  1.
    10030    2    1    2    0    0  0.00000000000E+00  0.00000000000E+00 -0.11354526854E+04  0.27448114649E+04  0.24989472138E+04 0.  0.
        3    1    3    3  502    0  0.10748487551E+04 -0.10058578688E+03  0.12326911347E+03  0.10865599990E+04  0.10100000352E+00 0. -1.
       -3    1    3    3    0  502 -0.10748487551E+04  0.10058578688E+03 -0.12587217989E+04  0.16582514659E+04  0.10100000352E+00 0.  1.
</event>
<event>
 5   0  0.3814260E-06  0.2497446E+04  0.7818609E-02  0.8403896E-01
        2   -1    0    0  501    0  0.00000000000E+00  0.00000000000E+00  0.21878263689E+04  0.21878263689E+04  0.25500000920E-02 0.  1.
       -2   -1    0    0    0  501  0.00000000000E+00  0.00000000000E+00 -0.71272050729E+03  0.71272050729E+03  0.25500000920E-02 0. -1.
    10030    2    1    2    0    0  0.00000000000E+00  0.00000000000E+00  0.14751058616E+04  0.29005468762E+04  0.24974456707E+04 0.  0.
        5    1    3    3  502    0 -0.12054403848E+04  0.27685133406E+03  0.53789438145E+03  0.13487348286E+04  0.46999998093E+01 0. -1.
       -5    1    3    3    0  502  0.12054403848E+04 -0.27685133406E+03  0.93721148016E+03  0.15518120476E+04  0.46999998093E+01 0.  1.
</event>
<event>
 5   0  0.3808293E-06  0.2484488E+04  0.7818609E-02  0.8408533E-01
        2   -1    0    0  501    0  0.00000000000E+00  0.00000000000E+00  0.97573723863E+03  0.97573723864E+03  0.25500000920E-02 0.  1.
       -2   -1    0    0    0  501  0.00000000000E+00  0.00000000000E+00 -0.15815431010E+04  0.15815431010E+04  0.25500000920E-02 0. -1.
    10030    2    1    2    0    0  0.00000000000E+00  0.00000000000E+00 -0.60580586237E+03  0.25572803396E+04  0.24844882758E+04 0.  0.
        1    1    3    3  502    0  0.97138050176E+03 -0.77432723485E+03 -0.30003706074E+03  0.12779612606E+04  0.50400001928E-02 0.  1.
       -1    1    3    3    0  502 -0.97138050176E+03  0.77432723485E+03 -0.30576880163E+03  0.12793190790E+04  0.50400001928E-02 0. -1.
</event>
<event>
 5   0  0.1519145E-06  0.2495034E+04  0.7818609E-02  0.8404757E-01
        1   -1    0    0  501    0  0.00000000000E+00  0.00000000000E+00  0.15671501612E+04  0.15671501612E+04  0.50400001928E-02 0. -1.
       -1   -1    0    0    0  501  0.00000000000E+00  0.00000000000E+00 -0.99307583560E+03  0.99307583561E+03  0.50400001928E-02 0.  1.
    10030    2    1    2    0    0  0.00000000000E+00  0.00000000000E+00  0.57407432556E+03  0.25602259968E+04  0.24950342329E+04 0.  0.
        4    1    3    3  502    0  0.32954698301E+03 -0.76905983065E+03 -0.66247457603E+03  0.10672058911E+04  0.12699999809E+01 0.  1.
       -4    1    3    3    0  502 -0.32954698301E+03  0.76905983065E+03  0.12365489016E+04  0.14930201057E+04  0.12699999809E+01 0. -1.
</event>
<event>
 5   0  0.1541852E-06  0.2525208E+04  0.7818609E-02  0.8394060E-01
       -1   -1    0    0    0  501  0.00000000000E+00  0.00000000000E+00  0.18795885345E+04  0.18795885345E+04  0.50400001928E-02 0.  1.
        1   -1    0    0  501    0  0.00000000000E+00  0.00000000000E+00 -0.84814785741E+03  0.84814785742E+03  0.50400001928E-02 0. -1.
    10030    2    1    2    0    0  0.00000000000E+00  0.00000000000E+00  0.10314406771E+04  0.27277363920E+04  0.25252081011E+04 0.  0.
        5    1    3    3  502    0  0.58975525545E+01 -0.78872997575E+03  0.15807021389E+04  0.17665704338E+04  0.46999998093E+01 0.  1.
       -5    1    3    3    0  502 -0.58975525545E+01  0.78872997575E+03 -0.54926146174E+03  0.96116595816E+03  0.46999998093E+01 0. -1.
</event>
<event>
 5   0  0.1574896E-06  0.2501625E+04  0.7818609E-02  0.8402407E-01
        1   -1    0    0  501    0  0.00000000000E+00  0.00000000000E+00  0.96518690647E+03  0.96518690648E+03  0.50400001928E-02 0. -1.
       -1   -1    0    0    0  501  0.00000000000E+00  0.00000000000E+00 -0.16209623179E+04  0.16209623179E+04  0.50400001928E-02 0.  1.
    10030    2    1    2    0    0  0.00000000000E+00  0.00000000000E+00 -0.65577541142E+03  0.25861492244E+04  0.25016247561E+04 0.  0.
        3    1    3    3  502    0  0.20606948072E+03 -0.10059477244E+04  0.41048300396E+03  0.11058443660E+04  0.10100000352E+00 0. -1.
       -3    1    3    3    0  502 -0.20606948072E+03  0.10059477244E+04 -0.10662584154E+04  0.14803048584E+04  0.10100000352E+00 0.  1.
</event>
<event>
 5   0  0.3924441E-06  0.2499021E+04  0.7818609E-02  0.8403335E-01
        2   -1    0    0  501    0  0.00000000000E+00  0.00000000000E+00  0.17376860858E+04  0.17376860858E+04  0.25500000920E-02 0. -1.
       -2   -1    0    0    0  501  0.00000000000E+00  0.00000000000E+00 -0.89847986334E+03  0.89847986334E+03  0.25500000920E-02 0.  1.
    10030    2    1    2    0    0  0.00000000000E+00  0.00000000000E+00  0.83920622246E+03  0.26361659491E+04  0.24990205737E+04 0.  0.
        2    1    3    3  502    0 -0.10334862625E+04 -0.52592474798E+03  0.91053061584E+03  0.14743665412E+04  0.25500000920E-02 0. -1.
       -2    1    3    3    0  502  0.10334862625E+04  0.52592474798E+03 -0.71324393380E+02  0.11617994080E+04  0.25500000920E-02 0.  1.
</event>
<event>
 5   0  0.1574896E-06  0.2502346E+04  0.7818609E-02  0.8402150E-01
       -1   -1    0    0    0  501  0.00000000000E+00  0.00000000000E+00  0.84418317259E+03  0.84418317260E+03  0.50400001928E-02 0.  1.
        1   -1    0    0  501    0  0.00000000000E+00  0.00000000000E+00 -0.18543763425E+04  0.18543763425E+04  0.50400001928E-02 0. -1.
    10030    2    1    2    0    0  0.00000000000E+00  0.00000000000E+00 -0.10101931699E+04  0.26985595151E+04  0.25023455429E+04 0.  0.
        3    1    3    3  502    0 -0.86675853400E+03  0.43263122105E+03 -0.13590144967E+04  0.16689399456E+04  0.10100000352E+00 0. -1.
       -3    1    3    3    0  502  0.86675853400E+03 -0.43263122105E+03  0.34882132676E+03  0.10296195695E+04  0.10100000352E+00 0.  1.
</event>
<event>
 5   0  0.1501747E-06  0.2500334E+04  0.7818609E-02  0.8402867E-01
       -1   -1    0    0    0  501  0.00000000000E+00  0.00000000000E+00  0.10939992842E+04  0.10939992842E+04  0.50400001928E-02 0. -1.
        1   -1    0    0  501    0  0.00000000000E+00  0.00000000000E+00 -0.14286275140E+04  0.14286275141E+04  0.50400001928E-02 0.  1.
    10030    2    1    2    0    0  0.00000000000E+00  0.00000000000E+00 -0.33462822984E+03  0.25226267983E+04  0.25003339599E+04 0.  0.
        2    1    3    3  502    0 -0.70157510975E+03 -0.41301394959E+03 -0.11245245836E+04  0.13882880451E+04  0.25500000920E-02 0.  1.
       -2    1    3    3    0  502  0.70157510975E+03  0.41301394959E+03  0.78989635374E+03  0.11343387531E+04  0.25500000920E-02 0. -1.
</event>
<event>
 5   0  0.1519145E-06  0.2499416E+04  0.7818609E-02  0.8403194E-01
       -1   -1    0    0    0  501  0.00000000000E+00  0.00000000000E+00  0.22939727457E+04  0.22939727457E+04  0.50400001928E-02 0. -1.
        1   -1    0    0  501    0  0.00000000000E+00  0.00000000000E+00 -0.68081469953E+03  0.68081469955E+03  0.50400001928E-02 0.  1.
    10030    2    1    2    0    0  0.00000000000E+00  0.00000000000E+00  0.16131580462E+04  0.29747874453E+04  0.24994162244E+04 0.  0.
        4    1    3    3  502    0 -0.10568923124E+04 -0.17957940584E+03  0.42165061894E+02  0.10728698096E+04  0.12699999809E+01 0.  1.
       -4    1    3    3    0  502  0.10568923124E+04  0.17957940584E+03  0.15709929843E+04  0.19019176356E+04  0.12699999809E+01 0. -1.
</event>
<event>
 5   0  0.3713394E-06  0.2498098E+04  0.7818609E-02  0.8403664E-01
       -2   -1    0    0    0  501  0.00000000000E+00  0.00000000000E+00  0.15757933384E+04  0.15757933384E+04  0.25500000920E-02 0. -1.
        2   -1    0    0  501    0  0.00000000000E+00  0.00000000000E+00 -0.99005549358E+03  0.99005549358E+03  0.25500000920E-02 0.  1.
    10030    2    1    2    0    0  0.00000000000E+00  0.00000000000E+00  0.58573784486E+03  0.25658488320E+04  0.24980975573E+04 0.  0.
        3    1    3    3  502    0 -0.38469474173E+03 -0.61548881236E+03 -0.75121693723E+03  0.10445781060E+04  0.10100000352E+00 0.  1.
       -3    1    3    3    0  502  0.38469474173E+03  0.61548881236E+03  0.13369547821E+04  0.15212707261E+04  0.10100000352E+00 0. -1.
</event>
<event>
 5   0  0.3713394E-06  0.2491628E+04  0.7818609E-02  0.8405974E-01
       -2   -1    0    0    0  501  0.00000000000E+00  0.00000000000E+00  0.98821283310E+03  0.98821283310E+03  0.25500000920E-02 0.  1.
        2   -1    0    0  501    0  0.00000000000E+00  0.00000000000E+00 -0.15705648853E+04  0.15705648853E+04  0.25500000920E-02 0. -1.
    10030    2    1    2    0    0  0.00000000000E+00  0.00000000000E+00 -0.58235205220E+03  0.25587777184E+04  0.24916278814E+04 0.  0.
        3    1    3    3  502    0 -0.98228603015E+03  0.75198268438E+03 -0.44241536060E+03  0.13138094094E+04  0.10100000352E+00 0.  1.
       -3    1    3    3    0  502  0.98228603015E+03 -0.75198268438E+03 -0.13993669159E+03  0.12449683090E+04  0.10100000352E+00 0. -1.
</event>
<event>
 5   0  0.1501747E-06  0.2493823E+04  0.7818609E-02  0.8405190E-01
       -1   -1    0    0    0  501  0.00000000000E+00  0.00000000000E+00  0.96343798816E+03  0.96343798818E+03  0.50400001928E-02 0. -1.
        1   -1    0    0  501    0  0.00000000000E+00  0.00000000000E+00 -0.16137912757E+04  0.16137912757E+04  0.50400001928E-02 0.  1.
    10030    2    1    2    0    0  0.00000000000E+00  0.00000000000E+00 -0.65035328758E+03  0.25772292639E+04  0.24938226240E+04 0.  0.
        2    1    3    3  502    0  0.20871157179E+03 -0.11892453785E+04 -0.34401597416E+01  0.12074257432E+04  0.25500000920E-02 0. -1.
       -2    1    3    3    0  502 -0.20871157179E+03  0.11892453785E+04 -0.64691312784E+03  0.13698035208E+04  0.25500000920E-02 0.  1.
</event>
<event>
 5   0  0.1541852E-06  0.2499736E+04  0.7818609E-02  0.8403080E-01
       -1   -1    0    0    0  501  0.00000000000E+00  0.00000000000E+00  0.10362961566E+04  0.10362961566E+04  0.50400001928E-02 0. -1.
        1   -1    0    0  501    0  0.00000000000E+00  0.00000000000E+00 -0.15074546713E+04  0.15074546713E+04  0.50400001928E-02 0.  1.
    10030    2    1    2    0    0  0.00000000000E+00  0.00000000000E+00 -0.47115851476E+03  0.25437508279E+04  0.24997355717E+04 0.  0.
        5    1    3    3  502    0 -0.70401086974E+03  0.59240190777E+03 -0.10963914327E+04  0.14313167325E+04  0.46999998093E+01 0. -1.
       -5    1    3    3    0  502  0.70401086974E+03 -0.59240190777E+03  0.62523291792E+03  0.11124340954E+04  0.46999998093E+01 0.  1.
</event>
<event>
 5   0  0.3814260E-06  0.2496830E+04  0.7818609E-02  0.8404116E-01
       -2   -1    0    0    0  501  0.00000000000E+00  0.00000000000E+00  0.13346643091E+04  0.13346643091E+04  0.25500000920E-02 0. -1.
        2   -1    0    0  501    0  0.00000000000E+00  0.00000000000E+00 -0.11677395551E+04  0.11677395551E+04  0.25500000920E-02 0.  1.
    10030    2    1    2    0    0  0.00000000000E+00  0.00000000000E+00  0.16692475407E+03  0.25024038642E+04  0.24968302357E+04 0.  0.
        5    1    3    3  502    0  0.22271890386E+03 -0.36140132974E+03  0.12600948503E+04  0.13296900966E+04  0.46999998093E+01 0. -1.
       -5    1    3    3    0  502 -0.22271890386E+03  0.36140132974E+03 -0.10931700963E+04  0.11727137676E+04  0.46999998093E+01 0.  1.
</event>
<event>
 5   0  0.3808293E-06  0.2498628E+04  0.7818609E-02  0.8403474E-01
       -2   -1    0    0    0  501  0.00000000000E+00  0.00000000000E+00  0.10712599974E+04  0.10712599974E+04  0.25500000920E-02 0.  1.
        2   -1    0    0  501    0  0.00000000000E+00  0.00000000000E+00 -0.14569624474E+04  0.14569624474E+04  0.25500000920E-02 0. -1.
    10030    2    1    2    0    0  0.00000000000E+00  0.00000000000E+00 -0.38570244997E+03  0.25282224448E+04  0.24986280936E+04 0.  0.
        1    1    3    3  502    0 -0.23072808380E+03 -0.80695881725E+03  0.74351077216E+03  0.11212610087E+04  0.50400001928E-02 0.  1.
       -1    1    3    3    0  502  0.23072808380E+03  0.80695881725E+03 -0.11292132221E+04  0.14069614360E+04  0.50400001928E-02 0. -1.
</event>
<event>
 5   0  0.1287375E-06  0.2496330E+04  0.7818609E-02  0.8404294E-01
        3   -1    0    0  501    0  0.00000000000E+00  0.00000000000E+00  0.62791955784E+03  0.62791956596E+03  0.10100000352E+00 0. -1.
       -3   -1    0    0    0  501  0.00000000000E+00  0.00000000000E+00 -0.24810747368E+04  0.24810747388E+04  0.10100000352E+00 0.  1.
    10030    2    1    2    0    0  0.00000000000E+00  0.00000000000E+00 -0.18531551789E+04  0.31089943048E+04  0.24963295996E+04 0.  0.
        4    1    3    3  502    0 -0.32309345779E+03  0.63230545685E+02 -0.24260243335E+04  0.24482612532E+04  0.12699999809E+01 0.  1.
       -4    1    3    3    0  502  0.32309345779E+03 -0.63230545685E+02  0.57286915453E+03  0.66073305161E+03  0.12699999809E+01 0. -1.
</event>
<event>
 5   0  0.1519145E-06  0.2503188E+04  0.7818609E-02  0.8401851E-01
       -1   -1    0    0    0  501  0.00000000000E+00  0.00000000000E+00  0.20258441323E+04  0.20258441323E+04  0.50400001928E-02 0.  1.
        1   -1    0    0  501    0  0.00000000000E+00  0.00000000000E+00 -0.77325169662E+03  0.77325169664E+03  0.50400001928E-02 0. -1.
    10030    2    1    2    0    0  0.00000000000E+00  0.00000000000E+00  0.12525924357E+04  0.27990958290E+04  0.25031878974E+04 0.  0.
        4    1    3    3  502    0  0.12215625350E+04  0.25952904039E+03  0.53330658435E+03  0.13579351514E+04  0.12699999809E+01 0. -1.
       -4    1    3    3    0  502 -0.12215625350E+04 -0.25952904039E+03  0.71928585133E+03  0.14411606775E+04  0.12699999809E+01 0.  1.
</event>
<event>
 5   0  0.3971759E-06  0.2509021E+04  0.7818609E-02  0.8399779E-01
        2   -1    0    0  501    0  0.00000000000E+00  0.00000000000E+00  0.19654506503E+04  0.19654506503E+04  0.25500000920E-02 0.  1.
       -2   -1    0    0    0  501  0.00000000000E+00  0.00000000000E+00 -0.80073084502E+03  0.80073084503E+03  0.25500000920E-02 0. -1.
    10030    2    1    2    0    0  0.00000000000E+00  0.00000000000E+00  0.11647198053E+04  0.27661814953E+04  0.25090212913E+04 0.  0.
        4    1    3    3  502    0  0.30090807248E+03 -0.12150290368E+04  0.49042141028E+03  0.13443794111E+04  0.12699999809E+01 0. -1.
       -4    1    3    3    0  502 -0.30090807248E+03  0.12150290368E+04  0.67429839497E+03  0.14218020842E+04  0.12699999809E+01 0.  1.
</event>
<event>
 5   0  0.3713394E-06  0.2486316E+04  0.7818609E-02  0.8407877E-01
        2   -1    0    0  501    0  0.00000000000E+00  0.00000000000E+00  0.14715566116E+04  0.14715566116E+04  0.25500000920E-02 0.  1.
       -2   -1    0    0    0  501  0.00000000000E+00  0.00000000000E+00 -0.10502087670E+04  0.10502087670E+04  0.25500000920E-02 0. -1.
    10030    2    1    2    0    0  0.00000000000E+00  0.00000000000E+00  0.42134784462E+03  0.25217653786E+04  0.24863158726E+04 0.  0.
        3    1    3    3  502    0 -0.82777251414E+03 -0.53791594992E+03 -0.55566533041E+03  0.11328392975E+04  0.10100000352E+00 0. -1.
       -3    1    3    3    0  502  0.82777251414E+03  0.53791594992E+03  0.97701317504E+03  0.13889260811E+04  0.10100000352E+00 0.  1.
</event>
<event>
 5   0  0.3814260E-06  0.2494779E+04  0.7818609E-02  0.8404848E-01
       -2   -1    0    0    0  501  0.00000000000E+00  0.00000000000E+00  0.14023394913E+04  0.14023394913E+04  0.25500000920E-02 0. -1.
        2   -1    0    0  501    0  0.00000000000E+00  0.00000000000E+00 -0.11095602677E+04  0.11095602677E+04  0.25500000920E-02 0.  1.
    10030    2    1    2    0    0  0.00000000000E+00  0.00000000000E+00  0.29277922361E+03  0.25118997590E+04  0.24947786927E+04 0.  0.
        5    1    3    3  502    0 -0.63519127198E+03  0.48357673296E+03  0.11114263002E+04  0.13684315545E+04  0.46999998093E+01 0. -1.
       -5    1    3    3    0  502  0.63519127198E+03 -0.48357673296E+03 -0.81864707658E+03  0.11434682045E+04  0.46999998093E+01 0.  1.
</event>
<event>
 5   0  0.3814260E-06  0.2500036E+04  0.7818609E-02  0.8402973E-01
       -2   -1    0    0    0  501  0.00000000000E+00  0.00000000000E+00  0.83160206073E+03  0.83160206074E+03  0.25500000920E-02 0. -1.
        2   -1    0    0  501    0  0.00000000000E+00  0.00000000000E+00 -0.18789582684E+04  0.18789582684E+04  0.25500000920E-02 0.  1.
    10030    2    1    2    0    0  0.00000000000E+00  0.00000000000E+00 -0.10473562077E+04  0.27105603292E+04  0.25000364542E+04 0.  0.
        5    1    3    3  502    0  0.91047240100E+03  0.10898173466E+03  0.39737997692E+03  0.99938478452E+03  0.46999998093E+01 0. -1.
       -5    1    3    3    0  502 -0.91047240100E+03 -0.10898173466E+03 -0.14447361846E+04  0.17111755447E+04  0.46999998093E+01 0.  1.
</event>
<event>
 5   0  0.3814260E-06  0.2501144E+04  0.7818609E-02  0.8402578E-01
       -2   -1    0    0    0  501  0.00000000000E+00  0.00000000000E+00  0.10931315636E+04  0.10931315636E+04  0.25500000920E-02 0.  1.
        2   -1    0    0  501    0  0.00000000000E+00  0.00000000000E+00 -0.14306878927E+04  0.14306878927E+04  0.25500000920E-02 0. -1.
    10030    2    1    2    0    0  0.00000000000E+00  0.00000000000E+00 -0.33755632915E+03  0.25238194563E+04  0.25011438129E+04 0.  0.
        5    1    3    3  502    0 -0.75180024567E+03 -0.90610664428E+03 -0.59411496224E+03  0.13187977626E+04  0.46999998093E+01 0. -1.
       -5    1    3    3    0  502  0.75180024567E+03  0.90610664428E+03  0.25655863309E+03  0.12050216938E+04  0.46999998093E+01 0.  1.
</event>
<event>
 5   0  0.1541852E-06  0.2499433E+04  0.7818609E-02  0.8403188E-01
        1   -1    0    0  501    0  0.00000000000E+00  0.00000000000E+00  0.14004701563E+04  0.14004701563E+04  0.50400001928E-02 0.  1.
       -1   -1    0    0    0  501  0.00000000000E+00  0.00000000000E+00 -0.11151904371E+04  0.11151904371E+04  0.50400001928E-02 0. -1.
    10030    2    1    2    0    0  0.00000000000E+00  0.00000000000E+00  0.28527971917E+03  0.25156605934E+04  0.24994326762E+04 0.  0.
        5    1    3    3  502    0  0.21818181608E+03  0.73222547774E+03 -0.85272558094E+03  0.11449543491E+04  0.46999998093E+01 0. -1.
       -5    1    3    3    0  502 -0.21818181608E+03 -0.73222547774E+03  0.11380053001E+04  0.13707062443E+04  0.46999998093E+01 0.  1.
</event>
<event>
 5   0  0.3808293E-06  0.2500899E+04  0.7818609E-02  0.8402665E-01
        2   -1    0    0  501    0  0.00000000000E+00  0.00000000000E+00  0.13314201403E+04  0.13314201403E+04  0.25500000920E-02 0. -1.
       -2   -1    0    0    0  501  0.00000000000E+00  0.00000000000E+00 -0.11744031006E+04  0.11744031006E+04  0.25500000920E-02 0.  1.
    10030    2    1    2    0    0  0.00000000000E+00  0.00000000000E+00  0.15701703973E+03  0.25058232409E+04  0.25008989911E+04 0.  0.
        1    1    3    3  502    0 -0.33910881192E+03  0.24042367532E+03 -0.11031462739E+04  0.11788681146E+04  0.50400001928E-02 0.  1.
       -1    1    3    3    0  502  0.33910881192E+03 -0.24042367532E+03  0.12601633137E+04  0.13269551263E+04  0.50400001928E-02 0. -1.
</event>
<event>
 5   0  0.1501747E-06  0.2503183E+04  0.7818609E-02  0.8401852E-01
       -1   -1    0    0    0  501  0.00000000000E+00  0.00000000000E+00  0.21719648755E+04  0.21719648755E+04  0.50400001928E-02 0. -1.
        1   -1    0    0  501    0  0.00000000000E+00  0.00000000000E+00 -0.72122785924E+03  0.72122785926E+03  0.50400001928E-02 0.  1.
    10030    2    1    2    0    0  0.00000000000E+00  0.00000000000E+00  0.14507370163E+04  0.28931927348E+04  0.25031832354E+04 0.  0.
        2    1    3    3  502    0  0.11449193409E+04  0.50559310944E+03  0.72061872715E+03  0.14442146792E+04  0.25500000920E-02 0.  1.
       -2    1    3    3    0  502 -0.11449193409E+04 -0.50559310944E+03  0.73011828912E+03  0.14489780556E+04  0.25500000920E-02 0. -1.
</event>
<event>
 5   0  0.1519145E-06  0.2507123E+04  0.7818609E-02  0.8400452E-01
        1   -1    0    0  501    0  0.00000000000E+00  0.00000000000E+00  0.10143689915E+04  0.10143689916E+04  0.50400001928E-02 0. -1.
       -1   -1    0    0    0  501  0.00000000000E+00  0.00000000000E+00 -0.15491565374E+04  0.15491565374E+04  0.50400001928E-02 0.  1.
    10030    2    1    2    0    0  0.00000000000E+00  0.00000000000E+00 -0.53478754582E+03  0.25635255289E+04  0.25071229364E+04 0.  0.
        4    1    3    3  502    0  0.66014639414E+03 -0.32180683139E+03  0.77136541367E+03  0.10650629619E+04  0.12699999809E+01 0. -1.
       -4    1    3    3    0  502 -0.66014639414E+03  0.32180683139E+03 -0.13061529595E+04  0.14984625671E+04  0.12699999809E+01 0.  1.
</event>
<event>
 5   0  0.1574896E-06  0.2500004E+04  0.7818609E-02  0.8402984E-01
       -1   -1    0    0    0  501  0.00000000000E+00  0.00000000000E+00  0.85815707516E+03  0.85815707518E+03  0.50400001928E-02 0.  1.
        1   -1    0    0  501    0  0.00000000000E+00  0.00000000000E+00 -0.18207686476E+04  0.18207686476E+04  0.50400001928E-02 0. -1.
    10030    2    1    2    0    0  0.00000000000E+00  0.00000000000E+00 -0.96261157240E+03  0.26789257227E+04  0.25000043977E+04 0.  0.
        3    1    3    3  502    0  0.13233287964E+03 -0.62029471035E+03  0.67292210569E+03  0.92471708605E+03  0.10100000352E+00 0.  1.
       -3    1    3    3    0  502 -0.13233287964E+03  0.62029471035E+03 -0.16355336781E+04  0.17542086367E+04  0.10100000352E+00 0. -1.
</event>
<event>
 5   0  0.3808293E-06  0.2478333E+04  0.7818609E-02  0.8410745E-01
        2   -1    0    0  501    0  0.00000000000E+00  0.00000000000E+00  0.24230654836E+04  0.24230654836E+04  0.25500000920E-02 0. -1.
       -2   -1    0    0    0  501  0.00000000000E+00  0.00000000000E+00 -0.63371520502E+03  0.63371520503E+03  0.25500000920E-02 0.  1.
    10030    2    1    2    0    0  0.00000000000E+00  0.00000000000E+00  0.17893502786E+04  0.30567806887E+04  0.24783328588E+04 0.  0.
        1    1    3    3  502    0 -0.10488939527E+04  0.11753739286E+03  0.16954749804E+04  0.19971552198E+04  0.50400001928E-02 0. -1.
       -1    1    3    3    0  502  0.10488939527E+04 -0.11753739286E+03  0.93875298209E+02  0.10596254689E+04  0.50400001928E-02 0.  1.
</event>
<event>
 5   0  0.1519145E-06  0.2500825E+04  0.7818609E-02  0.8402692E-01
       -1   -1    0    0    0  501  0.00000000000E+00  0.00000000000E+00  0.10780919584E+04  0.10780919584E+04  0.50400001928E-02 0. -1.
        1   -1    0    0  501    0  0.00000000000E+00  0.00000000000E+00 -0.14502760327E+04  0.14502760327E+04  0.50400001928E-02 0.  1.
    10030    2    1    2    0    0  0.00000000000E+00  0.00000000000E+00 -0.37218407431E+03  0.25283679910E+04  0.25008246066E+04 0.  0.
        4    1    3    3  502    0  0.63058938964E+02  0.54517384347E+03 -0.13220046990E+04  0.14313940710E+04  0.12699999809E+01 0.  1.
       -4    1    3    3    0  502 -0.63058938964E+02 -0.54517384347E+03  0.94982062466E+03  0.10969739201E+04  0.12699999809E+01 0. -1.
</event>
<event>
 5   0  0.1519145E-06  0.2503379E+04  0.7818609E-02  0.8401783E-01
        1   -1    0    0  501    0  0.00000000000E+00  0.00000000000E+00  0.86564617850E+03  0.86564617852E+03  0.50400001928E-02 0.  1.
       -1   -1    0    0    0  501  0.00000000000E+00  0.00000000000E+00 -0.18098921772E+04  0.18098921772E+04  0.50400001928E-02 0. -1.
    10030    2    1    2    0    0  0.00000000000E+00  0.00000000000E+00 -0.94424599868E+03  0.26755383557E+04  0.25033787142E+04 0.  0.
        4    1    3    3  502    0 -0.70278156951E+03  0.25800178977E+03  0.59998676345E+03  0.95940220303E+03  0.12699999809E+01 0.  1.
       -4    1    3    3    0  502  0.70278156951E+03 -0.25800178977E+03 -0.15442327621E+04  0.17161361527E+04  0.12699999809E+01 0. -1.
</event>
<event>
 5   0  0.1541852E-06  0.2549156E+04  0.7818609E-02  0.8385680E-01
        1   -1    0    0  501    0  0.00000000000E+00  0.00000000000E+00  0.13368233301E+04  0.13368233301E+04  0.50400001928E-02 0.  1.
       -1   -1    0    0    0  501  0.00000000000E+00  0.00000000000E+00 -0.12152312564E+04  0.12152312564E+04  0.50400001928E-02 0. -1.
    10030    2    1    2    0    0  0.00000000000E+00  0.00000000000E+00  0.12159207369E+03  0.25520545865E+04  0.25491563271E+04 0.  0.
        5    1    3    3  502    0  0.46507121549E+03  0.10899683403E+04 -0.40899774264E+03  0.12536440730E+04  0.46999998093E+01 0. -1.
       -5    1    3    3    0  502 -0.46507121549E+03 -0.10899683403E+04  0.53058981634E+03  0.12984105135E+04  0.46999998093E+01 0.  1.
</event>
<event>
 5   0  0.3924441E-06  0.2502271E+04  0.7818609E-02  0.8402177E-01
       -2   -1    0    0    0  501  0.00000000000E+00  0.00000000000E+00  0.10583085188E+04  0.10583085188E+04  0.25500000920E-02 0.  1.
        2   -1    0    0  501    0  0.00000000000E+00  0.00000000000E+00 -0.14790964706E+04  0.14790964706E+04  0.25500000920E-02 0. -1.
    10030    2    1    2    0    0  0.00000000000E+00  0.00000000000E+00 -0.42078795183E+03  0.25374049894E+04  0.25022712842E+04 0.  0.
        2    1    3    3  502    0  0.13815498090E+03  0.11489247177E+04  0.27191601855E+03  0.11887191118E+04  0.25500000920E-02 0.  1.
       -2    1    3    3    0  502 -0.13815498090E+03 -0.11489247177E+04 -0.69270397038E+03  0.13486858775E+04  0.25500000920E-02 0. -1.
</event>
<event>
 5   0  0.3971759E-06  0.2500691E+04  0.7818609E-02  0.8402739E-01
        2   -1    0    0  501    0  0.00000000000E+00  0.00000000000E+00  0.15949632869E+04  0.15949632869E+04  0.25500000920E-02 0. -1.
       -2   -1    0    0    0  501  0.00000000000E+00  0.00000000000E+00 -0.98018786087E+03  0.98018786087E+03  0.25500000920E-02 0.  1.
    10030    2    1    2    0    0  0.00000000000E+00  0.00000000000E+00  0.61477542601E+03  0.25751511478E+04  0.25006908264E+04 0.  0.
        4    1    3    3  502    0  0.58005877583E+03  0.59439723852E+03  0.12698761079E+04  0.15173540137E+04  0.12699999809E+01 0. -1.
       -4    1    3    3    0  502 -0.58005877583E+03 -0.59439723852E+03 -0.65510068186E+03  0.10577971341E+04  0.12699999809E+01 0.  1.
</event>
<event>
 5   0  0.3814260E-06  0.2495094E+04  0.7818609E-02  0.8404735E-01
        2   -1    0    0  501    0  0.00000000000E+00  0.00000000000E+00  0.19562207870E+04  0.19562207870E+04  0.25500000920E-02 0.  1.
       -2   -1    0    0    0  501  0.00000000000E+00  0.00000000000E+00 -0.79560205479E+03  0.79560205479E+03  0.25500000920E-02 0. -1.
    10030    2    1    2    0    0  0.00000000000E+00  0.00000000000E+00  0.11606187322E+04  0.27518228418E+04  0.24950938081E+04 0.  0.
        5    1    3    3  502    0  0.70014970847E+03  0.97634641199E+03  0.95087052911E+03  0.15322006343E+04  0.46999998093E+01 0.  1.
       -5    1    3    3    0  502 -0.70014970847E+03 -0.97634641199E+03  0.20974820314E+03  0.12196222076E+04  0.46999998093E+01 0. -1.
</event>
<event>
 5   0  0.3713394E-06  0.2527540E+04  0.7818609E-02  0.8393240E-01
        2   -1    0    0  501    0  0.00000000000E+00  0.00000000000E+00  0.21603972925E+04  0.21603972925E+04  0.25500000920E-02 0.  1.
       -2   -1    0    0    0  501  0.00000000000E+00  0.00000000000E+00 -0.73926868288E+03  0.73926868288E+03  0.25500000920E-02 0. -1.
    10030    2    1    2    0    0  0.00000000000E+00  0.00000000000E+00  0.14211286096E+04  0.28996659754E+04  0.25275395633E+04 0.  0.
        3    1    3    3  502    0 -0.12015607157E+04  0.12256786314E+03  0.28385842199E+03  0.12407040938E+04  0.10100000352E+00 0. -1.
       -3    1    3    3    0  502  0.12015607157E+04 -0.12256786314E+03  0.11372701876E+04  0.16589618816E+04  0.10100000352E+00 0.  1.
</event>
<event>
 5   0  0.3814260E-06  0.2496830E+04  0.7818609E-02  0.8404116E-01
        2   -1    0    0  501    0  0.00000000000E+00  0.00000000000E+00  0.10752947922E+04  0.10752947922E+04  0.25500000920E-02 0.  1.
       -2   -1    0    0    0  501  0.00000000000E+00  0.00000000000E+00 -0.14494070556E+04  0.14494070556E+04  0.25500000920E-02 0. -1.
    10030    2    1    2    0    0  0.00000000000E+00  0.00000000000E+00 -0.37411226348E+03  0.25247018478E+04  0.24968298770E+04 0.  0.
        5    1    3    3  502    0  0.50614785370E+03 -0.86780189982E+03  0.56233226033E+03  0.11513059750E+04  0.46999998093E+01 0.  1.
       -5    1    3    3    0  502 -0.50614785370E+03  0.86780189982E+03 -0.93644452382E+03  0.13733958728E+04  0.46999998093E+01 0. -1.
</event>
<event>
 5   0  0.3924441E-06  0.2502266E+04  0.7818609E-02  0.8402179E-01
       -2   -1    0    0    0  501  0.00000000000E+00  0.00000000000E+00  0.81137460345E+03  0.81137460345E+03  0.25500000920E-02 0.  1.
        2   -1    0    0  501    0  0.00000000000E+00  0.00000000000E+00 -0.19292366610E+04  0.19292366610E+04  0.25500000920E-02 0. -1.
    10030    2    1    2    0    0  0.00000000000E+00  0.00000000000E+00 -0.11178620576E+04  0.27406112645E+04  0.25022658778E+04 0.  0.
        2    1    3    3  502    0 -0.90599558153E+03  0.86871042648E+01  0.38605626265E+03  0.98485679034E+03  0.25500000920E-02 0.  1.
       -2    1    3    3    0  502  0.90599558153E+03 -0.86871042648E+01 -0.15039183202E+04  0.17557544741E+04  0.25500000920E-02 0. -1.
</event>
<event>
 5   0  0.1553604E-06  0.2501336E+04  0.7818609E-02  0.8402510E-01
        1   -1    0    0  501    0  0.00000000000E+00  0.00000000000E+00  0.11782219634E+04  0.11782219634E+04  0.50400001928E-02 0.  1.
       -1   -1    0    0    0  501  0.00000000000E+00  0.00000000000E+00 -0.13275687658E+04  0.13275687658E+04  0.50400001928E-02 0. -1.
    10030    2    1    2    0    0  0.00000000000E+00  0.00000000000E+00 -0.14934680238E+03  0.25057907291E+04  0.25013361851E+04 0.  0.
        1    1    3    3  502    0 -0.10609914604E+04 -0.30383380264E+03  0.51472189934E+03  0.12177670107E+04  0.50400001928E-02 0.  1.
       -1    1    3    3    0  502  0.10609914604E+04  0.30383380264E+03 -0.66406870172E+03  0.12880237184E+04  0.50400001928E-02 0. -1.
</event>
<event>
 5   0  0.1519145E-06  0.2500662E+04  0.7818609E-02  0.8402750E-01
        1   -1    0    0  501    0  0.00000000000E+00  0.00000000000E+00  0.17610007347E+04  0.17610007347E+04  0.50400001928E-02 0. -1.
       -1   -1    0    0    0  501  0.00000000000E+00  0.00000000000E+00 -0.88774955162E+03  0.88774955163E+03  0.50400001928E-02 0.  1.
    10030    2    1    2    0    0  0.00000000000E+00  0.00000000000E+00  0.87325118304E+03  0.26487502863E+04  0.25006620024E+04 0.  0.
        4    1    3    3  502    0 -0.34176996353E+03 -0.15981474125E+03 -0.82601509958E+03  0.90810242656E+03  0.12699999809E+01 0.  1.
       -4    1    3    3    0  502  0.34176996353E+03  0.15981474125E+03  0.16992662826E+04  0.17406478597E+04  0.12699999809E+01 0. -1.
</event>
<event>
 5   0  0.3808293E-06  0.2498322E+04  0.7818609E-02  0.8403584E-01
        2   -1    0    0  501    0  0.00000000000E+00  0.00000000000E+00  0.25933906860E+04  0.25933906860E+04  0.25500000920E-02 0. -1.
       -2   -1    0    0    0  501  0.00000000000E+00  0.00000000000E+00 -0.60168438735E+03  0.60168438735E+03  0.25500000920E-02 0.  1.
    10030    2    1    2    0    0  0.00000000000E+00  0.00000000000E+00  0.19917062987E+04  0.31950750734E+04  0.24983215855E+04 0.  0.
        1    1    3    3  502    0 -0.96727996664E+03  0.20170366091E+03  0.19732519210E+04  0.22068162688E+04  0.50400001928E-02 0. -1.
       -1    1    3    3    0  502  0.96727996664E+03 -0.20170366091E+03  0.18454377699E+02  0.98825880455E+03  0.50400001928E-02 0.  1.
</event>
<event>
 5   0  0.3971759E-06  0.2501551E+04  0.7818609E-02  0.8402433E-01
       -2   -1    0    0    0  501  0.00000000000E+00  0.00000000000E+00  0.10299154017E+04  0.10299154017E+04  0.25500000920E-02 0. -1.
        2   -1    0    0  501    0  0.00000000000E+00  0.00000000000E+00 -0.15189984775E+04  0.15189984775E+04  0.25500000920E-02 0.  1.
    10030    2    1    2    0    0  0.00000000000E+00  0.00000000000E+00 -0.48908307579E+03  0.25489138792E+04  0.25015514603E+04 0.  0.
        4    1    3    3  502    0 -0.10098183778E+04  0.45360605457E+03 -0.83775558870E+03  0.13882822653E+04  0.12699999809E+01 0.  1.
       -4    1    3    3    0  502  0.10098183778E+04 -0.45360605457E+03  0.34867251292E+03  0.11606316139E+04  0.12699999809E+01 0. -1.
</event>
<event>
 5   0  0.1501747E-06  0.2501156E+04  0.7818609E-02  0.8402574E-01
       -1   -1    0    0    0  501  0.00000000000E+00  0.00000000000E+00  0.19776131519E+04  0.19776131519E+04  0.50400001928E-02 0.  1.
        1   -1    0    0  501    0  0.00000000000E+00  0.00000000000E+00 -0.79082452056E+03  0.79082452058E+03  0.50400001928E-02 0. -1.
    10030    2    1    2    0    0  0.00000000000E+00  0.00000000000E+00  0.11867886313E+04  0.27684376725E+04  0.25011557110E+04 0.  0.
        2    1    3    3  502    0  0.29089100585E+03 -0.16681755343E+03  0.19269232272E+04  0.19558831245E+04  0.25500000920E-02 0.  1.
       -2    1    3    3    0  502 -0.29089100585E+03  0.16681755343E+03 -0.74013459584E+03  0.81255454794E+03  0.25500000920E-02 0. -1.
</event>
<event>
 5   0  0.1501747E-06  0.2500958E+04  0.7818609E-02  0.8402644E-01
       -1   -1    0    0    0  501  0.00000000000E+00  0.00000000000E+00  0.83595438602E+03  0.83595438604E+03  0.50400001928E-02 0. -1.
        1   -1    0    0  501    0  0.00000000000E+00  0.00000000000E+00 -0.18705546250E+04  0.18705546250E+04  0.50400001928E-02 0.  1.
    10030    2    1    2    0    0  0.00000000000E+00  0.00000000000E+00 -0.10346002390E+04  0.27065090111E+04  0.25009584908E+04 0.  0.
        2    1    3    3  502    0  0.10299755889E+04  0.20583503709E+03 -0.12516595006E+04  0.16339734642E+04  0.25500000920E-02 0.  1.
       -2    1    3    3    0  502 -0.10299755889E+04 -0.20583503709E+03  0.21705926161E+03  0.10725355469E+04  0.25500000920E-02 0. -1.
</event>
<event>
 5   0  0.3924441E-06  0.2492004E+04  0.7818609E-02  0.8405840E-01
        2   -1    0    0  501    0  0.00000000000E+00  0.00000000000E+00  0.22175854070E+04  0.22175854070E+04  0.25500000920E-02 0.  1.
       -2   -1    0    0    0  501  0.00000000000E+00  0.00000000000E+00 -0.70009505987E+03  0.70009505988E+03  0.25500000920E-02 0. -1.
    10030    2    1    2    0    0  0.00000000000E+00  0.00000000000E+00  0.15174903472E+04  0.29176804669E+04  0.24920036824E+04 0.  0.
        2    1    3    3  502    0 -0.11310444935E+04  0.26006012024E+03  0.22782426161E+03  0.11827074053E+04  0.25500000920E-02 0. -1.
       -2    1    3    3    0  502  0.11310444935E+04 -0.26006012024E+03  0.12896660856E+04  0.17349730616E+04  0.25500000920E-02 0.  1.
</event>
<event>
 5   0  0.3713394E-06  0.2503485E+04  0.7818609E-02  0.8401745E-01
        2   -1    0    0  501    0  0.00000000000E+00  0.00000000000E+00  0.19525220656E+04  0.19525220656E+04  0.25500000920E-02 0. -1.
       -2   -1    0    0    0  501  0.00000000000E+00  0.00000000000E+00 -0.80247968533E+03  0.80247968534E+03  0.25500000920E-02 0.  1.
    10030    2    1    2    0    0  0.00000000000E+00  0.00000000000E+00  0.11500423803E+04  0.27550017510E+04  0.25034850052E+04 0.  0.
        3    1    3    3  502    0 -0.99798566015E+02 -0.62861967975E+03  0.17611470188E+04  0.18726348517E+04  0.10100000352E+00 0. -1.
       -3    1    3    3    0  502  0.99798566015E+02  0.62861967975E+03 -0.61110463853E+03  0.88236689930E+03  0.10100000352E+00 0.  1.
</event>
<event>
 5   0  0.3924441E-06  0.2500418E+04  0.7818609E-02  0.8402837E-01
        2   -1    0    0  501    0  0.00000000000E+00  0.00000000000E+00  0.19154023345E+04  0.19154023345E+04  0.25500000920E-02 0. -1.
       -2   -1    0    0    0  501  0.00000000000E+00  0.00000000000E+00 -0.81602830544E+03  0.81602830545E+03  0.25500000920E-02 0.  1.
    10030    2    1    2    0    0  0.00000000000E+00  0.00000000000E+00  0.10993740291E+04  0.27314306400E+04  0.25004179821E+04 0.  0.
        2    1    3    3  502    0  0.44969876343E+03  0.82154920284E+03  0.14543613655E+04  0.17298378687E+04  0.25500000920E-02 0. -1.
       -2    1    3    3    0  502 -0.44969876343E+03 -0.82154920284E+03 -0.35498733638E+03  0.10015927713E+04  0.25500000920E-02 0.  1.
</event>
<event>
 5   0  0.3808293E-06  0.2500557E+04  0.7818609E-02  0.8402787E-01
        2   -1    0    0  501    0  0.00000000000E+00  0.00000000000E+00  0.14091479854E+04  0.14091479854E+04  0.25500000920E-02 0. -1.
       -2   -1    0    0    0  501  0.00000000000E+00  0.00000000000E+00 -0.11093198141E+04  0.11093198141E+04  0.25500000920E-02 0.  1.
    10030    2    1    2    0    0  0.00000000000E+00  0.00000000000E+00  0.29982817129E+03  0.25184677995E+04  0.25005565630E+04 0.  0.
        1    1    3    3  502    0  0.26275133385E+03 -0.12207875932E+04  0.21228642568E+03  0.12666594403E+04  0.50400001928E-02 0. -1.
       -1    1    3    3    0  502 -0.26275133385E+03  0.12207875932E+04  0.87541745614E+02  0.12518083593E+04  0.50400001928E-02 0.  1.
</event>
<event>
 5   0  0.1541852E-06  0.2492125E+04  0.7818609E-02  0.8405797E-01
        1   -1    0    0  501    0  0.00000000000E+00  0.00000000000E+00  0.20400510415E+04  0.20400510415E+04  0.50400001928E-02 0.  1.
       -1   -1    0    0    0  501  0.00000000000E+00  0.00000000000E+00 -0.76109426024E+03  0.76109426026E+03  0.50400001928E-02 0. -1.
    10030    2    1    2    0    0  0.00000000000E+00  0.00000000000E+00  0.12789567813E+04  0.28011453018E+04  0.24921245060E+04 0.  0.
        5    1    3    3  502    0 -0.82172360288E+03  0.15034067251E+03 -0.39972962929E+03  0.92608739538E+03  0.46999998093E+01 0. -1.
       -5    1    3    3    0  502  0.82172360288E+03 -0.15034067251E+03  0.16786864106E+04  0.18750579064E+04  0.46999998093E+01 0.  1.
</event>
<event>
 5   0  0.3814260E-06  0.2453632E+04  0.7818609E-02  0.8419693E-01
       -2   -1    0    0    0  501  0.00000000000E+00  0.00000000000E+00  0.84322555210E+03  0.84322555210E+03  0.25500000920E-02 0.  1.
        2   -1    0    0  501    0  0.00000000000E+00  0.00000000000E+00 -0.17849044141E+04  0.17849044141E+04  0.25500000920E-02 0. -1.
    10030    2    1    2    0    0  0.00000000000E+00  0.00000000000E+00 -0.94167886201E+03  0.26281299662E+04  0.24536316024E+04 0.  0.
        5    1    3    3  502    0 -0.10332602174E+04  0.57143516833E+03 -0.82752361516E+03  0.14418676264E+04  0.46999998093E+01 0. -1.
       -5    1    3    3    0  502  0.10332602174E+04 -0.57143516833E+03 -0.11415524685E+03  0.11862623398E+04  0.46999998093E+01 0.  1.
</event>
<event>
 5   0  0.3971759E-06  0.2503436E+04  0.7818609E-02  0.8401763E-01
        2   -1    0    0  501    0  0.00000000000E+00  0.00000000000E+00  0.16470936939E+04  0.16470936939E+04  0.25500000920E-02 0. -1.
       -2   -1    0    0    0  501  0.00000000000E+00  0.00000000000E+00 -0.95124983382E+03  0.95124983383E+03  0.25500000920E-02 0.  1.
    10030    2    1    2    0    0  0.00000000000E+00  0.00000000000E+00  0.69584386012E+03  0.25983435278E+04  0.25034357213E+04 0.  0.
        4    1    3    3  502    0 -0.11331489743E+03 -0.11492132614E+04 -0.15336288038E+03  0.11649262518E+04  0.12699999809E+01 0.  1.
       -4    1    3    3    0  502  0.11331489743E+03  0.11492132614E+04  0.84920674050E+03  0.14334172760E+04  0.12699999809E+01 0. -1.
</event>
<event>
 5   0  0.3924441E-06  0.2500861E+04  0.7818609E-02  0.8402679E-01
        2   -1    0    0  501    0  0.00000000000E+00  0.00000000000E+00  0.14867079189E+04  0.14867079189E+04  0.25500000920E-02 0.  1.
       -2   -1    0    0    0  501  0.00000000000E+00  0.00000000000E+00 -0.10517034307E+04  0.10517034307E+04  0.25500000920E-02 0. -1.
    10030    2    1    2    0    0  0.00000000000E+00  0.00000000000E+00  0.43500448817E+03  0.25384113495E+04  0.25008605069E+04 0.  0.
        2    1    3    3  502    0 -0.24830062862E+03 -0.11771957620E+04  0.56340171367E+03  0.13284820492E+04  0.25500000920E-02 0.  1.
       -2    1    3    3    0  502  0.24830062862E+03  0.11771957620E+04 -0.12839722550E+03  0.12099293003E+04  0.25500000920E-02 0. -1.
</event>
<event>
 5   0  0.1541852E-06  0.2500999E+04  0.7818609E-02  0.8402630E-01
       -1   -1    0    0    0  501  0.00000000000E+00  0.00000000000E+00  0.75814825475E+03  0.75814825476E+03  0.50400001928E-02 0. -1.
        1   -1    0    0  501    0  0.00000000000E+00  0.00000000000E+00 -0.20625907305E+04  0.20625907305E+04  0.50400001928E-02 0.  1.
    10030    2    1    2    0    0  0.00000000000E+00  0.00000000000E+00 -0.13044424758E+04  0.28207389853E+04  0.25009994503E+04 0.  0.
        5    1    3    3  502    0 -0.54642418427E+03  0.36591610381E+03 -0.18518013871E+04  0.19651118165E+04  0.46999998093E+01 0.  1.
       -5    1    3    3    0  502  0.54642418427E+03 -0.36591610381E+03  0.54735891130E+03  0.85562716879E+03  0.46999998093E+01 0. -1.
</event>
<event>
 5   0  0.1541852E-06  0.2493101E+04  0.7818609E-02  0.8405448E-01
       -1   -1    0    0    0  501  0.00000000000E+00  0.00000000000E+00  0.70291738531E+03  0.70291738532E+03  0.50400001928E-02 0. -1.
        1   -1    0    0  501    0  0.00000000000E+00  0.00000000000E+00 -0.22106265547E+04  0.22106265547E+04  0.50400001928E-02 0.  1.
    10030    2    1    2    0    0  0.00000000000E+00  0.00000000000E+00 -0.15077091693E+04  0.29135439400E+04  0.24931007502E+04 0.  0.
        5    1    3    3  502    0  0.82634410807E+03 -0.47696156870E+02  0.33539702804E+03  0.89310288586E+03  0.46999998093E+01 0. -1.
       -5    1    3    3    0  502 -0.82634410807E+03  0.47696156870E+02 -0.18431061974E+04  0.20204410541E+04  0.46999998093E+01 0.  1.
</event>
<event>
 5   0  0.3808293E-06  0.2497305E+04  0.7818609E-02  0.8403946E-01
        2   -1    0    0  501    0  0.00000000000E+00  0.00000000000E+00  0.11234791822E+04  0.11234791822E+04  0.25500000920E-02 0. -1.
       -2   -1    0    0    0  501  0.00000000000E+00  0.00000000000E+00 -0.13877718090E+04  0.13877718090E+04  0.25500000920E-02 0.  1.
    10030    2    1    2    0    0  0.00000000000E+00  0.00000000000E+00 -0.26429262681E+03  0.25112509911E+04  0.24973047367E+04 0.  0.
        1    1    3    3  502    0  0.65910993729E+03 -0.60853425876E+03 -0.10055547280E+04  0.13475459786E+04  0.50400001928E-02 0.  1.
       -1    1    3    3    0  502 -0.65910993729E+03  0.60853425876E+03  0.74126210116E+03  0.11637050125E+04  0.50400001928E-02 0. -1.
</event>
<event>
 5   0  0.3814260E-06  0.2501444E+04  0.7818609E-02  0.8402471E-01
       -2   -1    0    0    0  501  0.00000000000E+00  0.00000000000E+00  0.12514903669E+04  0.12514903669E+04  0.25500000920E-02 0. -1.
        2   -1    0    0  501    0  0.00000000000E+00  0.00000000000E+00 -0.12499543792E+04  0.12499543792E+04  0.25500000920E-02 0.  1.
    10030    2    1    2    0    0  0.00000000000E+00  0.00000000000E+00  0.15359877001E+01  0.25014447460E+04  0.25014442744E+04 0.  0.
        5    1    3    3  502    0 -0.83200311783E+03  0.79474514467E+03  0.49110954027E+03  0.12510234624E+04  0.46999998093E+01 0. -1.
       -5    1    3    3    0  502  0.83200311783E+03 -0.79474514467E+03 -0.48957355257E+03  0.12504212836E+04  0.46999998093E+01 0.  1.
</event>
<event>
 5   0  0.3814260E-06  0.2501716E+04  0.7818609E-02  0.8402374E-01
        2   -1    0    0  501    0  0.00000000000E+00  0.00000000000E+00  0.13785191559E+04  0.13785191559E+04  0.25500000920E-02 0.  1.
       -2   -1    0    0    0  501  0.00000000000E+00  0.00000000000E+00 -0.11350192590E+04  0.11350192590E+04  0.25500000920E-02 0. -1.
    10030    2    1    2    0    0  0.00000000000E+00  0.00000000000E+00  0.24349989692E+03  0.25135384149E+04  0.25017160437E+04 0.  0.
        5    1    3    3  502    0  0.75916428816E+03 -0.34720493841E+03 -0.81417888367E+03  0.11661007805E+04  0.46999998093E+01 0. -1.
       -5    1    3    3    0  502 -0.75916428816E+03  0.34720493841E+03  0.10576787806E+04  0.13474376344E+04  0.46999998093E+01 0.  1.
</event>
<event>
 5   0  0.1519145E-06  0.2499701E+04  0.7818609E-02  0.8403092E-01
        1   -1    0    0  501    0  0.00000000000E+00  0.00000000000E+00  0.96239322769E+03  0.96239322770E+03  0.50400001928E-02 0. -1.
       -1   -1    0    0    0  501  0.00000000000E+00  0.00000000000E+00 -0.16231689311E+04  0.16231689311E+04  0.50400001928E-02 0.  1.
    10030    2    1    2    0    0  0.00000000000E+00  0.00000000000E+00 -0.66077570344E+03  0.25855621588E+04  0.24997014116E+04 0.  0.
        4    1    3    3  502    0 -0.81768413052E+03  0.89308192136E+03 -0.10036077600E+02  0.12109108106E+04  0.12699999809E+01 0. -1.
       -4    1    3    3    0  502  0.81768413052E+03 -0.89308192136E+03 -0.65073962584E+03  0.13746513482E+04  0.12699999809E+01 0.  1.
</event>
<event>
 5   0  0.1519145E-06  0.2500553E+04  0.7818609E-02  0.8402789E-01
       -1   -1    0    0    0  501  0.00000000000E+00  0.00000000000E+00  0.13532435262E+04  0.13532435262E+04  0.50400001928E-02 0.  1.
        1   -1    0    0  501    0  0.00000000000E+00  0.00000000000E+00 -0.11551439472E+04  0.11551439472E+04  0.50400001928E-02 0. -1.
    10030    2    1    2    0    0  0.00000000000E+00  0.00000000000E+00  0.19809957900E+03  0.25083874734E+04  0.25005527936E+04 0.  0.
        4    1    3    3  502    0 -0.12117287234E+03  0.25935386966E+03 -0.11218264106E+04  0.11577751954E+04  0.12699999809E+01 0. -1.
       -4    1    3    3    0  502  0.12117287234E+03 -0.25935386966E+03  0.13199259896E+04  0.13506122780E+04  0.12699999809E+01 0.  1.
</event>
<event>
 5   0  0.1501747E-06  0.2493365E+04  0.7818609E-02  0.8405353E-01
       -1   -1    0    0    0  501  0.00000000000E+00  0.00000000000E+00  0.12655486804E+04  0.12655486804E+04  0.50400001928E-02 0. -1.
        1   -1    0    0  501    0  0.00000000000E+00  0.00000000000E+00 -0.12280973925E+04  0.12280973925E+04  0.50400001928E-02 0.  1.
    10030    2    1    2    0    0  0.00000000000E+00  0.00000000000E+00  0.37451287878E+02  0.24936460730E+04  0.24933648225E+04 0.  0.
        2    1    3    3  502    0 -0.86650160998E+03 -0.55339153284E+03  0.72389368683E+03  0.12574137340E+04  0.25500000920E-02 0. -1.
       -2    1    3    3    0  502  0.86650160998E+03  0.55339153284E+03 -0.68644239895E+03  0.12362323389E+04  0.25500000920E-02 0.  1.
</event>
<event>
 5   0  0.3808293E-06  0.2502051E+04  0.7818609E-02  0.8402255E-01
        2   -1    0    0  501    0  0.00000000000E+00  0.00000000000E+00  0.85696809674E+03  0.85696809674E+03  0.25500000920E-02 0.  1.
       -2   -1    0    0    0  501  0.00000000000E+00  0.00000000000E+00 -0.18262815135E+04  0.18262815135E+04  0.25500000920E-02 0. -1.
    10030    2    1    2    0    0  0.00000000000E+00  0.00000000000E+00 -0.96931341676E+03  0.26832496102E+04  0.25020511527E+04 0.  0.
        1    1    3    3  502    0 -0.56692029294E+03 -0.34179585131E+03 -0.16230606684E+04  0.17528687788E+04  0.50400001928E-02 0. -1.
       -1    1    3    3    0  502  0.56692029294E+03  0.34179585131E+03  0.65374725160E+03  0.93038083144E+03  0.50400001928E-02 0.  1.
</event>
<event>
 5   0  0.3814260E-06  0.2497704E+04  0.7818609E-02  0.8403804E-01
       -2   -1    0    0    0  501  0.00000000000E+00  0.00000000000E+00  0.84179108723E+03  0.84179108723E+03  0.25500000920E-02 0. -1.
        2   -1    0    0  501    0  0.00000000000E+00  0.00000000000E+00 -0.18527532598E+04  0.18527532598E+04  0.25500000920E-02 0.  1.
    10030    2    1    2    0    0  0.00000000000E+00  0.00000000000E+00 -0.10109621726E+04  0.26945443470E+04  0.24977038903E+04 0.  0.
        5    1    3    3  502    0  0.57947790980E+02  0.26448707937E+03 -0.18206977191E+04  0.18407263881E+04  0.46999998093E+01 0.  1.
       -5    1    3    3    0  502 -0.57947790980E+02 -0.26448707937E+03  0.80973554653E+03  0.85381795890E+03  0.46999998093E+01 0. -1.
</event>
<event>
 5   0  0.3713394E-06  0.2500286E+04  0.7818609E-02  0.8402884E-01
       -2   -1    0    0    0  501  0.00000000000E+00  0.00000000000E+00  0.59351010071E+03  0.59351010071E+03  0.25500000920E-02 0.  1.
        2   -1    0    0  501    0  0.00000000000E+00  0.00000000000E+00 -0.26332453070E+04  0.26332453070E+04  0.25500000920E-02 0. -1.
    10030    2    1    2    0    0  0.00000000000E+00  0.00000000000E+00 -0.20397352062E+04  0.32267554077E+04  0.25002861335E+04 0.  0.
        3    1    3    3  502    0 -0.89882703614E+03  0.56178348898E+03 -0.18753085328E+04  0.21541292517E+04  0.10100000352E+00 0. -1.
       -3    1    3    3    0  502  0.89882703614E+03 -0.56178348898E+03 -0.16442667342E+03  0.10726261560E+04  0.10100000352E+00 0.  1.
</event>
<event>
 5   0  0.1519145E-06  0.2499223E+04  0.7818609E-02  0.8403262E-01
       -1   -1    0    0    0  501  0.00000000000E+00  0.00000000000E+00  0.96977364122E+03  0.96977364124E+03  0.50400001928E-02 0.  1.
        1   -1    0    0  501    0  0.00000000000E+00  0.00000000000E+00 -0.16101999148E+04  0.16101999148E+04  0.50400001928E-02 0. -1.
    10030    2    1    2    0    0  0.00000000000E+00  0.00000000000E+00 -0.64042627354E+03  0.25799735560E+04  0.24992234270E+04 0.  0.
        4    1    3    3  502    0  0.47632422280E+02 -0.10613041331E+04 -0.99941709433E+03  0.14585854284E+04  0.12699999809E+01 0. -1.
       -4    1    3    3    0  502 -0.47632422280E+02  0.10613041331E+04  0.35899082079E+03  0.11213881276E+04  0.12699999809E+01 0.  1.
</event>
<event>
 5   0  0.3808293E-06  0.2498769E+04  0.7818609E-02  0.8403424E-01
       -2   -1    0    0    0  501  0.00000000000E+00  0.00000000000E+00  0.80025186736E+03  0.80025186737E+03  0.25500000920E-02 0. -1.
        2   -1    0    0  501    0  0.00000000000E+00  0.00000000000E+00 -0.19505882445E+04  0.19505882445E+04  0.25500000920E-02 0.  1.
    10030    2    1    2    0    0  0.00000000000E+00  0.00000000000E+00 -0.11503363772E+04  0.27508401119E+04  0.24987692051E+04 0.  0.
        1    1    3    3  502    0 -0.54163449845E+03  0.29126454449E+03  0.62208863106E+03  0.87475552569E+03  0.50400001928E-02 0. -1.
       -1    1    3    3    0  502  0.54163449845E+03 -0.29126454449E+03 -0.17724250082E+04  0.18760845862E+04  0.50400001928E-02 0.  1.
</event>
<event>
 5   0  0.1519145E-06  0.2500222E+04  0.7818609E-02  0.8402906E-01
        1   -1    0    0  501    0  0.00000000000E+00  0.00000000000E+00  0.16918423689E+04  0.16918423689E+04  0.50400001928E-02 0.  1.
       -1   -1    0    0    0  501  0.00000000000E+00  0.00000000000E+00 -0.92371334062E+03  0.92371334064E+03  0.50400001928E-02 0. -1.
    10030    2    1    2    0    0  0.00000000000E+00  0.00000000000E+00  0.76812902828E+03  0.26155557096E+04  0.25002218833E+04 0.  0.
        4    1    3    3  502    0  0.41168343827E+03  0.43379400346E+03  0.15324817872E+04  0.16450418025E+04  0.12699999809E+01 0.  1.
       -4    1    3    3    0  502 -0.41168343827E+03 -0.43379400346E+03 -0.76435275896E+03  0.97051390707E+03  0.12699999809E+01 0. -1.
</event>
<event>
 5   0  0.3713394E-06  0.2499453E+04  0.7818609E-02  0.8403180E-01
        2   -1    0    0  501    0  0.00000000000E+00  0.00000000000E+00  0.18462453948E+04  0.18462453948E+04  0.25500000920E-02 0.  1.
       -2   -1    0    0    0  501  0.00000000000E+00  0.00000000000E+00 -0.84594218556E+03  0.84594218556E+03  0.25500000920E-02 0. -1.
    10030    2    1    2    0    0  0.00000000000E+00  0.00000000000E+00  0.10003032092E+04  0.26921875803E+04  0.24994534317E+04 0.  0.
        3    1    3    3  502    0 -0.34621620125E+03 -0.11672165076E+04  0.80395944368E+03  0.14589759528E+04  0.10100000352E+00 0.  1.
       -3    1    3    3    0  502  0.34621620125E+03  0.11672165076E+04  0.19634376552E+03  0.12332116275E+04  0.10100000352E+00 0. -1.
</event>
<event>
 5   0  0.3971759E-06  0.2499741E+04  0.7818609E-02  0.8403078E-01
       -2   -1    0    0    0  501  0.00000000000E+00  0.00000000000E+00  0.89433656560E+03  0.89433656560E+03  0.25500000920E-02 0.  1.
        2   -1    0    0  501    0  0.00000000000E+00  0.00000000000E+00 -0.17467435035E+04  0.17467435035E+04  0.25500000920E-02 0. -1.
    10030    2    1    2    0    0  0.00000000000E+00  0.00000000000E+00 -0.85240693793E+03  0.26410800691E+04  0.24997412554E+04 0.  0.
        4    1    3    3  502    0 -0.29934705103E+03 -0.12086200570E+04 -0.54099207744E+03  0.13575879860E+04  0.12699999809E+01 0.  1.
       -4    1    3    3    0  502  0.29934705103E+03  0.12086200570E+04 -0.31141486048E+03  0.12834920831E+04  0.12699999809E+01 0. -1.
</event>
<event>
 5   0  0.1553604E-06  0.2498063E+04  0.7818609E-02  0.8403676E-01
       -1   -1    0    0    0  501  0.00000000000E+00  0.00000000000E+00  0.78977057768E+03  0.78977057770E+03  0.50400001928E-02 0.  1.
        1   -1    0    0  501    0  0.00000000000E+00  0.00000000000E+00 -0.19753575323E+04  0.19753575323E+04  0.50400001928E-02 0. -1.
    10030    2    1    2    0    0  0.00000000000E+00  0.00000000000E+00 -0.11855869546E+04  0.27651281100E+04  0.24980626569E+04 0.  0.
        1    1    3    3  502    0 -0.90172649859E+03  0.21451050848E+02 -0.15491708429E+04  0.17926240896E+04  0.50400001928E-02 0. -1.
       -1    1    3    3    0  502  0.90172649859E+03 -0.21451050848E+02  0.36358388834E+03  0.97250402042E+03  0.50400001928E-02 0.  1.
</event>
<event>
 5   0  0.3713394E-06  0.2501226E+04  0.7818609E-02  0.8402549E-01
        2   -1    0    0  501    0  0.00000000000E+00  0.00000000000E+00  0.19882413770E+04  0.19882413770E+04  0.25500000920E-02 0. -1.
       -2   -1    0    0    0  501  0.00000000000E+00  0.00000000000E+00 -0.78664148677E+03  0.78664148677E+03  0.25500000920E-02 0.  1.
    10030    2    1    2    0    0  0.00000000000E+00  0.00000000000E+00  0.12015998903E+04  0.27748828638E+04  0.25012262216E+04 0.  0.
        3    1    3    3  502    0 -0.10635552870E+04 -0.11927615838E+03  0.13186282799E+04  0.16982806603E+04  0.10100000352E+00 0. -1.
       -3    1    3    3    0  502  0.10635552870E+04  0.11927615838E+03 -0.11702838964E+03  0.10766022035E+04  0.10100000352E+00 0.  1.
</event>
<event>
 5   0  0.1541852E-06  0.2499133E+04  0.7818609E-02  0.8403295E-01
       -1   -1    0    0    0  501  0.00000000000E+00  0.00000000000E+00  0.10816165209E+04  0.10816165209E+04  0.50400001928E-02 0. -1.
        1   -1    0    0  501    0  0.00000000000E+00  0.00000000000E+00 -0.14435950031E+04  0.14435950031E+04  0.50400001928E-02 0.  1.
    10030    2    1    2    0    0  0.00000000000E+00  0.00000000000E+00 -0.36197848221E+03  0.25252115240E+04  0.24991328134E+04 0.  0.
        5    1    3    3  502    0 -0.52823439636E+03  0.15512403405E+03  0.95245553141E+03  0.11001312071E+04  0.46999998093E+01 0. -1.
       -5    1    3    3    0  502  0.52823439636E+03 -0.15512403405E+03 -0.13144340136E+04  0.14250803169E+04  0.46999998093E+01 0.  1.
</event>
<event>
 5   0  0.1541852E-06  0.2511698E+04  0.7818609E-02  0.8398830E-01
       -1   -1    0    0    0  501  0.00000000000E+00  0.00000000000E+00  0.15187332808E+04  0.15187332809E+04  0.50400001928E-02 0.  1.
        1   -1    0    0  501    0  0.00000000000E+00  0.00000000000E+00 -0.10384686215E+04  0.10384686215E+04  0.50400001928E-02 0. -1.
    10030    2    1    2    0    0  0.00000000000E+00  0.00000000000E+00  0.48026465932E+03  0.25572019024E+04  0.25116981161E+04 0.  0.
        5    1    3    3  502    0  0.98557257806E+03 -0.71139192726E+03 -0.81345969026E+02  0.12182245431E+04  0.46999998093E+01 0. -1.
       -5    1    3    3    0  502 -0.98557257806E+03  0.71139192726E+03  0.56161062834E+03  0.13389773593E+04  0.46999998093E+01 0.  1.
</event>
<event>
 5   0  0.1553604E-06  0.2494867E+04  0.7818609E-02  0.8404817E-01
        1   -1    0    0  501    0  0.00000000000E+00  0.00000000000E+00  0.11032790413E+04  0.11032790413E+04  0.50400001928E-02 0.  1.
       -1   -1    0    0    0  501  0.00000000000E+00  0.00000000000E+00 -0.14104227956E+04  0.14104227956E+04  0.50400001928E-02 0. -1.
    10030    2    1    2    0    0  0.00000000000E+00  0.00000000000E+00 -0.30714375429E+03  0.25137018368E+04  0.24948666575E+04 0.  0.
        1    1    3    3  502    0  0.21932204957E+03  0.12183672954E+04  0.11087457180E+01  0.12379508299E+04  0.50400001928E-02 0. -1.
       -1    1    3    3    0  502 -0.21932204957E+03 -0.12183672954E+04 -0.30825250001E+03  0.12757510069E+04  0.50400001928E-02 0.  1.
</event>
<event>
 5   0  0.1574896E-06  0.2501474E+04  0.7818609E-02  0.8402461E-01
       -1   -1    0    0    0  501  0.00000000000E+00  0.00000000000E+00  0.18110331983E+04  0.18110331983E+04  0.50400001928E-02 0. -1.
        1   -1    0    0  501    0  0.00000000000E+00  0.00000000000E+00 -0.86378466126E+03  0.86378466128E+03  0.50400001928E-02 0.  1.
    10030    2    1    2    0    0  0.00000000000E+00  0.00000000000E+00  0.94724853702E+03  0.26748178596E+04  0.25014737238E+04 0.  0.
        3    1    3    3  502    0  0.51122852221E+03 -0.11410906798E+04  0.44154276185E+03  0.13260477225E+04  0.10100000352E+00 0.  1.
       -3    1    3    3    0  502 -0.51122852221E+03  0.11410906798E+04  0.50570577517E+03  0.13487701371E+04  0.10100000352E+00 0. -1.
</event>
<event>
 5   0  0.1574896E-06  0.2499923E+04  0.7818609E-02  0.8403013E-01
       -1   -1    0    0    0  501  0.00000000000E+00  0.00000000000E+00  0.87966123456E+03  0.87966123458E+03  0.50400001928E-02 0. -1.
        1   -1    0    0  501    0  0.00000000000E+00  0.00000000000E+00 -0.17761426866E+04  0.17761426866E+04  0.50400001928E-02 0.  1.
    10030    2    1    2    0    0  0.00000000000E+00  0.00000000000E+00 -0.89648145207E+03  0.26558039212E+04  0.24999230936E+04 0.  0.
        3    1    3    3  502    0  0.52124338209E+03  0.22224216275E+03  0.73537525051E+03  0.92836577465E+03  0.10100000352E+00 0. -1.
       -3    1    3    3    0  502 -0.52124338209E+03 -0.22224216275E+03 -0.16318567026E+04  0.17274381466E+04  0.10100000352E+00 0.  1.
</event>
<event>
 5   0  0.1519145E-06  0.2500790E+04  0.7818609E-02  0.8402704E-01
       -1   -1    0    0    0  501  0.00000000000E+00  0.00000000000E+00  0.98077358693E+03  0.98077358694E+03  0.50400001928E-02 0.  1.
        1   -1    0    0  501    0  0.00000000000E+00  0.00000000000E+00 -0.15941375124E+04  0.15941375124E+04  0.50400001928E-02 0. -1.
    10030    2    1    2    0    0  0.00000000000E+00  0.00000000000E+00 -0.61336392544E+03  0.25749110993E+04  0.25007902480E+04 0.  0.
        4    1    3    3  502    0 -0.81846951374E+02  0.20315504279E+03 -0.15742321316E+04  0.15893958953E+04  0.12699999809E+01 0. -1.
       -4    1    3    3    0  502  0.81846951374E+02 -0.20315504279E+03  0.96086820617E+03  0.98551520404E+03  0.12699999809E+01 0.  1.
</event>
<event>
 5   0  0.1574896E-06  0.2498005E+04  0.7818609E-02  0.8403697E-01
        1   -1    0    0  501    0  0.00000000000E+00  0.00000000000E+00  0.19331194354E+04  0.19331194355E+04  0.50400001928E-02 0.  1.
       -1   -1    0    0    0  501  0.00000000000E+00  0.00000000000E+00 -0.80698971132E+03  0.80698971134E+03  0.50400001928E-02 0. -1.
    10030    2    1    2    0    0  0.00000000000E+00  0.00000000000E+00  0.11261297241E+04  0.27401091468E+04  0.24980052003E+04 0.  0.
        3    1    3    3  502    0  0.20374178670E+03 -0.19228673751E+03 -0.77208083904E+03  0.82133655543E+03  0.10100000352E+00 0. -1.
       -3    1    3    3    0  502 -0.20374178670E+03  0.19228673751E+03  0.18982105632E+04  0.19187725914E+04  0.10100000352E+00 0.  1.
</event>
<event>
 5   0  0.1553604E-06  0.2501664E+04  0.7818609E-02  0.8402393E-01
       -1   -1    0    0    0  501  0.00000000000E+00  0.00000000000E+00  0.80684844165E+03  0.80684844167E+03  0.50400001928E-02 0.  1.
        1   -1    0    0  501    0  0.00000000000E+00  0.00000000000E+00 -0.19391265411E+04  0.19391265411E+04  0.50400001928E-02 0. -1.
    10030    2    1    2    0    0  0.00000000000E+00  0.00000000000E+00 -0.11322780995E+04  0.27459749828E+04  0.25016644283E+04 0.  0.
        1    1    3    3  502    0 -0.19207934385E+03  0.82300514668E+03 -0.15783387345E+04  0.17903589323E+04  0.50400001928E-02 0. -1.
       -1    1    3    3    0  502  0.19207934385E+03 -0.82300514668E+03  0.44606063501E+03  0.95561605047E+03  0.50400001928E-02 0.  1.
</event>
<event>
 5   0  0.1541852E-06  0.2502601E+04  0.7818609E-02  0.8402059E-01
        1   -1    0    0  501    0  0.00000000000E+00  0.00000000000E+00  0.11882623035E+04  0.11882623036E+04  0.50400001928E-02 0.  1.
       -1   -1    0    0    0  501  0.00000000000E+00  0.00000000000E+00 -0.13176833723E+04  0.13176833723E+04  0.50400001928E-02 0. -1.
    10030    2    1    2    0    0  0.00000000000E+00  0.00000000000E+00 -0.12942106875E+03  0.25059456759E+04  0.25026014300E+04 0.  0.
        5    1    3    3  502    0  0.56321916615E+02 -0.33495106259E+03  0.11412106406E+04  0.11906923149E+04  0.46999998093E+01 0.  1.
       -5    1    3    3    0  502 -0.56321916615E+02  0.33495106259E+03 -0.12706317093E+04  0.13152533609E+04  0.46999998093E+01 0. -1.
</event>
<event>
 5   0  0.3713394E-06  0.2512649E+04  0.7818609E-02  0.8398493E-01
        2   -1    0    0  501    0  0.00000000000E+00  0.00000000000E+00  0.12467294386E+04  0.12467294386E+04  0.25500000920E-02 0.  1.
       -2   -1    0    0    0  501  0.00000000000E+00  0.00000000000E+00 -0.12659934395E+04  0.12659934395E+04  0.25500000920E-02 0. -1.
    10030    2    1    2    0    0  0.00000000000E+00  0.00000000000E+00 -0.19264000825E+02  0.25127228781E+04  0.25126490325E+04 0.  0.
        3    1    3    3  502    0 -0.47561148782E+03  0.26347079405E+03  0.11229771696E+04  0.12476781958E+04  0.10100000352E+00 0.  1.
       -3    1    3    3    0  502  0.47561148782E+03 -0.26347079405E+03 -0.11422411704E+04  0.12650446823E+04  0.10100000352E+00 0. -1.
</event>
<event>
 5   0  0.3924441E-06  0.2500372E+04  0.7818609E-02  0.8402853E-01
        2   -1    0    0  501    0  0.00000000000E+00  0.00000000000E+00  0.11230798378E+04  0.11230798378E+04  0.25500000920E-02 0. -1.
       -2   -1    0    0    0  501  0.00000000000E+00  0.00000000000E+00 -0.13916772765E+04  0.13916772765E+04  0.25500000920E-02 0.  1.
    10030    2    1    2    0    0  0.00000000000E+00  0.00000000000E+00 -0.26859743874E+03  0.25147571143E+04  0.25003717244E+04 0.  0.
        2    1    3    3  502    0  0.67950353091E+03  0.68956531624E+03  0.66128921484E+03  0.11724030022E+04  0.25500000920E-02 0. -1.
       -2    1    3    3    0  502 -0.67950353091E+03 -0.68956531624E+03 -0.92988665358E+03  0.13423541121E+04  0.25500000920E-02 0.  1.
</event>
<event>
 5   0  0.1541852E-06  0.2502167E+04  0.7818609E-02  0.8402214E-01
        1   -1    0    0  501    0  0.00000000000E+00  0.00000000000E+00  0.16653193394E+04  0.16653193394E+04  0.50400001928E-02 0. -1.
       -1   -1    0    0    0  501  0.00000000000E+00  0.00000000000E+00 -0.93988550634E+03  0.93988550635E+03  0.50400001928E-02 0.  1.
    10030    2    1    2    0    0  0.00000000000E+00  0.00000000000E+00  0.72543383310E+03  0.26052048458E+04  0.25021666696E+04 0.  0.
        5    1    3    3  502    0  0.95730969031E+03 -0.76823864215E+01 -0.47586036414E+03  0.10690958977E+04  0.46999998093E+01 0.  1.
       -5    1    3    3    0  502 -0.95730969031E+03  0.76823864215E+01  0.12012941972E+04  0.15361089481E+04  0.46999998093E+01 0. -1.
</event>
<event>
 5   0  0.3713394E-06  0.2505701E+04  0.7818609E-02  0.8400957E-01
       -2   -1    0    0    0  501  0.00000000000E+00  0.00000000000E+00  0.94977590357E+03  0.94977590358E+03  0.25500000920E-02 0.  1.
        2   -1    0    0  501    0  0.00000000000E+00  0.00000000000E+00 -0.16526368559E+04  0.16526368559E+04  0.25500000920E-02 0. -1.
    10030    2    1    2    0    0  0.00000000000E+00  0.00000000000E+00 -0.70286095232E+03  0.26024127595E+04  0.25057012297E+04 0.  0.
        3    1    3    3  502    0 -0.37955018675E+03  0.11902784314E+04 -0.25392642011E+03  0.12748724350E+04  0.10100000352E+00 0.  1.
       -3    1    3    3    0  502  0.37955018675E+03 -0.11902784314E+04 -0.44893453221E+03  0.13275403244E+04  0.10100000352E+00 0. -1.
</event>
<event>
 5   0  0.3808293E-06  0.2499496E+04  0.7818609E-02  0.8403165E-01
       -2   -1    0    0    0  501  0.00000000000E+00  0.00000000000E+00  0.10534150730E+04  0.10534150731E+04  0.25500000920E-02 0. -1.
        2   -1    0    0  501    0  0.00000000000E+00  0.00000000000E+00 -0.14826732767E+04  0.14826732767E+04  0.25500000920E-02 0.  1.
    10030    2    1    2    0    0  0.00000000000E+00  0.00000000000E+00 -0.42925820362E+03  0.25360883497E+04  0.24994962517E+04 0.  0.
        1    1    3    3  502    0  0.32059332160E+03 -0.10627038803E+04 -0.79727513458E+03  0.13666628170E+04  0.50400001928E-02 0.  1.
       -1    1    3    3    0  502 -0.32059332160E+03  0.10627038803E+04  0.36801693096E+03  0.11694255327E+04  0.50400001928E-02 0. -1.
</event>
<event>
 5   0  0.3971759E-06  0.2503396E+04  0.7818609E-02  0.8401777E-01
        2   -1    0    0  501    0  0.00000000000E+00  0.00000000000E+00  0.24674823496E+04  0.24674823496E+04  0.25500000920E-02 0. -1.
       -2   -1    0    0    0  501  0.00000000000E+00  0.00000000000E+00 -0.63495805577E+03  0.63495805577E+03  0.25500000920E-02 0.  1.
    10030    2    1    2    0    0  0.00000000000E+00  0.00000000000E+00  0.18325242938E+04  0.31024404053E+04  0.25033959298E+04 0.  0.
        4    1    3    3  502    0  0.14482533699E+02 -0.73982604741E+03 -0.33486747050E+03  0.81221312468E+03  0.12699999809E+01 0.  1.
       -4    1    3    3    0  502 -0.14482533699E+02  0.73982604741E+03  0.21673917643E+04  0.22902272807E+04  0.12699999809E+01 0. -1.
</event>
<event>
 5   0  0.3924441E-06  0.2500820E+04  0.7818609E-02  0.8402694E-01
        2   -1    0    0  501    0  0.00000000000E+00  0.00000000000E+00  0.13416820354E+04  0.13416820354E+04  0.25500000920E-02 0.  1.
       -2   -1    0    0    0  501  0.00000000000E+00  0.00000000000E+00 -0.11653468940E+04  0.11653468940E+04  0.25500000920E-02 0. -1.
    10030    2    1    2    0    0  0.00000000000E+00  0.00000000000E+00  0.17633514143E+03  0.25070289294E+04  0.25008198597E+04 0.  0.
        2    1    3    3  502    0  0.61324148057E+03 -0.10620976040E+04  0.33251143879E+03  0.12707007086E+04  0.25500000920E-02 0.  1.
       -2    1    3    3    0  502 -0.61324148057E+03  0.10620976040E+04 -0.15617629736E+03  0.12363282209E+04  0.25500000920E-02 0. -1.
</event>
<event>
 5   0  0.1541852E-06  0.2499989E+04  0.7818609E-02  0.8402989E-01
       -1   -1    0    0    0  501  0.00000000000E+00  0.00000000000E+00  0.11096775110E+04  0.11096775110E+04  0.50400001928E-02 0. -1.
        1   -1    0    0  501    0  0.00000000000E+00  0.00000000000E+00 -0.14080545852E+04  0.14080545852E+04  0.50400001928E-02 0.  1.
    10030    2    1    2    0    0  0.00000000000E+00  0.00000000000E+00 -0.29837707420E+03  0.25177320962E+04  0.24999892059E+04 0.  0.
        5    1    3    3  502    0 -0.83428794268E+03  0.80949141870E+03  0.31358515577E+03  0.12040226195E+04  0.46999998093E+01 0. -1.
       -5    1    3    3    0  502  0.83428794268E+03 -0.80949141870E+03 -0.61196222998E+03  0.13137094767E+04  0.46999998093E+01 0.  1.
</event>
<event>
 5   0  0.3924441E-06  0.2497070E+04  0.7818609E-02  0.8404030E-01
        2   -1    0    0  501    0  0.00000000000E+00  0.00000000000E+00  0.18533989245E+04  0.18533989245E+04  0.25500000920E-02 0.  1.
       -2   -1    0    0    0  501  0.00000000000E+00  0.00000000000E+00 -0.84107087201E+03  0.84107087201E+03  0.25500000920E-02 0. -1.
    10030    2    1    2    0    0  0.00000000000E+00  0.00000000000E+00  0.10123280525E+04  0.26944697965E+04  0.24970701629E+04 0.  0.
        2    1    3    3  502    0 -0.59294254155E+03 -0.11752630046E+03  0.16849747093E+04  0.17901209623E+04  0.25500000920E-02 0.  1.
       -2    1    3    3    0  502  0.59294254155E+03  0.11752630046E+03 -0.67264665682E+03  0.90434883415E+03  0.25500000920E-02 0. -1.
</event>
<event>
 5   0  0.1541852E-06  0.2497080E+04  0.7818609E-02  0.8404027E-01
       -1   -1    0    0    0  501  0.00000000000E+00  0.00000000000E+00  0.67368856017E+03  0.67368856019E+03  0.50400001928E-02 0.  1.
        1   -1    0    0  501    0  0.00000000000E+00  0.00000000000E+00 -0.23139057760E+04  0.23139057760E+04  0.50400001928E-02 0. -1.
    10030    2    1    2    0    0  0.00000000000E+00  0.00000000000E+00 -0.16402172158E+04  0.29875943362E+04  0.24970797749E+04 0.  0.
        5    1    3    3  502    0 -0.12100351405E+04  0.21928481277E+03 -0.10782695401E+04  0.16355299329E+04  0.46999998093E+01 0. -1.
       -5    1    3    3    0  502  0.12100351405E+04 -0.21928481277E+03 -0.56194767572E+03  0.13520644033E+04  0.46999998093E+01 0.  1.
</event>
<event>
 5   0  0.1519145E-06  0.2496228E+04  0.7818609E-02  0.8404331E-01
        1   -1    0    0  501    0  0.00000000000E+00  0.00000000000E+00  0.12305912683E+04  0.12305912683E+04  0.50400001928E-02 0. -1.
       -1   -1    0    0    0  501  0.00000000000E+00  0.00000000000E+00 -0.12658862951E+04  0.12658862951E+04  0.50400001928E-02 0.  1.
    10030    2    1    2    0    0  0.00000000000E+00  0.00000000000E+00 -0.35295026762E+02  0.24964775634E+04  0.24962280516E+04 0.  0.
        4    1    3    3  502    0  0.11437046903E+04 -0.64916043370E+02 -0.51318921731E+03  0.12552447160E+04  0.12699999809E+01 0.  1.
       -4    1    3    3    0  502 -0.11437046903E+04  0.64916043370E+02  0.47789419055E+03  0.12412328474E+04  0.12699999809E+01 0. -1.
</event>
<event>
 5   0  0.1501747E-06  0.2501765E+04  0.7818609E-02  0.8402357E-01
       -1   -1    0    0    0  501  0.00000000000E+00  0.00000000000E+00  0.72538829609E+03  0.72538829610E+03  0.50400001928E-02 0.  1.
        1   -1    0    0  501    0  0.00000000000E+00  0.00000000000E+00 -0.21570611123E+04  0.21570611123E+04  0.50400001928E-02 0. -1.
    10030    2    1    2    0    0  0.00000000000E+00  0.00000000000E+00 -0.14316728162E+04  0.28824494084E+04  0.25017648849E+04 0.  0.
        2    1    3    3  502    0 -0.41768712618E+03 -0.35847806741E+02 -0.20737119272E+04  0.21156627231E+04  0.25500000920E-02 0. -1.
       -2    1    3    3    0  502  0.41768712618E+03  0.35847806741E+02  0.64203911106E+03  0.76678668530E+03  0.25500000920E-02 0.  1.
</event>
<event>
 5   0  0.1519145E-06  0.2498570E+04  0.7818609E-02  0.8403495E-01
       -1   -1    0    0    0  501  0.00000000000E+00  0.00000000000E+00  0.12409055578E+04  0.12409055578E+04  0.50400001928E-02 0. -1.
        1   -1    0    0  501    0  0.00000000000E+00  0.00000000000E+00 -0.12577205819E+04  0.12577205819E+04  0.50400001928E-02 0.  1.
    10030    2    1    2    0    0  0.00000000000E+00  0.00000000000E+00 -0.16815024075E+02  0.24986261397E+04  0.24985695590E+04 0.  0.
        4    1    3    3  502    0  0.59963500378E+02  0.12003721234E+04  0.33251367401E+03  0.12470187699E+04  0.12699999809E+01 0. -1.
       -4    1    3    3    0  502 -0.59963500378E+02 -0.12003721234E+04 -0.34932869808E+03  0.12516073699E+04  0.12699999809E+01 0.  1.
</event>
<event>
 5   0  0.3808293E-06  0.2498205E+04  0.7818609E-02  0.8403625E-01
        2   -1    0    0  501    0  0.00000000000E+00  0.00000000000E+00  0.15228434446E+04  0.15228434446E+04  0.25500000920E-02 0.  1.
       -2   -1    0    0    0  501  0.00000000000E+00  0.00000000000E+00 -0.10245683637E+04  0.10245683637E+04  0.25500000920E-02 0. -1.
    10030    2    1    2    0    0  0.00000000000E+00  0.00000000000E+00  0.49827508089E+03  0.25474118084E+04  0.24982051287E+04 0.  0.
        1    1    3    3  502    0  0.50011232374E+03  0.97951153587E+03  0.85300301857E+03  0.13918223073E+04  0.50400001928E-02 0.  1.
       -1    1    3    3    0  502 -0.50011232374E+03 -0.97951153587E+03 -0.35472793769E+03  0.11555895011E+04  0.50400001928E-02 0. -1.
</event>
<event>
 5   0  0.3971759E-06  0.2499245E+04  0.7818609E-02  0.8403255E-01
        2   -1    0    0  501    0  0.00000000000E+00  0.00000000000E+00  0.16316016860E+04  0.16316016860E+04  0.25500000920E-02 0. -1.
       -2   -1    0    0    0  501  0.00000000000E+00  0.00000000000E+00 -0.95706923861E+03  0.95706923861E+03  0.25500000920E-02 0.  1.
    10030    2    1    2    0    0  0.00000000000E+00  0.00000000000E+00  0.67453244736E+03  0.25886709246E+04  0.24992445125E+04 0.  0.
        4    1    3    3  502    0  0.10311961821E+04  0.41712127694E+03 -0.25249139809E+03  0.11406617573E+04  0.12699999809E+01 0.  1.
       -4    1    3    3    0  502 -0.10311961821E+04 -0.41712127694E+03  0.92702384545E+03  0.14480091673E+04  0.12699999809E+01 0. -1.
</event>
<event>
 5   0  0.1574896E-06  0.2501497E+04  0.7818609E-02  0.8402452E-01
        1   -1    0    0  501    0  0.00000000000E+00  0.00000000000E+00  0.99279268553E+03  0.99279268555E+03  0.50400001928E-02 0. -1.
       -1   -1    0    0    0  501  0.00000000000E+00  0.00000000000E+00 -0.15757286754E+04  0.15757286755E+04  0.50400001928E-02 0.  1.
    10030    2    1    2    0    0  0.00000000000E+00  0.00000000000E+00 -0.58293598992E+03  0.25685213610E+04  0.25014970745E+04 0.  0.
        3    1    3    3  502    0 -0.49914260818E+02  0.11943623919E+03 -0.15688321064E+04  0.15741634721E+04  0.10100000352E+00 0.  1.
       -3    1    3    3    0  502  0.49914260818E+02 -0.11943623919E+03  0.98589611644E+03  0.99435788893E+03  0.10100000352E+00 0. -1.
</event>
<event>
 5   0  0.3713394E-06  0.2504177E+04  0.7818609E-02  0.8401499E-01
       -2   -1    0    0    0  501  0.00000000000E+00  0.00000000000E+00  0.10311954246E+04  0.10311954246E+04  0.25500000920E-02 0.  1.
        2   -1    0    0  501    0  0.00000000000E+00  0.00000000000E+00 -0.15202997514E+04  0.15202997514E+04  0.25500000920E-02 0. -1.
    10030    2    1    2    0    0  0.00000000000E+00  0.00000000000E+00 -0.48910432681E+03  0.25514951760E+04  0.25041774279E+04 0.  0.
        3    1    3    3  502    0 -0.79181364501E+03 -0.28905344033E+03  0.69879620683E+03  0.10949141010E+04  0.10100000352E+00 0.  1.
       -3    1    3    3    0  502  0.79181364501E+03  0.28905344033E+03 -0.11879005336E+04  0.14565810749E+04  0.10100000352E+00 0. -1.
</event>
<event>
 5   0  0.1574896E-06  0.2486157E+04  0.7818609E-02  0.8407934E-01
       -1   -1    0    0    0  501  0.00000000000E+00  0.00000000000E+00  0.11944101987E+04  0.11944101987E+04  0.50400001928E-02 0. -1.
        1   -1    0    0  501    0  0.00000000000E+00  0.00000000000E+00 -0.12937298069E+04  0.12937298069E+04  0.50400001928E-02 0.  1.
    10030    2    1    2    0    0  0.00000000000E+00  0.00000000000E+00 -0.99319608191E+02  0.24881400056E+04  0.24861569344E+04 0.  0.
        3    1    3    3  502    0 -0.84391854683E+03  0.90779728435E+03 -0.14433781253E+03  0.12478492848E+04  0.10100000352E+00 0.  1.
       -3    1    3    3    0  502  0.84391854683E+03 -0.90779728435E+03  0.45018204340E+02  0.12402907208E+04  0.10100000352E+00 0. -1.
</event>
<event>
 5   0  0.1501747E-06  0.2506183E+04  0.7818609E-02  0.8400786E-01
        1   -1    0    0  501    0  0.00000000000E+00  0.00000000000E+00  0.11521149464E+04  0.11521149465E+04  0.50400001928E-02 0.  1.
       -1   -1    0    0    0  501  0.00000000000E+00  0.00000000000E+00 -0.13629181601E+04  0.13629181601E+04  0.50400001928E-02 0. -1.
    10030    2    1    2    0    0  0.00000000000E+00  0.00000000000E+00 -0.21080321361E+03  0.25150331065E+04  0.25061830604E+04 0.  0.
        2    1    3    3  502    0  0.53398267798E+03  0.47131115076E+03 -0.11400451266E+04  0.13442375504E+04  0.25500000920E-02 0. -1.
       -2    1    3    3    0  502 -0.53398267798E+03 -0.47131115076E+03  0.92924191303E+03  0.11707955561E+04  0.25500000920E-02 0.  1.
</event>
<event>
 5   0  0.3924441E-06  0.2501725E+04  0.7818609E-02  0.8402371E-01
        2   -1    0    0  501    0  0.00000000000E+00  0.00000000000E+00  0.16902240378E+04  0.16902240378E+04  0.25500000920E-02 0.  1.
       -2   -1    0    0    0  501  0.00000000000E+00  0.00000000000E+00 -0.92570963861E+03  0.92570963861E+03  0.25500000920E-02 0. -1.
    10030    2    1    2    0    0  0.00000000000E+00  0.00000000000E+00  0.76451439923E+03  0.26159336765E+04  0.25017247516E+04 0.  0.
        2    1    3    3  502    0  0.70623082861E+03  0.47070148730E+03  0.13430827662E+04  0.15887709685E+04  0.25500000920E-02 0.  1.
       -2    1    3    3    0  502 -0.70623082861E+03 -0.47070148730E+03 -0.57856836696E+03  0.10271627080E+04  0.25500000920E-02 0. -1.
</event>
<event>
 5   0  0.1287375E-06  0.2499538E+04  0.7818609E-02  0.8403150E-01
        3   -1    0    0  501    0  0.00000000000E+00  0.00000000000E+00  0.14129136295E+04  0.14129136331E+04  0.10100000352E+00 0.  1.
       -3   -1    0    0    0  501  0.00000000000E+00  0.00000000000E+00 -0.11054618693E+04  0.11054618739E+04  0.10100000352E+00 0. -1.
    10030    2    1    2    0    0  0.00000000000E+00  0.00000000000E+00  0.30745176016E+03  0.25183755070E+04  0.24995376792E+04 0.  0.
        2    1    3    3  502    0 -0.17364013915E+03 -0.12024554559E+04 -0.14152208940E+03  0.12231428874E+04  0.25500000920E-02 0. -1.
       -2    1    3    3    0  502  0.17364013915E+03  0.12024554559E+04  0.44897384955E+03  0.12952326196E+04  0.25500000920E-02 0.  1.
</event>
<event>
 5   0  0.1553604E-06  0.2499754E+04  0.7818609E-02  0.8403073E-01
        1   -1    0    0  501    0  0.00000000000E+00  0.00000000000E+00  0.12092472450E+04  0.12092472450E+04  0.50400001928E-02 0. -1.
       -1   -1    0    0    0  501  0.00000000000E+00  0.00000000000E+00 -0.12918721068E+04  0.12918721068E+04  0.50400001928E-02 0.  1.
    10030    2    1    2    0    0  0.00000000000E+00  0.00000000000E+00 -0.82624861810E+02  0.25011193519E+04  0.24997542168E+04 0.  0.
        1    1    3    3  502    0 -0.94690423813E+03 -0.75859674738E+03 -0.34163651588E+03  0.12604809282E+04  0.50400001928E-02 0. -1.
       -1    1    3    3    0  502  0.94690423813E+03  0.75859674738E+03  0.25901165407E+03  0.12406384237E+04  0.50400001928E-02 0.  1.
</event>
<event>
 5   0  0.3971759E-06  0.2511544E+04  0.7818609E-02  0.8398885E-01
       -2   -1    0    0    0  501  0.00000000000E+00  0.00000000000E+00  0.83359762099E+03  0.83359762100E+03  0.25500000920E-02 0.  1.
        2   -1    0    0  501    0  0.00000000000E+00  0.00000000000E+00 -0.18917554874E+04  0.18917554874E+04  0.25500000920E-02 0. -1.
    10030    2    1    2    0    0  0.00000000000E+00  0.00000000000E+00 -0.10581578664E+04  0.27253531084E+04  0.25115436479E+04 0.  0.
        4    1    3    3  502    0 -0.10237029912E+03 -0.38451673674E+03 -0.18215367682E+04  0.18644920514E+04  0.12699999809E+01 0. -1.
       -4    1    3    3    0  502  0.10237029912E+03  0.38451673674E+03  0.76337890175E+03  0.86086105703E+03  0.12699999809E+01 0.  1.
</event>
<event>
 5   0  0.1553604E-06  0.2518403E+04  0.7818609E-02  0.8396459E-01
        1   -1    0    0  501    0  0.00000000000E+00  0.00000000000E+00  0.10047442097E+04  0.10047442097E+04  0.50400001928E-02 0. -1.
       -1   -1    0    0    0  501  0.00000000000E+00  0.00000000000E+00 -0.15781015697E+04  0.15781015697E+04  0.50400001928E-02 0.  1.
    10030    2    1    2    0    0  0.00000000000E+00  0.00000000000E+00 -0.57335735997E+03  0.25828457794E+04  0.25184029975E+04 0.  0.
        1    1    3    3  502    0  0.95031644466E+03 -0.82594122435E+03 -0.30468246322E+03  0.12954194898E+04  0.50400001928E-02 0.  1.
       -1    1    3    3    0  502 -0.95031644466E+03  0.82594122435E+03 -0.26867489675E+03  0.12874262896E+04  0.50400001928E-02 0. -1.
</event>
<event>
 5   0  0.3808293E-06  0.2499224E+04  0.7818609E-02  0.8403262E-01
        2   -1    0    0  501    0  0.00000000000E+00  0.00000000000E+00  0.27990990929E+04  0.27990990929E+04  0.25500000920E-02 0.  1.
       -2   -1    0    0    0  501  0.00000000000E+00  0.00000000000E+00 -0.55786866206E+03  0.55786866207E+03  0.25500000920E-02 0. -1.
    10030    2    1    2    0    0  0.00000000000E+00  0.00000000000E+00  0.22412304309E+04  0.33569677550E+04  0.24992236122E+04 0.  0.
        1    1    3    3  502    0  0.45028478635E+03 -0.77726452160E+03 -0.46221245232E+02  0.89946257781E+03  0.50400001928E-02 0. -1.
       -1    1    3    3    0  502 -0.45028478635E+03  0.77726452160E+03  0.22874516761E+04  0.24575051772E+04  0.50400001928E-02 0.  1.
</event>
<event>
 5   0  0.3814260E-06  0.2498587E+04  0.7818609E-02  0.8403489E-01
        2   -1    0    0  501    0  0.00000000000E+00  0.00000000000E+00  0.13356872442E+04  0.13356872442E+04  0.25500000920E-02 0. -1.
       -2   -1    0    0    0  501  0.00000000000E+00  0.00000000000E+00 -0.11684879887E+04  0.11684879887E+04  0.25500000920E-02 0.  1.
    10030    2    1    2    0    0  0.00000000000E+00  0.00000000000E+00  0.16719925559E+03  0.25041752329E+04  0.24985872020E+04 0.  0.
        5    1    3    3  502    0  0.10302522044E+04 -0.36672793348E+03  0.68894003012E+03  0.12925051013E+04  0.46999998093E+01 0. -1.
       -5    1    3    3    0  502 -0.10302522044E+04  0.36672793348E+03 -0.52174077453E+03  0.12116701316E+04  0.46999998093E+01 0.  1.
</event>
<event>
 5   0  0.1519145E-06  0.2498585E+04  0.7818609E-02  0.8403490E-01
       -1   -1    0    0    0  501  0.00000000000E+00  0.00000000000E+00  0.12069479910E+04  0.12069479910E+04  0.50400001928E-02 0.  1.
        1   -1    0    0  501    0  0.00000000000E+00  0.00000000000E+00 -0.12931226238E+04  0.12931226239E+04  0.50400001928E-02 0. -1.
    10030    2    1    2    0    0  0.00000000000E+00  0.00000000000E+00 -0.86174632892E+02  0.25000706148E+04  0.24985850019E+04 0.  0.
        4    1    3    3  502    0 -0.64400228238E+03  0.38002182709E+03  0.95829472913E+03  0.12155187903E+04  0.12699999809E+01 0.  1.
       -4    1    3    3    0  502  0.64400228238E+03 -0.38002182709E+03 -0.10444693620E+04  0.12845518245E+04  0.12699999809E+01 0. -1.
</event>
<event>
 5   0  0.3814260E-06  0.2502565E+04  0.7818609E-02  0.8402072E-01
       -2   -1    0    0    0  501  0.00000000000E+00  0.00000000000E+00  0.19116808806E+04  0.19116808806E+04  0.25500000920E-02 0.  1.
        2   -1    0    0  501    0  0.00000000000E+00  0.00000000000E+00 -0.81902131741E+03  0.81902131741E+03  0.25500000920E-02 0. -1.
    10030    2    1    2    0    0  0.00000000000E+00  0.00000000000E+00  0.10926595632E+04  0.27307021980E+04  0.25025645992E+04 0.  0.
        5    1    3    3  502    0 -0.93912130842E+03 -0.69040934297E+03  0.49795642171E+02  0.11666685857E+04  0.46999998093E+01 0. -1.
       -5    1    3    3    0  502  0.93912130842E+03  0.69040934297E+03  0.10428639210E+04  0.15640336124E+04  0.46999998093E+01 0.  1.
</event>
<event>
 5   0  0.1501747E-06  0.2499079E+04  0.7818609E-02  0.8403314E-01
        1   -1    0    0  501    0  0.00000000000E+00  0.00000000000E+00  0.10339672861E+04  0.10339672861E+04  0.50400001928E-02 0.  1.
       -1   -1    0    0    0  501  0.00000000000E+00  0.00000000000E+00 -0.15100569024E+04  0.15100569024E+04  0.50400001928E-02 0. -1.
    10030    2    1    2    0    0  0.00000000000E+00  0.00000000000E+00 -0.47608961627E+03  0.25440241885E+04  0.24990793803E+04 0.  0.
        2    1    3    3  502    0  0.31748637264E+03  0.47176492036E+03 -0.13707051659E+04  0.14839785675E+04  0.25500000920E-02 0. -1.
       -2    1    3    3    0  502 -0.31748637264E+03 -0.47176492036E+03  0.89461554966E+03  0.10600456210E+04  0.25500000920E-02 0.  1.
</event>
<event>
 5   0  0.3924441E-06  0.2473335E+04  0.7818609E-02  0.8412547E-01
       -2   -1    0    0    0  501  0.00000000000E+00  0.00000000000E+00  0.66020057133E+03  0.66020057133E+03  0.25500000920E-02 0.  1.
        2   -1    0    0  501    0  0.00000000000E+00  0.00000000000E+00 -0.23164878561E+04  0.23164878561E+04  0.25500000920E-02 0. -1.
    10030    2    1    2    0    0  0.00000000000E+00  0.00000000000E+00 -0.16562872848E+04  0.29766884274E+04  0.24733350813E+04 0.  0.
        2    1    3    3  502    0 -0.22330865434E+03 -0.11344846276E+04 -0.13560787983E+04  0.17820975934E+04  0.25500000920E-02 0. -1.
       -2    1    3    3    0  502  0.22330865434E+03  0.11344846276E+04 -0.30020848650E+03  0.11945908340E+04  0.25500000920E-02 0.  1.
</event>
<event>
 5   0  0.1541852E-06  0.2505564E+04  0.7818609E-02  0.8401006E-01
        1   -1    0    0  501    0  0.00000000000E+00  0.00000000000E+00  0.13602357570E+04  0.13602357570E+04  0.50400001928E-02 0.  1.
       -1   -1    0    0    0  501  0.00000000000E+00  0.00000000000E+00 -0.11538165960E+04  0.11538165960E+04  0.50400001928E-02 0. -1.
    10030    2    1    2    0    0  0.00000000000E+00  0.00000000000E+00  0.20641916098E+03  0.25140523530E+04  0.25055638814E+04 0.  0.
        5    1    3    3  502    0 -0.70783754888E+02  0.11599967257E+04 -0.36617623899E+03  0.12184867138E+04  0.46999998093E+01 0. -1.
       -5    1    3    3    0  502  0.70783754888E+02 -0.11599967257E+04  0.57259539997E+03  0.12955656393E+04  0.46999998093E+01 0.  1.
</event>
</LesHouchesEvents>
