<LesHouchesEvents version="3.0">
<header>
<!--
#*********************************************************************
#                                                                    *
#                        MadGraph5_aMC@NLO                           *
#                                                                    *
#                           Going Beyond                             *
#                                                                    *
#                   http://madgraph.hep.uiuc.edu                     *
#                   http://madgraph.phys.ucl.ac.be                   *
#                   http://amcatnlo.cern.ch                          *
#                                                                    *
#                     The MadGraph5_aMC@NLO team                     *
#                                                                    *
#....................................................................*
#                                                                    *
# This file contains all the information necessary to reproduce      *
# the events generated:                                              *
#                                                                    *
# 1. software version                                                *
# 2. proc_card          : code generation info including model       *
# 3. param_card         : model primary parameters in the LH format  *
# 4. run_card           : running parameters (collider and cuts)     *
# 5. pythia_card        : present only if pythia has been run        *
# 6. pgs_card           : present only if pgs has been run           *
# 7. delphes_cards      : present only if delphes has been run       *
#                                                                    *
#                                                                    *
#*********************************************************************
-->
<MGVersion>
#5.2.2.3
</MGVersion>
<MG5ProcCard>
#************************************************************
#*                     MadGraph5_aMC@NLO                    *
#*                                                          *
#*                *                       *                 *
#*                  *        * *        *                   *
#*                    * * * * 5 * * * *                     *
#*                  *        * *        *                   *
#*                *                       *                 *
#*                                                          *
#*                                                          *
#*         VERSION 2.2.3                 2015-02-10         *
#*                                                          *
#*    The MadGraph5_aMC@NLO Development Team - Find us at   *
#*    https://server06.fynu.ucl.ac.be/projects/madgraph     *
#*                                                          *
#************************************************************
#*                                                          *
#*               Command File for MadGraph5_aMC@NLO         *
#*                                                          *
#*     run as ./bin/mg5_aMC  filename                       *
#*                                                          *
#************************************************************
set group_subprocesses Auto
set ignore_six_quark_processes False
set loop_optimized_output True
set gauge unitary
set complex_mass_scheme False
import model sm
define p = g u c d s u~ c~ d~ s~
define j = g u c d s u~ c~ d~ s~
define l+ = e+ mu+
define l- = e- mu-
define vl = ve vm vt
define vl~ = ve~ vm~ vt~
import model Zprime_UFO
generate p p > zph, zph > j j
add process p p > zph, zph > b b~
output Dijet_signal
</MG5ProcCard>
<MGProcCard>
#*********************************************************************
#                        MadGraph/MadEvent                           *
#                   http://madgraph.hep.uiuc.edu                     *
#                                                                    *
#                          proc_card.dat                             *
#*********************************************************************
#                                                                    *
#            This Files is generated by MADGRAPH 5                   *
#                                                                    *
# WARNING: This Files is generated for MADEVENT (compatibility issue)*
#          This files is NOT a valid MG4 proc_card.dat               *
#          Running this in MG4 will NEVER reproduce the result of MG5*
#                                                                    *
#*********************************************************************
#*********************************************************************
# Process(es) requested : mg2 input                                  *
#*********************************************************************
# Begin PROCESS # This is TAG. Do not modify this line
p p > zph , zph > j j           #Process
# Be carefull the coupling are here in MG5 convention
          
end_coup           # End the couplings input

done               # this tells MG there are no more procs
# End PROCESS  # This is TAG. Do not modify this line
#*********************************************************************
# Model information                                                  *
#*********************************************************************
# Begin MODEL  # This is TAG. Do not modify this line
Zprime_UFO
# End   MODEL  # This is TAG. Do not modify this line
#*********************************************************************
# Start multiparticle definitions                                    *
#*********************************************************************
# Begin MULTIPARTICLES # This is TAG. Do not modify this line

# End  MULTIPARTICLES # This is TAG. Do not modify this line
</MGProcCard>
<MGRunCard>
#*********************************************************************
#                       MadGraph5_aMC@NLO                            *
#                                                                    *
#                     run_card.dat MadEvent                          *
#                                                                    *
#  This file is used to set the parameters of the run.               *
#                                                                    *
#  Some notation/conventions:                                        *
#                                                                    *
#   Lines starting with a '# ' are info or comments                  *
#                                                                    *
#   mind the format:   value    = variable     ! comment             *
#*********************************************************************
#
#*******************                                                 
# Running parameters
#*******************                                                 
#                                                                    
#*********************************************************************
# Tag name for the run (one word)                                    *
#*********************************************************************
  tag_1     = run_tag ! name of the run 
#*********************************************************************
# Run to generate the grid pack                                      *
#*********************************************************************
  .false.     = gridpack  !True = setting up the grid pack
#*********************************************************************
# Number of events and rnd seed                                      *
# Warning: Do not generate more than 1M events in a single run       *
# If you want to run Pythia, avoid more than 50k events in a run.    *
#*********************************************************************
  2000 = nevents ! Number of unweighted events requested 
 2523 = iseed   ! rnd seed (0=assigned automatically=default))
#*********************************************************************
# Collider type and energy                                           *
# lpp: 0=No PDF, 1=proton, -1=antiproton, 2=photon from proton,      *
#                                         3=photon from electron     *
#*********************************************************************
        1     = lpp1    ! beam 1 type 
        1     = lpp2    ! beam 2 type
     4000     = ebeam1  ! beam 1 total energy in GeV
     4000     = ebeam2  ! beam 2 total energy in GeV
#*********************************************************************
# Beam polarization from -100 (left-handed) to 100 (right-handed)    *
#*********************************************************************
        0     = polbeam1 ! beam polarization for beam 1
        0     = polbeam2 ! beam polarization for beam 2
#*********************************************************************
# PDF CHOICE: this automatically fixes also alpha_s and its evol.    *
#*********************************************************************
 'nn23lo1'    = pdlabel     ! PDF set                                     
 230000    = lhaid     ! if pdlabel=lhapdf, this is the lhapdf number
#*********************************************************************
# Renormalization and factorization scales                           *
#*********************************************************************
 F        = fixed_ren_scale  ! if .true. use fixed ren scale
 F        = fixed_fac_scale  ! if .true. use fixed fac scale
 91.1880  = scale            ! fixed ren scale
 91.1880  = dsqrt_q2fact1    ! fixed fact scale for pdf1
 91.1880  = dsqrt_q2fact2    ! fixed fact scale for pdf2
 1        = scalefact        ! scale factor for event-by-event scales
#*********************************************************************
# Matching - Warning! ickkw > 1 is still beta
#*********************************************************************
 0        = ickkw            ! 0 no matching, 1 MLM, 2 CKKW matching
 1        = highestmult      ! for ickkw=2, highest mult group
 1        = ktscheme         ! for ickkw=1, 1 Durham kT, 2 Pythia pTE
 1        = alpsfact         ! scale factor for QCD emission vx
 F        = chcluster        ! cluster only according to channel diag
 T        = pdfwgt           ! for ickkw=1, perform pdf reweighting
 5        = asrwgtflavor     ! highest quark flavor for a_s reweight
 T        = clusinfo         ! include clustering tag in output
 3.0      = lhe_version       ! Change the way clustering information pass to shower.        
#*********************************************************************
#**********************************************************
#
#**********************************************************
# Automatic ptj and mjj cuts if xqcut > 0
# (turn off for VBF and single top processes)
#**********************************************************
   T  = auto_ptj_mjj  ! Automatic setting of ptj and mjj
#**********************************************************
#                                                                    
#**********************************
# BW cutoff (M+/-bwcutoff*Gamma)
#**********************************
  15  = bwcutoff      ! (M+/-bwcutoff*Gamma)
#**********************************************************
# Apply pt/E/eta/dr/mij cuts on decay products or not
# (note that etmiss/ptll/ptheavy/ht/sorted cuts always apply)
#**********************************************************
   T  = cut_decays    ! Cut decay products 
#*************************************************************
# Number of helicities to sum per event (0 = all helicities)
# 0 gives more stable result, but longer run time (needed for
# long decay chains e.g.).
# Use >=2 if most helicities contribute, e.g. pure QCD.
#*************************************************************
   0  = nhel          ! Number of helicities used per event
#*******************                                                 
# Standard Cuts
#*******************                                                 
#                                                                    
#*********************************************************************
# Minimum and maximum pt's (for max, -1 means no cut)                *
#*********************************************************************
 20  = ptj       ! minimum pt for the jets 
  0  = ptb       ! minimum pt for the b 
 10  = pta       ! minimum pt for the photons 
 10  = ptl       ! minimum pt for the charged leptons 
  0  = misset    ! minimum missing Et (sum of neutrino's momenta)
  0  = ptheavy   ! minimum pt for one heavy final state
 1.0 = ptonium   ! minimum pt for the quarkonium states
 -1  = ptjmax    ! maximum pt for the jets
 -1  = ptbmax    ! maximum pt for the b
 -1  = ptamax    ! maximum pt for the photons
 -1  = ptlmax    ! maximum pt for the charged leptons
 -1  = missetmax ! maximum missing Et (sum of neutrino's momenta)
#*********************************************************************
# Minimum and maximum E's (in the center of mass frame)              *
#*********************************************************************
  0  = ej     ! minimum E for the jets 
  0  = eb     ! minimum E for the b 
  0  = ea     ! minimum E for the photons 
  0  = el     ! minimum E for the charged leptons 
 -1   = ejmax ! maximum E for the jets
 -1   = ebmax ! maximum E for the b
 -1   = eamax ! maximum E for the photons
 -1   = elmax ! maximum E for the charged leptons
#*********************************************************************
# Maximum and minimum absolute rapidity (for max, -1 means no cut)   *
#*********************************************************************
   5  = etaj    ! max rap for the jets 
  -1  = etab    ! max rap for the b
 2.5  = etaa    ! max rap for the photons 
 2.5  = etal    ! max rap for the charged leptons 
 0.6  = etaonium ! max rap for the quarkonium states
   0  = etajmin ! min rap for the jets
   0  = etabmin ! min rap for the b
   0  = etaamin ! min rap for the photons
   0  = etalmin ! main rap for the charged leptons
#*********************************************************************
# Minimum and maximum DeltaR distance                                *
#*********************************************************************
 0.4 = drjj    ! min distance between jets 
 0   = drbb    ! min distance between b's 
 0.4 = drll    ! min distance between leptons 
 0.4 = draa    ! min distance between gammas 
 0   = drbj    ! min distance between b and jet 
 0.4 = draj    ! min distance between gamma and jet 
 0.4 = drjl    ! min distance between jet and lepton 
 0   = drab    ! min distance between gamma and b 
 0   = drbl    ! min distance between b and lepton 
 0.4 = dral    ! min distance between gamma and lepton 
 -1  = drjjmax ! max distance between jets
 -1  = drbbmax ! max distance between b's
 -1  = drllmax ! max distance between leptons
 -1  = draamax ! max distance between gammas
 -1  = drbjmax ! max distance between b and jet
 -1  = drajmax ! max distance between gamma and jet
 -1  = drjlmax ! max distance between jet and lepton
 -1  = drabmax ! max distance between gamma and b
 -1  = drblmax ! max distance between b and lepton
 -1  = dralmax ! maxdistance between gamma and lepton
#*********************************************************************
# Minimum and maximum invariant mass for pairs                       *
# WARNING: for four lepton final state mmll cut require to have      *
#          different lepton masses for each flavor!                  *           
#*********************************************************************
 0   = mmjj    ! min invariant mass of a jet pair 
 0   = mmbb    ! min invariant mass of a b pair 
 0   = mmaa    ! min invariant mass of gamma gamma pair
 0   = mmll    ! min invariant mass of l+l- (same flavour) lepton pair
 -1  = mmjjmax ! max invariant mass of a jet pair
 -1  = mmbbmax ! max invariant mass of a b pair
 -1  = mmaamax ! max invariant mass of gamma gamma pair
 -1  = mmllmax ! max invariant mass of l+l- (same flavour) lepton pair
#*********************************************************************
# Minimum and maximum invariant mass for all letpons                 *
#*********************************************************************
 0   = mmnl    ! min invariant mass for all letpons (l+- and vl) 
 -1  = mmnlmax ! max invariant mass for all letpons (l+- and vl) 
#*********************************************************************
# Minimum and maximum pt for 4-momenta sum of leptons                *
#*********************************************************************
 0   = ptllmin  ! Minimum pt for 4-momenta sum of leptons(l and vl)
 -1  = ptllmax  ! Maximum pt for 4-momenta sum of leptons(l and vl)
#*********************************************************************
# Inclusive cuts                                                     *
#*********************************************************************
 0  = xptj ! minimum pt for at least one jet  
 0  = xptb ! minimum pt for at least one b 
 0  = xpta ! minimum pt for at least one photon 
 0  = xptl ! minimum pt for at least one charged lepton 
#*********************************************************************
# Control the pt's of the jets sorted by pt                          *
#*********************************************************************
 0   = ptj1min ! minimum pt for the leading jet in pt
 0   = ptj2min ! minimum pt for the second jet in pt
 0   = ptj3min ! minimum pt for the third jet in pt
 0   = ptj4min ! minimum pt for the fourth jet in pt
 -1  = ptj1max ! maximum pt for the leading jet in pt 
 -1  = ptj2max ! maximum pt for the second jet in pt
 -1  = ptj3max ! maximum pt for the third jet in pt
 -1  = ptj4max ! maximum pt for the fourth jet in pt
 0   = cutuse  ! reject event if fails any (0) / all (1) jet pt cuts
#*********************************************************************
# Control the pt's of leptons sorted by pt                           *
#*********************************************************************
 0   = ptl1min ! minimum pt for the leading lepton in pt
 0   = ptl2min ! minimum pt for the second lepton in pt
 0   = ptl3min ! minimum pt for the third lepton in pt
 0   = ptl4min ! minimum pt for the fourth lepton in pt
 -1  = ptl1max ! maximum pt for the leading lepton in pt 
 -1  = ptl2max ! maximum pt for the second lepton in pt
 -1  = ptl3max ! maximum pt for the third lepton in pt
 -1  = ptl4max ! maximum pt for the fourth lepton in pt
#*********************************************************************
# Control the Ht(k)=Sum of k leading jets                            *
#*********************************************************************
 0   = htjmin ! minimum jet HT=Sum(jet pt)
 -1  = htjmax ! maximum jet HT=Sum(jet pt)
 0   = ihtmin  !inclusive Ht for all partons (including b)
 -1  = ihtmax  !inclusive Ht for all partons (including b)
 0   = ht2min ! minimum Ht for the two leading jets
 0   = ht3min ! minimum Ht for the three leading jets
 0   = ht4min ! minimum Ht for the four leading jets
 -1  = ht2max ! maximum Ht for the two leading jets
 -1  = ht3max ! maximum Ht for the three leading jets
 -1  = ht4max ! maximum Ht for the four leading jets
#***********************************************************************
# Photon-isolation cuts, according to hep-ph/9801442                   *
# When ptgmin=0, all the other parameters are ignored                  *
# When ptgmin>0, pta and draj are not going to be used                 *
#***********************************************************************
   0 = ptgmin ! Min photon transverse momentum
 0.4 = R0gamma ! Radius of isolation code
 1.0 = xn ! n parameter of eq.(3.4) in hep-ph/9801442
 1.0 = epsgamma ! epsilon_gamma parameter of eq.(3.4) in hep-ph/9801442
 .true. = isoEM ! isolate photons from EM energy (photons and leptons)
#*********************************************************************
# WBF cuts                                                           *
#*********************************************************************
 0   = xetamin ! minimum rapidity for two jets in the WBF case  
 0   = deltaeta ! minimum rapidity for two jets in the WBF case 
#*********************************************************************
# KT DURHAM CUT                                                      *
#*********************************************************************
 -1    =  ktdurham        
 0.4  =  dparameter 
#*********************************************************************
# maximal pdg code for quark to be considered as a light jet         *
# (otherwise b cuts are applied)                                     *
#*********************************************************************
 4 = maxjetflavor    ! Maximum jet pdg code
#*********************************************************************
# Jet measure cuts                                                   *
#*********************************************************************
 0   = xqcut   ! minimum kt jet measure between partons
#*********************************************************************
#
#*********************************************************************
# Store info for systematics studies                                 *
# WARNING: If use_syst is T, matched Pythia output is                *
#          meaningful ONLY if plotted taking matchscale              *
#          reweighting into account!                                 *
#*********************************************************************
   F  = use_syst      ! Enable systematics studies
#
#**************************************
# Parameter of the systematics study
#  will be used by SysCalc (if installed)
#**************************************                                  
#
0.5 1 2 = sys_scalefact  # factorization/renormalization scale factor
0.5 1 2 = sys_alpsfact  # \alpha_s emission scale factors
30 50 = sys_matchscale # variation of merging scale
# PDF sets and number of members (0 or none for all members).
CT10nlo.LHgrid = sys_pdf # matching scales
# MSTW2008nlo68cl.LHgrid 1  = sys_pdf
</MGRunCard>
<slha>
######################################################################
## PARAM_CARD AUTOMATICALY GENERATED BY MG5 FOLLOWING UFO MODEL   ####
######################################################################
##                                                                  ##
##  Width set on Auto will be computed following the information    ##
##        present in the decay.py files of the model.               ##
##        See  arXiv:1402.1178 for more details.                    ##
##                                                                  ##
######################################################################

###################################
## INFORMATION FOR CKMBLOCK
###################################
Block ckmblock 
    1 2.277360e-01 # cabi 

###################################
## INFORMATION FOR FRBLOCK
###################################
Block frblock 
    1 1.400000e+00 # gz 

###################################
## INFORMATION FOR MASS
###################################
Block mass 
    1 5.040000e-03 # MD 
    2 2.550000e-03 # MU 
    3 1.010000e-01 # MS 
    4 1.270000e+00 # MC 
    5 4.700000e+00 # MB 
    6 1.720000e+02 # MT 
   11 5.110000e-04 # Me 
   13 1.056600e-01 # MM 
   15 1.777000e+00 # MTA 
   23 9.118760e+01 # MZ 
   25 1.200000e+02 # MH 
  10030 1.400000e+03 # MZph 
  10031 3.000000e+02 # MZpl 
## Dependent parameters, given by model restrictions.
## Those values should be edited following the 
## analytical expression. MG5 ignores those values 
## but they are important for interfacing the output of MG5
## to external program such as Pythia.
  12 0.000000 # ve : 0.0 
  14 0.000000 # vm : 0.0 
  16 0.000000 # vt : 0.0 
  21 0.000000 # g : 0.0 
  22 0.000000 # a : 0.0 
  24 79.824360 # w+ : cmath.sqrt(MZ__exp__2/2. + cmath.sqrt(MZ__exp__4/4. - (aEW*cmath.pi*MZ__exp__2)/(Gf*sqrt__2))) 

###################################
## INFORMATION FOR SMINPUTS
###################################
Block sminputs 
    1 1.279000e+02 # aEWM1 
    2 1.166370e-05 # Gf 
    3 1.184000e-01 # aS 

###################################
## INFORMATION FOR YUKAWA
###################################
Block yukawa 
    1 5.040000e-03 # ymdo 
    2 2.550000e-03 # ymup 
    3 1.010000e-01 # yms 
    4 1.270000e+00 # ymc 
    5 4.700000e+00 # ymb 
    6 1.720000e+02 # ymt 
   11 5.110000e-04 # yme 
   13 1.056600e-01 # ymm 
   15 1.777000e+00 # ymtau 

###################################
## INFORMATION FOR DECAY
###################################
DECAY   6 1.508336e+00 # WT 
DECAY  23 2.495200e+00 # WZ 
DECAY  24 2.085000e+00 # WW 
DECAY  25 5.753088e-03 # WH 
## Dependent parameters, given by model restrictions.
## Those values should be edited following the 
## analytical expression. MG5 ignores those values 
## but they are important for interfacing the output of MG5
## to external program such as Pythia.
DECAY  1 0.000000 # d : 0.0 
DECAY  2 0.000000 # u : 0.0 
DECAY  3 0.000000 # s : 0.0 
DECAY  4 0.000000 # c : 0.0 
DECAY  5 0.000000 # b : 0.0 
DECAY  11 0.000000 # e- : 0.0 
DECAY  12 0.000000 # ve : 0.0 
DECAY  13 0.000000 # mu- : 0.0 
DECAY  14 0.000000 # vm : 0.0 
DECAY  15 0.000000 # ta- : 0.0 
DECAY  16 0.000000 # vt : 0.0 
DECAY  21 0.000000 # g : 0.0 
DECAY  22 0.000000 # a : 0.0 
DECAY  10030 0.308725 # zph : (gz__exp__2*MZph*(5 + cmath.sqrt(1 - (4*MT__exp__2)/MZph__exp__2)))/(144.*cmath.pi) 
DECAY  10031 0.132629 # zpl : (5*gz__exp__2*MZpl)/(144.*cmath.pi) 
#===========================================================
# QUANTUM NUMBERS OF NEW STATE(S) (NON SM PDG CODE)
#===========================================================

Block QNUMBERS 10030  # zph 
        1 0  # 3 times electric charge
        2 3  # number of spin states (2S+1)
        3 1  # colour rep (1: singlet, 3: triplet, 8: octet)
        4 0  # Particle/Antiparticle distinction (0=own anti)
Block QNUMBERS 10031  # zpl 
        1 0  # 3 times electric charge
        2 3  # number of spin states (2S+1)
        3 1  # colour rep (1: singlet, 3: triplet, 8: octet)
        4 0  # Particle/Antiparticle distinction (0=own anti)
</slha>
## END BANNER##
<MGGenerationInfo>
#  Number of Events        :         4013
#  Integrated weight (pb)  :  0.66344E+00
#  Max wgt                 :  0.22362E-03
#  Average wgt             :  0.16532E-03
</MGGenerationInfo>
</header>
<init>
     2212     2212  0.40000000000E+04  0.40000000000E+04 0 0  247000  247000 2   1
  0.66387961520E+00  0.12390204684E-02  0.22361840000E-03   0
</init>
<event>
 5   0  0.2083966E-03  0.1346751E+04  0.7818609E-02  0.8993291E-01
       -2   -1    0    0    0  501  0.00000000000E+00  0.00000000000E+00  0.10054473319E+04  0.10054473319E+04  0.25500000920E-02 0.  1.
        2   -1    0    0  501    0  0.00000000000E+00  0.00000000000E+00 -0.45097777949E+03  0.45097777950E+03  0.25500000920E-02 0. -1.
    10030    2    1    2    0    0  0.00000000000E+00  0.00000000000E+00  0.55446955243E+03  0.14564251114E+04  0.13467507641E+04 0.  0.
        1    1    3    3  502    0 -0.37677245802E+03 -0.32688288023E+03  0.76642722669E+03  0.91445098084E+03  0.50400001928E-02 0.  1.
       -1    1    3    3    0  502  0.37677245802E+03  0.32688288023E+03 -0.21195767427E+03  0.54197413058E+03  0.50400001928E-02 0. -1.
</event>
<event>
 5   0  0.2083966E-03  0.1414440E+04  0.7818609E-02  0.8943432E-01
       -2   -1    0    0    0  501  0.00000000000E+00  0.00000000000E+00  0.16260281828E+04  0.16260281828E+04  0.25500000920E-02 0. -1.
        2   -1    0    0  501    0  0.00000000000E+00  0.00000000000E+00 -0.30759631535E+03  0.30759631536E+03  0.25500000920E-02 0.  1.
    10030    2    1    2    0    0  0.00000000000E+00  0.00000000000E+00  0.13184318675E+04  0.19336244982E+04  0.14144402111E+04 0.  0.
        1    1    3    3  502    0 -0.21684897676E+03  0.41158483829E+03 -0.68972516948E+02  0.47030071864E+03  0.50400001928E-02 0.  1.
       -1    1    3    3    0  502  0.21684897676E+03 -0.41158483829E+03  0.13874043844E+04  0.14633237795E+04  0.50400001928E-02 0. -1.
</event>
<event>
 5   0  0.2236184E-03  0.1338223E+04  0.7818609E-02  0.8999791E-01
       -2   -1    0    0    0  501  0.00000000000E+00  0.00000000000E+00  0.10706474344E+04  0.10706474344E+04  0.25500000920E-02 0.  1.
        2   -1    0    0  501    0  0.00000000000E+00  0.00000000000E+00 -0.41816762857E+03  0.41816762858E+03  0.25500000920E-02 0. -1.
    10030    2    1    2    0    0  0.00000000000E+00  0.00000000000E+00  0.65247980583E+03  0.14888150630E+04  0.13382228494E+04 0.  0.
        3    1    3    3  502    0  0.50318018822E+03  0.35143390870E+03  0.62271231324E+03  0.87433788049E+03  0.10100000352E+00 0.  1.
       -3    1    3    3    0  502 -0.50318018822E+03 -0.35143390870E+03  0.29767492595E+02  0.61447718250E+03  0.10100000352E+00 0. -1.
</event>
<event>
 5   0  0.2083966E-03  0.1412402E+04  0.7818609E-02  0.8944890E-01
       -2   -1    0    0    0  501  0.00000000000E+00  0.00000000000E+00  0.32486421442E+03  0.32486421443E+03  0.25500000920E-02 0.  1.
        2   -1    0    0  501    0  0.00000000000E+00  0.00000000000E+00 -0.15351647727E+04  0.15351647727E+04  0.25500000920E-02 0. -1.
    10030    2    1    2    0    0  0.00000000000E+00  0.00000000000E+00 -0.12103005583E+04  0.18600289871E+04  0.14124023476E+04 0.  0.
        1    1    3    3  502    0  0.28827031464E+03 -0.53676707625E+03 -0.10753894560E+04  0.12359939929E+04  0.50400001928E-02 0. -1.
       -1    1    3    3    0  502 -0.28827031464E+03  0.53676707625E+03 -0.13491110227E+03  0.62403499420E+03  0.50400001928E-02 0.  1.
</event>
<event>
 5   0  0.2236184E-03  0.1566215E+04  0.7818609E-02  0.8841577E-01
       -2   -1    0    0    0  501  0.00000000000E+00  0.00000000000E+00  0.24861994581E+03  0.24861994582E+03  0.25500000920E-02 0.  1.
        2   -1    0    0  501    0  0.00000000000E+00  0.00000000000E+00 -0.24666455001E+04  0.24666455001E+04  0.25500000920E-02 0. -1.
    10030    2    1    2    0    0  0.00000000000E+00  0.00000000000E+00 -0.22180255543E+04  0.27152654460E+04  0.15662148902E+04 0.  0.
        3    1    3    3  502    0  0.42284954782E+03  0.65911712091E+03 -0.11012323405E+04  0.13512770985E+04  0.10100000352E+00 0. -1.
       -3    1    3    3    0  502 -0.42284954782E+03 -0.65911712091E+03 -0.11167932139E+04  0.13639883474E+04  0.10100000352E+00 0.  1.
</event>
<event>
 5   0  0.1210275E-03  0.1381631E+04  0.7818609E-02  0.8967223E-01
       -1   -1    0    0    0  501  0.00000000000E+00  0.00000000000E+00  0.71692216499E+03  0.71692216501E+03  0.50400001928E-02 0. -1.
        1   -1    0    0  501    0  0.00000000000E+00  0.00000000000E+00 -0.66565946120E+03  0.66565946122E+03  0.50400001928E-02 0.  1.
    10030    2    1    2    0    0  0.00000000000E+00  0.00000000000E+00  0.51262703786E+02  0.13825816262E+04  0.13816309523E+04 0.  0.
        1    1    3    3  502    0  0.50961217322E+03 -0.44611599489E+03  0.16174690779E+03  0.69633764094E+03  0.50400001928E-02 0. -1.
       -1    1    3    3    0  502 -0.50961217322E+03  0.44611599489E+03 -0.11048420400E+03  0.68624398529E+03  0.50400001928E-02 0.  1.
</event>
<event>
 5   0  0.1175374E-03  0.1396853E+04  0.7818609E-02  0.8956099E-01
       -1   -1    0    0    0  501  0.00000000000E+00  0.00000000000E+00  0.58651528330E+03  0.58651528332E+03  0.50400001928E-02 0. -1.
        1   -1    0    0  501    0  0.00000000000E+00  0.00000000000E+00 -0.83169151654E+03  0.83169151655E+03  0.50400001928E-02 0.  1.
    10030    2    1    2    0    0  0.00000000000E+00  0.00000000000E+00 -0.24517623324E+03  0.14182067999E+04  0.13968533000E+04 0.  0.
        3    1    3    3  502    0  0.72216982651E+02 -0.91596314229E+00 -0.82789003369E+03  0.83103432520E+03  0.10100000352E+00 0.  1.
       -3    1    3    3    0  502 -0.72216982651E+02  0.91596314229E+00  0.58271380045E+03  0.58717247467E+03  0.10100000352E+00 0. -1.
</event>
<event>
 5   0  0.2083966E-03  0.1064700E+04  0.7818609E-02  0.9240297E-01
       -2   -1    0    0    0  501  0.00000000000E+00  0.00000000000E+00  0.22253083994E+04  0.22253083994E+04  0.25500000920E-02 0. -1.
        2   -1    0    0  501    0  0.00000000000E+00  0.00000000000E+00 -0.12735160527E+03  0.12735160529E+03  0.25500000920E-02 0.  1.
    10030    2    1    2    0    0  0.00000000000E+00  0.00000000000E+00  0.20979567942E+04  0.23526600047E+04  0.10647001398E+04 0.  0.
        1    1    3    3  502    0  0.31169239287E+03 -0.25078488065E+03  0.27290305114E+03  0.48427397151E+03  0.50400001928E-02 0.  1.
       -1    1    3    3    0  502 -0.31169239287E+03  0.25078488065E+03  0.18250537430E+04  0.18683860332E+04  0.50400001928E-02 0. -1.
</event>
<event>
 5   0  0.8293000E-04  0.1365609E+04  0.7818609E-02  0.8979095E-01
       -4   -1    0    0    0  501  0.00000000000E+00  0.00000000000E+00  0.88675791693E+03  0.88675882637E+03  0.12699999809E+01 0. -1.
        4   -1    0    0  501    0  0.00000000000E+00  0.00000000000E+00 -0.52575848245E+03  0.52576001633E+03  0.12699999809E+01 0.  1.
    10030    2    1    2    0    0  0.00000000000E+00  0.00000000000E+00  0.36099943448E+03  0.14125188427E+04  0.13656093472E+04 0.  0.
        5    1    3    3  502    0 -0.86584913236E+02 -0.36083203014E+03 -0.41234059069E+03  0.55474638702E+03  0.46999998093E+01 0.  1.
       -5    1    3    3    0  502  0.86584913236E+02  0.36083203014E+03  0.77334002517E+03  0.85777245567E+03  0.46999998093E+01 0. -1.
</event>
<event>
 5   0  0.2083966E-03  0.1412268E+04  0.7818609E-02  0.8944986E-01
       -2   -1    0    0    0  501  0.00000000000E+00  0.00000000000E+00  0.11302195222E+04  0.11302195222E+04  0.25500000920E-02 0. -1.
        2   -1    0    0  501    0  0.00000000000E+00  0.00000000000E+00 -0.44117537915E+03  0.44117537916E+03  0.25500000920E-02 0.  1.
    10030    2    1    2    0    0  0.00000000000E+00  0.00000000000E+00  0.68904414309E+03  0.15713949014E+04  0.14122677172E+04 0.  0.
        1    1    3    3  502    0  0.21973799655E+03 -0.26465347803E+03  0.10306905630E+04  0.10865768667E+04  0.50400001928E-02 0. -1.
       -1    1    3    3    0  502 -0.21973799655E+03  0.26465347803E+03 -0.34164641988E+03  0.48481803473E+03  0.50400001928E-02 0.  1.
</event>
<event>
 5   0  0.8293000E-04  0.1402199E+04  0.7818609E-02  0.8952228E-01
        4   -1    0    0  501    0  0.00000000000E+00  0.00000000000E+00  0.10960714285E+04  0.10960721643E+04  0.12699999809E+01 0.  1.
       -4   -1    0    0    0  501  0.00000000000E+00  0.00000000000E+00 -0.44845515737E+03  0.44845695566E+03  0.12699999809E+01 0. -1.
    10030    2    1    2    0    0  0.00000000000E+00  0.00000000000E+00  0.64761627115E+03  0.15445291199E+04  0.14021994750E+04 0.  0.
        2    1    3    3  502    0 -0.26806170811E+03  0.20826806122E+03 -0.35189841383E+03  0.48894289885E+03  0.25500000920E-02 0. -1.
       -2    1    3    3    0  502  0.26806170811E+03 -0.20826806122E+03  0.99951468498E+03  0.10555862211E+04  0.25500000920E-02 0.  1.
</event>
<event>
 5   0  0.2190704E-03  0.1377196E+04  0.7818609E-02  0.8970493E-01
       -2   -1    0    0    0  501  0.00000000000E+00  0.00000000000E+00  0.48671621829E+03  0.48671621829E+03  0.25500000920E-02 0. -1.
        2   -1    0    0  501    0  0.00000000000E+00  0.00000000000E+00 -0.97421675991E+03  0.97421675991E+03  0.25500000920E-02 0.  1.
    10030    2    1    2    0    0  0.00000000000E+00  0.00000000000E+00 -0.48750054162E+03  0.14609329782E+04  0.13771958425E+04 0.  0.
        5    1    3    3  502    0  0.65310212074E+03  0.13599625931E+03 -0.42473341168E+03  0.79085897836E+03  0.46999998093E+01 0.  1.
       -5    1    3    3    0  502 -0.65310212074E+03 -0.13599625931E+03 -0.62767129942E+02  0.67007399984E+03  0.46999998093E+01 0. -1.
</event>
<event>
 5   0  0.1199720E-03  0.1421873E+04  0.7818609E-02  0.8938136E-01
        1   -1    0    0  501    0  0.00000000000E+00  0.00000000000E+00  0.90523417572E+03  0.90523417574E+03  0.50400001928E-02 0. -1.
       -1   -1    0    0    0  501  0.00000000000E+00  0.00000000000E+00 -0.55834274213E+03  0.55834274216E+03  0.50400001928E-02 0.  1.
    10030    2    1    2    0    0  0.00000000000E+00  0.00000000000E+00  0.34689143359E+03  0.14635769179E+04  0.14218733164E+04 0.  0.
        5    1    3    3  502    0 -0.32932717107E+03 -0.46791812195E+03 -0.26083530899E+03  0.62885682223E+03  0.46999998093E+01 0.  1.
       -5    1    3    3    0  502  0.32932717107E+03  0.46791812195E+03  0.60772674258E+03  0.83472009566E+03  0.46999998093E+01 0. -1.
</event>
<event>
 5   0  0.8293000E-04  0.1348108E+04  0.7818609E-02  0.8992261E-01
        3   -1    0    0  501    0  0.00000000000E+00  0.00000000000E+00  0.25691513774E+04  0.25691513794E+04  0.10100000352E+00 0.  1.
       -3   -1    0    0    0  501  0.00000000000E+00  0.00000000000E+00 -0.17684785424E+03  0.17684788308E+03  0.10100000352E+00 0. -1.
    10030    2    1    2    0    0  0.00000000000E+00  0.00000000000E+00  0.23923035232E+04  0.27459992625E+04  0.13481082310E+04 0.  0.
        3    1    3    3  502    0 -0.38715584758E+03 -0.89896914630E+02  0.23050674212E+04  0.23390824980E+04  0.10100000352E+00 0.  1.
       -3    1    3    3    0  502  0.38715584758E+03  0.89896914630E+02  0.87236101949E+02  0.40691676454E+03  0.10100000352E+00 0. -1.
</event>
<event>
 5   0  0.1210275E-03  0.9101010E+03  0.7818609E-02  0.9413042E-01
       -1   -1    0    0    0  501  0.00000000000E+00  0.00000000000E+00  0.15685399795E+03  0.15685399803E+03  0.50400001928E-02 0. -1.
        1   -1    0    0  501    0  0.00000000000E+00  0.00000000000E+00 -0.13201510417E+04  0.13201510417E+04  0.50400001928E-02 0.  1.
    10030    2    1    2    0    0  0.00000000000E+00  0.00000000000E+00 -0.11632970438E+04  0.14770050398E+04  0.91010102486E+03 0.  0.
        1    1    3    3  502    0  0.10763144985E+03 -0.30047612208E+03 -0.55266124046E+02  0.32392093701E+03  0.50400001928E-02 0. -1.
       -1    1    3    3    0  502 -0.10763144985E+03  0.30047612208E+03 -0.11080309197E+04  0.11530841027E+04  0.50400001928E-02 0.  1.
</event>
<event>
 5   0  0.1175374E-03  0.1372748E+04  0.7818609E-02  0.8973785E-01
       -1   -1    0    0    0  501  0.00000000000E+00  0.00000000000E+00  0.13722867948E+04  0.13722867948E+04  0.50400001928E-02 0. -1.
        1   -1    0    0  501    0  0.00000000000E+00  0.00000000000E+00 -0.34330211594E+03  0.34330211597E+03  0.50400001928E-02 0.  1.
    10030    2    1    2    0    0  0.00000000000E+00  0.00000000000E+00  0.10289846789E+04  0.17155889108E+04  0.13727475520E+04 0.  0.
        3    1    3    3  502    0 -0.19639592268E+03 -0.16993728003E+03 -0.27952470557E+03  0.38155485689E+03  0.10100000352E+00 0.  1.
       -3    1    3    3    0  502  0.19639592268E+03  0.16993728003E+03  0.13085093844E+04  0.13340340539E+04  0.10100000352E+00 0. -1.
</event>
<event>
 5   0  0.1175374E-03  0.1406309E+04  0.7818609E-02  0.8949264E-01
       -1   -1    0    0    0  501  0.00000000000E+00  0.00000000000E+00  0.60912160683E+03  0.60912160685E+03  0.50400001928E-02 0. -1.
        1   -1    0    0  501    0  0.00000000000E+00  0.00000000000E+00 -0.81170420317E+03  0.81170420318E+03  0.50400001928E-02 0.  1.
    10030    2    1    2    0    0  0.00000000000E+00  0.00000000000E+00 -0.20258259634E+03  0.14208258100E+04  0.14063094518E+04 0.  0.
        3    1    3    3  502    0  0.26335681093E+03  0.63494886305E+03 -0.25083841900E+03  0.73173546532E+03  0.10100000352E+00 0. -1.
       -3    1    3    3    0  502 -0.26335681093E+03 -0.63494886305E+03  0.48255822659E+02  0.68909034471E+03  0.10100000352E+00 0.  1.
</event>
<event>
 5   0  0.2083966E-03  0.1391906E+04  0.7818609E-02  0.8959699E-01
        2   -1    0    0  501    0  0.00000000000E+00  0.00000000000E+00  0.92741367465E+03  0.92741367466E+03  0.25500000920E-02 0. -1.
       -2   -1    0    0    0  501  0.00000000000E+00  0.00000000000E+00 -0.52225919341E+03  0.52225919341E+03  0.25500000920E-02 0.  1.
    10030    2    1    2    0    0  0.00000000000E+00  0.00000000000E+00  0.40515448125E+03  0.14496728681E+04  0.13919056257E+04 0.  0.
        1    1    3    3  502    0  0.65089748467E+03 -0.18561424336E+03  0.33898448807E+02  0.67769409599E+03  0.50400001928E-02 0. -1.
       -1    1    3    3    0  502 -0.65089748467E+03  0.18561424336E+03  0.37125603244E+03  0.77197877208E+03  0.50400001928E-02 0.  1.
</event>
<event>
 5   0  0.1225690E-03  0.1342166E+04  0.7818609E-02  0.8996780E-01
       -1   -1    0    0    0  501  0.00000000000E+00  0.00000000000E+00  0.30734636823E+03  0.30734636827E+03  0.50400001928E-02 0. -1.
        1   -1    0    0  501    0  0.00000000000E+00  0.00000000000E+00 -0.14652927855E+04  0.14652927855E+04  0.50400001928E-02 0.  1.
    10030    2    1    2    0    0  0.00000000000E+00  0.00000000000E+00 -0.11579464173E+04  0.17726391538E+04  0.13421660345E+04 0.  0.
        4    1    3    3  502    0  0.55413518186E+03  0.17114241234E+03 -0.10248937973E+04  0.11776096271E+04  0.12699999809E+01 0.  1.
       -4    1    3    3    0  502 -0.55413518186E+03 -0.17114241234E+03 -0.13305261993E+03  0.59502952670E+03  0.12699999809E+01 0. -1.
</event>
<event>
 5   0  0.1210275E-03  0.1334182E+04  0.7818609E-02  0.9002889E-01
        1   -1    0    0  501    0  0.00000000000E+00  0.00000000000E+00  0.73689202397E+03  0.73689202399E+03  0.50400001928E-02 0. -1.
       -1   -1    0    0    0  501  0.00000000000E+00  0.00000000000E+00 -0.60390173983E+03  0.60390173985E+03  0.50400001928E-02 0.  1.
    10030    2    1    2    0    0  0.00000000000E+00  0.00000000000E+00  0.13299028414E+03  0.13407937638E+04  0.13341819597E+04 0.  0.
        1    1    3    3  502    0  0.40289550889E+03  0.53027161109E+03  0.10538579449E+03  0.67425435729E+03  0.50400001928E-02 0.  1.
       -1    1    3    3    0  502 -0.40289550889E+03 -0.53027161109E+03  0.27604489652E+02  0.66653940655E+03  0.50400001928E-02 0. -1.
</event>
<event>
 5   0  0.2172901E-03  0.1683492E+04  0.7818609E-02  0.8770836E-01
        2   -1    0    0  501    0  0.00000000000E+00  0.00000000000E+00  0.10248593040E+04  0.10248593040E+04  0.25500000920E-02 0.  1.
       -2   -1    0    0    0  501  0.00000000000E+00  0.00000000000E+00 -0.69135011522E+03  0.69135011522E+03  0.25500000920E-02 0. -1.
    10030    2    1    2    0    0  0.00000000000E+00  0.00000000000E+00  0.33350918880E+03  0.17162094192E+04  0.16834923201E+04 0.  0.
        2    1    3    3  502    0  0.76802183057E+03  0.91788290497E+02  0.50525272187E+03  0.92388469815E+03  0.25500000920E-02 0.  1.
       -2    1    3    3    0  502 -0.76802183057E+03 -0.91788290497E+02 -0.17174353307E+03  0.79232472110E+03  0.25500000920E-02 0. -1.
</event>
<event>
 5   0  0.1175374E-03  0.1404338E+04  0.7818609E-02  0.8950685E-01
       -1   -1    0    0    0  501  0.00000000000E+00  0.00000000000E+00  0.32126008346E+03  0.32126008350E+03  0.50400001928E-02 0.  1.
        1   -1    0    0  501    0  0.00000000000E+00  0.00000000000E+00 -0.15347103842E+04  0.15347103842E+04  0.50400001928E-02 0. -1.
    10030    2    1    2    0    0  0.00000000000E+00  0.00000000000E+00 -0.12134503007E+04  0.18559704677E+04  0.14043378314E+04 0.  0.
        3    1    3    3  502    0 -0.61463567153E+03 -0.32701219326E+03 -0.48612474341E+03  0.84913559554E+03  0.10100000352E+00 0.  1.
       -3    1    3    3    0  502  0.61463567153E+03  0.32701219326E+03 -0.72732555731E+03  0.10068348721E+04  0.10100000352E+00 0. -1.
</event>
<event>
 5   0  0.8293000E-04  0.1391816E+04  0.7818609E-02  0.8959764E-01
       -3   -1    0    0    0  501  0.00000000000E+00  0.00000000000E+00  0.12395486108E+04  0.12395486150E+04  0.10100000352E+00 0.  1.
        3   -1    0    0  501    0  0.00000000000E+00  0.00000000000E+00 -0.39069695838E+03  0.39069697144E+03  0.10100000352E+00 0. -1.
    10030    2    1    2    0    0  0.00000000000E+00  0.00000000000E+00  0.84885165247E+03  0.16302455864E+04  0.13918159160E+04 0.  0.
        3    1    3    3  502    0  0.12457742341E+02 -0.42467752136E+03 -0.22115708614E+03  0.47897459164E+03  0.10100000352E+00 0. -1.
       -3    1    3    3    0  502 -0.12457742341E+02  0.42467752136E+03  0.10700087386E+04  0.11512709948E+04  0.10100000352E+00 0.  1.
</event>
<event>
 5   0  0.2236184E-03  0.1417524E+04  0.7818609E-02  0.8941230E-01
        2   -1    0    0  501    0  0.00000000000E+00  0.00000000000E+00  0.73860053642E+03  0.73860053642E+03  0.25500000920E-02 0. -1.
       -2   -1    0    0    0  501  0.00000000000E+00  0.00000000000E+00 -0.68012904324E+03  0.68012904324E+03  0.25500000920E-02 0.  1.
    10030    2    1    2    0    0  0.00000000000E+00  0.00000000000E+00  0.58471493181E+02  0.14187295797E+04  0.14175241461E+04 0.  0.
        3    1    3    3  502    0 -0.45819195702E+03 -0.50221248618E+03  0.22987171469E+03  0.71763379670E+03  0.10100000352E+00 0.  1.
       -3    1    3    3    0  502  0.45819195702E+03  0.50221248618E+03 -0.17140022151E+03  0.70109578296E+03  0.10100000352E+00 0. -1.
</event>
<event>
 5   0  0.1210275E-03  0.1413502E+04  0.7818609E-02  0.8944103E-01
       -1   -1    0    0    0  501  0.00000000000E+00  0.00000000000E+00  0.39631115037E+03  0.39631115040E+03  0.50400001928E-02 0. -1.
        1   -1    0    0  501    0  0.00000000000E+00  0.00000000000E+00 -0.12603650204E+04  0.12603650204E+04  0.50400001928E-02 0.  1.
    10030    2    1    2    0    0  0.00000000000E+00  0.00000000000E+00 -0.86405386999E+03  0.16566761708E+04  0.14135016252E+04 0.  0.
        1    1    3    3  502    0 -0.91282815689E+02  0.54969213142E+03  0.77509612068E+02  0.56258486628E+03  0.50400001928E-02 0. -1.
       -1    1    3    3    0  502  0.91282815689E+02 -0.54969213142E+03 -0.94156348205E+03  0.10940913045E+04  0.50400001928E-02 0.  1.
</event>
<event>
 5   0  0.2172901E-03  0.1412409E+04  0.7818609E-02  0.8944885E-01
       -2   -1    0    0    0  501  0.00000000000E+00  0.00000000000E+00  0.28494647843E+03  0.28494647844E+03  0.25500000920E-02 0.  1.
        2   -1    0    0  501    0  0.00000000000E+00  0.00000000000E+00 -0.17502400940E+04  0.17502400940E+04  0.25500000920E-02 0. -1.
    10030    2    1    2    0    0  0.00000000000E+00  0.00000000000E+00 -0.14652936155E+04  0.20351865724E+04  0.14124089368E+04 0.  0.
        2    1    3    3  502    0  0.42868506551E+03  0.30246244333E+03 -0.51479630385E+02  0.52716654614E+03  0.25500000920E-02 0.  1.
       -2    1    3    3    0  502 -0.42868506551E+03 -0.30246244333E+03 -0.14138139852E+04  0.15080200263E+04  0.25500000920E-02 0. -1.
</event>
<event>
 5   0  0.1238683E-03  0.1409649E+04  0.7818609E-02  0.8946863E-01
        1   -1    0    0  501    0  0.00000000000E+00  0.00000000000E+00  0.85027701889E+03  0.85027701891E+03  0.50400001928E-02 0.  1.
       -1   -1    0    0    0  501  0.00000000000E+00  0.00000000000E+00 -0.58425394480E+03  0.58425394482E+03  0.50400001928E-02 0. -1.
    10030    2    1    2    0    0  0.00000000000E+00  0.00000000000E+00  0.26602307409E+03  0.14345309637E+04  0.14096491797E+04 0.  0.
        2    1    3    3  502    0  0.64808131365E+03 -0.19453048929E+03 -0.67768208901E+02  0.68003237461E+03  0.25500000920E-02 0. -1.
       -2    1    3    3    0  502 -0.64808131365E+03  0.19453048929E+03  0.33379128299E+03  0.75449858912E+03  0.25500000920E-02 0.  1.
</event>
<event>
 5   0  0.2236184E-03  0.1415285E+04  0.7818609E-02  0.8942829E-01
       -2   -1    0    0    0  501  0.00000000000E+00  0.00000000000E+00  0.50624110972E+03  0.50624110973E+03  0.25500000920E-02 0. -1.
        2   -1    0    0  501    0  0.00000000000E+00  0.00000000000E+00 -0.98916810200E+03  0.98916810201E+03  0.25500000920E-02 0.  1.
    10030    2    1    2    0    0  0.00000000000E+00  0.00000000000E+00 -0.48292699228E+03  0.14954092117E+04  0.14152845052E+04 0.  0.
        3    1    3    3  502    0 -0.60432277090E+03 -0.82847845469E+02 -0.62050340427E+03  0.87011163757E+03  0.10100000352E+00 0.  1.
       -3    1    3    3    0  502  0.60432277090E+03  0.82847845469E+02  0.13757641199E+03  0.62529757417E+03  0.10100000352E+00 0. -1.
</event>
<event>
 5   0  0.2190704E-03  0.9671907E+03  0.7818609E-02  0.9345280E-01
        2   -1    0    0  501    0  0.00000000000E+00  0.00000000000E+00  0.75534031278E+03  0.75534031279E+03  0.25500000920E-02 0.  1.
       -2   -1    0    0    0  501  0.00000000000E+00  0.00000000000E+00 -0.30961472090E+03  0.30961472091E+03  0.25500000920E-02 0. -1.
    10030    2    1    2    0    0  0.00000000000E+00  0.00000000000E+00  0.44572559188E+03  0.10649550337E+04  0.96719073638E+03 0.  0.
        5    1    3    3  502    0 -0.10245374571E+03 -0.18450248936E+03  0.70193343586E+03  0.73298743302E+03  0.46999998093E+01 0.  1.
       -5    1    3    3    0  502  0.10245374571E+03  0.18450248936E+03 -0.25620784397E+03  0.33196760068E+03  0.46999998093E+01 0. -1.
</event>
<event>
 5   0  0.1238683E-03  0.1377577E+04  0.7818609E-02  0.8970211E-01
       -1   -1    0    0    0  501  0.00000000000E+00  0.00000000000E+00  0.40333067877E+03  0.40333067880E+03  0.50400001928E-02 0. -1.
        1   -1    0    0  501    0  0.00000000000E+00  0.00000000000E+00 -0.11762796209E+04  0.11762796209E+04  0.50400001928E-02 0.  1.
    10030    2    1    2    0    0  0.00000000000E+00  0.00000000000E+00 -0.77294894214E+03  0.15796102997E+04  0.13775770874E+04 0.  0.
        2    1    3    3  502    0 -0.66242815100E+02  0.61049571099E+03 -0.74421816373E+03  0.96485947107E+03  0.25500000920E-02 0.  1.
       -2    1    3    3    0  502  0.66242815100E+02 -0.61049571099E+03 -0.28730778406E+02  0.61475082864E+03  0.25500000920E-02 0. -1.
</event>
<event>
 5   0  0.2236184E-03  0.1377343E+04  0.7818609E-02  0.8970384E-01
        2   -1    0    0  501    0  0.00000000000E+00  0.00000000000E+00  0.55347452221E+03  0.55347452221E+03  0.25500000920E-02 0.  1.
       -2   -1    0    0    0  501  0.00000000000E+00  0.00000000000E+00 -0.85689273706E+03  0.85689273707E+03  0.25500000920E-02 0. -1.
    10030    2    1    2    0    0  0.00000000000E+00  0.00000000000E+00 -0.30341821486E+03  0.14103672593E+04  0.13773428015E+04 0.  0.
        3    1    3    3  502    0 -0.32979024141E+02  0.47937057668E+03 -0.65687806107E+03  0.81386274219E+03  0.10100000352E+00 0. -1.
       -3    1    3    3    0  502  0.32979024141E+02 -0.47937057668E+03  0.35345984621E+03  0.59650451709E+03  0.10100000352E+00 0.  1.
</event>
<event>
 5   0  0.2083966E-03  0.1445697E+04  0.7818609E-02  0.8921389E-01
        2   -1    0    0  501    0  0.00000000000E+00  0.00000000000E+00  0.15273421079E+04  0.15273421079E+04  0.25500000920E-02 0.  1.
       -2   -1    0    0    0  501  0.00000000000E+00  0.00000000000E+00 -0.34210428793E+03  0.34210428794E+03  0.25500000920E-02 0. -1.
    10030    2    1    2    0    0  0.00000000000E+00  0.00000000000E+00  0.11852378199E+04  0.18694463958E+04  0.14456974569E+04 0.  0.
        1    1    3    3  502    0  0.41398442353E+03 -0.91106399982E+02  0.13497533220E+04  0.14147499812E+04  0.50400001928E-02 0.  1.
       -1    1    3    3    0  502 -0.41398442353E+03  0.91106399982E+02 -0.16451550203E+03  0.45469641463E+03  0.50400001928E-02 0. -1.
</event>
<event>
 5   0  0.1175374E-03  0.1333914E+04  0.7818609E-02  0.9003095E-01
       -1   -1    0    0    0  501  0.00000000000E+00  0.00000000000E+00  0.49317104926E+03  0.49317104929E+03  0.50400001928E-02 0.  1.
        1   -1    0    0  501    0  0.00000000000E+00  0.00000000000E+00 -0.90198257228E+03  0.90198257230E+03  0.50400001928E-02 0. -1.
    10030    2    1    2    0    0  0.00000000000E+00  0.00000000000E+00 -0.40881152302E+03  0.13951536216E+04  0.13339140776E+04 0.  0.
        3    1    3    3  502    0 -0.25707503052E+02  0.47323661611E+03  0.28641225269E+03  0.55375604668E+03  0.10100000352E+00 0.  1.
       -3    1    3    3    0  502  0.25707503052E+02 -0.47323661611E+03 -0.69522377571E+03  0.84139757491E+03  0.10100000352E+00 0. -1.
</event>
<event>
 5   0  0.2236184E-03  0.1396361E+04  0.7818609E-02  0.8956457E-01
       -2   -1    0    0    0  501  0.00000000000E+00  0.00000000000E+00  0.15811837543E+04  0.15811837544E+04  0.25500000920E-02 0. -1.
        2   -1    0    0  501    0  0.00000000000E+00  0.00000000000E+00 -0.30828543195E+03  0.30828543196E+03  0.25500000920E-02 0.  1.
    10030    2    1    2    0    0  0.00000000000E+00  0.00000000000E+00  0.12728983224E+04  0.18894691863E+04  0.13963608656E+04 0.  0.
        3    1    3    3  502    0 -0.10429080394E+03 -0.17139934186E+03  0.15413350580E+04  0.15543384694E+04  0.10100000352E+00 0. -1.
       -3    1    3    3    0  502  0.10429080394E+03  0.17139934186E+03 -0.26843673563E+03  0.33513071690E+03  0.10100000352E+00 0.  1.
</event>
<event>
 5   0  0.1225690E-03  0.1408731E+04  0.7818609E-02  0.8947523E-01
        1   -1    0    0  501    0  0.00000000000E+00  0.00000000000E+00  0.66005272096E+03  0.66005272098E+03  0.50400001928E-02 0.  1.
       -1   -1    0    0    0  501  0.00000000000E+00  0.00000000000E+00 -0.75165329946E+03  0.75165329948E+03  0.50400001928E-02 0. -1.
    10030    2    1    2    0    0  0.00000000000E+00  0.00000000000E+00 -0.91600578500E+02  0.14117060205E+04  0.14087310681E+04 0.  0.
        4    1    3    3  502    0 -0.84654421033E+02 -0.47239810393E+03  0.47084918685E+03  0.67232946481E+03  0.12699999809E+01 0.  1.
       -4    1    3    3    0  502  0.84654421033E+02  0.47239810393E+03 -0.56244976535E+03  0.73937655564E+03  0.12699999809E+01 0. -1.
</event>
<event>
 5   0  0.1210275E-03  0.1297586E+04  0.7818609E-02  0.9031482E-01
        1   -1    0    0  501    0  0.00000000000E+00  0.00000000000E+00  0.37800233063E+03  0.37800233066E+03  0.50400001928E-02 0. -1.
       -1   -1    0    0    0  501  0.00000000000E+00  0.00000000000E+00 -0.11135703771E+04  0.11135703772E+04  0.50400001928E-02 0.  1.
    10030    2    1    2    0    0  0.00000000000E+00  0.00000000000E+00 -0.73556804652E+03  0.14915727078E+04  0.12975857550E+04 0.  0.
        1    1    3    3  502    0 -0.54224444003E+03  0.29184929937E+03 -0.13297340672E+03  0.62998966119E+03  0.50400001928E-02 0. -1.
       -1    1    3    3    0  502  0.54224444003E+03 -0.29184929937E+03 -0.60259463979E+03  0.86158304662E+03  0.50400001928E-02 0.  1.
</event>
<event>
 5   0  0.1175374E-03  0.1407946E+04  0.7818609E-02  0.8948087E-01
       -1   -1    0    0    0  501  0.00000000000E+00  0.00000000000E+00  0.29093474615E+03  0.29093474619E+03  0.50400001928E-02 0. -1.
        1   -1    0    0  501    0  0.00000000000E+00  0.00000000000E+00 -0.17033986805E+04  0.17033986805E+04  0.50400001928E-02 0.  1.
    10030    2    1    2    0    0  0.00000000000E+00  0.00000000000E+00 -0.14124639343E+04  0.19943334267E+04  0.14079458267E+04 0.  0.
        3    1    3    3  502    0 -0.47712901814E+03 -0.51760293109E+03 -0.71133098091E+03  0.10007780318E+04  0.10100000352E+00 0.  1.
       -3    1    3    3    0  502  0.47712901814E+03  0.51760293109E+03 -0.70113295342E+03  0.99355539494E+03  0.10100000352E+00 0. -1.
</event>
<event>
 5   0  0.2195980E-03  0.1343147E+04  0.7818609E-02  0.8996032E-01
        2   -1    0    0  501    0  0.00000000000E+00  0.00000000000E+00  0.54791085995E+03  0.54791085996E+03  0.25500000920E-02 0. -1.
       -2   -1    0    0    0  501  0.00000000000E+00  0.00000000000E+00 -0.82314633641E+03  0.82314633641E+03  0.25500000920E-02 0.  1.
    10030    2    1    2    0    0  0.00000000000E+00  0.00000000000E+00 -0.27523547646E+03  0.13710571964E+04  0.13431467784E+04 0.  0.
        4    1    3    3  502    0  0.23721498706E+03  0.35689489185E+03 -0.66543525439E+03  0.79148632623E+03  0.12699999809E+01 0.  1.
       -4    1    3    3    0  502 -0.23721498706E+03 -0.35689489185E+03  0.39019977794E+03  0.57957087014E+03  0.12699999809E+01 0. -1.
</event>
<event>
 5   0  0.2195980E-03  0.1391171E+04  0.7818609E-02  0.8960234E-01
        2   -1    0    0  501    0  0.00000000000E+00  0.00000000000E+00  0.19836326850E+04  0.19836326850E+04  0.25500000920E-02 0. -1.
       -2   -1    0    0    0  501  0.00000000000E+00  0.00000000000E+00 -0.24391583024E+03  0.24391583025E+03  0.25500000920E-02 0.  1.
    10030    2    1    2    0    0  0.00000000000E+00  0.00000000000E+00  0.17397168548E+04  0.22275485152E+04  0.13911713241E+04 0.  0.
        4    1    3    3  502    0 -0.30755119048E+03  0.36349426545E+03  0.57932966941E+02  0.47965993927E+03  0.12699999809E+01 0.  1.
       -4    1    3    3    0  502  0.30755119048E+03 -0.36349426545E+03  0.16817838878E+04  0.17478885760E+04  0.12699999809E+01 0. -1.
</event>
<event>
 5   0  0.8293000E-04  0.1341645E+04  0.7818609E-02  0.8997177E-01
       -4   -1    0    0    0  501  0.00000000000E+00  0.00000000000E+00  0.18751834678E+04  0.18751838978E+04  0.12699999809E+01 0.  1.
        4   -1    0    0  501    0  0.00000000000E+00  0.00000000000E+00 -0.23997588242E+03  0.23997924294E+03  0.12699999809E+01 0. -1.
    10030    2    1    2    0    0  0.00000000000E+00  0.00000000000E+00  0.16352075854E+04  0.21151631408E+04  0.13416449847E+04 0.  0.
        4    1    3    3  502    0  0.17255086566E+03 -0.36948338308E+03  0.16573405141E+04  0.17067720892E+04  0.12699999809E+01 0.  1.
       -4    1    3    3    0  502 -0.17255086566E+03  0.36948338308E+03 -0.22132928786E+02  0.40839105163E+03  0.12699999809E+01 0. -1.
</event>
<event>
 5   0  0.1175374E-03  0.1413237E+04  0.7818609E-02  0.8944293E-01
       -1   -1    0    0    0  501  0.00000000000E+00  0.00000000000E+00  0.25694276329E+03  0.25694276334E+03  0.50400001928E-02 0. -1.
        1   -1    0    0  501    0  0.00000000000E+00  0.00000000000E+00 -0.19432710250E+04  0.19432710251E+04  0.50400001928E-02 0.  1.
    10030    2    1    2    0    0  0.00000000000E+00  0.00000000000E+00 -0.16863282618E+04  0.22002137884E+04  0.14132366073E+04 0.  0.
        3    1    3    3  502    0  0.35911996350E+03 -0.24553514735E+03 -0.17100645344E+04  0.17645326233E+04  0.10100000352E+00 0.  1.
       -3    1    3    3    0  502 -0.35911996350E+03  0.24553514735E+03  0.23736272634E+02  0.43568116508E+03  0.10100000352E+00 0. -1.
</event>
<event>
 5   0  0.1199720E-03  0.1404854E+04  0.7818609E-02  0.8950312E-01
        1   -1    0    0  501    0  0.00000000000E+00  0.00000000000E+00  0.19416192782E+04  0.19416192782E+04  0.50400001928E-02 0. -1.
       -1   -1    0    0    0  501  0.00000000000E+00  0.00000000000E+00 -0.25411972242E+03  0.25411972247E+03  0.50400001928E-02 0.  1.
    10030    2    1    2    0    0  0.00000000000E+00  0.00000000000E+00  0.16874995557E+04  0.21957390006E+04  0.14048540879E+04 0.  0.
        5    1    3    3  502    0 -0.59523837520E+02  0.46029170620E+03  0.19709284145E+02  0.46456655918E+03  0.46999998093E+01 0.  1.
       -5    1    3    3    0  502  0.59523837520E+02 -0.46029170620E+03  0.16677902716E+04  0.17311724414E+04  0.46999998093E+01 0. -1.
</event>
<event>
 5   0  0.2172901E-03  0.1384610E+04  0.7818609E-02  0.8965035E-01
       -2   -1    0    0    0  501  0.00000000000E+00  0.00000000000E+00  0.47356305167E+03  0.47356305168E+03  0.25500000920E-02 0.  1.
        2   -1    0    0  501    0  0.00000000000E+00  0.00000000000E+00 -0.10120849241E+04  0.10120849241E+04  0.25500000920E-02 0. -1.
    10030    2    1    2    0    0  0.00000000000E+00  0.00000000000E+00 -0.53852187239E+03  0.14856479757E+04  0.13846097287E+04 0.  0.
        2    1    3    3  502    0 -0.16438787176E+03 -0.64709097282E+03 -0.72769473224E+02  0.67159920766E+03  0.25500000920E-02 0.  1.
       -2    1    3    3    0  502  0.16438787176E+03  0.64709097282E+03 -0.46575239917E+03  0.81404876809E+03  0.25500000920E-02 0. -1.
</event>
<event>
 5   0  0.2236184E-03  0.1396864E+04  0.7818609E-02  0.8956092E-01
       -2   -1    0    0    0  501  0.00000000000E+00  0.00000000000E+00  0.53404511509E+03  0.53404511510E+03  0.25500000920E-02 0.  1.
        2   -1    0    0  501    0  0.00000000000E+00  0.00000000000E+00 -0.91341977469E+03  0.91341977469E+03  0.25500000920E-02 0. -1.
    10030    2    1    2    0    0  0.00000000000E+00  0.00000000000E+00 -0.37937465960E+03  0.14474648898E+04  0.13968641576E+04 0.  0.
        3    1    3    3  502    0  0.35144492551E+03 -0.44095291109E+03  0.23737592438E+03  0.61180090319E+03  0.10100000352E+00 0.  1.
       -3    1    3    3    0  502 -0.35144492551E+03  0.44095291109E+03 -0.61675058398E+03  0.83566398660E+03  0.10100000352E+00 0. -1.
</event>
<event>
 5   0  0.2083966E-03  0.1416072E+04  0.7818609E-02  0.8942266E-01
       -2   -1    0    0    0  501  0.00000000000E+00  0.00000000000E+00  0.78577504615E+03  0.78577504615E+03  0.25500000920E-02 0.  1.
        2   -1    0    0  501    0  0.00000000000E+00  0.00000000000E+00 -0.63798776199E+03  0.63798776200E+03  0.25500000920E-02 0. -1.
    10030    2    1    2    0    0  0.00000000000E+00  0.00000000000E+00  0.14778728416E+03  0.14237628081E+04  0.14160718388E+04 0.  0.
        1    1    3    3  502    0 -0.35853074862E+03  0.10783026478E+03 -0.53032215900E+03  0.64916350487E+03  0.50400001928E-02 0. -1.
       -1    1    3    3    0  502  0.35853074862E+03 -0.10783026478E+03  0.67810944315E+03  0.77459930327E+03  0.50400001928E-02 0.  1.
</event>
<event>
 5   0  0.2172901E-03  0.1398289E+04  0.7818609E-02  0.8955058E-01
       -2   -1    0    0    0  501  0.00000000000E+00  0.00000000000E+00  0.36797303965E+03  0.36797303966E+03  0.25500000920E-02 0. -1.
        2   -1    0    0  501    0  0.00000000000E+00  0.00000000000E+00 -0.13283657481E+04  0.13283657481E+04  0.25500000920E-02 0.  1.
    10030    2    1    2    0    0  0.00000000000E+00  0.00000000000E+00 -0.96039270843E+03  0.16963387877E+04  0.13982886427E+04 0.  0.
        2    1    3    3  502    0  0.22839121989E+03  0.35577481959E+02  0.32027767207E+03  0.39497606735E+03  0.25500000920E-02 0. -1.
       -2    1    3    3    0  502 -0.22839121989E+03 -0.35577481959E+02 -0.12806703805E+04  0.13013627204E+04  0.25500000920E-02 0.  1.
</event>
<event>
 5   0  0.2236184E-03  0.1410440E+04  0.7818609E-02  0.8946296E-01
       -2   -1    0    0    0  501  0.00000000000E+00  0.00000000000E+00  0.31728983616E+03  0.31728983617E+03  0.25500000920E-02 0.  1.
        2   -1    0    0  501    0  0.00000000000E+00  0.00000000000E+00 -0.15674473783E+04  0.15674473783E+04  0.25500000920E-02 0. -1.
    10030    2    1    2    0    0  0.00000000000E+00  0.00000000000E+00 -0.12501575421E+04  0.18847372145E+04  0.14104398206E+04 0.  0.
        3    1    3    3  502    0  0.22571389007E+03  0.13955288604E+03  0.24802549390E+03  0.36323329142E+03  0.10100000352E+00 0.  1.
       -3    1    3    3    0  502 -0.22571389007E+03 -0.13955288604E+03 -0.14981830360E+04  0.15215039230E+04  0.10100000352E+00 0. -1.
</event>
<event>
 5   0  0.1175374E-03  0.1353675E+04  0.7818609E-02  0.8988051E-01
        1   -1    0    0  501    0  0.00000000000E+00  0.00000000000E+00  0.17481319990E+04  0.17481319990E+04  0.50400001928E-02 0.  1.
       -1   -1    0    0    0  501  0.00000000000E+00  0.00000000000E+00 -0.26205620602E+03  0.26205620607E+03  0.50400001928E-02 0. -1.
    10030    2    1    2    0    0  0.00000000000E+00  0.00000000000E+00  0.14860757929E+04  0.20101882050E+04  0.13536747605E+04 0.  0.
        3    1    3    3  502    0  0.45530001107E+02  0.48183367370E+03  0.14456610107E+04  0.15245236758E+04  0.10100000352E+00 0.  1.
       -3    1    3    3    0  502 -0.45530001107E+02 -0.48183367370E+03  0.40414782243E+02  0.48566452921E+03  0.10100000352E+00 0. -1.
</event>
<event>
 5   0  0.2190704E-03  0.1405867E+04  0.7818609E-02  0.8949583E-01
        2   -1    0    0  501    0  0.00000000000E+00  0.00000000000E+00  0.11028505802E+04  0.11028505802E+04  0.25500000920E-02 0.  1.
       -2   -1    0    0    0  501  0.00000000000E+00  0.00000000000E+00 -0.44803467615E+03  0.44803467615E+03  0.25500000920E-02 0. -1.
    10030    2    1    2    0    0  0.00000000000E+00  0.00000000000E+00  0.65481590406E+03  0.15508852564E+04  0.14058667114E+04 0.  0.
        5    1    3    3  502    0  0.41624263149E+03 -0.16407159909E+03 -0.27065511298E+03  0.52292800468E+03  0.46999998093E+01 0. -1.
       -5    1    3    3    0  502 -0.41624263149E+03  0.16407159909E+03  0.92547101705E+03  0.10279572517E+04  0.46999998093E+01 0.  1.
</event>
<event>
 5   0  0.1199720E-03  0.1178803E+04  0.7818609E-02  0.9131615E-01
       -1   -1    0    0    0  501  0.00000000000E+00  0.00000000000E+00  0.81201892788E+03  0.81201892790E+03  0.50400001928E-02 0. -1.
        1   -1    0    0  501    0  0.00000000000E+00  0.00000000000E+00 -0.42781518724E+03  0.42781518727E+03  0.50400001928E-02 0.  1.
    10030    2    1    2    0    0  0.00000000000E+00  0.00000000000E+00  0.38420374064E+03  0.12398341152E+04  0.11788028329E+04 0.  0.
        5    1    3    3  502    0  0.25705652339E+02 -0.39895356990E+03  0.64759068142E+03  0.76106537969E+03  0.46999998093E+01 0. -1.
       -5    1    3    3    0  502 -0.25705652339E+02  0.39895356990E+03 -0.26338694078E+03  0.47876873548E+03  0.46999998093E+01 0.  1.
</event>
<event>
 5   0  0.1175374E-03  0.1389426E+04  0.7818609E-02  0.8961509E-01
        1   -1    0    0  501    0  0.00000000000E+00  0.00000000000E+00  0.13855397894E+04  0.13855397895E+04  0.50400001928E-02 0. -1.
       -1   -1    0    0    0  501  0.00000000000E+00  0.00000000000E+00 -0.34833055855E+03  0.34833055859E+03  0.50400001928E-02 0.  1.
    10030    2    1    2    0    0  0.00000000000E+00  0.00000000000E+00  0.10372092309E+04  0.17338703480E+04  0.13894255630E+04 0.  0.
        3    1    3    3  502    0 -0.22762061567E+03 -0.40624400460E+03 -0.12473884964E+03  0.48208414905E+03  0.10100000352E+00 0.  1.
       -3    1    3    3    0  502  0.22762061567E+03  0.40624400460E+03  0.11619480805E+04  0.12517861990E+04  0.10100000352E+00 0. -1.
</event>
<event>
 5   0  0.2236184E-03  0.1423812E+04  0.7818609E-02  0.8936760E-01
        2   -1    0    0  501    0  0.00000000000E+00  0.00000000000E+00  0.53108881308E+03  0.53108881309E+03  0.25500000920E-02 0.  1.
       -2   -1    0    0    0  501  0.00000000000E+00  0.00000000000E+00 -0.95428532266E+03  0.95428532266E+03  0.25500000920E-02 0. -1.
    10030    2    1    2    0    0  0.00000000000E+00  0.00000000000E+00 -0.42319650958E+03  0.14853741358E+04  0.14238121496E+04 0.  0.
        3    1    3    3  502    0  0.98834895275E+02  0.66639038294E+03 -0.45169197927E+03  0.81109193890E+03  0.10100000352E+00 0.  1.
       -3    1    3    3    0  502 -0.98834895275E+02 -0.66639038294E+03  0.28495469695E+02  0.67428219686E+03  0.10100000352E+00 0. -1.
</event>
<event>
 5   0  0.1210275E-03  0.1371373E+04  0.7818609E-02  0.8974805E-01
        1   -1    0    0  501    0  0.00000000000E+00  0.00000000000E+00  0.87695979605E+03  0.87695979607E+03  0.50400001928E-02 0. -1.
       -1   -1    0    0    0  501  0.00000000000E+00  0.00000000000E+00 -0.53613139579E+03  0.53613139581E+03  0.50400001928E-02 0.  1.
    10030    2    1    2    0    0  0.00000000000E+00  0.00000000000E+00  0.34082840026E+03  0.14130911919E+04  0.13713725672E+04 0.  0.
        1    1    3    3  502    0 -0.33436555774E+03  0.43642205075E+02 -0.44479180545E+03  0.55816191064E+03  0.50400001928E-02 0.  1.
       -1    1    3    3    0  502  0.33436555774E+03 -0.43642205075E+02  0.78562020572E+03  0.85492928124E+03  0.50400001928E-02 0. -1.
</event>
<event>
 5   0  0.1175374E-03  0.1374536E+04  0.7818609E-02  0.8972460E-01
       -1   -1    0    0    0  501  0.00000000000E+00  0.00000000000E+00  0.50733489589E+03  0.50733489591E+03  0.50400001928E-02 0.  1.
        1   -1    0    0  501    0  0.00000000000E+00  0.00000000000E+00 -0.93101626281E+03  0.93101626282E+03  0.50400001928E-02 0. -1.
    10030    2    1    2    0    0  0.00000000000E+00  0.00000000000E+00 -0.42368136692E+03  0.14383511587E+04  0.13745356144E+04 0.  0.
        3    1    3    3  502    0  0.42802473205E+03 -0.53553693446E+03 -0.26237399768E+03  0.73406069523E+03  0.10100000352E+00 0.  1.
       -3    1    3    3    0  502 -0.42802473205E+03  0.53553693446E+03 -0.16130736924E+03  0.70429046351E+03  0.10100000352E+00 0. -1.
</event>
<event>
 5   0  0.1238683E-03  0.1406296E+04  0.7818609E-02  0.8949274E-01
        1   -1    0    0  501    0  0.00000000000E+00  0.00000000000E+00  0.14095162118E+04  0.14095162118E+04  0.50400001928E-02 0.  1.
       -1   -1    0    0    0  501  0.00000000000E+00  0.00000000000E+00 -0.35077082496E+03  0.35077082499E+03  0.50400001928E-02 0. -1.
    10030    2    1    2    0    0  0.00000000000E+00  0.00000000000E+00  0.10587453868E+04  0.17602870368E+04  0.14062960776E+04 0.  0.
        2    1    3    3  502    0  0.15462615997E+03  0.42098103187E+03  0.12072484245E+04  0.12878598670E+04  0.25500000920E-02 0.  1.
       -2    1    3    3    0  502 -0.15462615997E+03 -0.42098103187E+03 -0.14850303768E+03  0.47242716979E+03  0.25500000920E-02 0. -1.
</event>
<event>
 5   0  0.1199720E-03  0.1395740E+04  0.7818609E-02  0.8956908E-01
       -1   -1    0    0    0  501  0.00000000000E+00  0.00000000000E+00  0.25131915737E+03  0.25131915742E+03  0.50400001928E-02 0. -1.
        1   -1    0    0  501    0  0.00000000000E+00  0.00000000000E+00 -0.19378646172E+04  0.19378646172E+04  0.50400001928E-02 0.  1.
    10030    2    1    2    0    0  0.00000000000E+00  0.00000000000E+00 -0.16865454598E+04  0.21891837746E+04  0.13957399511E+04 0.  0.
        5    1    3    3  502    0 -0.48383976120E+03 -0.33071782364E+03 -0.14374852807E+04  0.15523727695E+04  0.46999998093E+01 0.  1.
       -5    1    3    3    0  502  0.48383976120E+03  0.33071782364E+03 -0.24906017914E+03  0.63681100510E+03  0.46999998093E+01 0. -1.
</event>
<event>
 5   0  0.2195980E-03  0.1434219E+04  0.7818609E-02  0.8929415E-01
       -2   -1    0    0    0  501  0.00000000000E+00  0.00000000000E+00  0.54803125414E+03  0.54803125414E+03  0.25500000920E-02 0. -1.
        2   -1    0    0  501    0  0.00000000000E+00  0.00000000000E+00 -0.93835133437E+03  0.93835133437E+03  0.25500000920E-02 0.  1.
    10030    2    1    2    0    0  0.00000000000E+00  0.00000000000E+00 -0.39032008023E+03  0.14863825885E+04  0.14342187540E+04 0.  0.
        4    1    3    3  502    0 -0.30061911363E+03 -0.52836057487E+03 -0.58940007836E+03  0.84671767067E+03  0.12699999809E+01 0.  1.
       -4    1    3    3    0  502  0.30061911363E+03  0.52836057487E+03  0.19907999812E+03  0.63966491784E+03  0.12699999809E+01 0. -1.
</event>
<event>
 5   0  0.2083966E-03  0.1412089E+04  0.7818609E-02  0.8945114E-01
        2   -1    0    0  501    0  0.00000000000E+00  0.00000000000E+00  0.15277932723E+04  0.15277932723E+04  0.25500000920E-02 0.  1.
       -2   -1    0    0    0  501  0.00000000000E+00  0.00000000000E+00 -0.32628691538E+03  0.32628691539E+03  0.25500000920E-02 0. -1.
    10030    2    1    2    0    0  0.00000000000E+00  0.00000000000E+00  0.12015063569E+04  0.18540801877E+04  0.14120891674E+04 0.  0.
        1    1    3    3  502    0 -0.49420532050E+03  0.34727649211E+03  0.12072619901E+03  0.61596645683E+03  0.50400001928E-02 0. -1.
       -1    1    3    3    0  502  0.49420532050E+03 -0.34727649211E+03  0.10807801579E+04  0.12381137309E+04  0.50400001928E-02 0.  1.
</event>
<event>
 5   0  0.1225690E-03  0.1408148E+04  0.7818609E-02  0.8947942E-01
       -1   -1    0    0    0  501  0.00000000000E+00  0.00000000000E+00  0.23389052032E+03  0.23389052037E+03  0.50400001928E-02 0.  1.
        1   -1    0    0  501    0  0.00000000000E+00  0.00000000000E+00 -0.21194531079E+04  0.21194531079E+04  0.50400001928E-02 0. -1.
    10030    2    1    2    0    0  0.00000000000E+00  0.00000000000E+00 -0.18855625876E+04  0.23533436283E+04  0.14081477057E+04 0.  0.
        4    1    3    3  502    0 -0.43955185107E+03 -0.40514246628E+03 -0.32110909408E+03  0.67857122763E+03  0.12699999809E+01 0.  1.
       -4    1    3    3    0  502  0.43955185107E+03  0.40514246628E+03 -0.15644534935E+04  0.16747724007E+04  0.12699999809E+01 0. -1.
</event>
<event>
 5   0  0.2172901E-03  0.1407051E+04  0.7818609E-02  0.8948730E-01
        2   -1    0    0  501    0  0.00000000000E+00  0.00000000000E+00  0.97583055507E+03  0.97583055507E+03  0.25500000920E-02 0. -1.
       -2   -1    0    0    0  501  0.00000000000E+00  0.00000000000E+00 -0.50720699425E+03  0.50720699426E+03  0.25500000920E-02 0.  1.
    10030    2    1    2    0    0  0.00000000000E+00  0.00000000000E+00  0.46862356082E+03  0.14830375493E+04  0.14070509340E+04 0.  0.
        2    1    3    3  502    0 -0.65887155251E+03  0.15490819709E+03  0.32009386417E+02  0.67759344231E+03  0.25500000920E-02 0.  1.
       -2    1    3    3    0  502  0.65887155251E+03 -0.15490819709E+03  0.43661417440E+03  0.80544410702E+03  0.25500000920E-02 0. -1.
</event>
<event>
 5   0  0.1199720E-03  0.1438641E+04  0.7818609E-02  0.8926314E-01
        1   -1    0    0  501    0  0.00000000000E+00  0.00000000000E+00  0.11643995801E+04  0.11643995801E+04  0.50400001928E-02 0.  1.
       -1   -1    0    0    0  501  0.00000000000E+00  0.00000000000E+00 -0.44436798711E+03  0.44436798714E+03  0.50400001928E-02 0. -1.
    10030    2    1    2    0    0  0.00000000000E+00  0.00000000000E+00  0.72003159295E+03  0.16087675672E+04  0.14386408831E+04 0.  0.
        5    1    3    3  502    0 -0.40255143978E+03  0.52777389806E+03  0.66992958958E+03  0.94309103173E+03  0.46999998093E+01 0.  1.
       -5    1    3    3    0  502  0.40255143978E+03 -0.52777389806E+03  0.50102003367E+02  0.66567653548E+03  0.46999998093E+01 0. -1.
</event>
<event>
 5   0  0.2172901E-03  0.1422554E+04  0.7818609E-02  0.8937653E-01
       -2   -1    0    0    0  501  0.00000000000E+00  0.00000000000E+00  0.25891580281E+03  0.25891580282E+03  0.25500000920E-02 0. -1.
        2   -1    0    0  501    0  0.00000000000E+00  0.00000000000E+00 -0.19539735123E+04  0.19539735123E+04  0.25500000920E-02 0.  1.
    10030    2    1    2    0    0  0.00000000000E+00  0.00000000000E+00 -0.16950577095E+04  0.22128893152E+04  0.14225535078E+04 0.  0.
        2    1    3    3  502    0  0.86424852732E+02  0.74426056245E+02  0.24459825960E+03  0.26988294060E+03  0.25500000920E-02 0. -1.
       -2    1    3    3    0  502 -0.86424852732E+02 -0.74426056245E+02 -0.19396559691E+04  0.19430063746E+04  0.25500000920E-02 0.  1.
</event>
<event>
 5   0  0.1225690E-03  0.1380178E+04  0.7818609E-02  0.8968293E-01
       -1   -1    0    0    0  501  0.00000000000E+00  0.00000000000E+00  0.51243834966E+03  0.51243834968E+03  0.50400001928E-02 0.  1.
        1   -1    0    0  501    0  0.00000000000E+00  0.00000000000E+00 -0.92932700520E+03  0.92932700521E+03  0.50400001928E-02 0. -1.
    10030    2    1    2    0    0  0.00000000000E+00  0.00000000000E+00 -0.41688865554E+03  0.14417653549E+04  0.13801779550E+04 0.  0.
        4    1    3    3  502    0 -0.61296066657E+03  0.13123436477E+03  0.93012068694E+02  0.63371609975E+03  0.12699999809E+01 0. -1.
       -4    1    3    3    0  502  0.61296066657E+03 -0.13123436477E+03 -0.50990072424E+03  0.80804925515E+03  0.12699999809E+01 0.  1.
</event>
<event>
 5   0  0.1238683E-03  0.1385400E+04  0.7818609E-02  0.8964455E-01
        1   -1    0    0  501    0  0.00000000000E+00  0.00000000000E+00  0.13832328832E+04  0.13832328832E+04  0.50400001928E-02 0.  1.
       -1   -1    0    0    0  501  0.00000000000E+00  0.00000000000E+00 -0.34689257566E+03  0.34689257570E+03  0.50400001928E-02 0. -1.
    10030    2    1    2    0    0  0.00000000000E+00  0.00000000000E+00  0.10363403075E+04  0.17301254589E+04  0.13853998955E+04 0.  0.
        2    1    3    3  502    0  0.25075091375E+03 -0.63090445933E+03  0.34640865383E+03  0.76217807172E+03  0.25500000920E-02 0. -1.
       -2    1    3    3    0  502 -0.25075091375E+03  0.63090445933E+03  0.68993165368E+03  0.96794738716E+03  0.25500000920E-02 0.  1.
</event>
<event>
 5   0  0.1238683E-03  0.1392399E+04  0.7818609E-02  0.8959339E-01
       -1   -1    0    0    0  501  0.00000000000E+00  0.00000000000E+00  0.57071764337E+03  0.57071764340E+03  0.50400001928E-02 0.  1.
        1   -1    0    0  501    0  0.00000000000E+00  0.00000000000E+00 -0.84927090866E+03  0.84927090867E+03  0.50400001928E-02 0. -1.
    10030    2    1    2    0    0  0.00000000000E+00  0.00000000000E+00 -0.27855326528E+03  0.14199885521E+04  0.13923992123E+04 0.  0.
        2    1    3    3  502    0  0.97077793254E+02 -0.12298615176E+03  0.55250344440E+03  0.57429064727E+03  0.25500000920E-02 0.  1.
       -2    1    3    3    0  502 -0.97077793254E+02  0.12298615176E+03 -0.83105670968E+03  0.84569790480E+03  0.25500000920E-02 0. -1.
</event>
<event>
 5   0  0.2172901E-03  0.1195539E+04  0.7818609E-02  0.9116770E-01
        2   -1    0    0  501    0  0.00000000000E+00  0.00000000000E+00  0.77822091334E+03  0.77822091334E+03  0.25500000920E-02 0. -1.
       -2   -1    0    0    0  501  0.00000000000E+00  0.00000000000E+00 -0.45916087847E+03  0.45916087848E+03  0.25500000920E-02 0.  1.
    10030    2    1    2    0    0  0.00000000000E+00  0.00000000000E+00  0.31906003486E+03  0.12373817918E+04  0.11955393732E+04 0.  0.
        2    1    3    3  502    0 -0.56327825462E+03  0.17797848555E+03  0.64841120300E+02  0.59427527656E+03  0.25500000920E-02 0. -1.
       -2    1    3    3    0  502  0.56327825462E+03 -0.17797848555E+03  0.25421891456E+03  0.64310651526E+03  0.25500000920E-02 0.  1.
</event>
<event>
 5   0  0.1199720E-03  0.1395465E+04  0.7818609E-02  0.8957108E-01
        1   -1    0    0  501    0  0.00000000000E+00  0.00000000000E+00  0.60136755940E+03  0.60136755942E+03  0.50400001928E-02 0. -1.
       -1   -1    0    0    0  501  0.00000000000E+00  0.00000000000E+00 -0.80953890475E+03  0.80953890477E+03  0.50400001928E-02 0.  1.
    10030    2    1    2    0    0  0.00000000000E+00  0.00000000000E+00 -0.20817134536E+03  0.14109064642E+04  0.13954647046E+04 0.  0.
        5    1    3    3  502    0 -0.17945306217E+03  0.14250346129E+03 -0.77039076934E+03  0.80376281668E+03  0.46999998093E+01 0.  1.
       -5    1    3    3    0  502  0.17945306217E+03 -0.14250346129E+03  0.56221942398E+03  0.60714364750E+03  0.46999998093E+01 0. -1.
</event>
<event>
 5   0  0.2190704E-03  0.1384570E+04  0.7818609E-02  0.8965064E-01
       -2   -1    0    0    0  501  0.00000000000E+00  0.00000000000E+00  0.51018397406E+03  0.51018397407E+03  0.25500000920E-02 0.  1.
        2   -1    0    0  501    0  0.00000000000E+00  0.00000000000E+00 -0.93938355743E+03  0.93938355743E+03  0.25500000920E-02 0. -1.
    10030    2    1    2    0    0  0.00000000000E+00  0.00000000000E+00 -0.42919958337E+03  0.14495675315E+04  0.13845698776E+04 0.  0.
        5    1    3    3  502    0 -0.23699586687E+03  0.75393231288E+02  0.46178226660E+03  0.52451513990E+03  0.46999998093E+01 0.  1.
       -5    1    3    3    0  502  0.23699586687E+03 -0.75393231288E+02 -0.89098184997E+03  0.92505239160E+03  0.46999998093E+01 0. -1.
</event>
<event>
 5   0  0.2190704E-03  0.1393990E+04  0.7818609E-02  0.8958180E-01
       -2   -1    0    0    0  501  0.00000000000E+00  0.00000000000E+00  0.54777559975E+03  0.54777559975E+03  0.25500000920E-02 0.  1.
        2   -1    0    0  501    0  0.00000000000E+00  0.00000000000E+00 -0.88686353330E+03  0.88686353331E+03  0.25500000920E-02 0. -1.
    10030    2    1    2    0    0  0.00000000000E+00  0.00000000000E+00 -0.33908793355E+03  0.14346391331E+04  0.13939902494E+04 0.  0.
        5    1    3    3  502    0  0.12724157500E+03 -0.96951314404E+02 -0.86769854576E+03  0.88233374190E+03  0.46999998093E+01 0. -1.
       -5    1    3    3    0  502 -0.12724157500E+03  0.96951314404E+02  0.52861061221E+03  0.55230539116E+03  0.46999998093E+01 0.  1.
</event>
<event>
 5   0  0.2195980E-03  0.1414741E+04  0.7818609E-02  0.8943217E-01
        2   -1    0    0  501    0  0.00000000000E+00  0.00000000000E+00  0.11070691894E+04  0.11070691894E+04  0.25500000920E-02 0. -1.
       -2   -1    0    0    0  501  0.00000000000E+00  0.00000000000E+00 -0.45198004112E+03  0.45198004112E+03  0.25500000920E-02 0.  1.
    10030    2    1    2    0    0  0.00000000000E+00  0.00000000000E+00  0.65508914828E+03  0.15590492305E+04  0.14147412170E+04 0.  0.
        4    1    3    3  502    0 -0.23193683441E+03 -0.66372915529E+02  0.10603323215E+04  0.10874310572E+04  0.12699999809E+01 0. -1.
       -4    1    3    3    0  502  0.23193683441E+03  0.66372915529E+02 -0.40524317326E+03  0.47161817336E+03  0.12699999809E+01 0.  1.
</event>
<event>
 5   0  0.1225690E-03  0.1621058E+04  0.7818609E-02  0.8807715E-01
        1   -1    0    0  501    0  0.00000000000E+00  0.00000000000E+00  0.45426586705E+03  0.45426586707E+03  0.50400001928E-02 0.  1.
       -1   -1    0    0    0  501  0.00000000000E+00  0.00000000000E+00 -0.14461947902E+04  0.14461947902E+04  0.50400001928E-02 0. -1.
    10030    2    1    2    0    0  0.00000000000E+00  0.00000000000E+00 -0.99192892315E+03  0.19004606573E+04  0.16210575934E+04 0.  0.
        4    1    3    3  502    0 -0.20980821656E+03  0.31382924955E+03 -0.13368381658E+04  0.13891170505E+04  0.12699999809E+01 0. -1.
       -4    1    3    3    0  502  0.20980821656E+03 -0.31382924955E+03  0.34490924265E+03  0.51134360676E+03  0.12699999809E+01 0.  1.
</event>
<event>
 5   0  0.1238683E-03  0.1414520E+04  0.7818609E-02  0.8943374E-01
       -1   -1    0    0    0  501  0.00000000000E+00  0.00000000000E+00  0.64304597150E+03  0.64304597152E+03  0.50400001928E-02 0.  1.
        1   -1    0    0  501    0  0.00000000000E+00  0.00000000000E+00 -0.77788690634E+03  0.77788690636E+03  0.50400001928E-02 0. -1.
    10030    2    1    2    0    0  0.00000000000E+00  0.00000000000E+00 -0.13484093484E+03  0.14209328779E+04  0.14145204720E+04 0.  0.
        2    1    3    3  502    0 -0.17457390276E+03  0.56406270045E+01 -0.75588068327E+03  0.77579860244E+03  0.25500000920E-02 0. -1.
       -2    1    3    3    0  502  0.17457390276E+03 -0.56406270045E+01  0.62103974843E+03  0.64513427543E+03  0.25500000920E-02 0.  1.
</event>
<event>
 5   0  0.2172901E-03  0.8674890E+03  0.7818609E-02  0.9467160E-01
       -2   -1    0    0    0  501  0.00000000000E+00  0.00000000000E+00  0.41267859148E+03  0.41267859149E+03  0.25500000920E-02 0.  1.
        2   -1    0    0  501    0  0.00000000000E+00  0.00000000000E+00 -0.45588571536E+03  0.45588571536E+03  0.25500000920E-02 0. -1.
    10030    2    1    2    0    0  0.00000000000E+00  0.00000000000E+00 -0.43207123875E+02  0.86856430686E+03  0.86748896223E+03 0.  0.
        2    1    3    3  502    0  0.13518048200E+03 -0.26819081124E+03 -0.33493589525E+03  0.44986901192E+03  0.25500000920E-02 0. -1.
       -2    1    3    3    0  502 -0.13518048200E+03  0.26819081124E+03  0.29172877138E+03  0.41869529494E+03  0.25500000920E-02 0.  1.
</event>
<event>
 5   0  0.1238683E-03  0.1081788E+04  0.7818609E-02  0.9223127E-01
        1   -1    0    0  501    0  0.00000000000E+00  0.00000000000E+00  0.41820292578E+03  0.41820292581E+03  0.50400001928E-02 0. -1.
       -1   -1    0    0    0  501  0.00000000000E+00  0.00000000000E+00 -0.69957958575E+03  0.69957958577E+03  0.50400001928E-02 0.  1.
    10030    2    1    2    0    0  0.00000000000E+00  0.00000000000E+00 -0.28137665998E+03  0.11177825116E+04  0.10817878343E+04 0.  0.
        2    1    3    3  502    0  0.69829106956E+02  0.17934258332E+03  0.38162736296E+03  0.42741000285E+03  0.25500000920E-02 0. -1.
       -2    1    3    3    0  502 -0.69829106956E+02 -0.17934258332E+03 -0.66300402294E+03  0.69037250873E+03  0.25500000920E-02 0.  1.
</event>
<event>
 5   0  0.2236184E-03  0.1407031E+04  0.7818609E-02  0.8948745E-01
       -2   -1    0    0    0  501  0.00000000000E+00  0.00000000000E+00  0.28573344149E+03  0.28573344150E+03  0.25500000920E-02 0. -1.
        2   -1    0    0  501    0  0.00000000000E+00  0.00000000000E+00 -0.17321522844E+04  0.17321522844E+04  0.25500000920E-02 0.  1.
    10030    2    1    2    0    0  0.00000000000E+00  0.00000000000E+00 -0.14464188429E+04  0.20178857259E+04  0.14070306797E+04 0.  0.
        3    1    3    3  502    0 -0.33739821196E+03  0.32781469062E+03 -0.14734108221E+04  0.15466866152E+04  0.10100000352E+00 0.  1.
       -3    1    3    3    0  502  0.33739821196E+03 -0.32781469062E+03  0.26991979120E+02  0.47119911074E+03  0.10100000352E+00 0. -1.
</event>
<event>
 5   0  0.2190704E-03  0.1308981E+04  0.7818609E-02  0.9022473E-01
       -2   -1    0    0    0  501  0.00000000000E+00  0.00000000000E+00  0.36014806286E+03  0.36014806287E+03  0.25500000920E-02 0.  1.
        2   -1    0    0  501    0  0.00000000000E+00  0.00000000000E+00 -0.11893939859E+04  0.11893939859E+04  0.25500000920E-02 0. -1.
    10030    2    1    2    0    0  0.00000000000E+00  0.00000000000E+00 -0.82924592308E+03  0.15495420488E+04  0.13089811916E+04 0.  0.
        5    1    3    3  502    0 -0.22646333457E+03  0.61112220441E+03 -0.34379529331E+03  0.73686720942E+03  0.46999998093E+01 0.  1.
       -5    1    3    3    0  502  0.22646333457E+03 -0.61112220441E+03 -0.48545062977E+03  0.81267483938E+03  0.46999998093E+01 0. -1.
</event>
<event>
 5   0  0.1199720E-03  0.1435531E+04  0.7818609E-02  0.8928493E-01
        1   -1    0    0  501    0  0.00000000000E+00  0.00000000000E+00  0.43517154455E+03  0.43517154458E+03  0.50400001928E-02 0. -1.
       -1   -1    0    0    0  501  0.00000000000E+00  0.00000000000E+00 -0.11838720944E+04  0.11838720944E+04  0.50400001928E-02 0.  1.
    10030    2    1    2    0    0  0.00000000000E+00  0.00000000000E+00 -0.74870054986E+03  0.16190436390E+04  0.14355311880E+04 0.  0.
        5    1    3    3  502    0  0.18264902660E+03  0.21106423069E+03  0.37143550783E+03  0.46464524411E+03  0.46999998093E+01 0. -1.
       -5    1    3    3    0  502 -0.18264902660E+03 -0.21106423069E+03 -0.11201360577E+04  0.11543983949E+04  0.46999998093E+01 0.  1.
</event>
<event>
 5   0  0.1175374E-03  0.1477900E+04  0.7818609E-02  0.8899284E-01
        1   -1    0    0  501    0  0.00000000000E+00  0.00000000000E+00  0.11923653256E+04  0.11923653256E+04  0.50400001928E-02 0.  1.
       -1   -1    0    0    0  501  0.00000000000E+00  0.00000000000E+00 -0.45795271305E+03  0.45795271307E+03  0.50400001928E-02 0. -1.
    10030    2    1    2    0    0  0.00000000000E+00  0.00000000000E+00  0.73441261256E+03  0.16503180387E+04  0.14778997745E+04 0.  0.
        3    1    3    3  502    0  0.37637191772E+03  0.71919339825E+02  0.10727568151E+04  0.11391380103E+04  0.10100000352E+00 0.  1.
       -3    1    3    3    0  502 -0.37637191772E+03 -0.71919339825E+02 -0.33834420253E+03  0.51118002844E+03  0.10100000352E+00 0. -1.
</event>
<event>
 5   0  0.2236184E-03  0.1455705E+04  0.7818609E-02  0.8914455E-01
        2   -1    0    0  501    0  0.00000000000E+00  0.00000000000E+00  0.11295931374E+04  0.11295931374E+04  0.25500000920E-02 0. -1.
       -2   -1    0    0    0  501  0.00000000000E+00  0.00000000000E+00 -0.46899095505E+03  0.46899095505E+03  0.25500000920E-02 0.  1.
    10030    2    1    2    0    0  0.00000000000E+00  0.00000000000E+00  0.66060218239E+03  0.15985840925E+04  0.14557045914E+04 0.  0.
        3    1    3    3  502    0  0.38942991232E+03  0.58244090140E+03  0.54682329029E+03  0.88876812569E+03  0.10100000352E+00 0. -1.
       -3    1    3    3    0  502 -0.38942991232E+03 -0.58244090140E+03  0.11377889209E+03  0.70981596680E+03  0.10100000352E+00 0.  1.
</event>
<event>
 5   0  0.2083966E-03  0.1402413E+04  0.7818609E-02  0.8952074E-01
        2   -1    0    0  501    0  0.00000000000E+00  0.00000000000E+00  0.20318627537E+04  0.20318627537E+04  0.25500000920E-02 0.  1.
       -2   -1    0    0    0  501  0.00000000000E+00  0.00000000000E+00 -0.24199003668E+03  0.24199003669E+03  0.25500000920E-02 0. -1.
    10030    2    1    2    0    0  0.00000000000E+00  0.00000000000E+00  0.17898727170E+04  0.22738527904E+04  0.14024129810E+04 0.  0.
        1    1    3    3  502    0  0.40857859592E+03 -0.38066681026E+03  0.15825394856E+04  0.16781760674E+04  0.50400001928E-02 0.  1.
       -1    1    3    3    0  502 -0.40857859592E+03  0.38066681026E+03  0.20733323138E+03  0.59567672301E+03  0.50400001928E-02 0. -1.
</event>
<event>
 5   0  0.2083966E-03  0.1579396E+04  0.7818609E-02  0.8833307E-01
       -2   -1    0    0    0  501  0.00000000000E+00  0.00000000000E+00  0.86660346518E+03  0.86660346518E+03  0.25500000920E-02 0. -1.
        2   -1    0    0  501    0  0.00000000000E+00  0.00000000000E+00 -0.71961701300E+03  0.71961701301E+03  0.25500000920E-02 0.  1.
    10030    2    1    2    0    0  0.00000000000E+00  0.00000000000E+00  0.14698645217E+03  0.15862204782E+04  0.15793955769E+04 0.  0.
        1    1    3    3  502    0  0.11118758197E+03  0.71043143386E+03  0.40131926368E+03  0.82348810072E+03  0.50400001928E-02 0. -1.
       -1    1    3    3    0  502 -0.11118758197E+03 -0.71043143386E+03 -0.25433281151E+03  0.76273237747E+03  0.50400001928E-02 0.  1.
</event>
<event>
 5   0  0.2172901E-03  0.1477860E+04  0.7818609E-02  0.8899311E-01
       -2   -1    0    0    0  501  0.00000000000E+00  0.00000000000E+00  0.51795082176E+03  0.51795082176E+03  0.25500000920E-02 0. -1.
        2   -1    0    0  501    0  0.00000000000E+00  0.00000000000E+00 -0.10541876877E+04  0.10541876877E+04  0.25500000920E-02 0.  1.
    10030    2    1    2    0    0  0.00000000000E+00  0.00000000000E+00 -0.53623686592E+03  0.15721385094E+04  0.14778597757E+04 0.  0.
        2    1    3    3  502    0 -0.71500627203E+03  0.11315181929E+03 -0.42583313169E+03  0.83986377426E+03  0.25500000920E-02 0.  1.
       -2    1    3    3    0  502  0.71500627203E+03 -0.11315181929E+03 -0.11040373423E+03  0.73227473519E+03  0.25500000920E-02 0. -1.
</event>
<event>
 5   0  0.1210275E-03  0.1386571E+04  0.7818609E-02  0.8963597E-01
       -1   -1    0    0    0  501  0.00000000000E+00  0.00000000000E+00  0.52719143841E+03  0.52719143843E+03  0.50400001928E-02 0.  1.
        1   -1    0    0  501    0  0.00000000000E+00  0.00000000000E+00 -0.91170831869E+03  0.91170831870E+03  0.50400001928E-02 0. -1.
    10030    2    1    2    0    0  0.00000000000E+00  0.00000000000E+00 -0.38451688028E+03  0.14388997571E+04  0.13865710511E+04 0.  0.
        1    1    3    3  502    0  0.22440449735E+03  0.57932326783E+03  0.12704174484E+03  0.63412335711E+03  0.50400001928E-02 0.  1.
       -1    1    3    3    0  502 -0.22440449735E+03 -0.57932326783E+03 -0.51155862512E+03  0.80477640002E+03  0.50400001928E-02 0. -1.
</event>
<event>
 5   0  0.2083966E-03  0.1408434E+04  0.7818609E-02  0.8947736E-01
       -2   -1    0    0    0  501  0.00000000000E+00  0.00000000000E+00  0.30529102638E+03  0.30529102639E+03  0.25500000920E-02 0. -1.
        2   -1    0    0  501    0  0.00000000000E+00  0.00000000000E+00 -0.16244219574E+04  0.16244219574E+04  0.25500000920E-02 0.  1.
    10030    2    1    2    0    0  0.00000000000E+00  0.00000000000E+00 -0.13191309310E+04  0.19297129838E+04  0.14084338063E+04 0.  0.
        1    1    3    3  502    0 -0.49649880644E+03  0.38333000700E+02 -0.13417948482E+04  0.14312211214E+04  0.50400001928E-02 0.  1.
       -1    1    3    3    0  502  0.49649880644E+03 -0.38333000700E+02  0.22663917111E+02  0.49849186243E+03  0.50400001928E-02 0. -1.
</event>
<event>
 5   0  0.2195980E-03  0.1407797E+04  0.7818609E-02  0.8948194E-01
       -2   -1    0    0    0  501  0.00000000000E+00  0.00000000000E+00  0.32429939532E+03  0.32429939533E+03  0.25500000920E-02 0.  1.
        2   -1    0    0  501    0  0.00000000000E+00  0.00000000000E+00 -0.15278270833E+04  0.15278270833E+04  0.25500000920E-02 0. -1.
    10030    2    1    2    0    0  0.00000000000E+00  0.00000000000E+00 -0.12035276880E+04  0.18521264787E+04  0.14077974276E+04 0.  0.
        4    1    3    3  502    0  0.54052878129E+03 -0.41243844280E+03 -0.36206468621E+03  0.77030466856E+03  0.12699999809E+01 0. -1.
       -4    1    3    3    0  502 -0.54052878129E+03  0.41243844280E+03 -0.84146300179E+03  0.10818218101E+04  0.12699999809E+01 0.  1.
</event>
<event>
 5   0  0.2236184E-03  0.1392963E+04  0.7818609E-02  0.8958928E-01
       -2   -1    0    0    0  501  0.00000000000E+00  0.00000000000E+00  0.34347166070E+03  0.34347166071E+03  0.25500000920E-02 0.  1.
        2   -1    0    0  501    0  0.00000000000E+00  0.00000000000E+00 -0.14123035484E+04  0.14123035484E+04  0.25500000920E-02 0. -1.
    10030    2    1    2    0    0  0.00000000000E+00  0.00000000000E+00 -0.10688318876E+04  0.17557752091E+04  0.13929626631E+04 0.  0.
        3    1    3    3  502    0 -0.89047173045E+02 -0.62115521259E+03 -0.15350836683E+03  0.64600930802E+03  0.10100000352E+00 0.  1.
       -3    1    3    3    0  502  0.89047173045E+02  0.62115521259E+03 -0.91532352082E+03  0.11097659010E+04  0.10100000352E+00 0. -1.
</event>
<event>
 5   0  0.1175374E-03  0.1043041E+04  0.7818609E-02  0.9262558E-01
        1   -1    0    0  501    0  0.00000000000E+00  0.00000000000E+00  0.14995309509E+04  0.14995309509E+04  0.50400001928E-02 0. -1.
       -1   -1    0    0    0  501  0.00000000000E+00  0.00000000000E+00 -0.18137915967E+03  0.18137915974E+03  0.50400001928E-02 0.  1.
    10030    2    1    2    0    0  0.00000000000E+00  0.00000000000E+00  0.13181517913E+04  0.16809101107E+04  0.10430410612E+04 0.  0.
        3    1    3    3  502    0  0.44281013559E+03  0.16566134789E+03  0.30431887114E+03  0.56225837824E+03  0.10100000352E+00 0.  1.
       -3    1    3    3    0  502 -0.44281013559E+03 -0.16566134789E+03  0.10138329201E+04  0.11186517324E+04  0.10100000352E+00 0. -1.
</event>
<event>
 5   0  0.8293000E-04  0.1433393E+04  0.7818609E-02  0.8929995E-01
        4   -1    0    0  501    0  0.00000000000E+00  0.00000000000E+00  0.89308015207E+03  0.89308105507E+03  0.12699999809E+01 0. -1.
       -4   -1    0    0    0  501  0.00000000000E+00  0.00000000000E+00 -0.57514693103E+03  0.57514833319E+03  0.12699999809E+01 0.  1.
    10030    2    1    2    0    0  0.00000000000E+00  0.00000000000E+00  0.31793322104E+03  0.14682293883E+04  0.14333931783E+04 0.  0.
        3    1    3    3  502    0 -0.34481001367E+03  0.56248034146E+03  0.44572747393E+03  0.79621044408E+03  0.10100000352E+00 0. -1.
       -3    1    3    3    0  502  0.34481001367E+03 -0.56248034146E+03 -0.12779425288E+03  0.67201894417E+03  0.10100000352E+00 0.  1.
</event>
<event>
 5   0  0.2083966E-03  0.1385522E+04  0.7818609E-02  0.8964366E-01
       -2   -1    0    0    0  501  0.00000000000E+00  0.00000000000E+00  0.45969134221E+03  0.45969134222E+03  0.25500000920E-02 0.  1.
        2   -1    0    0  501    0  0.00000000000E+00  0.00000000000E+00 -0.10439994724E+04  0.10439994724E+04  0.25500000920E-02 0. -1.
    10030    2    1    2    0    0  0.00000000000E+00  0.00000000000E+00 -0.58430813015E+03  0.15036908146E+04  0.13855215895E+04 0.  0.
        1    1    3    3  502    0 -0.20404049195E+03 -0.45663770403E+03 -0.81237650264E+03  0.95399480982E+03  0.50400001928E-02 0. -1.
       -1    1    3    3    0  502  0.20404049195E+03  0.45663770403E+03  0.22806837249E+03  0.54969600476E+03  0.50400001928E-02 0.  1.
</event>
<event>
 5   0  0.2195980E-03  0.1407005E+04  0.7818609E-02  0.8948763E-01
        2   -1    0    0  501    0  0.00000000000E+00  0.00000000000E+00  0.83114091395E+03  0.83114091396E+03  0.25500000920E-02 0.  1.
       -2   -1    0    0    0  501  0.00000000000E+00  0.00000000000E+00 -0.59546565853E+03  0.59546565853E+03  0.25500000920E-02 0. -1.
    10030    2    1    2    0    0  0.00000000000E+00  0.00000000000E+00  0.23567525542E+03  0.14266065725E+04  0.14070051481E+04 0.  0.
        4    1    3    3  502    0 -0.57522213939E+03 -0.13884265427E+03  0.50360680136E+03  0.77703231307E+03  0.12699999809E+01 0.  1.
       -4    1    3    3    0  502  0.57522213939E+03  0.13884265427E+03 -0.26793154593E+03  0.64957425942E+03  0.12699999809E+01 0. -1.
</event>
<event>
 5   0  0.2236184E-03  0.1431532E+04  0.7818609E-02  0.8931305E-01
        2   -1    0    0  501    0  0.00000000000E+00  0.00000000000E+00  0.16055935057E+04  0.16055935057E+04  0.25500000920E-02 0.  1.
       -2   -1    0    0    0  501  0.00000000000E+00  0.00000000000E+00 -0.31908490918E+03  0.31908490919E+03  0.25500000920E-02 0. -1.
    10030    2    1    2    0    0  0.00000000000E+00  0.00000000000E+00  0.12865085965E+04  0.19246784149E+04  0.14315315686E+04 0.  0.
        3    1    3    3  502    0 -0.29550737536E+03  0.23905904720E+03 -0.17218332178E+03  0.41727801697E+03  0.10100000352E+00 0. -1.
       -3    1    3    3    0  502  0.29550737536E+03 -0.23905904720E+03  0.14586919183E+04  0.15074003979E+04  0.10100000352E+00 0.  1.
</event>
<event>
 5   0  0.1210275E-03  0.1426606E+04  0.7818609E-02  0.8934782E-01
        1   -1    0    0  501    0  0.00000000000E+00  0.00000000000E+00  0.13548754102E+04  0.13548754102E+04  0.50400001928E-02 0. -1.
       -1   -1    0    0    0  501  0.00000000000E+00  0.00000000000E+00 -0.37553363295E+03  0.37553363298E+03  0.50400001928E-02 0.  1.
    10030    2    1    2    0    0  0.00000000000E+00  0.00000000000E+00  0.97934177721E+03  0.17304090432E+04  0.14266061615E+04 0.  0.
        1    1    3    3  502    0  0.14931176447E+03 -0.26285605569E+03  0.12733317798E+04  0.13087250019E+04  0.50400001928E-02 0. -1.
       -1    1    3    3    0  502 -0.14931176447E+03  0.26285605569E+03 -0.29399000260E+03  0.42168404128E+03  0.50400001928E-02 0.  1.
</event>
<event>
 5   0  0.2172901E-03  0.1300554E+04  0.7818609E-02  0.9029126E-01
        2   -1    0    0  501    0  0.00000000000E+00  0.00000000000E+00  0.12678171812E+04  0.12678171812E+04  0.25500000920E-02 0.  1.
       -2   -1    0    0    0  501  0.00000000000E+00  0.00000000000E+00 -0.33353400282E+03  0.33353400283E+03  0.25500000920E-02 0. -1.
    10030    2    1    2    0    0  0.00000000000E+00  0.00000000000E+00  0.93428317840E+03  0.16013511841E+04  0.13005539425E+04 0.  0.
        2    1    3    3  502    0  0.32138024602E+03 -0.28609002628E+03 -0.13319914429E+03  0.45041622719E+03  0.25500000920E-02 0. -1.
       -2    1    3    3    0  502 -0.32138024602E+03  0.28609002628E+03  0.10674823227E+04  0.11509349569E+04  0.25500000920E-02 0.  1.
</event>
<event>
 5   0  0.1210275E-03  0.1455625E+04  0.7818609E-02  0.8914510E-01
       -1   -1    0    0    0  501  0.00000000000E+00  0.00000000000E+00  0.51817462546E+03  0.51817462548E+03  0.50400001928E-02 0.  1.
        1   -1    0    0  501    0  0.00000000000E+00  0.00000000000E+00 -0.10222639789E+04  0.10222639790E+04  0.50400001928E-02 0. -1.
    10030    2    1    2    0    0  0.00000000000E+00  0.00000000000E+00 -0.50408935348E+03  0.15404386044E+04  0.14556253013E+04 0.  0.
        1    1    3    3  502    0 -0.29609478148E+03  0.56667088310E+03  0.11595691285E+03  0.64979536397E+03  0.50400001928E-02 0.  1.
       -1    1    3    3    0  502  0.29609478148E+03 -0.56667088310E+03 -0.62004626633E+03  0.89064324046E+03  0.50400001928E-02 0. -1.
</event>
<event>
 5   0  0.1238683E-03  0.1446793E+04  0.7818609E-02  0.8920627E-01
       -1   -1    0    0    0  501  0.00000000000E+00  0.00000000000E+00  0.32786501202E+03  0.32786501206E+03  0.50400001928E-02 0. -1.
        1   -1    0    0  501    0  0.00000000000E+00  0.00000000000E+00 -0.15960919529E+04  0.15960919529E+04  0.50400001928E-02 0.  1.
    10030    2    1    2    0    0  0.00000000000E+00  0.00000000000E+00 -0.12682269408E+04  0.19239569649E+04  0.14467932919E+04 0.  0.
        2    1    3    3  502    0  0.62049782792E+03 -0.11551760887E+03 -0.11041602364E+04  0.12718221967E+04  0.25500000920E-02 0.  1.
       -2    1    3    3    0  502 -0.62049782792E+03  0.11551760887E+03 -0.16406670445E+03  0.65213476822E+03  0.25500000920E-02 0. -1.
</event>
<event>
 5   0  0.2190704E-03  0.1105144E+04  0.7818609E-02  0.9200193E-01
       -2   -1    0    0    0  501  0.00000000000E+00  0.00000000000E+00  0.18781378420E+03  0.18781378422E+03  0.25500000920E-02 0.  1.
        2   -1    0    0  501    0  0.00000000000E+00  0.00000000000E+00 -0.16257366261E+04  0.16257366261E+04  0.25500000920E-02 0. -1.
    10030    2    1    2    0    0  0.00000000000E+00  0.00000000000E+00 -0.14379228419E+04  0.18135504104E+04  0.11051438782E+04 0.  0.
        5    1    3    3  502    0  0.65597089438E+02 -0.54710896180E+03 -0.65165079082E+03  0.85340613860E+03  0.46999998093E+01 0.  1.
       -5    1    3    3    0  502 -0.65597089438E+02  0.54710896180E+03 -0.78627205111E+03  0.96014427175E+03  0.46999998093E+01 0. -1.
</event>
<event>
 5   0  0.1210275E-03  0.1427686E+04  0.7818609E-02  0.8934018E-01
       -1   -1    0    0    0  501  0.00000000000E+00  0.00000000000E+00  0.46308152851E+03  0.46308152854E+03  0.50400001928E-02 0. -1.
        1   -1    0    0  501    0  0.00000000000E+00  0.00000000000E+00 -0.11003935508E+04  0.11003935508E+04  0.50400001928E-02 0.  1.
    10030    2    1    2    0    0  0.00000000000E+00  0.00000000000E+00 -0.63731202231E+03  0.15634750794E+04  0.14276861385E+04 0.  0.
        1    1    3    3  502    0 -0.12934878749E+03 -0.27124539170E+03 -0.10277493971E+04  0.10707819548E+04  0.50400001928E-02 0.  1.
       -1    1    3    3    0  502  0.12934878749E+03  0.27124539170E+03  0.39043737482E+03  0.49269312460E+03  0.50400001928E-02 0. -1.
</event>
<event>
 5   0  0.2195980E-03  0.1393814E+04  0.7818609E-02  0.8958308E-01
       -2   -1    0    0    0  501  0.00000000000E+00  0.00000000000E+00  0.27291814788E+03  0.27291814790E+03  0.25500000920E-02 0.  1.
        2   -1    0    0  501    0  0.00000000000E+00  0.00000000000E+00 -0.17795788609E+04  0.17795788609E+04  0.25500000920E-02 0. -1.
    10030    2    1    2    0    0  0.00000000000E+00  0.00000000000E+00 -0.15066607130E+04  0.20524970088E+04  0.13938140001E+04 0.  0.
        4    1    3    3  502    0  0.15215515918E+03  0.13805403462E+03  0.22730755743E+03  0.30639916368E+03  0.12699999809E+01 0.  1.
       -4    1    3    3    0  502 -0.15215515918E+03 -0.13805403462E+03 -0.17339682704E+04  0.17460978451E+04  0.12699999809E+01 0. -1.
</event>
<event>
 5   0  0.1199720E-03  0.1406797E+04  0.7818609E-02  0.8948913E-01
       -1   -1    0    0    0  501  0.00000000000E+00  0.00000000000E+00  0.98762149741E+03  0.98762149743E+03  0.50400001928E-02 0.  1.
        1   -1    0    0  501    0  0.00000000000E+00  0.00000000000E+00 -0.50097062505E+03  0.50097062507E+03  0.50400001928E-02 0. -1.
    10030    2    1    2    0    0  0.00000000000E+00  0.00000000000E+00  0.48665087237E+03  0.14885921225E+04  0.14067968708E+04 0.  0.
        5    1    3    3  502    0 -0.33582856785E+03  0.61309297949E+03  0.32585678678E+03  0.77127722900E+03  0.46999998093E+01 0.  1.
       -5    1    3    3    0  502  0.33582856785E+03 -0.61309297949E+03  0.16079408559E+03  0.71731489350E+03  0.46999998093E+01 0. -1.
</event>
<event>
 5   0  0.2236184E-03  0.1231728E+04  0.7818609E-02  0.9085529E-01
        2   -1    0    0  501    0  0.00000000000E+00  0.00000000000E+00  0.15126898406E+04  0.15126898406E+04  0.25500000920E-02 0. -1.
       -2   -1    0    0    0  501  0.00000000000E+00  0.00000000000E+00 -0.25073795086E+03  0.25073795087E+03  0.25500000920E-02 0.  1.
    10030    2    1    2    0    0  0.00000000000E+00  0.00000000000E+00  0.12619518898E+04  0.17634277915E+04  0.12317284618E+04 0.  0.
        3    1    3    3  502    0  0.52467280947E+02  0.85476376978E+02 -0.23896751221E+03  0.25916116353E+03  0.10100000352E+00 0.  1.
       -3    1    3    3    0  502 -0.52467280947E+02 -0.85476376978E+02  0.15009194020E+04  0.15042666279E+04  0.10100000352E+00 0. -1.
</event>
<event>
 5   0  0.2236184E-03  0.1359276E+04  0.7818609E-02  0.8983836E-01
       -2   -1    0    0    0  501  0.00000000000E+00  0.00000000000E+00  0.39100538640E+03  0.39100538641E+03  0.25500000920E-02 0.  1.
        2   -1    0    0  501    0  0.00000000000E+00  0.00000000000E+00 -0.11813337221E+04  0.11813337221E+04  0.25500000920E-02 0. -1.
    10030    2    1    2    0    0  0.00000000000E+00  0.00000000000E+00 -0.79032833565E+03  0.15723391085E+04  0.13592760551E+04 0.  0.
        3    1    3    3  502    0  0.33446367111E+03  0.24399842699E+03 -0.10186356533E+04  0.10995543570E+04  0.10100000352E+00 0. -1.
       -3    1    3    3    0  502 -0.33446367111E+03 -0.24399842699E+03  0.22830731768E+03  0.47278475142E+03  0.10100000352E+00 0.  1.
</event>
<event>
 5   0  0.1175374E-03  0.1398476E+04  0.7818609E-02  0.8954923E-01
        1   -1    0    0  501    0  0.00000000000E+00  0.00000000000E+00  0.72370607346E+03  0.72370607348E+03  0.50400001928E-02 0.  1.
       -1   -1    0    0    0  501  0.00000000000E+00  0.00000000000E+00 -0.67559701909E+03  0.67559701911E+03  0.50400001928E-02 0. -1.
    10030    2    1    2    0    0  0.00000000000E+00  0.00000000000E+00  0.48109054372E+02  0.13993030926E+04  0.13984758360E+04 0.  0.
        3    1    3    3  502    0 -0.11149976990E+03  0.19816815350E+03 -0.63757095104E+03  0.67690438288E+03  0.10100000352E+00 0. -1.
       -3    1    3    3    0  502  0.11149976990E+03 -0.19816815350E+03  0.68568000541E+03  0.72239870970E+03  0.10100000352E+00 0.  1.
</event>
<event>
 5   0  0.2172901E-03  0.1373876E+04  0.7818609E-02  0.8972948E-01
        2   -1    0    0  501    0  0.00000000000E+00  0.00000000000E+00  0.12962058611E+04  0.12962058611E+04  0.25500000920E-02 0.  1.
       -2   -1    0    0    0  501  0.00000000000E+00  0.00000000000E+00 -0.36405030422E+03  0.36405030422E+03  0.25500000920E-02 0. -1.
    10030    2    1    2    0    0  0.00000000000E+00  0.00000000000E+00  0.93215555692E+03  0.16602561654E+04  0.13738764691E+04 0.  0.
        2    1    3    3  502    0 -0.27169496296E+03  0.50709148954E+03  0.12428509548E+02  0.57542540744E+03  0.25500000920E-02 0. -1.
       -2    1    3    3    0  502  0.27169496296E+03 -0.50709148954E+03  0.91972704737E+03  0.10848307579E+04  0.25500000920E-02 0.  1.
</event>
<event>
 5   0  0.2195980E-03  0.1381970E+04  0.7818609E-02  0.8966974E-01
       -2   -1    0    0    0  501  0.00000000000E+00  0.00000000000E+00  0.27206981989E+03  0.27206981990E+03  0.25500000920E-02 0. -1.
        2   -1    0    0  501    0  0.00000000000E+00  0.00000000000E+00 -0.17549183097E+04  0.17549183097E+04  0.25500000920E-02 0.  1.
    10030    2    1    2    0    0  0.00000000000E+00  0.00000000000E+00 -0.14828484898E+04  0.20269881296E+04  0.13819700553E+04 0.  0.
        4    1    3    3  502    0 -0.15083209225E+03  0.56308427046E+03 -0.12855909578E+04  0.14115806528E+04  0.12699999809E+01 0.  1.
       -4    1    3    3    0  502  0.15083209225E+03 -0.56308427046E+03 -0.19725753203E+03  0.61540747682E+03  0.12699999809E+01 0. -1.
</event>
<event>
 5   0  0.2195980E-03  0.1410293E+04  0.7818609E-02  0.8946402E-01
        2   -1    0    0  501    0  0.00000000000E+00  0.00000000000E+00  0.21418713490E+04  0.21418713490E+04  0.25500000920E-02 0. -1.
       -2   -1    0    0    0  501  0.00000000000E+00  0.00000000000E+00 -0.23214806087E+03  0.23214806088E+03  0.25500000920E-02 0.  1.
    10030    2    1    2    0    0  0.00000000000E+00  0.00000000000E+00  0.19097232882E+04  0.23740194099E+04  0.14102925659E+04 0.  0.
        4    1    3    3  502    0 -0.30013521971E+03  0.10908863820E+03 -0.10344126932E+03  0.33568316937E+03  0.12699999809E+01 0.  1.
       -4    1    3    3    0  502  0.30013521971E+03 -0.10908863820E+03  0.20131645575E+04  0.20383362406E+04  0.12699999809E+01 0. -1.
</event>
<event>
 5   0  0.1225690E-03  0.1409703E+04  0.7818609E-02  0.8946825E-01
       -1   -1    0    0    0  501  0.00000000000E+00  0.00000000000E+00  0.94495603664E+03  0.94495603665E+03  0.50400001928E-02 0. -1.
        1   -1    0    0  501    0  0.00000000000E+00  0.00000000000E+00 -0.52575502181E+03  0.52575502183E+03  0.50400001928E-02 0.  1.
    10030    2    1    2    0    0  0.00000000000E+00  0.00000000000E+00  0.41920101483E+03  0.14707110585E+04  0.14097026377E+04 0.  0.
        4    1    3    3  502    0 -0.26044950604E+03 -0.41668695411E+03 -0.31759210081E+03  0.58508829959E+03  0.12699999809E+01 0.  1.
       -4    1    3    3    0  502  0.26044950604E+03  0.41668695411E+03  0.73679311564E+03  0.88562275890E+03  0.12699999809E+01 0. -1.
</event>
<event>
 5   0  0.1175374E-03  0.1406783E+04  0.7818609E-02  0.8948924E-01
       -1   -1    0    0    0  501  0.00000000000E+00  0.00000000000E+00  0.41779038319E+03  0.41779038322E+03  0.50400001928E-02 0. -1.
        1   -1    0    0  501    0  0.00000000000E+00  0.00000000000E+00 -0.11842284581E+04  0.11842284581E+04  0.50400001928E-02 0.  1.
    10030    2    1    2    0    0  0.00000000000E+00  0.00000000000E+00 -0.76643807487E+03  0.16020188413E+04  0.14067825153E+04 0.  0.
        3    1    3    3  502    0  0.43113205180E+02  0.45175542730E+02  0.41462744468E+03  0.41930359670E+03  0.10100000352E+00 0. -1.
       -3    1    3    3    0  502 -0.43113205180E+02 -0.45175542730E+02 -0.11810655196E+04  0.11827152446E+04  0.10100000352E+00 0.  1.
</event>
<event>
 5   0  0.1210275E-03  0.1541843E+04  0.7818609E-02  0.8857095E-01
        1   -1    0    0  501    0  0.00000000000E+00  0.00000000000E+00  0.18108440612E+04  0.18108440612E+04  0.50400001928E-02 0. -1.
       -1   -1    0    0    0  501  0.00000000000E+00  0.00000000000E+00 -0.32820042347E+03  0.32820042351E+03  0.50400001928E-02 0.  1.
    10030    2    1    2    0    0  0.00000000000E+00  0.00000000000E+00  0.14826436377E+04  0.21390444847E+04  0.15418427777E+04 0.  0.
        1    1    3    3  502    0  0.40143928946E+03 -0.50298193868E+03  0.15244082430E+03  0.66134902941E+03  0.50400001928E-02 0.  1.
       -1    1    3    3    0  502 -0.40143928946E+03  0.50298193868E+03  0.13302028134E+04  0.14776954553E+04  0.50400001928E-02 0. -1.
</event>
<event>
 5   0  0.1238683E-03  0.1409192E+04  0.7818609E-02  0.8947192E-01
        1   -1    0    0  501    0  0.00000000000E+00  0.00000000000E+00  0.88483124784E+03  0.88483124786E+03  0.50400001928E-02 0.  1.
       -1   -1    0    0    0  501  0.00000000000E+00  0.00000000000E+00 -0.56107329496E+03  0.56107329498E+03  0.50400001928E-02 0. -1.
    10030    2    1    2    0    0  0.00000000000E+00  0.00000000000E+00  0.32375795288E+03  0.14459045428E+04  0.14091915182E+04 0.  0.
        2    1    3    3  502    0 -0.27143775959E+02  0.42800722640E+03  0.73548567750E+03  0.85139071655E+03  0.25500000920E-02 0.  1.
       -2    1    3    3    0  502  0.27143775959E+02 -0.42800722640E+03 -0.41172772462E+03  0.59451382629E+03  0.25500000920E-02 0. -1.
</event>
<event>
 5   0  0.1210275E-03  0.1367074E+04  0.7818609E-02  0.8978003E-01
        1   -1    0    0  501    0  0.00000000000E+00  0.00000000000E+00  0.97273313636E+03  0.97273313638E+03  0.50400001928E-02 0.  1.
       -1   -1    0    0    0  501  0.00000000000E+00  0.00000000000E+00 -0.48031955215E+03  0.48031955217E+03  0.50400001928E-02 0. -1.
    10030    2    1    2    0    0  0.00000000000E+00  0.00000000000E+00  0.49241358422E+03  0.14530526885E+04  0.13670738743E+04 0.  0.
        1    1    3    3  502    0 -0.23570572378E+03  0.34178217983E+02  0.92720283287E+03  0.95730373033E+03  0.50400001928E-02 0.  1.
       -1    1    3    3    0  502  0.23570572378E+03 -0.34178217983E+02 -0.43478924865E+03  0.49574895822E+03  0.50400001928E-02 0. -1.
</event>
<event>
 5   0  0.2172901E-03  0.1415645E+04  0.7818609E-02  0.8942571E-01
        2   -1    0    0  501    0  0.00000000000E+00  0.00000000000E+00  0.65136247886E+03  0.65136247886E+03  0.25500000920E-02 0.  1.
       -2   -1    0    0    0  501  0.00000000000E+00  0.00000000000E+00 -0.76917666959E+03  0.76917666959E+03  0.25500000920E-02 0. -1.
    10030    2    1    2    0    0  0.00000000000E+00  0.00000000000E+00 -0.11781419073E+03  0.14205391485E+04  0.14156451846E+04 0.  0.
        2    1    3    3  502    0 -0.20224187697E+03  0.67819039190E+03 -0.71945772389E+02  0.71135095321E+03  0.25500000920E-02 0.  1.
       -2    1    3    3    0  502  0.20224187697E+03 -0.67819039190E+03 -0.45868418341E+02  0.70918819524E+03  0.25500000920E-02 0. -1.
</event>
<event>
 5   0  0.1225690E-03  0.1365476E+04  0.7818609E-02  0.8979195E-01
       -1   -1    0    0    0  501  0.00000000000E+00  0.00000000000E+00  0.34790940865E+03  0.34790940869E+03  0.50400001928E-02 0.  1.
        1   -1    0    0  501    0  0.00000000000E+00  0.00000000000E+00 -0.13398056953E+04  0.13398056953E+04  0.50400001928E-02 0. -1.
    10030    2    1    2    0    0  0.00000000000E+00  0.00000000000E+00 -0.99189628661E+03  0.16877151040E+04  0.13654757518E+04 0.  0.
        4    1    3    3  502    0  0.38906113183E+03 -0.36359746549E+03 -0.10240470131E+04  0.11542294309E+04  0.12699999809E+01 0. -1.
       -4    1    3    3    0  502 -0.38906113183E+03  0.36359746549E+03  0.32150726527E+02  0.53348567303E+03  0.12699999809E+01 0.  1.
</event>
<event>
 5   0  0.2172901E-03  0.1293417E+04  0.7818609E-02  0.9034802E-01
        2   -1    0    0  501    0  0.00000000000E+00  0.00000000000E+00  0.62792289104E+03  0.62792289105E+03  0.25500000920E-02 0.  1.
       -2   -1    0    0    0  501  0.00000000000E+00  0.00000000000E+00 -0.66605641004E+03  0.66605641005E+03  0.25500000920E-02 0. -1.
    10030    2    1    2    0    0  0.00000000000E+00  0.00000000000E+00 -0.38133518999E+02  0.12939793011E+04  0.12934172824E+04 0.  0.
        2    1    3    3  502    0 -0.85279268080E+02 -0.50955496672E+03 -0.40822582141E+03  0.65845815276E+03  0.25500000920E-02 0. -1.
       -2    1    3    3    0  502  0.85279268080E+02  0.50955496672E+03  0.37009230241E+03  0.63552114833E+03  0.25500000920E-02 0.  1.
</event>
<event>
 5   0  0.1210275E-03  0.1479649E+04  0.7818609E-02  0.8898100E-01
       -1   -1    0    0    0  501  0.00000000000E+00  0.00000000000E+00  0.37445768332E+03  0.37445768336E+03  0.50400001928E-02 0.  1.
        1   -1    0    0  501    0  0.00000000000E+00  0.00000000000E+00 -0.14616873410E+04  0.14616873411E+04  0.50400001928E-02 0. -1.
    10030    2    1    2    0    0  0.00000000000E+00  0.00000000000E+00 -0.10872296577E+04  0.18361450244E+04  0.14796486820E+04 0.  0.
        1    1    3    3  502    0  0.10789755507E+03 -0.72755781525E+03 -0.44466802951E+03  0.85948351550E+03  0.50400001928E-02 0.  1.
       -1    1    3    3    0  502 -0.10789755507E+03  0.72755781525E+03 -0.64256162821E+03  0.97666150891E+03  0.50400001928E-02 0. -1.
</event>
<event>
 5   0  0.1175374E-03  0.1455481E+04  0.7818609E-02  0.8914610E-01
        1   -1    0    0  501    0  0.00000000000E+00  0.00000000000E+00  0.92937277328E+03  0.92937277329E+03  0.50400001928E-02 0. -1.
       -1   -1    0    0    0  501  0.00000000000E+00  0.00000000000E+00 -0.56985313452E+03  0.56985313454E+03  0.50400001928E-02 0.  1.
    10030    2    1    2    0    0  0.00000000000E+00  0.00000000000E+00  0.35951963876E+03  0.14992259078E+04  0.14554806601E+04 0.  0.
        3    1    3    3  502    0 -0.49885475098E+03 -0.35101734258E+03  0.58859811315E+03  0.84765381282E+03  0.10100000352E+00 0. -1.
       -3    1    3    3    0  502  0.49885475098E+03  0.35101734258E+03 -0.22907847439E+03  0.65157209502E+03  0.10100000352E+00 0.  1.
</event>
<event>
 5   0  0.2172901E-03  0.1417884E+04  0.7818609E-02  0.8940974E-01
       -2   -1    0    0    0  501  0.00000000000E+00  0.00000000000E+00  0.53048435403E+03  0.53048435403E+03  0.25500000920E-02 0. -1.
        2   -1    0    0  501    0  0.00000000000E+00  0.00000000000E+00 -0.94743399105E+03  0.94743399106E+03  0.25500000920E-02 0.  1.
    10030    2    1    2    0    0  0.00000000000E+00  0.00000000000E+00 -0.41694963703E+03  0.14779183451E+04  0.14178842107E+04 0.  0.
        2    1    3    3  502    0  0.45249032241E+02  0.14784343258E+03 -0.92964631561E+03  0.94241574032E+03  0.25500000920E-02 0.  1.
       -2    1    3    3    0  502 -0.45249032241E+02 -0.14784343258E+03  0.51269667858E+03  0.53550260477E+03  0.25500000920E-02 0. -1.
</event>
<event>
 5   0  0.2083966E-03  0.1388552E+04  0.7818609E-02  0.8962147E-01
        2   -1    0    0  501    0  0.00000000000E+00  0.00000000000E+00  0.55899837707E+03  0.55899837707E+03  0.25500000920E-02 0. -1.
       -2   -1    0    0    0  501  0.00000000000E+00  0.00000000000E+00 -0.86229050893E+03  0.86229050893E+03  0.25500000920E-02 0.  1.
    10030    2    1    2    0    0  0.00000000000E+00  0.00000000000E+00 -0.30329213186E+03  0.14212888860E+04  0.13885517564E+04 0.  0.
        1    1    3    3  502    0 -0.68264101928E+03  0.18094646522E+02 -0.23421643559E+02  0.68328233611E+03  0.50400001928E-02 0. -1.
       -1    1    3    3    0  502  0.68264101928E+03 -0.18094646522E+02 -0.27987048830E+03  0.73800654989E+03  0.50400001928E-02 0.  1.
</event>
<event>
 5   0  0.2190704E-03  0.1380808E+04  0.7818609E-02  0.8967829E-01
        2   -1    0    0  501    0  0.00000000000E+00  0.00000000000E+00  0.19830620233E+04  0.19830620233E+04  0.25500000920E-02 0. -1.
       -2   -1    0    0    0  501  0.00000000000E+00  0.00000000000E+00 -0.24036464100E+03  0.24036464101E+03  0.25500000920E-02 0.  1.
    10030    2    1    2    0    0  0.00000000000E+00  0.00000000000E+00  0.17426973823E+04  0.22234266643E+04  0.13808084463E+04 0.  0.
        5    1    3    3  502    0 -0.23283005391E+03 -0.55294109330E+03  0.14213854401E+04  0.15428260906E+04  0.46999998093E+01 0. -1.
       -5    1    3    3    0  502  0.23283005391E+03  0.55294109330E+03  0.32131194220E+03  0.68060057366E+03  0.46999998093E+01 0.  1.
</event>
<event>
 5   0  0.1225690E-03  0.1372154E+04  0.7818609E-02  0.8974226E-01
       -1   -1    0    0    0  501  0.00000000000E+00  0.00000000000E+00  0.78392322533E+03  0.78392322534E+03  0.50400001928E-02 0. -1.
        1   -1    0    0  501    0  0.00000000000E+00  0.00000000000E+00 -0.60044317318E+03  0.60044317320E+03  0.50400001928E-02 0.  1.
    10030    2    1    2    0    0  0.00000000000E+00  0.00000000000E+00  0.18348005215E+03  0.13843663985E+04  0.13721535613E+04 0.  0.
        4    1    3    3  502    0  0.51566285931E+03  0.43815314407E+03  0.20594370193E+03  0.70731943519E+03  0.12699999809E+01 0.  1.
       -4    1    3    3    0  502 -0.51566285931E+03 -0.43815314407E+03 -0.22463649785E+02  0.67704696336E+03  0.12699999809E+01 0. -1.
</event>
<event>
 5   0  0.1210275E-03  0.1406815E+04  0.7818609E-02  0.8948900E-01
       -1   -1    0    0    0  501  0.00000000000E+00  0.00000000000E+00  0.43887536368E+03  0.43887536371E+03  0.50400001928E-02 0. -1.
        1   -1    0    0  501    0  0.00000000000E+00  0.00000000000E+00 -0.11273862992E+04  0.11273862992E+04  0.50400001928E-02 0.  1.
    10030    2    1    2    0    0  0.00000000000E+00  0.00000000000E+00 -0.68851093547E+03  0.15662616629E+04  0.14068149446E+04 0.  0.
        1    1    3    3  502    0  0.19610258230E+03  0.30159181007E+03  0.32870993090E+03  0.48730284360E+03  0.50400001928E-02 0. -1.
       -1    1    3    3    0  502 -0.19610258230E+03 -0.30159181007E+03 -0.10172208664E+04  0.10789588193E+04  0.50400001928E-02 0.  1.
</event>
<event>
 5   0  0.1175374E-03  0.1417070E+04  0.7818609E-02  0.8941554E-01
       -1   -1    0    0    0  501  0.00000000000E+00  0.00000000000E+00  0.13244343550E+04  0.13244343550E+04  0.50400001928E-02 0.  1.
        1   -1    0    0  501    0  0.00000000000E+00  0.00000000000E+00 -0.37904642505E+03  0.37904642508E+03  0.50400001928E-02 0. -1.
    10030    2    1    2    0    0  0.00000000000E+00  0.00000000000E+00  0.94538792991E+03  0.17034807800E+04  0.14170703687E+04 0.  0.
        3    1    3    3  502    0 -0.21205011183E+03  0.12770081534E+03 -0.32537727560E+03  0.40883141983E+03  0.10100000352E+00 0. -1.
       -3    1    3    3    0  502  0.21205011183E+03 -0.12770081534E+03  0.12707652055E+04  0.12946493602E+04  0.10100000352E+00 0.  1.
</event>
<event>
 5   0  0.2236184E-03  0.1401759E+04  0.7818609E-02  0.8952546E-01
       -2   -1    0    0    0  501  0.00000000000E+00  0.00000000000E+00  0.17899291961E+03  0.17899291963E+03  0.25500000920E-02 0.  1.
        2   -1    0    0  501    0  0.00000000000E+00  0.00000000000E+00 -0.27444224144E+04  0.27444224144E+04  0.25500000920E-02 0. -1.
    10030    2    1    2    0    0  0.00000000000E+00  0.00000000000E+00 -0.25654294948E+04  0.29234153340E+04  0.14017591528E+04 0.  0.
        3    1    3    3  502    0  0.52065897035E+03 -0.40553728405E+03 -0.17748560484E+04  0.18935839709E+04  0.10100000352E+00 0. -1.
       -3    1    3    3    0  502 -0.52065897035E+03  0.40553728405E+03 -0.79057344643E+03  0.10298313632E+04  0.10100000352E+00 0.  1.
</event>
<event>
 5   0  0.2172901E-03  0.1445778E+04  0.7818609E-02  0.8921333E-01
       -2   -1    0    0    0  501  0.00000000000E+00  0.00000000000E+00  0.11525963234E+04  0.11525963234E+04  0.25500000920E-02 0. -1.
        2   -1    0    0  501    0  0.00000000000E+00  0.00000000000E+00 -0.45338363459E+03  0.45338363460E+03  0.25500000920E-02 0.  1.
    10030    2    1    2    0    0  0.00000000000E+00  0.00000000000E+00  0.69921268882E+03  0.16059799580E+04  0.14457777289E+04 0.  0.
        2    1    3    3  502    0  0.62660627226E+03 -0.27635856158E+03  0.60667797539E+03  0.91491400734E+03  0.25500000920E-02 0. -1.
       -2    1    3    3    0  502 -0.62660627226E+03  0.27635856158E+03  0.92534713431E+02  0.69106595068E+03  0.25500000920E-02 0.  1.
</event>
<event>
 5   0  0.8293000E-04  0.1398192E+04  0.7818609E-02  0.8955128E-01
        4   -1    0    0  501    0  0.00000000000E+00  0.00000000000E+00  0.90322601920E+03  0.90322691205E+03  0.12699999809E+01 0. -1.
       -4   -1    0    0    0  501  0.00000000000E+00  0.00000000000E+00 -0.54109784671E+03  0.54109933711E+03  0.12699999809E+01 0.  1.
    10030    2    1    2    0    0  0.00000000000E+00  0.00000000000E+00  0.36212817248E+03  0.14443262492E+04  0.13981922259E+04 0.  0.
        1    1    3    3  502    0 -0.25620264483E+03 -0.22571959775E+03  0.81123048251E+03  0.88016136464E+03  0.50400001928E-02 0. -1.
       -1    1    3    3    0  502  0.25620264483E+03  0.22571959775E+03 -0.44910231003E+03  0.56416488452E+03  0.50400001928E-02 0.  1.
</event>
<event>
 5   0  0.1238683E-03  0.1394455E+04  0.7818609E-02  0.8957842E-01
       -1   -1    0    0    0  501  0.00000000000E+00  0.00000000000E+00  0.47048105682E+03  0.47048105685E+03  0.50400001928E-02 0. -1.
        1   -1    0    0  501    0  0.00000000000E+00  0.00000000000E+00 -0.10332532592E+04  0.10332532592E+04  0.50400001928E-02 0.  1.
    10030    2    1    2    0    0  0.00000000000E+00  0.00000000000E+00 -0.56277220233E+03  0.15037343160E+04  0.13944548546E+04 0.  0.
        2    1    3    3  502    0  0.49750975211E+03 -0.42985500058E+03 -0.53159240421E+03  0.84550680612E+03  0.25500000920E-02 0. -1.
       -2    1    3    3    0  502 -0.49750975211E+03  0.42985500058E+03 -0.31179798113E+02  0.65822750990E+03  0.25500000920E-02 0.  1.
</event>
<event>
 5   0  0.2195980E-03  0.1377218E+04  0.7818609E-02  0.8970476E-01
       -2   -1    0    0    0  501  0.00000000000E+00  0.00000000000E+00  0.36688194031E+03  0.36688194032E+03  0.25500000920E-02 0. -1.
        2   -1    0    0  501    0  0.00000000000E+00  0.00000000000E+00 -0.12924663040E+04  0.12924663040E+04  0.25500000920E-02 0.  1.
    10030    2    1    2    0    0  0.00000000000E+00  0.00000000000E+00 -0.92558436372E+03  0.16593482443E+04  0.13772182767E+04 0.  0.
        4    1    3    3  502    0 -0.66515005508E+03  0.88907715126E+02 -0.27671422365E+03  0.72587984684E+03  0.12699999809E+01 0.  1.
       -4    1    3    3    0  502  0.66515005508E+03 -0.88907715126E+02 -0.64887014007E+03  0.93346839751E+03  0.12699999809E+01 0. -1.
</event>
<event>
 5   0  0.1175374E-03  0.1309750E+04  0.7818609E-02  0.9021869E-01
       -1   -1    0    0    0  501  0.00000000000E+00  0.00000000000E+00  0.40626036658E+03  0.40626036661E+03  0.50400001928E-02 0.  1.
        1   -1    0    0  501    0  0.00000000000E+00  0.00000000000E+00 -0.10556320333E+04  0.10556320333E+04  0.50400001928E-02 0. -1.
    10030    2    1    2    0    0  0.00000000000E+00  0.00000000000E+00 -0.64937166669E+03  0.14618923999E+04  0.13097502920E+04 0.  0.
        3    1    3    3  502    0 -0.64816954177E+03 -0.83661178040E+02 -0.27814714564E+03  0.71027374471E+03  0.10100000352E+00 0.  1.
       -3    1    3    3    0  502  0.64816954177E+03  0.83661178040E+02 -0.37122452104E+03  0.75161865518E+03  0.10100000352E+00 0. -1.
</event>
<event>
 5   0  0.2083966E-03  0.1390768E+04  0.7818609E-02  0.8960529E-01
       -2   -1    0    0    0  501  0.00000000000E+00  0.00000000000E+00  0.37223340628E+03  0.37223340629E+03  0.25500000920E-02 0. -1.
        2   -1    0    0  501    0  0.00000000000E+00  0.00000000000E+00 -0.12990738930E+04  0.12990738930E+04  0.25500000920E-02 0.  1.
    10030    2    1    2    0    0  0.00000000000E+00  0.00000000000E+00 -0.92684048668E+03  0.16713072993E+04  0.13907677019E+04 0.  0.
        1    1    3    3  502    0  0.29203436418E+03 -0.61249547152E+03 -0.64615977801E+03  0.93699371995E+03  0.50400001928E-02 0.  1.
       -1    1    3    3    0  502 -0.29203436418E+03  0.61249547152E+03 -0.28068070867E+03  0.73431357930E+03  0.50400001928E-02 0. -1.
</event>
<event>
 5   0  0.8293000E-04  0.1363060E+04  0.7818609E-02  0.8981001E-01
       -4   -1    0    0    0  501  0.00000000000E+00  0.00000000000E+00  0.15129016902E+04  0.15129022232E+04  0.12699999809E+01 0.  1.
        4   -1    0    0  501    0  0.00000000000E+00  0.00000000000E+00 -0.30701273214E+03  0.30701535889E+03  0.12699999809E+01 0. -1.
    10030    2    1    2    0    0  0.00000000000E+00  0.00000000000E+00  0.12058889581E+04  0.18199175821E+04  0.13630597296E+04 0.  0.
        5    1    3    3  502    0 -0.49749555363E+03  0.12190760599E+03  0.27149099781E+01  0.51224286331E+03  0.46999998093E+01 0. -1.
       -5    1    3    3    0  502  0.49749555363E+03 -0.12190760599E+03  0.12031740481E+04  0.13076747188E+04  0.46999998093E+01 0.  1.
</event>
<event>
 5   0  0.1225690E-03  0.1371504E+04  0.7818609E-02  0.8974708E-01
        1   -1    0    0  501    0  0.00000000000E+00  0.00000000000E+00  0.27261602373E+03  0.27261602378E+03  0.50400001928E-02 0.  1.
       -1   -1    0    0    0  501  0.00000000000E+00  0.00000000000E+00 -0.17249749006E+04  0.17249749006E+04  0.50400001928E-02 0. -1.
    10030    2    1    2    0    0  0.00000000000E+00  0.00000000000E+00 -0.14523588769E+04  0.19975909244E+04  0.13715039898E+04 0.  0.
        4    1    3    3  502    0  0.29187466531E+03  0.50365081403E+03 -0.12541453455E+04  0.13826558224E+04  0.12699999809E+01 0. -1.
       -4    1    3    3    0  502 -0.29187466531E+03 -0.50365081403E+03 -0.19821353136E+03  0.61493510197E+03  0.12699999809E+01 0.  1.
</event>
<event>
 5   0  0.2195980E-03  0.1410138E+04  0.7818609E-02  0.8946513E-01
        2   -1    0    0  501    0  0.00000000000E+00  0.00000000000E+00  0.50433078725E+03  0.50433078726E+03  0.25500000920E-02 0.  1.
       -2   -1    0    0    0  501  0.00000000000E+00  0.00000000000E+00 -0.98570653091E+03  0.98570653091E+03  0.25500000920E-02 0. -1.
    10030    2    1    2    0    0  0.00000000000E+00  0.00000000000E+00 -0.48137574365E+03  0.14900373182E+04  0.14101377957E+04 0.  0.
        4    1    3    3  502    0 -0.28483895985E+03  0.44340023811E+03  0.25423509327E+03  0.58512742182E+03  0.12699999809E+01 0.  1.
       -4    1    3    3    0  502  0.28483895985E+03 -0.44340023811E+03 -0.73561083692E+03  0.90490989635E+03  0.12699999809E+01 0. -1.
</event>
<event>
 5   0  0.2172901E-03  0.1409045E+04  0.7818609E-02  0.8947297E-01
       -2   -1    0    0    0  501  0.00000000000E+00  0.00000000000E+00  0.72751571454E+03  0.72751571454E+03  0.25500000920E-02 0.  1.
        2   -1    0    0  501    0  0.00000000000E+00  0.00000000000E+00 -0.68225624731E+03  0.68225624731E+03  0.25500000920E-02 0. -1.
    10030    2    1    2    0    0  0.00000000000E+00  0.00000000000E+00  0.45259467229E+02  0.14097719619E+04  0.14090452672E+04 0.  0.
        2    1    3    3  502    0  0.64852164580E+03 -0.27073759914E+03 -0.27124864681E+02  0.70328865407E+03  0.25500000920E-02 0.  1.
       -2    1    3    3    0  502 -0.64852164580E+03  0.27073759914E+03  0.72384331910E+02  0.70648330778E+03  0.25500000920E-02 0. -1.
</event>
<event>
 5   0  0.1199720E-03  0.1428889E+04  0.7818609E-02  0.8933169E-01
        1   -1    0    0  501    0  0.00000000000E+00  0.00000000000E+00  0.20189587506E+04  0.20189587506E+04  0.50400001928E-02 0.  1.
       -1   -1    0    0    0  501  0.00000000000E+00  0.00000000000E+00 -0.25281876758E+03  0.25281876763E+03  0.50400001928E-02 0. -1.
    10030    2    1    2    0    0  0.00000000000E+00  0.00000000000E+00  0.17661399830E+04  0.22717775182E+04  0.14288886075E+04 0.  0.
        5    1    3    3  502    0  0.60357020155E+02 -0.12762723739E+03 -0.23039533903E+03  0.27025133459E+03  0.46999998093E+01 0. -1.
       -5    1    3    3    0  502 -0.60357020155E+02  0.12762723739E+03  0.19965353220E+04  0.20015261836E+04  0.46999998093E+01 0.  1.
</event>
<event>
 5   0  0.2190704E-03  0.1398521E+04  0.7818609E-02  0.8954890E-01
        2   -1    0    0  501    0  0.00000000000E+00  0.00000000000E+00  0.92289772102E+03  0.92289772103E+03  0.25500000920E-02 0.  1.
       -2   -1    0    0    0  501  0.00000000000E+00  0.00000000000E+00 -0.52981512046E+03  0.52981512047E+03  0.25500000920E-02 0. -1.
    10030    2    1    2    0    0  0.00000000000E+00  0.00000000000E+00  0.39308260056E+03  0.14527128415E+04  0.13985208861E+04 0.  0.
        5    1    3    3  502    0  0.12952725357E+03 -0.50227662507E+03  0.68362948327E+03  0.85815527611E+03  0.46999998093E+01 0.  1.
       -5    1    3    3    0  502 -0.12952725357E+03  0.50227662507E+03 -0.29054688271E+03  0.59455756539E+03  0.46999998093E+01 0. -1.
</event>
<event>
 5   0  0.2172901E-03  0.1536518E+04  0.7818609E-02  0.8860526E-01
       -2   -1    0    0    0  501  0.00000000000E+00  0.00000000000E+00  0.54843924245E+03  0.54843924245E+03  0.25500000920E-02 0. -1.
        2   -1    0    0  501    0  0.00000000000E+00  0.00000000000E+00 -0.10761840115E+04  0.10761840115E+04  0.25500000920E-02 0.  1.
    10030    2    1    2    0    0  0.00000000000E+00  0.00000000000E+00 -0.52774476906E+03  0.16246232540E+04  0.15365175482E+04 0.  0.
        2    1    3    3  502    0  0.24131562999E+03  0.72847606834E+03 -0.30215526927E+03  0.82474748995E+03  0.25500000920E-02 0.  1.
       -2    1    3    3    0  502 -0.24131562999E+03 -0.72847606834E+03 -0.22558949979E+03  0.79987576401E+03  0.25500000920E-02 0. -1.
</event>
<event>
 5   0  0.2190704E-03  0.1569783E+04  0.7818609E-02  0.8839330E-01
       -2   -1    0    0    0  501  0.00000000000E+00  0.00000000000E+00  0.70979542249E+03  0.70979542249E+03  0.25500000920E-02 0.  1.
        2   -1    0    0  501    0  0.00000000000E+00  0.00000000000E+00 -0.86793236593E+03  0.86793236593E+03  0.25500000920E-02 0. -1.
    10030    2    1    2    0    0  0.00000000000E+00  0.00000000000E+00 -0.15813694344E+03  0.15777277884E+04  0.15697826861E+04 0.  0.
        5    1    3    3  502    0  0.20084573235E+03  0.75704685255E+03 -0.28083176180E+02  0.78375359644E+03  0.46999998093E+01 0. -1.
       -5    1    3    3    0  502 -0.20084573235E+03 -0.75704685255E+03 -0.13005376726E+03  0.79397419198E+03  0.46999998093E+01 0.  1.
</event>
<event>
 5   0  0.1175374E-03  0.1400416E+04  0.7818609E-02  0.8953518E-01
        1   -1    0    0  501    0  0.00000000000E+00  0.00000000000E+00  0.73311625612E+03  0.73311625614E+03  0.50400001928E-02 0. -1.
       -1   -1    0    0    0  501  0.00000000000E+00  0.00000000000E+00 -0.66877667274E+03  0.66877667276E+03  0.50400001928E-02 0.  1.
    10030    2    1    2    0    0  0.00000000000E+00  0.00000000000E+00  0.64339583385E+02  0.14018929289E+04  0.14004157247E+04 0.  0.
        3    1    3    3  502    0 -0.53106730829E+03 -0.35114053272E+03  0.32395431834E+03  0.71433785440E+03  0.10100000352E+00 0. -1.
       -3    1    3    3    0  502  0.53106730829E+03  0.35114053272E+03 -0.25961473496E+03  0.68755507450E+03  0.10100000352E+00 0.  1.
</event>
<event>
 5   0  0.2083966E-03  0.1390782E+04  0.7818609E-02  0.8960518E-01
        2   -1    0    0  501    0  0.00000000000E+00  0.00000000000E+00  0.70143083592E+03  0.70143083592E+03  0.25500000920E-02 0.  1.
       -2   -1    0    0    0  501  0.00000000000E+00  0.00000000000E+00 -0.68940271428E+03  0.68940271429E+03  0.25500000920E-02 0. -1.
    10030    2    1    2    0    0  0.00000000000E+00  0.00000000000E+00  0.12028121639E+02  0.13908335502E+04  0.13907815388E+04 0.  0.
        1    1    3    3  502    0 -0.15742444277E+03 -0.54271941958E+03 -0.39926828911E+03  0.69191183707E+03  0.50400001928E-02 0. -1.
       -1    1    3    3    0  502  0.15742444277E+03  0.54271941958E+03  0.41129641075E+03  0.69892171313E+03  0.50400001928E-02 0.  1.
</event>
<event>
 5   0  0.1175374E-03  0.1404050E+04  0.7818609E-02  0.8950892E-01
       -1   -1    0    0    0  501  0.00000000000E+00  0.00000000000E+00  0.86980517945E+03  0.86980517946E+03  0.50400001928E-02 0.  1.
        1   -1    0    0  501    0  0.00000000000E+00  0.00000000000E+00 -0.56660838458E+03  0.56660838461E+03  0.50400001928E-02 0. -1.
    10030    2    1    2    0    0  0.00000000000E+00  0.00000000000E+00  0.30319679487E+03  0.14364135641E+04  0.14040497251E+04 0.  0.
        3    1    3    3  502    0  0.35566332651E+03 -0.55986248470E+03 -0.83695385431E+02  0.66854119644E+03  0.10100000352E+00 0. -1.
       -3    1    3    3    0  502 -0.35566332651E+03  0.55986248470E+03  0.38689218030E+03  0.76787236763E+03  0.10100000352E+00 0.  1.
</event>
<event>
 5   0  0.2172901E-03  0.8802834E+03  0.7818609E-02  0.9450569E-01
        2   -1    0    0  501    0  0.00000000000E+00  0.00000000000E+00  0.48293862363E+03  0.48293862364E+03  0.25500000920E-02 0. -1.
       -2   -1    0    0    0  501  0.00000000000E+00  0.00000000000E+00 -0.40113738776E+03  0.40113738777E+03  0.25500000920E-02 0.  1.
    10030    2    1    2    0    0  0.00000000000E+00  0.00000000000E+00  0.81801235872E+02  0.88407601141E+03  0.88028344967E+03 0.  0.
        2    1    3    3  502    0 -0.35901467422E+02 -0.38404849568E+03  0.25381061225E+03  0.46173800937E+03  0.25500000920E-02 0. -1.
       -2    1    3    3    0  502  0.35901467422E+02  0.38404849568E+03 -0.17200937638E+03  0.42233800204E+03  0.25500000920E-02 0.  1.
</event>
<event>
 5   0  0.2236184E-03  0.1413037E+04  0.7818609E-02  0.8944435E-01
        2   -1    0    0  501    0  0.00000000000E+00  0.00000000000E+00  0.90684400013E+03  0.90684400013E+03  0.25500000920E-02 0. -1.
       -2   -1    0    0    0  501  0.00000000000E+00  0.00000000000E+00 -0.55044592511E+03  0.55044592511E+03  0.25500000920E-02 0.  1.
    10030    2    1    2    0    0  0.00000000000E+00  0.00000000000E+00  0.35639807502E+03  0.14572899252E+04  0.14130372742E+04 0.  0.
        3    1    3    3  502    0  0.25798959605E+03 -0.22728319473E+03  0.81474188097E+03  0.88431930041E+03  0.10100000352E+00 0. -1.
       -3    1    3    3    0  502 -0.25798959605E+03  0.22728319473E+03 -0.45834380595E+03  0.57297062483E+03  0.10100000352E+00 0.  1.
</event>
<event>
 5   0  0.2083966E-03  0.1426185E+04  0.7818609E-02  0.8935080E-01
        2   -1    0    0  501    0  0.00000000000E+00  0.00000000000E+00  0.14137335078E+04  0.14137335078E+04  0.25500000920E-02 0. -1.
       -2   -1    0    0    0  501  0.00000000000E+00  0.00000000000E+00 -0.35968642650E+03  0.35968642651E+03  0.25500000920E-02 0.  1.
    10030    2    1    2    0    0  0.00000000000E+00  0.00000000000E+00  0.10540470813E+04  0.17734199343E+04  0.14261847755E+04 0.  0.
        1    1    3    3  502    0  0.35488170866E+03  0.30088676794E+03  0.11989893924E+04  0.12860985333E+04  0.50400001928E-02 0. -1.
       -1    1    3    3    0  502 -0.35488170866E+03 -0.30088676794E+03 -0.14494231113E+03  0.48732140097E+03  0.50400001928E-02 0.  1.
</event>
<event>
 5   0  0.2190704E-03  0.1465477E+04  0.7818609E-02  0.8907741E-01
        2   -1    0    0  501    0  0.00000000000E+00  0.00000000000E+00  0.11214747177E+04  0.11214747177E+04  0.25500000920E-02 0. -1.
       -2   -1    0    0    0  501  0.00000000000E+00  0.00000000000E+00 -0.47874947145E+03  0.47874947146E+03  0.25500000920E-02 0.  1.
    10030    2    1    2    0    0  0.00000000000E+00  0.00000000000E+00  0.64272524629E+03  0.16002241892E+04  0.14654766165E+04 0.  0.
        5    1    3    3  502    0  0.19192497588E+03  0.33964280666E+03  0.99862647722E+03  0.10721330904E+04  0.46999998093E+01 0. -1.
       -5    1    3    3    0  502 -0.19192497588E+03 -0.33964280666E+03 -0.35590123093E+03  0.52809109882E+03  0.46999998093E+01 0.  1.
</event>
<event>
 5   0  0.1225690E-03  0.1389494E+04  0.7818609E-02  0.8961459E-01
       -1   -1    0    0    0  501  0.00000000000E+00  0.00000000000E+00  0.69653202385E+03  0.69653202387E+03  0.50400001928E-02 0. -1.
        1   -1    0    0  501    0  0.00000000000E+00  0.00000000000E+00 -0.69296639914E+03  0.69296639916E+03  0.50400001928E-02 0.  1.
    10030    2    1    2    0    0  0.00000000000E+00  0.00000000000E+00  0.35656247077E+01  0.13894984230E+04  0.13894938481E+04 0.  0.
        4    1    3    3  502    0  0.67305891605E+03 -0.68805835639E+02 -0.15610731480E+03  0.69434404593E+03  0.12699999809E+01 0.  1.
       -4    1    3    3    0  502 -0.67305891605E+03  0.68805835639E+02  0.15967293950E+03  0.69515437710E+03  0.12699999809E+01 0. -1.
</event>
<event>
 5   0  0.1199720E-03  0.1395811E+04  0.7818609E-02  0.8956856E-01
        1   -1    0    0  501    0  0.00000000000E+00  0.00000000000E+00  0.66159184776E+03  0.66159184777E+03  0.50400001928E-02 0.  1.
       -1   -1    0    0    0  501  0.00000000000E+00  0.00000000000E+00 -0.73621249223E+03  0.73621249225E+03  0.50400001928E-02 0. -1.
    10030    2    1    2    0    0  0.00000000000E+00  0.00000000000E+00 -0.74620644473E+02  0.13978043400E+04  0.13958111378E+04 0.  0.
        5    1    3    3  502    0  0.50003080241E+03 -0.36441254442E+03  0.28598622526E+03  0.68164324754E+03  0.46999998093E+01 0.  1.
       -5    1    3    3    0  502 -0.50003080241E+03  0.36441254442E+03 -0.36060686973E+03  0.71616109248E+03  0.46999998093E+01 0. -1.
</event>
<event>
 5   0  0.8293000E-04  0.1361309E+04  0.7818609E-02  0.8982312E-01
       -3   -1    0    0    0  501  0.00000000000E+00  0.00000000000E+00  0.82060430694E+03  0.82060431316E+03  0.10100000352E+00 0.  1.
        3   -1    0    0  501    0  0.00000000000E+00  0.00000000000E+00 -0.56457201558E+03  0.56457202461E+03  0.10100000352E+00 0. -1.
    10030    2    1    2    0    0  0.00000000000E+00  0.00000000000E+00  0.25603229137E+03  0.13851763378E+04  0.13613085442E+04 0.  0.
        5    1    3    3  502    0  0.32714040806E+03  0.59623289472E+03  0.15594991483E+03  0.69775137210E+03  0.46999998093E+01 0.  1.
       -5    1    3    3    0  502 -0.32714040806E+03 -0.59623289472E+03  0.10008237653E+03  0.68742496567E+03  0.46999998093E+01 0. -1.
</event>
<event>
 5   0  0.2195980E-03  0.1438426E+04  0.7818609E-02  0.8926464E-01
       -2   -1    0    0    0  501  0.00000000000E+00  0.00000000000E+00  0.45332779271E+03  0.45332779272E+03  0.25500000920E-02 0.  1.
        2   -1    0    0  501    0  0.00000000000E+00  0.00000000000E+00 -0.11410445403E+04  0.11410445403E+04  0.25500000920E-02 0. -1.
    10030    2    1    2    0    0  0.00000000000E+00  0.00000000000E+00 -0.68771674756E+03  0.15943723330E+04  0.14384258102E+04 0.  0.
        4    1    3    3  502    0  0.64368103895E+03 -0.31924376158E+03 -0.30839376683E+03  0.78188885881E+03  0.12699999809E+01 0.  1.
       -4    1    3    3    0  502 -0.64368103895E+03  0.31924376158E+03 -0.37932298073E+03  0.81248347419E+03  0.12699999809E+01 0. -1.
</event>
<event>
 5   0  0.1225690E-03  0.1259731E+04  0.7818609E-02  0.9062123E-01
        1   -1    0    0  501    0  0.00000000000E+00  0.00000000000E+00  0.83083569732E+03  0.83083569734E+03  0.50400001928E-02 0. -1.
       -1   -1    0    0    0  501  0.00000000000E+00  0.00000000000E+00 -0.47750804149E+03  0.47750804152E+03  0.50400001928E-02 0.  1.
    10030    2    1    2    0    0  0.00000000000E+00  0.00000000000E+00  0.35332765583E+03  0.13083437389E+04  0.12597312835E+04 0.  0.
        4    1    3    3  502    0  0.21058491557E+03 -0.57440541644E+03  0.33224968816E+03  0.69618895229E+03  0.12699999809E+01 0. -1.
       -4    1    3    3    0  502 -0.21058491557E+03  0.57440541644E+03  0.21077967667E+02  0.61215478657E+03  0.12699999809E+01 0.  1.
</event>
<event>
 5   0  0.8293000E-04  0.1387881E+04  0.7818609E-02  0.8962638E-01
        3   -1    0    0  501    0  0.00000000000E+00  0.00000000000E+00  0.52424067941E+03  0.52424068914E+03  0.10100000352E+00 0.  1.
       -3   -1    0    0    0  501  0.00000000000E+00  0.00000000000E+00 -0.91857339766E+03  0.91857340321E+03  0.10100000352E+00 0. -1.
    10030    2    1    2    0    0  0.00000000000E+00  0.00000000000E+00 -0.39433271825E+03  0.14428140924E+04  0.13878811954E+04 0.  0.
        5    1    3    3  502    0 -0.53389897297E+03 -0.32681473850E+03  0.11414497348E+03  0.63632315030E+03  0.46999998093E+01 0.  1.
       -5    1    3    3    0  502  0.53389897297E+03  0.32681473850E+03 -0.50847769173E+03  0.80649094206E+03  0.46999998093E+01 0. -1.
</event>
<event>
 5   0  0.1210275E-03  0.1336523E+04  0.7818609E-02  0.9001093E-01
        1   -1    0    0  501    0  0.00000000000E+00  0.00000000000E+00  0.14355464213E+04  0.14355464213E+04  0.50400001928E-02 0. -1.
       -1   -1    0    0    0  501  0.00000000000E+00  0.00000000000E+00 -0.31108264144E+03  0.31108264148E+03  0.50400001928E-02 0.  1.
    10030    2    1    2    0    0  0.00000000000E+00  0.00000000000E+00  0.11244637799E+04  0.17466290628E+04  0.13365232100E+04 0.  0.
        1    1    3    3  502    0  0.33301513463E+03  0.52117776646E+03  0.89296504841E+03  0.10862375071E+04  0.50400001928E-02 0.  1.
       -1    1    3    3    0  502 -0.33301513463E+03 -0.52117776646E+03  0.23149873147E+03  0.66039155570E+03  0.50400001928E-02 0. -1.
</event>
<event>
 5   0  0.2083966E-03  0.1468624E+04  0.7818609E-02  0.8905590E-01
       -2   -1    0    0    0  501  0.00000000000E+00  0.00000000000E+00  0.32833437451E+03  0.32833437452E+03  0.25500000920E-02 0. -1.
        2   -1    0    0  501    0  0.00000000000E+00  0.00000000000E+00 -0.16422704567E+04  0.16422704567E+04  0.25500000920E-02 0.  1.
    10030    2    1    2    0    0  0.00000000000E+00  0.00000000000E+00 -0.13139360822E+04  0.19706048313E+04  0.14686236321E+04 0.  0.
        1    1    3    3  502    0 -0.15379696136E+03 -0.36436826190E+02 -0.16191758430E+04  0.16268717092E+04  0.50400001928E-02 0.  1.
       -1    1    3    3    0  502  0.15379696136E+03  0.36436826190E+02  0.30523976076E+03  0.34373312206E+03  0.50400001928E-02 0. -1.
</event>
<event>
 5   0  0.1199720E-03  0.1382549E+04  0.7818609E-02  0.8966548E-01
        1   -1    0    0  501    0  0.00000000000E+00  0.00000000000E+00  0.11556628651E+04  0.11556628651E+04  0.50400001928E-02 0. -1.
       -1   -1    0    0    0  501  0.00000000000E+00  0.00000000000E+00 -0.41349477707E+03  0.41349477710E+03  0.50400001928E-02 0.  1.
    10030    2    1    2    0    0  0.00000000000E+00  0.00000000000E+00  0.74216808805E+03  0.15691576422E+04  0.13825491801E+04 0.  0.
        5    1    3    3  502    0  0.18066312492E+03 -0.36328717619E+03 -0.26411806369E+03  0.48414582374E+03  0.46999998093E+01 0.  1.
       -5    1    3    3    0  502 -0.18066312492E+03  0.36328717619E+03  0.10062861517E+04  0.10850118185E+04  0.46999998093E+01 0. -1.
</event>
<event>
 5   0  0.2195980E-03  0.1388430E+04  0.7818609E-02  0.8962236E-01
        2   -1    0    0  501    0  0.00000000000E+00  0.00000000000E+00  0.16315572812E+04  0.16315572812E+04  0.25500000920E-02 0.  1.
       -2   -1    0    0    0  501  0.00000000000E+00  0.00000000000E+00 -0.29538322840E+03  0.29538322841E+03  0.25500000920E-02 0. -1.
    10030    2    1    2    0    0  0.00000000000E+00  0.00000000000E+00  0.13361740528E+04  0.19269405096E+04  0.13884302749E+04 0.  0.
        4    1    3    3  502    0  0.24747903062E+03 -0.31944759211E+03 -0.11533297936E+03  0.42023320160E+03  0.12699999809E+01 0. -1.
       -4    1    3    3    0  502 -0.24747903062E+03  0.31944759211E+03  0.14515070321E+04  0.15067073080E+04  0.12699999809E+01 0.  1.
</event>
<event>
 5   0  0.2083966E-03  0.1642728E+04  0.7818609E-02  0.8794720E-01
        2   -1    0    0  501    0  0.00000000000E+00  0.00000000000E+00  0.55736003835E+03  0.55736003835E+03  0.25500000920E-02 0. -1.
       -2   -1    0    0    0  501  0.00000000000E+00  0.00000000000E+00 -0.12104187912E+04  0.12104187912E+04  0.25500000920E-02 0.  1.
    10030    2    1    2    0    0  0.00000000000E+00  0.00000000000E+00 -0.65305875280E+03  0.17677788295E+04  0.16427282963E+04 0.  0.
        1    1    3    3  502    0 -0.57579300588E+03 -0.43701168342E+03 -0.74624833313E+03  0.10389433920E+04  0.50400001928E-02 0.  1.
       -1    1    3    3    0  502  0.57579300588E+03  0.43701168342E+03  0.93189580324E+02  0.72883543751E+03  0.50400001928E-02 0. -1.
</event>
<event>
 5   0  0.2236184E-03  0.1276383E+04  0.7818609E-02  0.9048506E-01
       -2   -1    0    0    0  501  0.00000000000E+00  0.00000000000E+00  0.21285521350E+03  0.21285521352E+03  0.25500000920E-02 0. -1.
        2   -1    0    0  501    0  0.00000000000E+00  0.00000000000E+00 -0.19134534949E+04  0.19134534949E+04  0.25500000920E-02 0.  1.
    10030    2    1    2    0    0  0.00000000000E+00  0.00000000000E+00 -0.17005982814E+04  0.21263087084E+04  0.12763832531E+04 0.  0.
        3    1    3    3  502    0 -0.79890623366E+01  0.11432693316E+03  0.19557211645E+03  0.22667804415E+03  0.10100000352E+00 0. -1.
       -3    1    3    3    0  502  0.79890623366E+01 -0.11432693316E+03 -0.18961703979E+04  0.18996306643E+04  0.10100000352E+00 0.  1.
</event>
<event>
 5   0  0.2172901E-03  0.1421515E+04  0.7818609E-02  0.8938390E-01
       -2   -1    0    0    0  501  0.00000000000E+00  0.00000000000E+00  0.34537974348E+03  0.34537974349E+03  0.25500000920E-02 0. -1.
        2   -1    0    0  501    0  0.00000000000E+00  0.00000000000E+00 -0.14626689259E+04  0.14626689259E+04  0.25500000920E-02 0.  1.
    10030    2    1    2    0    0  0.00000000000E+00  0.00000000000E+00 -0.11172891824E+04  0.18080486694E+04  0.14215149925E+04 0.  0.
        2    1    3    3  502    0  0.10023738003E+03  0.17547794568E+03 -0.14253568371E+04  0.14396118070E+04  0.25500000920E-02 0.  1.
       -2    1    3    3    0  502 -0.10023738003E+03 -0.17547794568E+03  0.30806765463E+03  0.36843686245E+03  0.25500000920E-02 0. -1.
</event>
<event>
 5   0  0.2083966E-03  0.1404254E+04  0.7818609E-02  0.8950745E-01
        2   -1    0    0  501    0  0.00000000000E+00  0.00000000000E+00  0.12601741531E+04  0.12601741531E+04  0.25500000920E-02 0. -1.
       -2   -1    0    0    0  501  0.00000000000E+00  0.00000000000E+00 -0.39120147618E+03  0.39120147618E+03  0.25500000920E-02 0.  1.
    10030    2    1    2    0    0  0.00000000000E+00  0.00000000000E+00  0.86897267690E+03  0.16513756293E+04  0.14042535226E+04 0.  0.
        1    1    3    3  502    0 -0.49044501694E+02  0.32600291789E+03 -0.29452590119E+03  0.44207326556E+03  0.50400001928E-02 0.  1.
       -1    1    3    3    0  502  0.49044501694E+02 -0.32600291789E+03  0.11634985781E+04  0.12093023637E+04  0.50400001928E-02 0. -1.
</event>
<event>
 5   0  0.2236184E-03  0.1380288E+04  0.7818609E-02  0.8968212E-01
        2   -1    0    0  501    0  0.00000000000E+00  0.00000000000E+00  0.34332799491E+03  0.34332799492E+03  0.25500000920E-02 0.  1.
       -2   -1    0    0    0  501  0.00000000000E+00  0.00000000000E+00 -0.13872989965E+04  0.13872989965E+04  0.25500000920E-02 0. -1.
    10030    2    1    2    0    0  0.00000000000E+00  0.00000000000E+00 -0.10439710016E+04  0.17306269915E+04  0.13802877712E+04 0.  0.
        3    1    3    3  502    0  0.57308628828E+03  0.37610516074E+03 -0.42155814505E+03  0.80473241864E+03  0.10100000352E+00 0.  1.
       -3    1    3    3    0  502 -0.57308628828E+03 -0.37610516074E+03 -0.62241285657E+03  0.92589457282E+03  0.10100000352E+00 0. -1.
</event>
<event>
 5   0  0.2172901E-03  0.9734273E+03  0.7818609E-02  0.9338179E-01
        2   -1    0    0  501    0  0.00000000000E+00  0.00000000000E+00  0.15979963606E+04  0.15979963607E+04  0.25500000920E-02 0. -1.
       -2   -1    0    0    0  501  0.00000000000E+00  0.00000000000E+00 -0.14824198715E+03  0.14824198717E+03  0.25500000920E-02 0.  1.
    10030    2    1    2    0    0  0.00000000000E+00  0.00000000000E+00  0.14497543735E+04  0.17462383478E+04  0.97342725662E+03 0.  0.
        2    1    3    3  502    0  0.98536502435E+02  0.36055623351E+03  0.16564999722E+03  0.40884001935E+03  0.25500000920E-02 0.  1.
       -2    1    3    3    0  502 -0.98536502435E+02 -0.36055623351E+03  0.12841043763E+04  0.13373983285E+04  0.25500000920E-02 0. -1.
</event>
<event>
 5   0  0.1175374E-03  0.1290450E+04  0.7818609E-02  0.9037173E-01
        1   -1    0    0  501    0  0.00000000000E+00  0.00000000000E+00  0.68833029224E+03  0.68833029226E+03  0.50400001928E-02 0.  1.
       -1   -1    0    0    0  501  0.00000000000E+00  0.00000000000E+00 -0.60481898275E+03  0.60481898277E+03  0.50400001928E-02 0. -1.
    10030    2    1    2    0    0  0.00000000000E+00  0.00000000000E+00  0.83511309491E+02  0.12931492750E+04  0.12904498862E+04 0.  0.
        3    1    3    3  502    0 -0.48282204212E+03  0.17772790947E+03 -0.34843126401E+03  0.62137644798E+03  0.10100000352E+00 0. -1.
       -3    1    3    3    0  502  0.48282204212E+03 -0.17772790947E+03  0.43194257350E+03  0.67177282705E+03  0.10100000352E+00 0.  1.
</event>
<event>
 5   0  0.1210275E-03  0.1378581E+04  0.7818609E-02  0.8969470E-01
       -1   -1    0    0    0  501  0.00000000000E+00  0.00000000000E+00  0.72842541706E+03  0.72842541707E+03  0.50400001928E-02 0. -1.
        1   -1    0    0  501    0  0.00000000000E+00  0.00000000000E+00 -0.65225794232E+03  0.65225794234E+03  0.50400001928E-02 0.  1.
    10030    2    1    2    0    0  0.00000000000E+00  0.00000000000E+00  0.76167474732E+02  0.13806833594E+04  0.13785808118E+04 0.  0.
        1    1    3    3  502    0 -0.64502525016E+03 -0.18591913290E+03  0.19484007392E+03  0.69898937885E+03  0.50400001928E-02 0. -1.
       -1    1    3    3    0  502  0.64502525016E+03  0.18591913290E+03 -0.11867259919E+03  0.68169398057E+03  0.50400001928E-02 0.  1.
</event>
<event>
 5   0  0.2172901E-03  0.1385003E+04  0.7818609E-02  0.8964746E-01
        2   -1    0    0  501    0  0.00000000000E+00  0.00000000000E+00  0.78685676412E+03  0.78685676412E+03  0.25500000920E-02 0.  1.
       -2   -1    0    0    0  501  0.00000000000E+00  0.00000000000E+00 -0.60946106738E+03  0.60946106738E+03  0.25500000920E-02 0. -1.
    10030    2    1    2    0    0  0.00000000000E+00  0.00000000000E+00  0.17739569674E+03  0.13963178315E+04  0.13850033406E+04 0.  0.
        2    1    3    3  502    0  0.30937326720E+03  0.51354932401E+02  0.71116332979E+03  0.77724026477E+03  0.25500000920E-02 0.  1.
       -2    1    3    3    0  502 -0.30937326720E+03 -0.51354932401E+02 -0.53376763305E+03  0.61907756674E+03  0.25500000920E-02 0. -1.
</event>
<event>
 5   0  0.2190704E-03  0.1182321E+04  0.7818609E-02  0.9128473E-01
       -2   -1    0    0    0  501  0.00000000000E+00  0.00000000000E+00  0.26811100846E+03  0.26811100847E+03  0.25500000920E-02 0. -1.
        2   -1    0    0  501    0  0.00000000000E+00  0.00000000000E+00 -0.13034558986E+04  0.13034558986E+04  0.25500000920E-02 0.  1.
    10030    2    1    2    0    0  0.00000000000E+00  0.00000000000E+00 -0.10353448902E+04  0.15715669071E+04  0.11823212346E+04 0.  0.
        5    1    3    3  502    0  0.67884247489E+02  0.23203173021E+03  0.19937058092E+03  0.31339705393E+03  0.46999998093E+01 0. -1.
       -5    1    3    3    0  502 -0.67884247489E+02 -0.23203173021E+03 -0.12347154711E+04  0.12581698532E+04  0.46999998093E+01 0.  1.
</event>
<event>
 5   0  0.2190704E-03  0.1423715E+04  0.7818609E-02  0.8936829E-01
        2   -1    0    0  501    0  0.00000000000E+00  0.00000000000E+00  0.77206359332E+03  0.77206359332E+03  0.25500000920E-02 0. -1.
       -2   -1    0    0    0  501  0.00000000000E+00  0.00000000000E+00 -0.65634664216E+03  0.65634664217E+03  0.25500000920E-02 0.  1.
    10030    2    1    2    0    0  0.00000000000E+00  0.00000000000E+00  0.11571695115E+03  0.14284102355E+04  0.14237153466E+04 0.  0.
        5    1    3    3  502    0  0.23698646345E+03  0.59005692057E+03  0.37889726267E+03  0.74021279308E+03  0.46999998093E+01 0. -1.
       -5    1    3    3    0  502 -0.23698646345E+03 -0.59005692057E+03 -0.26318031152E+03  0.68819744241E+03  0.46999998093E+01 0.  1.
</event>
<event>
 5   0  0.1225690E-03  0.8657599E+03  0.7818609E-02  0.9469425E-01
        1   -1    0    0  501    0  0.00000000000E+00  0.00000000000E+00  0.37773488956E+03  0.37773488959E+03  0.50400001928E-02 0. -1.
       -1   -1    0    0    0  501  0.00000000000E+00  0.00000000000E+00 -0.49607557205E+03  0.49607557207E+03  0.50400001928E-02 0.  1.
    10030    2    1    2    0    0  0.00000000000E+00  0.00000000000E+00 -0.11834068249E+03  0.87381046167E+03  0.86575990077E+03 0.  0.
        4    1    3    3  502    0  0.29007623997E+03  0.10200608033E+03 -0.36669025352E+03  0.47855283966E+03  0.12699999809E+01 0.  1.
       -4    1    3    3    0  502 -0.29007623997E+03 -0.10200608033E+03  0.24834957103E+03  0.39525762200E+03  0.12699999809E+01 0. -1.
</event>
<event>
 5   0  0.1199720E-03  0.1381198E+04  0.7818609E-02  0.8967542E-01
        1   -1    0    0  501    0  0.00000000000E+00  0.00000000000E+00  0.45791061682E+03  0.45791061685E+03  0.50400001928E-02 0. -1.
       -1   -1    0    0    0  501  0.00000000000E+00  0.00000000000E+00 -0.10415279602E+04  0.10415279602E+04  0.50400001928E-02 0.  1.
    10030    2    1    2    0    0  0.00000000000E+00  0.00000000000E+00 -0.58361734334E+03  0.14994385770E+04  0.13811976118E+04 0.  0.
        5    1    3    3  502    0  0.63497679570E+03 -0.16302416414E+03 -0.56123765365E+02  0.65798508813E+03  0.46999998093E+01 0. -1.
       -5    1    3    3    0  502 -0.63497679570E+03  0.16302416414E+03 -0.52749357797E+03  0.84145348889E+03  0.46999998093E+01 0.  1.
</event>
<event>
 5   0  0.2083966E-03  0.1384692E+04  0.7818609E-02  0.8964974E-01
       -2   -1    0    0    0  501  0.00000000000E+00  0.00000000000E+00  0.66531134875E+03  0.66531134875E+03  0.25500000920E-02 0.  1.
        2   -1    0    0  501    0  0.00000000000E+00  0.00000000000E+00 -0.72047951905E+03  0.72047951906E+03  0.25500000920E-02 0. -1.
    10030    2    1    2    0    0  0.00000000000E+00  0.00000000000E+00 -0.55168170307E+02  0.13857908678E+04  0.13846923132E+04 0.  0.
        1    1    3    3  502    0  0.31662413748E+02  0.47641201363E+03 -0.52935225796E+03  0.71287076543E+03  0.50400001928E-02 0. -1.
       -1    1    3    3    0  502 -0.31662413748E+02 -0.47641201363E+03  0.47418408765E+03  0.67292010238E+03  0.50400001928E-02 0.  1.
</event>
<event>
 5   0  0.2195980E-03  0.1361052E+04  0.7818609E-02  0.8982504E-01
       -2   -1    0    0    0  501  0.00000000000E+00  0.00000000000E+00  0.59361145164E+03  0.59361145165E+03  0.25500000920E-02 0. -1.
        2   -1    0    0  501    0  0.00000000000E+00  0.00000000000E+00 -0.78016651436E+03  0.78016651436E+03  0.25500000920E-02 0.  1.
    10030    2    1    2    0    0  0.00000000000E+00  0.00000000000E+00 -0.18655506271E+03  0.13737779660E+04  0.13610522064E+04 0.  0.
        4    1    3    3  502    0 -0.52441467091E+02 -0.19125353000E+03 -0.75035282690E+03  0.77611790209E+03  0.12699999809E+01 0.  1.
       -4    1    3    3    0  502  0.52441467091E+02  0.19125353000E+03  0.56379776418E+03  0.59766006392E+03  0.12699999809E+01 0. -1.
</event>
<event>
 5   0  0.2172901E-03  0.1369360E+04  0.7818609E-02  0.8976301E-01
       -2   -1    0    0    0  501  0.00000000000E+00  0.00000000000E+00  0.86640862740E+03  0.86640862740E+03  0.25500000920E-02 0.  1.
        2   -1    0    0  501    0  0.00000000000E+00  0.00000000000E+00 -0.54106889732E+03  0.54106889733E+03  0.25500000920E-02 0. -1.
    10030    2    1    2    0    0  0.00000000000E+00  0.00000000000E+00  0.32533973007E+03  0.14074775247E+04  0.13693600851E+04 0.  0.
        2    1    3    3  502    0  0.12056908304E+02 -0.44762098378E+03 -0.36970237339E+03  0.58068042764E+03  0.25500000920E-02 0. -1.
       -2    1    3    3    0  502 -0.12056908304E+02  0.44762098378E+03  0.69504210346E+03  0.82679709708E+03  0.25500000920E-02 0.  1.
</event>
<event>
 5   0  0.2172901E-03  0.1412369E+04  0.7818609E-02  0.8944913E-01
       -2   -1    0    0    0  501  0.00000000000E+00  0.00000000000E+00  0.69888172654E+03  0.69888172654E+03  0.25500000920E-02 0.  1.
        2   -1    0    0  501    0  0.00000000000E+00  0.00000000000E+00 -0.71356376635E+03  0.71356376635E+03  0.25500000920E-02 0. -1.
    10030    2    1    2    0    0  0.00000000000E+00  0.00000000000E+00 -0.14682039810E+02  0.14124454929E+04  0.14123691827E+04 0.  0.
        2    1    3    3  502    0 -0.34477958852E+03 -0.32679816839E+03 -0.52988879144E+03  0.71165450804E+03  0.25500000920E-02 0. -1.
       -2    1    3    3    0  502  0.34477958852E+03  0.32679816839E+03  0.51520675163E+03  0.70079098485E+03  0.25500000920E-02 0.  1.
</event>
<event>
 5   0  0.8293000E-04  0.1336057E+04  0.7818609E-02  0.9001451E-01
       -4   -1    0    0    0  501  0.00000000000E+00  0.00000000000E+00  0.36759071890E+03  0.36759291277E+03  0.12699999809E+01 0.  1.
        4   -1    0    0  501    0  0.00000000000E+00  0.00000000000E+00 -0.12140120970E+04  0.12140127612E+04  0.12699999809E+01 0. -1.
    10030    2    1    2    0    0  0.00000000000E+00  0.00000000000E+00 -0.84642137805E+03  0.15816056740E+04  0.13360566451E+04 0.  0.
        1    1    3    3  502    0  0.24299534683E+03 -0.14610222906E+03  0.29282767548E+03  0.40760354202E+03  0.50400001928E-02 0.  1.
       -1    1    3    3    0  502 -0.24299534683E+03  0.14610222906E+03 -0.11392490535E+04  0.11740021320E+04  0.50400001928E-02 0. -1.
</event>
<event>
 5   0  0.1175374E-03  0.1403521E+04  0.7818609E-02  0.8951274E-01
       -1   -1    0    0    0  501  0.00000000000E+00  0.00000000000E+00  0.36558360209E+03  0.36558360213E+03  0.50400001928E-02 0.  1.
        1   -1    0    0  501    0  0.00000000000E+00  0.00000000000E+00 -0.13470728912E+04  0.13470728912E+04  0.50400001928E-02 0. -1.
    10030    2    1    2    0    0  0.00000000000E+00  0.00000000000E+00 -0.98148928909E+03  0.17126564933E+04  0.14035209437E+04 0.  0.
        3    1    3    3  502    0 -0.54547333522E+03  0.27643448950E+03 -0.91082260712E+03  0.10970665514E+04  0.10100000352E+00 0. -1.
       -3    1    3    3    0  502  0.54547333522E+03 -0.27643448950E+03 -0.70666681967E+02  0.61558994189E+03  0.10100000352E+00 0.  1.
</event>
<event>
 5   0  0.2190704E-03  0.1426869E+04  0.7818609E-02  0.8934596E-01
       -2   -1    0    0    0  501  0.00000000000E+00  0.00000000000E+00  0.38878623042E+03  0.38878623043E+03  0.25500000920E-02 0.  1.
        2   -1    0    0  501    0  0.00000000000E+00  0.00000000000E+00 -0.13091740285E+04  0.13091740285E+04  0.25500000920E-02 0. -1.
    10030    2    1    2    0    0  0.00000000000E+00  0.00000000000E+00 -0.92038779806E+03  0.16979602589E+04  0.14268690697E+04 0.  0.
        5    1    3    3  502    0 -0.16736398338E+03  0.24469000889E+02  0.36456232143E+03  0.40191692070E+03  0.46999998093E+01 0.  1.
       -5    1    3    3    0  502  0.16736398338E+03 -0.24469000889E+02 -0.12849501195E+04  0.12960433382E+04  0.46999998093E+01 0. -1.
</event>
<event>
 5   0  0.2083966E-03  0.1404937E+04  0.7818609E-02  0.8950252E-01
       -2   -1    0    0    0  501  0.00000000000E+00  0.00000000000E+00  0.50764499618E+03  0.50764499619E+03  0.25500000920E-02 0.  1.
        2   -1    0    0  501    0  0.00000000000E+00  0.00000000000E+00 -0.97206181021E+03  0.97206181021E+03  0.25500000920E-02 0. -1.
    10030    2    1    2    0    0  0.00000000000E+00  0.00000000000E+00 -0.46441681403E+03  0.14797068064E+04  0.14049374562E+04 0.  0.
        1    1    3    3  502    0  0.54290607176E+03  0.19798044510E+03  0.18844553568E+03  0.60782808371E+03  0.50400001928E-02 0.  1.
       -1    1    3    3    0  502 -0.54290607176E+03 -0.19798044510E+03 -0.65286234971E+03  0.87187872270E+03  0.50400001928E-02 0. -1.
</event>
<event>
 5   0  0.1225690E-03  0.1361148E+04  0.7818609E-02  0.8982432E-01
        1   -1    0    0  501    0  0.00000000000E+00  0.00000000000E+00  0.60258984303E+03  0.60258984305E+03  0.50400001928E-02 0. -1.
       -1   -1    0    0    0  501  0.00000000000E+00  0.00000000000E+00 -0.76865020242E+03  0.76865020244E+03  0.50400001928E-02 0.  1.
    10030    2    1    2    0    0  0.00000000000E+00  0.00000000000E+00 -0.16606035939E+03  0.13712400455E+04  0.13611477581E+04 0.  0.
        4    1    3    3  502    0 -0.62573840236E+03  0.23614604567E+03  0.43862825339E+02  0.67025298464E+03  0.12699999809E+01 0. -1.
       -4    1    3    3    0  502  0.62573840236E+03 -0.23614604567E+03 -0.20992318473E+03  0.70098706084E+03  0.12699999809E+01 0.  1.
</event>
<event>
 5   0  0.1175374E-03  0.1420478E+04  0.7818609E-02  0.8939128E-01
        1   -1    0    0  501    0  0.00000000000E+00  0.00000000000E+00  0.14367032189E+04  0.14367032189E+04  0.50400001928E-02 0. -1.
       -1   -1    0    0    0  501  0.00000000000E+00  0.00000000000E+00 -0.35110898131E+03  0.35110898134E+03  0.50400001928E-02 0.  1.
    10030    2    1    2    0    0  0.00000000000E+00  0.00000000000E+00  0.10855942376E+04  0.17878122002E+04  0.14204779529E+04 0.  0.
        3    1    3    3  502    0  0.53679405047E+03 -0.41284818677E+03  0.27330430012E+03  0.73026483457E+03  0.10100000352E+00 0.  1.
       -3    1    3    3    0  502 -0.53679405047E+03  0.41284818677E+03  0.81228993747E+03  0.10575473657E+04  0.10100000352E+00 0. -1.
</event>
<event>
 5   0  0.2190704E-03  0.1378778E+04  0.7818609E-02  0.8969325E-01
       -2   -1    0    0    0  501  0.00000000000E+00  0.00000000000E+00  0.28101685341E+03  0.28101685342E+03  0.25500000920E-02 0.  1.
        2   -1    0    0  501    0  0.00000000000E+00  0.00000000000E+00 -0.16912052309E+04  0.16912052309E+04  0.25500000920E-02 0. -1.
    10030    2    1    2    0    0  0.00000000000E+00  0.00000000000E+00 -0.14101883775E+04  0.19722220843E+04  0.13787779697E+04 0.  0.
        5    1    3    3  502    0  0.51296394597E+03  0.46003590580E+03 -0.73610605871E+03  0.10082853089E+04  0.46999998093E+01 0. -1.
       -5    1    3    3    0  502 -0.51296394597E+03 -0.46003590580E+03 -0.67408231879E+03  0.96393677541E+03  0.46999998093E+01 0.  1.
</event>
<event>
 5   0  0.2190704E-03  0.1421657E+04  0.7818609E-02  0.8938290E-01
        2   -1    0    0  501    0  0.00000000000E+00  0.00000000000E+00  0.12468916898E+04  0.12468916898E+04  0.25500000920E-02 0. -1.
       -2   -1    0    0    0  501  0.00000000000E+00  0.00000000000E+00 -0.40522933010E+03  0.40522933011E+03  0.25500000920E-02 0.  1.
    10030    2    1    2    0    0  0.00000000000E+00  0.00000000000E+00  0.84166235970E+03  0.16521210199E+04  0.14216568984E+04 0.  0.
        5    1    3    3  502    0 -0.61902733985E+03 -0.26274628009E+02  0.15973519153E+02  0.61980839529E+03  0.46999998093E+01 0. -1.
       -5    1    3    3    0  502  0.61902733985E+03  0.26274628009E+02  0.82568884054E+03  0.10323126246E+04  0.46999998093E+01 0.  1.
</event>
<event>
 5   0  0.2172901E-03  0.1391110E+04  0.7818609E-02  0.8960279E-01
        2   -1    0    0  501    0  0.00000000000E+00  0.00000000000E+00  0.17480569503E+04  0.17480569503E+04  0.25500000920E-02 0.  1.
       -2   -1    0    0    0  501  0.00000000000E+00  0.00000000000E+00 -0.27676255831E+03  0.27676255832E+03  0.25500000920E-02 0. -1.
    10030    2    1    2    0    0  0.00000000000E+00  0.00000000000E+00  0.14712943920E+04  0.20248195086E+04  0.13911099362E+04 0.  0.
        2    1    3    3  502    0  0.56923252707E+02 -0.35135810202E+03 -0.13415837602E+03  0.38038302067E+03  0.25500000920E-02 0. -1.
       -2    1    3    3    0  502 -0.56923252707E+02  0.35135810202E+03  0.16054527680E+04  0.16444364880E+04  0.25500000920E-02 0.  1.
</event>
<event>
 5   0  0.2195980E-03  0.1495373E+04  0.7818609E-02  0.8887536E-01
       -2   -1    0    0    0  501  0.00000000000E+00  0.00000000000E+00  0.53070250052E+03  0.53070250053E+03  0.25500000920E-02 0. -1.
        2   -1    0    0  501    0  0.00000000000E+00  0.00000000000E+00 -0.10533866303E+04  0.10533866303E+04  0.25500000920E-02 0.  1.
    10030    2    1    2    0    0  0.00000000000E+00  0.00000000000E+00 -0.52268412978E+03  0.15840891308E+04  0.14953727545E+04 0.  0.
        4    1    3    3  502    0  0.59361333622E+03  0.45426493028E+03 -0.27968666500E+03  0.79809752743E+03  0.12699999809E+01 0. -1.
       -4    1    3    3    0  502 -0.59361333622E+03 -0.45426493028E+03 -0.24299746478E+03  0.78599160340E+03  0.12699999809E+01 0.  1.
</event>
<event>
 5   0  0.1210275E-03  0.1442043E+04  0.7818609E-02  0.8923936E-01
       -1   -1    0    0    0  501  0.00000000000E+00  0.00000000000E+00  0.11026677098E+04  0.11026677098E+04  0.50400001928E-02 0.  1.
        1   -1    0    0  501    0  0.00000000000E+00  0.00000000000E+00 -0.47146737321E+03  0.47146737323E+03  0.50400001928E-02 0. -1.
    10030    2    1    2    0    0  0.00000000000E+00  0.00000000000E+00  0.63120033663E+03  0.15741350831E+04  0.14420427854E+04 0.  0.
        1    1    3    3  502    0  0.38522654412E+03 -0.14680053672E+03  0.96132792024E+03  0.10459929532E+04  0.50400001928E-02 0.  1.
       -1    1    3    3    0  502 -0.38522654412E+03  0.14680053672E+03 -0.33012758361E+03  0.52814212989E+03  0.50400001928E-02 0. -1.
</event>
<event>
 5   0  0.1210275E-03  0.1379548E+04  0.7818609E-02  0.8968757E-01
       -1   -1    0    0    0  501  0.00000000000E+00  0.00000000000E+00  0.24677091813E+03  0.24677091818E+03  0.50400001928E-02 0.  1.
        1   -1    0    0  501    0  0.00000000000E+00  0.00000000000E+00 -0.19280555712E+04  0.19280555712E+04  0.50400001928E-02 0. -1.
    10030    2    1    2    0    0  0.00000000000E+00  0.00000000000E+00 -0.16812846530E+04  0.21748264893E+04  0.13795478151E+04 0.  0.
        1    1    3    3  502    0  0.59627068275E+02  0.59987009014E+03 -0.31213762619E+03  0.67884417212E+03  0.50400001928E-02 0.  1.
       -1    1    3    3    0  502 -0.59627068275E+02 -0.59987009014E+03 -0.13691470268E+04  0.14959823172E+04  0.50400001928E-02 0. -1.
</event>
<event>
 5   0  0.1175374E-03  0.1345853E+04  0.7818609E-02  0.8993973E-01
        1   -1    0    0  501    0  0.00000000000E+00  0.00000000000E+00  0.93941262542E+03  0.93941262543E+03  0.50400001928E-02 0. -1.
       -1   -1    0    0    0  501  0.00000000000E+00  0.00000000000E+00 -0.48203522968E+03  0.48203522970E+03  0.50400001928E-02 0.  1.
    10030    2    1    2    0    0  0.00000000000E+00  0.00000000000E+00  0.45737739574E+03  0.14214478551E+04  0.13458528607E+04 0.  0.
        3    1    3    3  502    0 -0.36577334414E+03  0.12406563784E+03 -0.35330494421E+03  0.52345660334E+03  0.10100000352E+00 0.  1.
       -3    1    3    3    0  502  0.36577334414E+03 -0.12406563784E+03  0.81068233996E+03  0.89799125179E+03  0.10100000352E+00 0. -1.
</event>
<event>
 5   0  0.2083966E-03  0.1392368E+04  0.7818609E-02  0.8959362E-01
       -2   -1    0    0    0  501  0.00000000000E+00  0.00000000000E+00  0.55272873870E+03  0.55272873870E+03  0.25500000920E-02 0.  1.
        2   -1    0    0  501    0  0.00000000000E+00  0.00000000000E+00 -0.87687110585E+03  0.87687110585E+03  0.25500000920E-02 0. -1.
    10030    2    1    2    0    0  0.00000000000E+00  0.00000000000E+00 -0.32414236715E+03  0.14295998446E+04  0.13923675669E+04 0.  0.
        1    1    3    3  502    0  0.13859135092E+02 -0.59679696755E+03 -0.52985803693E+03  0.79819060094E+03  0.50400001928E-02 0. -1.
       -1    1    3    3    0  502 -0.13859135092E+02  0.59679696755E+03  0.20571566978E+03  0.63140924362E+03  0.50400001928E-02 0.  1.
</event>
<event>
 5   0  0.8293000E-04  0.1362836E+04  0.7818609E-02  0.8981168E-01
       -3   -1    0    0    0  501  0.00000000000E+00  0.00000000000E+00  0.57799998700E+03  0.57799999582E+03  0.10100000352E+00 0.  1.
        3   -1    0    0  501    0  0.00000000000E+00  0.00000000000E+00 -0.80333988268E+03  0.80333988902E+03  0.10100000352E+00 0. -1.
    10030    2    1    2    0    0  0.00000000000E+00  0.00000000000E+00 -0.22533989568E+03  0.13813398848E+04  0.13628359435E+04 0.  0.
        4    1    3    3  502    0 -0.22536002076E+03  0.63638956460E+03 -0.18948152378E+02  0.67538097564E+03  0.12699999809E+01 0.  1.
       -4    1    3    3    0  502  0.22536002076E+03 -0.63638956460E+03 -0.20639174330E+03  0.70595890920E+03  0.12699999809E+01 0. -1.
</event>
<event>
 5   0  0.2195980E-03  0.9824748E+03  0.7818609E-02  0.9327978E-01
        2   -1    0    0  501    0  0.00000000000E+00  0.00000000000E+00  0.42903685197E+03  0.42903685198E+03  0.25500000920E-02 0. -1.
       -2   -1    0    0    0  501  0.00000000000E+00  0.00000000000E+00 -0.56245557411E+03  0.56245557412E+03  0.25500000920E-02 0.  1.
    10030    2    1    2    0    0  0.00000000000E+00  0.00000000000E+00 -0.13341872214E+03  0.99149242610E+03  0.98247477097E+03 0.  0.
        4    1    3    3  502    0 -0.36473637841E+03 -0.22279856286E+03 -0.31109049779E+03  0.52863100179E+03  0.12699999809E+01 0.  1.
       -4    1    3    3    0  502  0.36473637841E+03  0.22279856286E+03  0.17767177565E+03  0.46286142430E+03  0.12699999809E+01 0. -1.
</event>
<event>
 5   0  0.1225690E-03  0.1405042E+04  0.7818609E-02  0.8950177E-01
       -1   -1    0    0    0  501  0.00000000000E+00  0.00000000000E+00  0.34203464214E+03  0.34203464218E+03  0.50400001928E-02 0. -1.
        1   -1    0    0  501    0  0.00000000000E+00  0.00000000000E+00 -0.14429403862E+04  0.14429403862E+04  0.50400001928E-02 0.  1.
    10030    2    1    2    0    0  0.00000000000E+00  0.00000000000E+00 -0.11009057440E+04  0.17849750284E+04  0.14050417768E+04 0.  0.
        4    1    3    3  502    0  0.16718908684E+03 -0.43138517536E+03  0.12116922457E+03  0.47825615956E+03  0.12699999809E+01 0. -1.
       -4    1    3    3    0  502 -0.16718908684E+03  0.43138517536E+03 -0.12220749686E+04  0.13067188688E+04  0.12699999809E+01 0.  1.
</event>
<event>
 5   0  0.1199720E-03  0.1402031E+04  0.7818609E-02  0.8952349E-01
        1   -1    0    0  501    0  0.00000000000E+00  0.00000000000E+00  0.18752144483E+04  0.18752144483E+04  0.50400001928E-02 0.  1.
       -1   -1    0    0    0  501  0.00000000000E+00  0.00000000000E+00 -0.26206226457E+03  0.26206226462E+03  0.50400001928E-02 0. -1.
    10030    2    1    2    0    0  0.00000000000E+00  0.00000000000E+00  0.16131521837E+04  0.21372767129E+04  0.14020313048E+04 0.  0.
        5    1    3    3  502    0 -0.12450625867E+03 -0.25291190905E+03 -0.17182557881E+03  0.33017020114E+03  0.46999998093E+01 0. -1.
       -5    1    3    3    0  502  0.12450625867E+03  0.25291190905E+03  0.17849777625E+04  0.18071065117E+04  0.46999998093E+01 0.  1.
</event>
<event>
 5   0  0.2083966E-03  0.1386207E+04  0.7818609E-02  0.8963864E-01
        2   -1    0    0  501    0  0.00000000000E+00  0.00000000000E+00  0.19177390608E+04  0.19177390608E+04  0.25500000920E-02 0. -1.
       -2   -1    0    0    0  501  0.00000000000E+00  0.00000000000E+00 -0.25049927684E+03  0.25049927686E+03  0.25500000920E-02 0.  1.
    10030    2    1    2    0    0  0.00000000000E+00  0.00000000000E+00  0.16672397839E+04  0.21682383376E+04  0.13862066915E+04 0.  0.
        1    1    3    3  502    0 -0.36700254224E+03 -0.24716572742E+03 -0.83809511747E+00  0.44247312376E+03  0.50400001928E-02 0.  1.
       -1    1    3    3    0  502  0.36700254224E+03  0.24716572742E+03  0.16680778790E+04  0.17257652139E+04  0.50400001928E-02 0. -1.
</event>
<event>
 5   0  0.1175374E-03  0.1378099E+04  0.7818609E-02  0.8969826E-01
       -1   -1    0    0    0  501  0.00000000000E+00  0.00000000000E+00  0.38053311341E+03  0.38053311344E+03  0.50400001928E-02 0. -1.
        1   -1    0    0  501    0  0.00000000000E+00  0.00000000000E+00 -0.12476947890E+04  0.12476947890E+04  0.50400001928E-02 0.  1.
    10030    2    1    2    0    0  0.00000000000E+00  0.00000000000E+00 -0.86716167555E+03  0.16282279024E+04  0.13780989553E+04 0.  0.
        3    1    3    3  502    0 -0.26143691223E+03  0.36179273740E+03 -0.10537808757E+04  0.11444201100E+04  0.10100000352E+00 0.  1.
       -3    1    3    3    0  502  0.26143691223E+03 -0.36179273740E+03  0.18661920019E+03  0.48380779240E+03  0.10100000352E+00 0. -1.
</event>
<event>
 5   0  0.2172901E-03  0.1416299E+04  0.7818609E-02  0.8942104E-01
        2   -1    0    0  501    0  0.00000000000E+00  0.00000000000E+00  0.23864929631E+04  0.23864929631E+04  0.25500000920E-02 0.  1.
       -2   -1    0    0    0  501  0.00000000000E+00  0.00000000000E+00 -0.21013074166E+03  0.21013074167E+03  0.25500000920E-02 0. -1.
    10030    2    1    2    0    0  0.00000000000E+00  0.00000000000E+00  0.21763622215E+04  0.25966237048E+04  0.14162987486E+04 0.  0.
        2    1    3    3  502    0 -0.61183920211E+03  0.12064624428E+03  0.47304545513E+03  0.78273541387E+03  0.25500000920E-02 0. -1.
       -2    1    3    3    0  502  0.61183920211E+03 -0.12064624428E+03  0.17033167664E+04  0.18138882909E+04  0.25500000920E-02 0.  1.
</event>
<event>
 5   0  0.2172901E-03  0.1459919E+04  0.7818609E-02  0.8911552E-01
       -2   -1    0    0    0  501  0.00000000000E+00  0.00000000000E+00  0.89257110526E+03  0.89257110526E+03  0.25500000920E-02 0. -1.
        2   -1    0    0  501    0  0.00000000000E+00  0.00000000000E+00 -0.59697326519E+03  0.59697326520E+03  0.25500000920E-02 0.  1.
    10030    2    1    2    0    0  0.00000000000E+00  0.00000000000E+00  0.29559784006E+03  0.14895443705E+04  0.14599192952E+04 0.  0.
        2    1    3    3  502    0 -0.38264441944E+03  0.31549965286E+03  0.69428359832E+03  0.85322124773E+03  0.25500000920E-02 0. -1.
       -2    1    3    3    0  502  0.38264441944E+03 -0.31549965286E+03 -0.39868575825E+03  0.63632312273E+03  0.25500000920E-02 0.  1.
</event>
<event>
 5   0  0.2195980E-03  0.1414546E+04  0.7818609E-02  0.8943356E-01
        2   -1    0    0  501    0  0.00000000000E+00  0.00000000000E+00  0.66636238208E+03  0.66636238208E+03  0.25500000920E-02 0.  1.
       -2   -1    0    0    0  501  0.00000000000E+00  0.00000000000E+00 -0.75069512099E+03  0.75069512099E+03  0.25500000920E-02 0. -1.
    10030    2    1    2    0    0  0.00000000000E+00  0.00000000000E+00 -0.84332738909E+02  0.14170575031E+04  0.14145458480E+04 0.  0.
        4    1    3    3  502    0 -0.65804105741E+03 -0.82742187601E+02 -0.28830382130E+03  0.72317702475E+03  0.12699999809E+01 0.  1.
       -4    1    3    3    0  502  0.65804105741E+03  0.82742187601E+02  0.20397108239E+03  0.69388047833E+03  0.12699999809E+01 0. -1.
</event>
<event>
 5   0  0.2236184E-03  0.1362813E+04  0.7818609E-02  0.8981185E-01
        2   -1    0    0  501    0  0.00000000000E+00  0.00000000000E+00  0.19532239375E+04  0.19532239375E+04  0.25500000920E-02 0. -1.
       -2   -1    0    0    0  501  0.00000000000E+00  0.00000000000E+00 -0.23771721434E+03  0.23771721436E+03  0.25500000920E-02 0.  1.
    10030    2    1    2    0    0  0.00000000000E+00  0.00000000000E+00  0.17155067232E+04  0.21909411519E+04  0.13628131984E+04 0.  0.
        3    1    3    3  502    0 -0.10718724973E+03 -0.53008596469E+03  0.19133059555E+03  0.57366161058E+03  0.10100000352E+00 0.  1.
       -3    1    3    3    0  502  0.10718724973E+03  0.53008596469E+03  0.15241761277E+04  0.16172795413E+04  0.10100000352E+00 0. -1.
</event>
<event>
 5   0  0.2083966E-03  0.1444628E+04  0.7818609E-02  0.8922134E-01
        2   -1    0    0  501    0  0.00000000000E+00  0.00000000000E+00  0.10972803374E+04  0.10972803374E+04  0.25500000920E-02 0.  1.
       -2   -1    0    0    0  501  0.00000000000E+00  0.00000000000E+00 -0.47548217595E+03  0.47548217596E+03  0.25500000920E-02 0. -1.
    10030    2    1    2    0    0  0.00000000000E+00  0.00000000000E+00  0.62179816144E+03  0.15727625133E+04  0.14446276232E+04 0.  0.
        1    1    3    3  502    0 -0.71386729852E+02 -0.19894469567E+03  0.10628590664E+04  0.10836717456E+04  0.50400001928E-02 0.  1.
       -1    1    3    3    0  502  0.71386729852E+02  0.19894469567E+03 -0.44106090499E+03  0.48909076772E+03  0.50400001928E-02 0. -1.
</event>
<event>
 5   0  0.2190704E-03  0.1486898E+04  0.7818609E-02  0.8893213E-01
       -2   -1    0    0    0  501  0.00000000000E+00  0.00000000000E+00  0.17637275041E+04  0.17637275041E+04  0.25500000920E-02 0. -1.
        2   -1    0    0  501    0  0.00000000000E+00  0.00000000000E+00 -0.31337952500E+03  0.31337952501E+03  0.25500000920E-02 0.  1.
    10030    2    1    2    0    0  0.00000000000E+00  0.00000000000E+00  0.14503479791E+04  0.20771070291E+04  0.14868975587E+04 0.  0.
        5    1    3    3  502    0 -0.27832090793E+03  0.34892270354E+03 -0.10537061903E+03  0.45862254436E+03  0.46999998093E+01 0.  1.
       -5    1    3    3    0  502  0.27832090793E+03 -0.34892270354E+03  0.15557185981E+04  0.16184844848E+04  0.46999998093E+01 0. -1.
</event>
<event>
 5   0  0.1225690E-03  0.1418330E+04  0.7818609E-02  0.8940656E-01
       -1   -1    0    0    0  501  0.00000000000E+00  0.00000000000E+00  0.40753168661E+03  0.40753168664E+03  0.50400001928E-02 0. -1.
        1   -1    0    0  501    0  0.00000000000E+00  0.00000000000E+00 -0.12340521101E+04  0.12340521101E+04  0.50400001928E-02 0.  1.
    10030    2    1    2    0    0  0.00000000000E+00  0.00000000000E+00 -0.82652042352E+03  0.16415837968E+04  0.14183304803E+04 0.  0.
        4    1    3    3  502    0  0.25267230678E+03  0.14309354662E+02  0.35348562556E+03  0.43474331809E+03  0.12699999809E+01 0. -1.
       -4    1    3    3    0  502 -0.25267230678E+03 -0.14309354662E+02 -0.11800060491E+04  0.12068404787E+04  0.12699999809E+01 0.  1.
</event>
<event>
 5   0  0.1199720E-03  0.1371461E+04  0.7818609E-02  0.8974740E-01
       -1   -1    0    0    0  501  0.00000000000E+00  0.00000000000E+00  0.93304573406E+03  0.93304573407E+03  0.50400001928E-02 0. -1.
        1   -1    0    0  501    0  0.00000000000E+00  0.00000000000E+00 -0.50396913988E+03  0.50396913991E+03  0.50400001928E-02 0.  1.
    10030    2    1    2    0    0  0.00000000000E+00  0.00000000000E+00  0.42907659417E+03  0.14370148740E+04  0.13714609088E+04 0.  0.
        5    1    3    3  502    0  0.31275761141E+03  0.33323701432E+02  0.85298770243E+03  0.90914129984E+03  0.46999998093E+01 0. -1.
       -5    1    3    3    0  502 -0.31275761141E+03 -0.33323701432E+02 -0.42391110826E+03  0.52787357414E+03  0.46999998093E+01 0.  1.
</event>
<event>
 5   0  0.2195980E-03  0.1370348E+04  0.7818609E-02  0.8975566E-01
       -2   -1    0    0    0  501  0.00000000000E+00  0.00000000000E+00  0.26464451455E+03  0.26464451456E+03  0.25500000920E-02 0. -1.
        2   -1    0    0  501    0  0.00000000000E+00  0.00000000000E+00 -0.17739405742E+04  0.17739405742E+04  0.25500000920E-02 0.  1.
    10030    2    1    2    0    0  0.00000000000E+00  0.00000000000E+00 -0.15092960597E+04  0.20385850888E+04  0.13703483384E+04 0.  0.
        4    1    3    3  502    0 -0.67493070335E+03  0.46897716065E+02 -0.91577516990E+03  0.11385853612E+04  0.12699999809E+01 0.  1.
       -4    1    3    3    0  502  0.67493070335E+03 -0.46897716065E+02 -0.59352088978E+03  0.89999972756E+03  0.12699999809E+01 0. -1.
</event>
<event>
 5   0  0.2172901E-03  0.1414365E+04  0.7818609E-02  0.8943485E-01
       -2   -1    0    0    0  501  0.00000000000E+00  0.00000000000E+00  0.19977688188E+03  0.19977688189E+03  0.25500000920E-02 0. -1.
        2   -1    0    0  501    0  0.00000000000E+00  0.00000000000E+00 -0.25033288195E+04  0.25033288195E+04  0.25500000920E-02 0.  1.
    10030    2    1    2    0    0  0.00000000000E+00  0.00000000000E+00 -0.23035519376E+04  0.27031057014E+04  0.14143651946E+04 0.  0.
        2    1    3    3  502    0 -0.44537712313E+03 -0.21862874461E+03 -0.18867062008E+03  0.53080685062E+03  0.25500000920E-02 0. -1.
       -2    1    3    3    0  502  0.44537712313E+03  0.21862874461E+03 -0.21148813175E+04  0.21722988507E+04  0.25500000920E-02 0.  1.
</event>
<event>
 5   0  0.1199720E-03  0.1351242E+04  0.7818609E-02  0.8989888E-01
        1   -1    0    0  501    0  0.00000000000E+00  0.00000000000E+00  0.23360207887E+04  0.23360207887E+04  0.50400001928E-02 0.  1.
       -1   -1    0    0    0  501  0.00000000000E+00  0.00000000000E+00 -0.19540236073E+03  0.19540236080E+03  0.50400001928E-02 0. -1.
    10030    2    1    2    0    0  0.00000000000E+00  0.00000000000E+00  0.21406184280E+04  0.25314231495E+04  0.13512423571E+04 0.  0.
        5    1    3    3  502    0 -0.65031999965E+03  0.11749601543E+03  0.13333906127E+04  0.14881780914E+04  0.46999998093E+01 0.  1.
       -5    1    3    3    0  502  0.65031999965E+03 -0.11749601543E+03  0.80722781526E+03  0.10432450581E+04  0.46999998093E+01 0. -1.
</event>
<event>
 5   0  0.1238683E-03  0.1393301E+04  0.7818609E-02  0.8958682E-01
       -1   -1    0    0    0  501  0.00000000000E+00  0.00000000000E+00  0.60816099247E+03  0.60816099249E+03  0.50400001928E-02 0. -1.
        1   -1    0    0  501    0  0.00000000000E+00  0.00000000000E+00 -0.79801506008E+03  0.79801506010E+03  0.50400001928E-02 0.  1.
    10030    2    1    2    0    0  0.00000000000E+00  0.00000000000E+00 -0.18985406761E+03  0.14061760526E+04  0.13933005863E+04 0.  0.
        2    1    3    3  502    0  0.29531068892E+03  0.25160266685E+03  0.48904715356E+03  0.62424308035E+03  0.25500000920E-02 0. -1.
       -2    1    3    3    0  502 -0.29531068892E+03 -0.25160266685E+03 -0.67890122117E+03  0.78193297224E+03  0.25500000920E-02 0.  1.
</event>
<event>
 5   0  0.2190704E-03  0.1406659E+04  0.7818609E-02  0.8949012E-01
        2   -1    0    0  501    0  0.00000000000E+00  0.00000000000E+00  0.88605279295E+03  0.88605279295E+03  0.25500000920E-02 0.  1.
       -2   -1    0    0    0  501  0.00000000000E+00  0.00000000000E+00 -0.55828787007E+03  0.55828787007E+03  0.25500000920E-02 0. -1.
    10030    2    1    2    0    0  0.00000000000E+00  0.00000000000E+00  0.32776492288E+03  0.14443406630E+04  0.14066592004E+04 0.  0.
        5    1    3    3  502    0 -0.35815548602E+02  0.61360491164E+03  0.51488280988E+03  0.80182300978E+03  0.46999998093E+01 0.  1.
       -5    1    3    3    0  502  0.35815548602E+02 -0.61360491164E+03 -0.18711788699E+03  0.64251765325E+03  0.46999998093E+01 0. -1.
</event>
<event>
 5   0  0.1238683E-03  0.1418006E+04  0.7818609E-02  0.8940887E-01
       -1   -1    0    0    0  501  0.00000000000E+00  0.00000000000E+00  0.33704722505E+03  0.33704722509E+03  0.50400001928E-02 0. -1.
        1   -1    0    0  501    0  0.00000000000E+00  0.00000000000E+00 -0.14914396231E+04  0.14914396231E+04  0.50400001928E-02 0.  1.
    10030    2    1    2    0    0  0.00000000000E+00  0.00000000000E+00 -0.11543923980E+04  0.18284868482E+04  0.14180064687E+04 0.  0.
        2    1    3    3  502    0 -0.31726895728E+03  0.35076408901E+03  0.10389987134E+03  0.48424190304E+03  0.25500000920E-02 0. -1.
       -2    1    3    3    0  502  0.31726895728E+03 -0.35076408901E+03 -0.12582922694E+04  0.13442449451E+04  0.25500000920E-02 0.  1.
</event>
<event>
 5   0  0.1175374E-03  0.1372994E+04  0.7818609E-02  0.8973602E-01
        1   -1    0    0  501    0  0.00000000000E+00  0.00000000000E+00  0.15254915947E+04  0.15254915947E+04  0.50400001928E-02 0. -1.
       -1   -1    0    0    0  501  0.00000000000E+00  0.00000000000E+00 -0.30893521435E+03  0.30893521440E+03  0.50400001928E-02 0.  1.
    10030    2    1    2    0    0  0.00000000000E+00  0.00000000000E+00  0.12165563803E+04  0.18344268091E+04  0.13729939153E+04 0.  0.
        3    1    3    3  502    0 -0.63613220753E+03 -0.21826160726E+03  0.42423013694E+03  0.79515629530E+03  0.10100000352E+00 0.  1.
       -3    1    3    3    0  502  0.63613220753E+03  0.21826160726E+03  0.79232624340E+03  0.10392705138E+04  0.10100000352E+00 0. -1.
</event>
<event>
 5   0  0.1210275E-03  0.1360157E+04  0.7818609E-02  0.8983175E-01
        1   -1    0    0  501    0  0.00000000000E+00  0.00000000000E+00  0.13019594237E+04  0.13019594237E+04  0.50400001928E-02 0.  1.
       -1   -1    0    0    0  501  0.00000000000E+00  0.00000000000E+00 -0.35523875786E+03  0.35523875789E+03  0.50400001928E-02 0. -1.
    10030    2    1    2    0    0  0.00000000000E+00  0.00000000000E+00  0.94672066586E+03  0.16571981816E+04  0.13601565329E+04 0.  0.
        1    1    3    3  502    0  0.23846636863E+03 -0.74039863556E+02 -0.29736829668E+03  0.38829887234E+03  0.50400001928E-02 0. -1.
       -1    1    3    3    0  502 -0.23846636863E+03  0.74039863556E+02  0.12440889625E+04  0.12688993093E+04  0.50400001928E-02 0.  1.
</event>
<event>
 5   0  0.2083966E-03  0.1387920E+04  0.7818609E-02  0.8962609E-01
       -2   -1    0    0    0  501  0.00000000000E+00  0.00000000000E+00  0.17899969672E+03  0.17899969674E+03  0.25500000920E-02 0.  1.
        2   -1    0    0  501    0  0.00000000000E+00  0.00000000000E+00 -0.26904001935E+04  0.26904001935E+04  0.25500000920E-02 0. -1.
    10030    2    1    2    0    0  0.00000000000E+00  0.00000000000E+00 -0.25114004967E+04  0.28693998902E+04  0.13879204858E+04 0.  0.
        1    1    3    3  502    0  0.62618446502E+03 -0.22671080019E+03 -0.16591156006E+04  0.17877833614E+04  0.50400001928E-02 0. -1.
       -1    1    3    3    0  502 -0.62618446502E+03  0.22671080019E+03 -0.85228489618E+03  0.10816165288E+04  0.50400001928E-02 0.  1.
</event>
<event>
 5   0  0.8293000E-04  0.1359717E+04  0.7818609E-02  0.8983505E-01
        3   -1    0    0  501    0  0.00000000000E+00  0.00000000000E+00  0.22318778573E+04  0.22318778596E+04  0.10100000352E+00 0. -1.
       -3   -1    0    0    0  501  0.00000000000E+00  0.00000000000E+00 -0.20709360753E+03  0.20709363216E+03  0.10100000352E+00 0.  1.
    10030    2    1    2    0    0  0.00000000000E+00  0.00000000000E+00  0.20247842498E+04  0.24389714918E+04  0.13597171321E+04 0.  0.
        1    1    3    3  502    0 -0.28334062820E+03  0.22623090554E+03 -0.19192875083E+02  0.36308497723E+03  0.50400001928E-02 0.  1.
       -1    1    3    3    0  502  0.28334062820E+03 -0.22623090554E+03  0.20439771249E+04  0.20758865145E+04  0.50400001928E-02 0. -1.
</event>
<event>
 5   0  0.2236184E-03  0.1428355E+04  0.7818609E-02  0.8933545E-01
       -2   -1    0    0    0  501  0.00000000000E+00  0.00000000000E+00  0.58258778022E+03  0.58258778023E+03  0.25500000920E-02 0. -1.
        2   -1    0    0  501    0  0.00000000000E+00  0.00000000000E+00 -0.87549013674E+03  0.87549013674E+03  0.25500000920E-02 0.  1.
    10030    2    1    2    0    0  0.00000000000E+00  0.00000000000E+00 -0.29290235652E+03  0.14580779170E+04  0.14283554955E+04 0.  0.
        3    1    3    3  502    0 -0.22638407387E+03 -0.47641393309E+02  0.54327906707E+03  0.59048421332E+03  0.10100000352E+00 0. -1.
       -3    1    3    3    0  502  0.22638407387E+03  0.47641393309E+02 -0.83618142359E+03  0.86759370365E+03  0.10100000352E+00 0.  1.
</event>
<event>
 5   0  0.2190704E-03  0.1407548E+04  0.7818609E-02  0.8948373E-01
        2   -1    0    0  501    0  0.00000000000E+00  0.00000000000E+00  0.16143178374E+04  0.16143178374E+04  0.25500000920E-02 0. -1.
       -2   -1    0    0    0  501  0.00000000000E+00  0.00000000000E+00 -0.30681577757E+03  0.30681577758E+03  0.25500000920E-02 0.  1.
    10030    2    1    2    0    0  0.00000000000E+00  0.00000000000E+00  0.13075020599E+04  0.19211336150E+04  0.14075484824E+04 0.  0.
        5    1    3    3  502    0  0.32855738648E+03 -0.46771901705E+03  0.93377019824E+02  0.57918252128E+03  0.46999998093E+01 0.  1.
       -5    1    3    3    0  502 -0.32855738648E+03  0.46771901705E+03  0.12141250400E+04  0.13419510937E+04  0.46999998093E+01 0. -1.
</event>
<event>
 5   0  0.2195980E-03  0.1437525E+04  0.7818609E-02  0.8927095E-01
        2   -1    0    0  501    0  0.00000000000E+00  0.00000000000E+00  0.70400452267E+03  0.70400452267E+03  0.25500000920E-02 0. -1.
       -2   -1    0    0    0  501  0.00000000000E+00  0.00000000000E+00 -0.73382951413E+03  0.73382951414E+03  0.25500000920E-02 0.  1.
    10030    2    1    2    0    0  0.00000000000E+00  0.00000000000E+00 -0.29824991466E+02  0.14378340368E+04  0.14375246736E+04 0.  0.
        4    1    3    3  502    0  0.11197030600E+02 -0.22772384734E+03 -0.69669997357E+03  0.73305933608E+03  0.12699999809E+01 0.  1.
       -4    1    3    3    0  502 -0.11197030600E+02  0.22772384734E+03  0.66687498210E+03  0.70477470073E+03  0.12699999809E+01 0. -1.
</event>
<event>
 5   0  0.2083966E-03  0.1390793E+04  0.7818609E-02  0.8960510E-01
       -2   -1    0    0    0  501  0.00000000000E+00  0.00000000000E+00  0.41787630353E+03  0.41787630354E+03  0.25500000920E-02 0. -1.
        2   -1    0    0  501    0  0.00000000000E+00  0.00000000000E+00 -0.11572241727E+04  0.11572241727E+04  0.25500000920E-02 0.  1.
    10030    2    1    2    0    0  0.00000000000E+00  0.00000000000E+00 -0.73934786920E+03  0.15751004763E+04  0.13907933846E+04 0.  0.
        1    1    3    3  502    0 -0.35235975889E+03 -0.59949558054E+03 -0.37524621376E+03  0.79016585078E+03  0.50400001928E-02 0. -1.
       -1    1    3    3    0  502  0.35235975889E+03  0.59949558054E+03 -0.36410165544E+03  0.78493462549E+03  0.50400001928E-02 0.  1.
</event>
<event>
 5   0  0.1238683E-03  0.1403882E+04  0.7818609E-02  0.8951014E-01
       -1   -1    0    0    0  501  0.00000000000E+00  0.00000000000E+00  0.33357950701E+03  0.33357950705E+03  0.50400001928E-02 0.  1.
        1   -1    0    0  501    0  0.00000000000E+00  0.00000000000E+00 -0.14770716122E+04  0.14770716122E+04  0.50400001928E-02 0. -1.
    10030    2    1    2    0    0  0.00000000000E+00  0.00000000000E+00 -0.11434921051E+04  0.18106511192E+04  0.14038815053E+04 0.  0.
        2    1    3    3  502    0  0.18901257200E+03  0.43793029227E+03 -0.12359493296E+04  0.13247941118E+04  0.25500000920E-02 0. -1.
       -2    1    3    3    0  502 -0.18901257200E+03 -0.43793029227E+03  0.92457224498E+02  0.48585700739E+03  0.25500000920E-02 0.  1.
</event>
<event>
 5   0  0.1175374E-03  0.1731864E+04  0.7818609E-02  0.8743397E-01
       -1   -1    0    0    0  501  0.00000000000E+00  0.00000000000E+00  0.62221579726E+03  0.62221579728E+03  0.50400001928E-02 0.  1.
        1   -1    0    0  501    0  0.00000000000E+00  0.00000000000E+00 -0.12051091758E+04  0.12051091758E+04  0.50400001928E-02 0. -1.
    10030    2    1    2    0    0  0.00000000000E+00  0.00000000000E+00 -0.58289337854E+03  0.18273249731E+04  0.17318636975E+04 0.  0.
        3    1    3    3  502    0 -0.42447984434E+03 -0.72071799664E+03 -0.54995169139E+02  0.83823746502E+03  0.10100000352E+00 0. -1.
       -3    1    3    3    0  502  0.42447984434E+03  0.72071799664E+03 -0.52789820941E+03  0.98908750808E+03  0.10100000352E+00 0.  1.
</event>
<event>
 5   0  0.2236184E-03  0.1385650E+04  0.7818609E-02  0.8964272E-01
       -2   -1    0    0    0  501  0.00000000000E+00  0.00000000000E+00  0.54772818000E+03  0.54772818000E+03  0.25500000920E-02 0. -1.
        2   -1    0    0  501    0  0.00000000000E+00  0.00000000000E+00 -0.87635914081E+03  0.87635914081E+03  0.25500000920E-02 0.  1.
    10030    2    1    2    0    0  0.00000000000E+00  0.00000000000E+00 -0.32863096081E+03  0.14240873208E+04  0.13856501683E+04 0.  0.
        3    1    3    3  502    0  0.46735037198E+03  0.45389771619E+03  0.77950151523E+02  0.65613698514E+03  0.10100000352E+00 0. -1.
       -3    1    3    3    0  502 -0.46735037198E+03 -0.45389771619E+03 -0.40658111233E+03  0.76795033567E+03  0.10100000352E+00 0.  1.
</event>
<event>
 5   0  0.2236184E-03  0.1398209E+04  0.7818609E-02  0.8955116E-01
       -2   -1    0    0    0  501  0.00000000000E+00  0.00000000000E+00  0.50105668435E+03  0.50105668436E+03  0.25500000920E-02 0.  1.
        2   -1    0    0  501    0  0.00000000000E+00  0.00000000000E+00 -0.97543283239E+03  0.97543283239E+03  0.25500000920E-02 0. -1.
    10030    2    1    2    0    0  0.00000000000E+00  0.00000000000E+00 -0.47437614804E+03  0.14764895167E+04  0.13982090556E+04 0.  0.
        3    1    3    3  502    0  0.49375104927E+03 -0.40937160698E+03  0.56543033254E+02  0.64387291919E+03  0.10100000352E+00 0. -1.
       -3    1    3    3    0  502 -0.49375104927E+03  0.40937160698E+03 -0.53091918129E+03  0.83261659755E+03  0.10100000352E+00 0.  1.
</event>
<event>
 5   0  0.1238683E-03  0.1373566E+04  0.7818609E-02  0.8973178E-01
       -1   -1    0    0    0  501  0.00000000000E+00  0.00000000000E+00  0.10011577812E+04  0.10011577812E+04  0.50400001928E-02 0. -1.
        1   -1    0    0  501    0  0.00000000000E+00  0.00000000000E+00 -0.47112521072E+03  0.47112521075E+03  0.50400001928E-02 0.  1.
    10030    2    1    2    0    0  0.00000000000E+00  0.00000000000E+00  0.53003257051E+03  0.14722829920E+04  0.13735656820E+04 0.  0.
        2    1    3    3  502    0 -0.46462302121E+03 -0.46869934320E+03  0.61313031633E+02  0.66280684517E+03  0.25500000920E-02 0.  1.
       -2    1    3    3    0  502  0.46462302121E+03  0.46869934320E+03  0.46871953888E+03  0.80947614683E+03  0.25500000920E-02 0. -1.
</event>
<event>
 5   0  0.1210275E-03  0.1386777E+04  0.7818609E-02  0.8963446E-01
       -1   -1    0    0    0  501  0.00000000000E+00  0.00000000000E+00  0.37577666115E+03  0.37577666118E+03  0.50400001928E-02 0. -1.
        1   -1    0    0  501    0  0.00000000000E+00  0.00000000000E+00 -0.12794512809E+04  0.12794512809E+04  0.50400001928E-02 0.  1.
    10030    2    1    2    0    0  0.00000000000E+00  0.00000000000E+00 -0.90367461971E+03  0.16552279421E+04  0.13867774594E+04 0.  0.
        1    1    3    3  502    0 -0.26335771519E+03 -0.61350425152E+03 -0.67527311811E+03  0.94959914535E+03  0.50400001928E-02 0.  1.
       -1    1    3    3    0  502  0.26335771519E+03  0.61350425152E+03 -0.22840150160E+03  0.70562879670E+03  0.50400001928E-02 0. -1.
</event>
<event>
 5   0  0.2190704E-03  0.1379065E+04  0.7818609E-02  0.8969113E-01
        2   -1    0    0  501    0  0.00000000000E+00  0.00000000000E+00  0.72588404173E+03  0.72588404173E+03  0.25500000920E-02 0.  1.
       -2   -1    0    0    0  501  0.00000000000E+00  0.00000000000E+00 -0.65500181784E+03  0.65500181784E+03  0.25500000920E-02 0. -1.
    10030    2    1    2    0    0  0.00000000000E+00  0.00000000000E+00  0.70882223890E+02  0.13808858596E+04  0.13790654326E+04 0.  0.
        5    1    3    3  502    0 -0.38184801722E+02  0.68138465124E+03 -0.63127415503E+02  0.68538331072E+03  0.46999998093E+01 0. -1.
       -5    1    3    3    0  502  0.38184801722E+02 -0.68138465124E+03  0.13400963939E+03  0.69550254886E+03  0.46999998093E+01 0.  1.
</event>
<event>
 5   0  0.1225690E-03  0.1388319E+04  0.7818609E-02  0.8962318E-01
        1   -1    0    0  501    0  0.00000000000E+00  0.00000000000E+00  0.12055598586E+04  0.12055598586E+04  0.50400001928E-02 0. -1.
       -1   -1    0    0    0  501  0.00000000000E+00  0.00000000000E+00 -0.39969575648E+03  0.39969575652E+03  0.50400001928E-02 0.  1.
    10030    2    1    2    0    0  0.00000000000E+00  0.00000000000E+00  0.80586410208E+03  0.16052556151E+04  0.13883186373E+04 0.  0.
        4    1    3    3  502    0  0.56838631684E+01 -0.17051237107E+03  0.11809393732E+04  0.11931999794E+04  0.12699999809E+01 0. -1.
       -4    1    3    3    0  502 -0.56838631684E+01  0.17051237107E+03 -0.37507527108E+03  0.41205563564E+03  0.12699999809E+01 0.  1.
</event>
<event>
 5   0  0.1210275E-03  0.1416841E+04  0.7818609E-02  0.8941718E-01
        1   -1    0    0  501    0  0.00000000000E+00  0.00000000000E+00  0.14775804646E+04  0.14775804646E+04  0.50400001928E-02 0.  1.
       -1   -1    0    0    0  501  0.00000000000E+00  0.00000000000E+00 -0.33964949874E+03  0.33964949878E+03  0.50400001928E-02 0. -1.
    10030    2    1    2    0    0  0.00000000000E+00  0.00000000000E+00  0.11379309658E+04  0.18172299633E+04  0.14168408015E+04 0.  0.
        1    1    3    3  502    0  0.27608882604E+03 -0.50798630222E+03  0.43909571847E+02  0.57983029727E+03  0.50400001928E-02 0. -1.
       -1    1    3    3    0  502 -0.27608882604E+03  0.50798630222E+03  0.10940213940E+04  0.12373996661E+04  0.50400001928E-02 0.  1.
</event>
<event>
 5   0  0.2195980E-03  0.1396465E+04  0.7818609E-02  0.8956381E-01
        2   -1    0    0  501    0  0.00000000000E+00  0.00000000000E+00  0.15481122207E+04  0.15481122207E+04  0.25500000920E-02 0.  1.
       -2   -1    0    0    0  501  0.00000000000E+00  0.00000000000E+00 -0.31491831634E+03  0.31491831635E+03  0.25500000920E-02 0. -1.
    10030    2    1    2    0    0  0.00000000000E+00  0.00000000000E+00  0.12331939044E+04  0.18630305371E+04  0.13964653867E+04 0.  0.
        4    1    3    3  502    0 -0.17647075067E+03 -0.12314497032E+03 -0.26957443546E+03  0.34493274520E+03  0.12699999809E+01 0. -1.
       -4    1    3    3    0  502  0.17647075067E+03  0.12314497032E+03  0.15027683399E+04  0.15180977919E+04  0.12699999809E+01 0.  1.
</event>
<event>
 5   0  0.1210275E-03  0.1286017E+04  0.7818609E-02  0.9040728E-01
       -1   -1    0    0    0  501  0.00000000000E+00  0.00000000000E+00  0.25616556179E+03  0.25616556184E+03  0.50400001928E-02 0.  1.
        1   -1    0    0  501    0  0.00000000000E+00  0.00000000000E+00 -0.16140338135E+04  0.16140338135E+04  0.50400001928E-02 0. -1.
    10030    2    1    2    0    0  0.00000000000E+00  0.00000000000E+00 -0.13578682517E+04  0.18701993753E+04  0.12860169184E+04 0.  0.
        1    1    3    3  502    0 -0.15451874667E+03 -0.76965386836E+02  0.22183725627E+03  0.28108981152E+03  0.50400001928E-02 0.  1.
       -1    1    3    3    0  502  0.15451874667E+03  0.76965386836E+02 -0.15797055080E+04  0.15891095638E+04  0.50400001928E-02 0. -1.
</event>
<event>
 5   0  0.1210275E-03  0.1429284E+04  0.7818609E-02  0.8932890E-01
        1   -1    0    0  501    0  0.00000000000E+00  0.00000000000E+00  0.67568656311E+03  0.67568656313E+03  0.50400001928E-02 0. -1.
       -1   -1    0    0    0  501  0.00000000000E+00  0.00000000000E+00 -0.75584340259E+03  0.75584340261E+03  0.50400001928E-02 0.  1.
    10030    2    1    2    0    0  0.00000000000E+00  0.00000000000E+00 -0.80156839482E+02  0.14315299657E+04  0.14292840599E+04 0.  0.
        1    1    3    3  502    0  0.61051826108E+03 -0.22601116457E+03  0.25517223890E+03  0.69923276893E+03  0.50400001928E-02 0.  1.
       -1    1    3    3    0  502 -0.61051826108E+03  0.22601116457E+03 -0.33532907838E+03  0.73229719681E+03  0.50400001928E-02 0. -1.
</event>
<event>
 5   0  0.1210275E-03  0.1512953E+04  0.7818609E-02  0.8875885E-01
        1   -1    0    0  501    0  0.00000000000E+00  0.00000000000E+00  0.68549100187E+03  0.68549100189E+03  0.50400001928E-02 0.  1.
       -1   -1    0    0    0  501  0.00000000000E+00  0.00000000000E+00 -0.83481306889E+03  0.83481306891E+03  0.50400001928E-02 0. -1.
    10030    2    1    2    0    0  0.00000000000E+00  0.00000000000E+00 -0.14932206702E+03  0.15203040708E+04  0.15129532009E+04 0.  0.
        1    1    3    3  502    0 -0.70692521514E+03 -0.15793951194E+03  0.14450113804E+03  0.73862624388E+03  0.50400001928E-02 0. -1.
       -1    1    3    3    0  502  0.70692521514E+03  0.15793951194E+03 -0.29382320506E+03  0.78167782691E+03  0.50400001928E-02 0.  1.
</event>
<event>
 5   0  0.1199720E-03  0.1362246E+04  0.7818609E-02  0.8981610E-01
        1   -1    0    0  501    0  0.00000000000E+00  0.00000000000E+00  0.64534968569E+03  0.64534968571E+03  0.50400001928E-02 0. -1.
       -1   -1    0    0    0  501  0.00000000000E+00  0.00000000000E+00 -0.71887894710E+03  0.71887894712E+03  0.50400001928E-02 0.  1.
    10030    2    1    2    0    0  0.00000000000E+00  0.00000000000E+00 -0.73529261410E+02  0.13642286328E+04  0.13622456498E+04 0.  0.
        5    1    3    3  502    0 -0.50621330582E+03 -0.79230101106E+02  0.41263897059E+03  0.65789233918E+03  0.46999998093E+01 0. -1.
       -5    1    3    3    0  502  0.50621330582E+03  0.79230101106E+02 -0.48616823200E+03  0.70633629364E+03  0.46999998093E+01 0.  1.
</event>
<event>
 5   0  0.1199720E-03  0.1395686E+04  0.7818609E-02  0.8956947E-01
        1   -1    0    0  501    0  0.00000000000E+00  0.00000000000E+00  0.90070466198E+03  0.90070466200E+03  0.50400001928E-02 0.  1.
       -1   -1    0    0    0  501  0.00000000000E+00  0.00000000000E+00 -0.54067070684E+03  0.54067070686E+03  0.50400001928E-02 0. -1.
    10030    2    1    2    0    0  0.00000000000E+00  0.00000000000E+00  0.36003395514E+03  0.14413753689E+04  0.13956856756E+04 0.  0.
        5    1    3    3  502    0 -0.40893712948E+03 -0.40987439757E+03 -0.22226789599E+03  0.62020295488E+03  0.46999998093E+01 0. -1.
       -5    1    3    3    0  502  0.40893712948E+03  0.40987439757E+03  0.58230185113E+03  0.82117241398E+03  0.46999998093E+01 0.  1.
</event>
<event>
 5   0  0.1238683E-03  0.1388322E+04  0.7818609E-02  0.8962316E-01
       -1   -1    0    0    0  501  0.00000000000E+00  0.00000000000E+00  0.70003449060E+03  0.70003449062E+03  0.50400001928E-02 0. -1.
        1   -1    0    0  501    0  0.00000000000E+00  0.00000000000E+00 -0.68833636221E+03  0.68833636223E+03  0.50400001928E-02 0.  1.
    10030    2    1    2    0    0  0.00000000000E+00  0.00000000000E+00  0.11698128384E+02  0.13883708528E+04  0.13883215690E+04 0.  0.
        2    1    3    3  502    0 -0.44474424150E+03  0.46753539242E+03  0.26173392047E+03  0.69634145980E+03  0.25500000920E-02 0. -1.
       -2    1    3    3    0  502  0.44474424150E+03 -0.46753539242E+03 -0.25003579208E+03  0.69202939305E+03  0.25500000920E-02 0.  1.
</event>
<event>
 5   0  0.1238683E-03  0.1387182E+04  0.7818609E-02  0.8963149E-01
        1   -1    0    0  501    0  0.00000000000E+00  0.00000000000E+00  0.40750714076E+03  0.40750714079E+03  0.50400001928E-02 0. -1.
       -1   -1    0    0    0  501  0.00000000000E+00  0.00000000000E+00 -0.11805153848E+04  0.11805153848E+04  0.50400001928E-02 0.  1.
    10030    2    1    2    0    0  0.00000000000E+00  0.00000000000E+00 -0.77300824403E+03  0.15880225256E+04  0.13871819623E+04 0.  0.
        2    1    3    3  502    0  0.35598982355E+03  0.41193811170E+03 -0.87842356141E+03  0.10334649078E+04  0.25500000920E-02 0.  1.
       -2    1    3    3    0  502 -0.35598982355E+03 -0.41193811170E+03  0.10541531738E+03  0.55455761783E+03  0.25500000920E-02 0. -1.
</event>
<event>
 5   0  0.1238683E-03  0.1404179E+04  0.7818609E-02  0.8950799E-01
       -1   -1    0    0    0  501  0.00000000000E+00  0.00000000000E+00  0.50137324802E+03  0.50137324805E+03  0.50400001928E-02 0. -1.
        1   -1    0    0  501    0  0.00000000000E+00  0.00000000000E+00 -0.98315953988E+03  0.98315953989E+03  0.50400001928E-02 0.  1.
    10030    2    1    2    0    0  0.00000000000E+00  0.00000000000E+00 -0.48178629186E+03  0.14845327879E+04  0.14041793217E+04 0.  0.
        2    1    3    3  502    0 -0.24239455693E+03 -0.82446615338E+02  0.45025788423E+03  0.51796209120E+03  0.25500000920E-02 0. -1.
       -2    1    3    3    0  502  0.24239455693E+03  0.82446615338E+02 -0.93204417608E+03  0.96657069673E+03  0.25500000920E-02 0.  1.
</event>
<event>
 5   0  0.2190704E-03  0.1343837E+04  0.7818609E-02  0.8995507E-01
       -2   -1    0    0    0  501  0.00000000000E+00  0.00000000000E+00  0.26784905097E+03  0.26784905099E+03  0.25500000920E-02 0. -1.
        2   -1    0    0  501    0  0.00000000000E+00  0.00000000000E+00 -0.16855549196E+04  0.16855549196E+04  0.25500000920E-02 0.  1.
    10030    2    1    2    0    0  0.00000000000E+00  0.00000000000E+00 -0.14177058687E+04  0.19534039706E+04  0.13438367246E+04 0.  0.
        5    1    3    3  502    0  0.35070983575E+03 -0.56265889501E+03 -0.55048516613E+03  0.86176471798E+03  0.46999998093E+01 0. -1.
       -5    1    3    3    0  502 -0.35070983575E+03  0.56265889501E+03 -0.86722070254E+03  0.10916392527E+04  0.46999998093E+01 0.  1.
</event>
<event>
 5   0  0.1210275E-03  0.1488605E+04  0.7818609E-02  0.8892066E-01
       -1   -1    0    0    0  501  0.00000000000E+00  0.00000000000E+00  0.51560942009E+03  0.51560942012E+03  0.50400001928E-02 0.  1.
        1   -1    0    0  501    0  0.00000000000E+00  0.00000000000E+00 -0.10744292569E+04  0.10744292570E+04  0.50400001928E-02 0. -1.
    10030    2    1    2    0    0  0.00000000000E+00  0.00000000000E+00 -0.55881983685E+03  0.15900386771E+04  0.14886045091E+04 0.  0.
        1    1    3    3  502    0 -0.44040109427E+03  0.54421578813E+03 -0.94810898490E+01  0.70015272546E+03  0.50400001928E-02 0.  1.
       -1    1    3    3    0  502  0.44040109427E+03 -0.54421578813E+03 -0.54933874700E+03  0.88988595161E+03  0.50400001928E-02 0. -1.
</event>
<event>
 5   0  0.8293000E-04  0.1416876E+04  0.7818609E-02  0.8941692E-01
       -3   -1    0    0    0  501  0.00000000000E+00  0.00000000000E+00  0.39897741357E+03  0.39897742635E+03  0.10100000352E+00 0.  1.
        3   -1    0    0  501    0  0.00000000000E+00  0.00000000000E+00 -0.12579273055E+04  0.12579273095E+04  0.10100000352E+00 0. -1.
    10030    2    1    2    0    0  0.00000000000E+00  0.00000000000E+00 -0.85894989189E+03  0.16569047359E+04  0.14168762779E+04 0.  0.
        2    1    3    3  502    0  0.31490279767E+02  0.96736837398E+02  0.39039092616E+03  0.40342871572E+03  0.25500000920E-02 0.  1.
       -2    1    3    3    0  502 -0.31490279767E+02 -0.96736837398E+02 -0.12493408180E+04  0.12534760201E+04  0.25500000920E-02 0. -1.
</event>
<event>
 5   0  0.2236184E-03  0.1405257E+04  0.7818609E-02  0.8950022E-01
       -2   -1    0    0    0  501  0.00000000000E+00  0.00000000000E+00  0.39839321708E+03  0.39839321709E+03  0.25500000920E-02 0.  1.
        2   -1    0    0  501    0  0.00000000000E+00  0.00000000000E+00 -0.12391949864E+04  0.12391949864E+04  0.25500000920E-02 0. -1.
    10030    2    1    2    0    0  0.00000000000E+00  0.00000000000E+00 -0.84080176928E+03  0.16375882035E+04  0.14052570971E+04 0.  0.
        3    1    3    3  502    0  0.41301190315E+02 -0.24727921522E+03 -0.11852996024E+04  0.12115229904E+04  0.10100000352E+00 0. -1.
       -3    1    3    3    0  502 -0.41301190315E+02  0.24727921522E+03  0.34449783309E+03  0.42606521309E+03  0.10100000352E+00 0.  1.
</event>
<event>
 5   0  0.1225690E-03  0.1430483E+04  0.7818609E-02  0.8932044E-01
       -1   -1    0    0    0  501  0.00000000000E+00  0.00000000000E+00  0.70157023772E+03  0.70157023773E+03  0.50400001928E-02 0. -1.
        1   -1    0    0  501    0  0.00000000000E+00  0.00000000000E+00 -0.72917929167E+03  0.72917929169E+03  0.50400001928E-02 0.  1.
    10030    2    1    2    0    0  0.00000000000E+00  0.00000000000E+00 -0.27609053955E+02  0.14307495294E+04  0.14304831198E+04 0.  0.
        4    1    3    3  502    0 -0.49747790279E+03 -0.12114541427E+03 -0.51330558604E+03  0.72501359485E+03  0.12699999809E+01 0.  1.
       -4    1    3    3    0  502  0.49747790279E+03  0.12114541427E+03  0.48569653208E+03  0.70573593457E+03  0.12699999809E+01 0. -1.
</event>
<event>
 5   0  0.2195980E-03  0.1404811E+04  0.7818609E-02  0.8950344E-01
       -2   -1    0    0    0  501  0.00000000000E+00  0.00000000000E+00  0.12291169837E+04  0.12291169837E+04  0.25500000920E-02 0.  1.
        2   -1    0    0  501    0  0.00000000000E+00  0.00000000000E+00 -0.40140466424E+03  0.40140466425E+03  0.25500000920E-02 0. -1.
    10030    2    1    2    0    0  0.00000000000E+00  0.00000000000E+00  0.82771231943E+03  0.16305216479E+04  0.14048107206E+04 0.  0.
        4    1    3    3  502    0 -0.42561307391E+03 -0.93921877342E+02 -0.22546534660E+03  0.49071788549E+03  0.12699999809E+01 0. -1.
       -4    1    3    3    0  502  0.42561307391E+03  0.93921877342E+02  0.10531776660E+04  0.11398037624E+04  0.12699999809E+01 0.  1.
</event>
<event>
 5   0  0.2083966E-03  0.1407187E+04  0.7818609E-02  0.8948633E-01
       -2   -1    0    0    0  501  0.00000000000E+00  0.00000000000E+00  0.49400587029E+03  0.49400587030E+03  0.25500000920E-02 0. -1.
        2   -1    0    0  501    0  0.00000000000E+00  0.00000000000E+00 -0.10021009699E+04  0.10021009699E+04  0.25500000920E-02 0.  1.
    10030    2    1    2    0    0  0.00000000000E+00  0.00000000000E+00 -0.50809509961E+03  0.14961068402E+04  0.14071869268E+04 0.  0.
        1    1    3    3  502    0  0.31421737163E+03 -0.33338201867E+03  0.31370740568E+03  0.55523730369E+03  0.50400001928E-02 0. -1.
       -1    1    3    3    0  502 -0.31421737163E+03  0.33338201867E+03 -0.82180250530E+03  0.94086953651E+03  0.50400001928E-02 0.  1.
</event>
<event>
 5   0  0.1175374E-03  0.1185115E+04  0.7818609E-02  0.9125986E-01
        1   -1    0    0  501    0  0.00000000000E+00  0.00000000000E+00  0.87747297353E+03  0.87747297354E+03  0.50400001928E-02 0. -1.
       -1   -1    0    0    0  501  0.00000000000E+00  0.00000000000E+00 -0.40015379665E+03  0.40015379668E+03  0.50400001928E-02 0.  1.
    10030    2    1    2    0    0  0.00000000000E+00  0.00000000000E+00  0.47731917688E+03  0.12776267702E+04  0.11851145799E+04 0.  0.
        3    1    3    3  502    0  0.35471050864E+03 -0.20810913665E+03 -0.22125120066E+03  0.46699150066E+03  0.10100000352E+00 0.  1.
       -3    1    3    3    0  502 -0.35471050864E+03  0.20810913665E+03  0.69857037753E+03  0.81063526957E+03  0.10100000352E+00 0. -1.
</event>
<event>
 5   0  0.2236184E-03  0.1335541E+04  0.7818609E-02  0.9001846E-01
       -2   -1    0    0    0  501  0.00000000000E+00  0.00000000000E+00  0.61356756038E+03  0.61356756039E+03  0.25500000920E-02 0. -1.
        2   -1    0    0  501    0  0.00000000000E+00  0.00000000000E+00 -0.72676184421E+03  0.72676184422E+03  0.25500000920E-02 0.  1.
    10030    2    1    2    0    0  0.00000000000E+00  0.00000000000E+00 -0.11319428383E+03  0.13403294046E+04  0.13355410765E+04 0.  0.
        3    1    3    3  502    0  0.64298220291E+03  0.15311348441E+03 -0.15205719939E+03  0.67822655098E+03  0.10100000352E+00 0.  1.
       -3    1    3    3    0  502 -0.64298220291E+03 -0.15311348441E+03  0.38862915558E+02  0.66210285362E+03  0.10100000352E+00 0. -1.
</event>
<event>
 5   0  0.1225690E-03  0.1404774E+04  0.7818609E-02  0.8950370E-01
       -1   -1    0    0    0  501  0.00000000000E+00  0.00000000000E+00  0.54765527755E+03  0.54765527758E+03  0.50400001928E-02 0. -1.
        1   -1    0    0  501    0  0.00000000000E+00  0.00000000000E+00 -0.90083550697E+03  0.90083550698E+03  0.50400001928E-02 0.  1.
    10030    2    1    2    0    0  0.00000000000E+00  0.00000000000E+00 -0.35318022942E+03  0.14484907846E+04  0.14047737464E+04 0.  0.
        4    1    3    3  502    0  0.29382800836E+03  0.31259037714E+03 -0.75004328152E+03  0.86406838817E+03  0.12699999809E+01 0.  1.
       -4    1    3    3    0  502 -0.29382800836E+03 -0.31259037714E+03  0.39686305211E+03  0.58442239639E+03  0.12699999809E+01 0. -1.
</event>
<event>
 5   0  0.2172901E-03  0.1393689E+04  0.7818609E-02  0.8958399E-01
       -2   -1    0    0    0  501  0.00000000000E+00  0.00000000000E+00  0.27997790110E+03  0.27997790111E+03  0.25500000920E-02 0. -1.
        2   -1    0    0  501    0  0.00000000000E+00  0.00000000000E+00 -0.17343953155E+04  0.17343953155E+04  0.25500000920E-02 0.  1.
    10030    2    1    2    0    0  0.00000000000E+00  0.00000000000E+00 -0.14544174144E+04  0.20143732166E+04  0.13936891477E+04 0.  0.
        2    1    3    3  502    0 -0.17423634706E+03 -0.37292176598E+03  0.85490479046E+02  0.42040167720E+03  0.25500000920E-02 0. -1.
       -2    1    3    3    0  502  0.17423634706E+03  0.37292176598E+03 -0.15399078934E+04  0.15939715394E+04  0.25500000920E-02 0.  1.
</event>
<event>
 5   0  0.1225690E-03  0.1601600E+04  0.7818609E-02  0.8819566E-01
        1   -1    0    0  501    0  0.00000000000E+00  0.00000000000E+00  0.45025681974E+03  0.45025681977E+03  0.50400001928E-02 0.  1.
       -1   -1    0    0    0  501  0.00000000000E+00  0.00000000000E+00 -0.14242554495E+04  0.14242554495E+04  0.50400001928E-02 0. -1.
    10030    2    1    2    0    0  0.00000000000E+00  0.00000000000E+00 -0.97399862977E+03  0.18745122693E+04  0.16016001114E+04 0.  0.
        4    1    3    3  502    0  0.27167037530E+03 -0.23014923442E+03 -0.13265158851E+04  0.13734698647E+04  0.12699999809E+01 0. -1.
       -4    1    3    3    0  502 -0.27167037530E+03  0.23014923442E+03  0.35251725536E+03  0.50104240455E+03  0.12699999809E+01 0.  1.
</event>
<event>
 5   0  0.1225690E-03  0.1203716E+04  0.7818609E-02  0.9109611E-01
       -1   -1    0    0    0  501  0.00000000000E+00  0.00000000000E+00  0.57965344586E+03  0.57965344588E+03  0.50400001928E-02 0.  1.
        1   -1    0    0  501    0  0.00000000000E+00  0.00000000000E+00 -0.62491268778E+03  0.62491268780E+03  0.50400001928E-02 0. -1.
    10030    2    1    2    0    0  0.00000000000E+00  0.00000000000E+00 -0.45259241924E+02  0.12045661337E+04  0.12037155692E+04 0.  0.
        4    1    3    3  502    0 -0.17589399464E+03 -0.27670207919E+03  0.48243330530E+03  0.58330630456E+03  0.12699999809E+01 0.  1.
       -4    1    3    3    0  502  0.17589399464E+03  0.27670207919E+03 -0.52769254722E+03  0.62125982912E+03  0.12699999809E+01 0. -1.
</event>
<event>
 5   0  0.1238683E-03  0.1418257E+04  0.7818609E-02  0.8940708E-01
       -1   -1    0    0    0  501  0.00000000000E+00  0.00000000000E+00  0.54561757158E+03  0.54561757161E+03  0.50400001928E-02 0.  1.
        1   -1    0    0  501    0  0.00000000000E+00  0.00000000000E+00 -0.92164002433E+03  0.92164002434E+03  0.50400001928E-02 0. -1.
    10030    2    1    2    0    0  0.00000000000E+00  0.00000000000E+00 -0.37602245275E+03  0.14672575959E+04  0.14182566650E+04 0.  0.
        2    1    3    3  502    0 -0.17672569627E+03  0.67490271204E+03 -0.31943309447E+03  0.76730902790E+03  0.25500000920E-02 0. -1.
       -2    1    3    3    0  502  0.17672569627E+03 -0.67490271204E+03 -0.56589358273E+02  0.69994856805E+03  0.25500000920E-02 0.  1.
</event>
<event>
 5   0  0.2172901E-03  0.1423117E+04  0.7818609E-02  0.8937253E-01
        2   -1    0    0  501    0  0.00000000000E+00  0.00000000000E+00  0.24571377270E+04  0.24571377270E+04  0.25500000920E-02 0.  1.
       -2   -1    0    0    0  501  0.00000000000E+00  0.00000000000E+00 -0.20605900514E+03  0.20605900516E+03  0.25500000920E-02 0. -1.
    10030    2    1    2    0    0  0.00000000000E+00  0.00000000000E+00  0.22510787218E+04  0.26631967321E+04  0.14231167985E+04 0.  0.
        2    1    3    3  502    0 -0.47412934366E+03 -0.46786303066E+03  0.15938374396E+04  0.17274293716E+04  0.25500000920E-02 0.  1.
       -2    1    3    3    0  502  0.47412934366E+03  0.46786303066E+03  0.65724128224E+03  0.93576736055E+03  0.25500000920E-02 0. -1.
</event>
<event>
 5   0  0.2083966E-03  0.1351046E+04  0.7818609E-02  0.8990037E-01
        2   -1    0    0  501    0  0.00000000000E+00  0.00000000000E+00  0.15577520760E+04  0.15577520760E+04  0.25500000920E-02 0.  1.
       -2   -1    0    0    0  501  0.00000000000E+00  0.00000000000E+00 -0.29294207213E+03  0.29294207214E+03  0.25500000920E-02 0. -1.
    10030    2    1    2    0    0  0.00000000000E+00  0.00000000000E+00  0.12648100039E+04  0.18506941481E+04  0.13510457002E+04 0.  0.
        1    1    3    3  502    0 -0.38199532184E+03 -0.54202491105E+03  0.80899905853E+03  0.10460358057E+04  0.50400001928E-02 0.  1.
       -1    1    3    3    0  502  0.38199532184E+03  0.54202491105E+03  0.45581094532E+03  0.80465834241E+03  0.50400001928E-02 0. -1.
</event>
<event>
 5   0  0.2190704E-03  0.1373128E+04  0.7818609E-02  0.8973503E-01
        2   -1    0    0  501    0  0.00000000000E+00  0.00000000000E+00  0.73480399790E+03  0.73480399790E+03  0.25500000920E-02 0.  1.
       -2   -1    0    0    0  501  0.00000000000E+00  0.00000000000E+00 -0.64149069030E+03  0.64149069030E+03  0.25500000920E-02 0. -1.
    10030    2    1    2    0    0  0.00000000000E+00  0.00000000000E+00  0.93313307599E+02  0.13762946882E+04  0.13731277054E+04 0.  0.
        5    1    3    3  502    0 -0.47796811828E+03 -0.62455036521E+02 -0.44334067467E+03  0.65492533734E+03  0.46999998093E+01 0. -1.
       -5    1    3    3    0  502  0.47796811828E+03  0.62455036521E+02  0.53665398227E+03  0.72136935086E+03  0.46999998093E+01 0.  1.
</event>
<event>
 5   0  0.2083966E-03  0.1401686E+04  0.7818609E-02  0.8952599E-01
       -2   -1    0    0    0  501  0.00000000000E+00  0.00000000000E+00  0.52128312510E+03  0.52128312511E+03  0.25500000920E-02 0. -1.
        2   -1    0    0  501    0  0.00000000000E+00  0.00000000000E+00 -0.94225320245E+03  0.94225320245E+03  0.25500000920E-02 0.  1.
    10030    2    1    2    0    0  0.00000000000E+00  0.00000000000E+00 -0.42097007734E+03  0.14635363276E+04  0.14016856909E+04 0.  0.
        1    1    3    3  502    0  0.17713815860E+03  0.58182266282E+02 -0.91588276262E+03  0.93466803638E+03  0.50400001928E-02 0.  1.
       -1    1    3    3    0  502 -0.17713815860E+03 -0.58182266282E+02  0.49491268528E+03  0.52886829118E+03  0.50400001928E-02 0. -1.
</event>
<event>
 5   0  0.1210275E-03  0.1355089E+04  0.7818609E-02  0.8986985E-01
        1   -1    0    0  501    0  0.00000000000E+00  0.00000000000E+00  0.88119098070E+03  0.88119098072E+03  0.50400001928E-02 0.  1.
       -1   -1    0    0    0  501  0.00000000000E+00  0.00000000000E+00 -0.52096124356E+03  0.52096124358E+03  0.50400001928E-02 0. -1.
    10030    2    1    2    0    0  0.00000000000E+00  0.00000000000E+00  0.36022973714E+03  0.14021522243E+04  0.13550887043E+04 0.  0.
        1    1    3    3  502    0 -0.18188110917E+02 -0.64446650659E+03 -0.35443365792E+02  0.64569661429E+03  0.50400001928E-02 0. -1.
       -1    1    3    3    0  502  0.18188110917E+02  0.64446650659E+03  0.39567310294E+03  0.75645561001E+03  0.50400001928E-02 0.  1.
</event>
<event>
 5   0  0.2190704E-03  0.1418328E+04  0.7818609E-02  0.8940658E-01
        2   -1    0    0  501    0  0.00000000000E+00  0.00000000000E+00  0.15727426929E+04  0.15727426929E+04  0.25500000920E-02 0. -1.
       -2   -1    0    0    0  501  0.00000000000E+00  0.00000000000E+00 -0.31976857889E+03  0.31976857890E+03  0.25500000920E-02 0.  1.
    10030    2    1    2    0    0  0.00000000000E+00  0.00000000000E+00  0.12529741140E+04  0.18925112718E+04  0.14183281650E+04 0.  0.
        5    1    3    3  502    0  0.35913991642E+03 -0.55222940363E+03  0.27610832309E+03  0.71428054004E+03  0.46999998093E+01 0.  1.
       -5    1    3    3    0  502 -0.35913991642E+03  0.55222940363E+03  0.97686579094E+03  0.11782307318E+04  0.46999998093E+01 0. -1.
</event>
<event>
 5   0  0.8293000E-04  0.1379606E+04  0.7818609E-02  0.8968714E-01
       -3   -1    0    0    0  501  0.00000000000E+00  0.00000000000E+00  0.48271998490E+03  0.48271999546E+03  0.10100000352E+00 0.  1.
        3   -1    0    0  501    0  0.00000000000E+00  0.00000000000E+00 -0.98572352031E+03  0.98572352549E+03  0.10100000352E+00 0. -1.
    10030    2    1    2    0    0  0.00000000000E+00  0.00000000000E+00 -0.50300353541E+03  0.14684435210E+04  0.13796063995E+04 0.  0.
        4    1    3    3  502    0  0.66603360169E+03 -0.78215416501E+02 -0.42348750732E+03  0.79313409441E+03  0.12699999809E+01 0.  1.
       -4    1    3    3    0  502 -0.66603360169E+03  0.78215416501E+02 -0.79516028090E+02  0.67530942654E+03  0.12699999809E+01 0. -1.
</event>
<event>
 5   0  0.2195980E-03  0.1422085E+04  0.7818609E-02  0.8937986E-01
        2   -1    0    0  501    0  0.00000000000E+00  0.00000000000E+00  0.54527417385E+03  0.54527417386E+03  0.25500000920E-02 0. -1.
       -2   -1    0    0    0  501  0.00000000000E+00  0.00000000000E+00 -0.92720529685E+03  0.92720529685E+03  0.25500000920E-02 0.  1.
    10030    2    1    2    0    0  0.00000000000E+00  0.00000000000E+00 -0.38193112299E+03  0.14724794707E+04  0.14220845295E+04 0.  0.
        4    1    3    3  502    0 -0.48653768080E+03  0.31297622328E+03  0.23709288766E+03  0.62521010985E+03  0.12699999809E+01 0. -1.
       -4    1    3    3    0  502  0.48653768080E+03 -0.31297622328E+03 -0.61902401066E+03  0.84726936086E+03  0.12699999809E+01 0.  1.
</event>
<event>
 5   0  0.2195980E-03  0.1409527E+04  0.7818609E-02  0.8946951E-01
        2   -1    0    0  501    0  0.00000000000E+00  0.00000000000E+00  0.98776688331E+03  0.98776688332E+03  0.25500000920E-02 0. -1.
       -2   -1    0    0    0  501  0.00000000000E+00  0.00000000000E+00 -0.50284300555E+03  0.50284300555E+03  0.25500000920E-02 0.  1.
    10030    2    1    2    0    0  0.00000000000E+00  0.00000000000E+00  0.48492387777E+03  0.14906098889E+04  0.14095271099E+04 0.  0.
        4    1    3    3  502    0 -0.22173844647E+02  0.21944932220E+03  0.95032481929E+03  0.97558626449E+03  0.12699999809E+01 0. -1.
       -4    1    3    3    0  502  0.22173844647E+02 -0.21944932220E+03 -0.46540094152E+03  0.51502362438E+03  0.12699999809E+01 0.  1.
</event>
<event>
 5   0  0.1238683E-03  0.1532070E+04  0.7818609E-02  0.8863402E-01
        1   -1    0    0  501    0  0.00000000000E+00  0.00000000000E+00  0.49742593296E+03  0.49742593298E+03  0.50400001928E-02 0. -1.
       -1   -1    0    0    0  501  0.00000000000E+00  0.00000000000E+00 -0.11796929691E+04  0.11796929691E+04  0.50400001928E-02 0.  1.
    10030    2    1    2    0    0  0.00000000000E+00  0.00000000000E+00 -0.68226703616E+03  0.16771189021E+04  0.15320703323E+04 0.  0.
        2    1    3    3  502    0 -0.20478584220E+03 -0.86917034547E+02  0.46128486838E+03  0.51212844274E+03  0.25500000920E-02 0. -1.
       -2    1    3    3    0  502  0.20478584220E+03  0.86917034547E+02 -0.11435519045E+04  0.11649904594E+04  0.25500000920E-02 0.  1.
</event>
<event>
 5   0  0.1210275E-03  0.1390664E+04  0.7818609E-02  0.8960604E-01
       -1   -1    0    0    0  501  0.00000000000E+00  0.00000000000E+00  0.81195258483E+03  0.81195258485E+03  0.50400001928E-02 0.  1.
        1   -1    0    0  501    0  0.00000000000E+00  0.00000000000E+00 -0.59546141166E+03  0.59546141168E+03  0.50400001928E-02 0. -1.
    10030    2    1    2    0    0  0.00000000000E+00  0.00000000000E+00  0.21649117318E+03  0.14074139965E+04  0.13906637730E+04 0.  0.
        1    1    3    3  502    0  0.44121695487E+03 -0.27416417632E+03 -0.35954252054E+03  0.63175091685E+03  0.50400001928E-02 0. -1.
       -1    1    3    3    0  502 -0.44121695487E+03  0.27416417632E+03  0.57603369372E+03  0.77566307967E+03  0.50400001928E-02 0.  1.
</event>
<event>
 5   0  0.1199720E-03  0.1383992E+04  0.7818609E-02  0.8965488E-01
        1   -1    0    0  501    0  0.00000000000E+00  0.00000000000E+00  0.82771609171E+03  0.82771609172E+03  0.50400001928E-02 0.  1.
       -1   -1    0    0    0  501  0.00000000000E+00  0.00000000000E+00 -0.57853007609E+03  0.57853007611E+03  0.50400001928E-02 0. -1.
    10030    2    1    2    0    0  0.00000000000E+00  0.00000000000E+00  0.24918601562E+03  0.14062461678E+04  0.13839922739E+04 0.  0.
        5    1    3    3  502    0  0.41715479331E+03  0.54963522771E+03  0.17758092919E+03  0.71251251324E+03  0.46999998093E+01 0.  1.
       -5    1    3    3    0  502 -0.41715479331E+03 -0.54963522771E+03  0.71605086436E+02  0.69373365459E+03  0.46999998093E+01 0. -1.
</event>
<event>
 5   0  0.2195980E-03  0.1483428E+04  0.7818609E-02  0.8895548E-01
       -2   -1    0    0    0  501  0.00000000000E+00  0.00000000000E+00  0.38313328805E+03  0.38313328806E+03  0.25500000920E-02 0. -1.
        2   -1    0    0  501    0  0.00000000000E+00  0.00000000000E+00 -0.14358971000E+04  0.14358971000E+04  0.25500000920E-02 0.  1.
    10030    2    1    2    0    0  0.00000000000E+00  0.00000000000E+00 -0.10527638119E+04  0.18190303880E+04  0.14834284307E+04 0.  0.
        4    1    3    3  502    0 -0.30967858864E+03  0.56391368147E+03 -0.97899166490E+03  0.11714630857E+04  0.12699999809E+01 0. -1.
       -4    1    3    3    0  502  0.30967858864E+03 -0.56391368147E+03 -0.73772147009E+02  0.64756730228E+03  0.12699999809E+01 0.  1.
</event>
<event>
 5   0  0.2190704E-03  0.1377526E+04  0.7818609E-02  0.8970249E-01
       -2   -1    0    0    0  501  0.00000000000E+00  0.00000000000E+00  0.56942044563E+03  0.56942044564E+03  0.25500000920E-02 0.  1.
        2   -1    0    0  501    0  0.00000000000E+00  0.00000000000E+00 -0.83311775922E+03  0.83311775922E+03  0.25500000920E-02 0. -1.
    10030    2    1    2    0    0  0.00000000000E+00  0.00000000000E+00 -0.26369731359E+03  0.14025382049E+04  0.13775257322E+04 0.  0.
        5    1    3    3  502    0  0.51732787820E+03  0.45460900227E+03 -0.14064952172E+03  0.70292379136E+03  0.46999998093E+01 0. -1.
       -5    1    3    3    0  502 -0.51732787820E+03 -0.45460900227E+03 -0.12304779186E+03  0.69961441350E+03  0.46999998093E+01 0.  1.
</event>
<event>
 5   0  0.2083966E-03  0.1397742E+04  0.7818609E-02  0.8955455E-01
        2   -1    0    0  501    0  0.00000000000E+00  0.00000000000E+00  0.20317256857E+04  0.20317256857E+04  0.25500000920E-02 0. -1.
       -2   -1    0    0    0  501  0.00000000000E+00  0.00000000000E+00 -0.24039699580E+03  0.24039699582E+03  0.25500000920E-02 0.  1.
    10030    2    1    2    0    0  0.00000000000E+00  0.00000000000E+00  0.17913286899E+04  0.22721226815E+04  0.13977421095E+04 0.  0.
        1    1    3    3  502    0 -0.16332534882E+03  0.60096753985E+03  0.14112114000E+04  0.15425157273E+04  0.50400001928E-02 0. -1.
       -1    1    3    3    0  502  0.16332534882E+03 -0.60096753985E+03  0.38011728992E+03  0.72960695422E+03  0.50400001928E-02 0.  1.
</event>
<event>
 5   0  0.2083966E-03  0.1412555E+04  0.7818609E-02  0.8944780E-01
       -2   -1    0    0    0  501  0.00000000000E+00  0.00000000000E+00  0.37700915974E+03  0.37700915975E+03  0.25500000920E-02 0. -1.
        2   -1    0    0  501    0  0.00000000000E+00  0.00000000000E+00 -0.13231194081E+04  0.13231194081E+04  0.25500000920E-02 0.  1.
    10030    2    1    2    0    0  0.00000000000E+00  0.00000000000E+00 -0.94611024834E+03  0.17001285678E+04  0.14125553246E+04 0.  0.
        1    1    3    3  502    0  0.52508415665E+03  0.26696323274E+03 -0.40505112709E+01  0.58906633401E+03  0.50400001928E-02 0. -1.
       -1    1    3    3    0  502 -0.52508415665E+03 -0.26696323274E+03 -0.94205973706E+03  0.11110622338E+04  0.50400001928E-02 0.  1.
</event>
<event>
 5   0  0.1199720E-03  0.1356098E+04  0.7818609E-02  0.8986225E-01
       -1   -1    0    0    0  501  0.00000000000E+00  0.00000000000E+00  0.49033985002E+03  0.49033985004E+03  0.50400001928E-02 0. -1.
        1   -1    0    0  501    0  0.00000000000E+00  0.00000000000E+00 -0.93761593307E+03  0.93761593309E+03  0.50400001928E-02 0.  1.
    10030    2    1    2    0    0  0.00000000000E+00  0.00000000000E+00 -0.44727608306E+03  0.14279557831E+04  0.13560980142E+04 0.  0.
        5    1    3    3  502    0  0.48251205238E+03 -0.27601097683E+03 -0.63244780715E+03  0.84202865675E+03  0.46999998093E+01 0. -1.
       -5    1    3    3    0  502 -0.48251205238E+03  0.27601097683E+03  0.18517172409E+03  0.58592712638E+03  0.46999998093E+01 0.  1.
</event>
<event>
 5   0  0.1199720E-03  0.1362104E+04  0.7818609E-02  0.8981716E-01
       -1   -1    0    0    0  501  0.00000000000E+00  0.00000000000E+00  0.48064927989E+03  0.48064927992E+03  0.50400001928E-02 0.  1.
        1   -1    0    0  501    0  0.00000000000E+00  0.00000000000E+00 -0.96501102895E+03  0.96501102896E+03  0.50400001928E-02 0. -1.
    10030    2    1    2    0    0  0.00000000000E+00  0.00000000000E+00 -0.48436174905E+03  0.14456603089E+04  0.13621040433E+04 0.  0.
        5    1    3    3  502    0 -0.26217413270E+03  0.62640795983E+03 -0.18715905942E+03  0.70439535172E+03  0.46999998093E+01 0.  1.
       -5    1    3    3    0  502  0.26217413270E+03 -0.62640795983E+03 -0.29720268963E+03  0.74126495716E+03  0.46999998093E+01 0. -1.
</event>
<event>
 5   0  0.2195980E-03  0.1368204E+04  0.7818609E-02  0.8977161E-01
       -2   -1    0    0    0  501  0.00000000000E+00  0.00000000000E+00  0.85939232893E+03  0.85939232893E+03  0.25500000920E-02 0. -1.
        2   -1    0    0  501    0  0.00000000000E+00  0.00000000000E+00 -0.54456540290E+03  0.54456540290E+03  0.25500000920E-02 0.  1.
    10030    2    1    2    0    0  0.00000000000E+00  0.00000000000E+00  0.31482692603E+03  0.14039577318E+04  0.13682036835E+04 0.  0.
        4    1    3    3  502    0  0.53184820745E+03  0.29129378140E+03 -0.16753056916E+03  0.62911261898E+03  0.12699999809E+01 0.  1.
       -4    1    3    3    0  502 -0.53184820745E+03 -0.29129378140E+03  0.48235749520E+03  0.77484511286E+03  0.12699999809E+01 0. -1.
</event>
<event>
 5   0  0.1225690E-03  0.1404087E+04  0.7818609E-02  0.8950865E-01
       -1   -1    0    0    0  501  0.00000000000E+00  0.00000000000E+00  0.49851940674E+03  0.49851940676E+03  0.50400001928E-02 0. -1.
        1   -1    0    0  501    0  0.00000000000E+00  0.00000000000E+00 -0.98865814198E+03  0.98865814199E+03  0.50400001928E-02 0.  1.
    10030    2    1    2    0    0  0.00000000000E+00  0.00000000000E+00 -0.49013873524E+03  0.14871775488E+04  0.14040872771E+04 0.  0.
        4    1    3    3  502    0  0.36342344791E+03  0.18731309924E+03 -0.84954412224E+03  0.94280943365E+03  0.12699999809E+01 0.  1.
       -4    1    3    3    0  502 -0.36342344791E+03 -0.18731309924E+03  0.35940538700E+03  0.54436811511E+03  0.12699999809E+01 0. -1.
</event>
<event>
 5   0  0.2195980E-03  0.1465088E+04  0.7818609E-02  0.8908007E-01
       -2   -1    0    0    0  501  0.00000000000E+00  0.00000000000E+00  0.34917706918E+03  0.34917706919E+03  0.25500000920E-02 0. -1.
        2   -1    0    0  501    0  0.00000000000E+00  0.00000000000E+00 -0.15368152341E+04  0.15368152341E+04  0.25500000920E-02 0.  1.
    10030    2    1    2    0    0  0.00000000000E+00  0.00000000000E+00 -0.11876381649E+04  0.18859923033E+04  0.14650879009E+04 0.  0.
        4    1    3    3  502    0 -0.31908247696E+03 -0.48990717479E+03 -0.11619738459E+04  0.13007718857E+04  0.12699999809E+01 0.  1.
       -4    1    3    3    0  502  0.31908247696E+03  0.48990717479E+03 -0.25664318969E+02  0.58522041760E+03  0.12699999809E+01 0. -1.
</event>
<event>
 5   0  0.1175374E-03  0.1411752E+04  0.7818609E-02  0.8945356E-01
       -1   -1    0    0    0  501  0.00000000000E+00  0.00000000000E+00  0.46724672649E+03  0.46724672652E+03  0.50400001928E-02 0.  1.
        1   -1    0    0  501    0  0.00000000000E+00  0.00000000000E+00 -0.10663764020E+04  0.10663764020E+04  0.50400001928E-02 0. -1.
    10030    2    1    2    0    0  0.00000000000E+00  0.00000000000E+00 -0.59912967548E+03  0.15336231285E+04  0.14117519372E+04 0.  0.
        3    1    3    3  502    0 -0.34341443873E+02  0.80576035268E+02 -0.10604501105E+04  0.10640612197E+04  0.10100000352E+00 0. -1.
       -3    1    3    3    0  502  0.34341443873E+02 -0.80576035268E+02  0.46132043502E+03  0.46956190880E+03  0.10100000352E+00 0.  1.
</event>
<event>
 5   0  0.1225690E-03  0.1437076E+04  0.7818609E-02  0.8927410E-01
        1   -1    0    0  501    0  0.00000000000E+00  0.00000000000E+00  0.71042605346E+03  0.71042605348E+03  0.50400001928E-02 0. -1.
       -1   -1    0    0    0  501  0.00000000000E+00  0.00000000000E+00 -0.72674231515E+03  0.72674231516E+03  0.50400001928E-02 0.  1.
    10030    2    1    2    0    0  0.00000000000E+00  0.00000000000E+00 -0.16316261686E+02  0.14371683686E+04  0.14370757459E+04 0.  0.
        4    1    3    3  502    0  0.51733690256E+03  0.35372089166E+02  0.48927357234E+03  0.71293681132E+03  0.12699999809E+01 0. -1.
       -4    1    3    3    0  502 -0.51733690256E+03 -0.35372089166E+02 -0.50558983403E+03  0.72423155732E+03  0.12699999809E+01 0.  1.
</event>
<event>
 5   0  0.1238683E-03  0.1400160E+04  0.7818609E-02  0.8953702E-01
        1   -1    0    0  501    0  0.00000000000E+00  0.00000000000E+00  0.11563637572E+04  0.11563637572E+04  0.50400001928E-02 0. -1.
       -1   -1    0    0    0  501  0.00000000000E+00  0.00000000000E+00 -0.42383917425E+03  0.42383917428E+03  0.50400001928E-02 0.  1.
    10030    2    1    2    0    0  0.00000000000E+00  0.00000000000E+00  0.73252458292E+03  0.15802029314E+04  0.14001603622E+04 0.  0.
        2    1    3    3  502    0 -0.57752190426E+03 -0.38250375794E+03  0.48064327368E+03  0.84312432730E+03  0.25500000920E-02 0.  1.
       -2    1    3    3    0  502  0.57752190426E+03  0.38250375794E+03  0.25188130923E+03  0.73707860415E+03  0.25500000920E-02 0. -1.
</event>
<event>
 5   0  0.2083966E-03  0.1377645E+04  0.7818609E-02  0.8970161E-01
       -2   -1    0    0    0  501  0.00000000000E+00  0.00000000000E+00  0.66748665111E+03  0.66748665112E+03  0.25500000920E-02 0.  1.
        2   -1    0    0  501    0  0.00000000000E+00  0.00000000000E+00 -0.71084001043E+03  0.71084001044E+03  0.25500000920E-02 0. -1.
    10030    2    1    2    0    0  0.00000000000E+00  0.00000000000E+00 -0.43353359323E+02  0.13783266616E+04  0.13776446829E+04 0.  0.
        1    1    3    3  502    0  0.46983476638E+02 -0.14896063013E+03 -0.69288843444E+03  0.71027536844E+03  0.50400001928E-02 0. -1.
       -1    1    3    3    0  502 -0.46983476638E+02  0.14896063013E+03  0.64953507511E+03  0.66805129312E+03  0.50400001928E-02 0.  1.
</event>
<event>
 5   0  0.1210275E-03  0.1305221E+04  0.7818609E-02  0.9025435E-01
        1   -1    0    0  501    0  0.00000000000E+00  0.00000000000E+00  0.12340247468E+04  0.12340247468E+04  0.50400001928E-02 0. -1.
       -1   -1    0    0    0  501  0.00000000000E+00  0.00000000000E+00 -0.34513132116E+03  0.34513132120E+03  0.50400001928E-02 0.  1.
    10030    2    1    2    0    0  0.00000000000E+00  0.00000000000E+00  0.88889342566E+03  0.15791560680E+04  0.13052211939E+04 0.  0.
        1    1    3    3  502    0 -0.52264162767E+03 -0.17968713379E+03  0.24532765120E+02  0.55321206929E+03  0.50400001928E-02 0.  1.
       -1    1    3    3    0  502  0.52264162767E+03  0.17968713379E+03  0.86436066054E+03  0.10259439987E+04  0.50400001928E-02 0. -1.
</event>
<event>
 5   0  0.2083966E-03  0.1425068E+04  0.7818609E-02  0.8935870E-01
       -2   -1    0    0    0  501  0.00000000000E+00  0.00000000000E+00  0.33094709268E+03  0.33094709269E+03  0.25500000920E-02 0.  1.
        2   -1    0    0  501    0  0.00000000000E+00  0.00000000000E+00 -0.15340969104E+04  0.15340969104E+04  0.25500000920E-02 0. -1.
    10030    2    1    2    0    0  0.00000000000E+00  0.00000000000E+00 -0.12031498177E+04  0.18650440031E+04  0.14250682964E+04 0.  0.
        1    1    3    3  502    0  0.20893685734E+03 -0.37158613964E+03 -0.13487887599E+04  0.14145536357E+04  0.50400001928E-02 0. -1.
       -1    1    3    3    0  502 -0.20893685734E+03  0.37158613964E+03  0.14563894222E+03  0.45049036731E+03  0.50400001928E-02 0.  1.
</event>
<event>
 5   0  0.2172901E-03  0.1260365E+04  0.7818609E-02  0.9061600E-01
        2   -1    0    0  501    0  0.00000000000E+00  0.00000000000E+00  0.13037867370E+04  0.13037867370E+04  0.25500000920E-02 0.  1.
       -2   -1    0    0    0  501  0.00000000000E+00  0.00000000000E+00 -0.30459747609E+03  0.30459747610E+03  0.25500000920E-02 0. -1.
    10030    2    1    2    0    0  0.00000000000E+00  0.00000000000E+00  0.99918926086E+03  0.16083842131E+04  0.12603652636E+04 0.  0.
        2    1    3    3  502    0  0.36384855798E+03  0.44046111931E+02  0.11537932499E+04  0.12106050953E+04  0.25500000920E-02 0.  1.
       -2    1    3    3    0  502 -0.36384855798E+03 -0.44046111931E+02 -0.15460398905E+03  0.39777911780E+03  0.25500000920E-02 0. -1.
</event>
<event>
 5   0  0.2195980E-03  0.1378218E+04  0.7818609E-02  0.8969738E-01
       -2   -1    0    0    0  501  0.00000000000E+00  0.00000000000E+00  0.40669370020E+03  0.40669370021E+03  0.25500000920E-02 0. -1.
        2   -1    0    0  501    0  0.00000000000E+00  0.00000000000E+00 -0.11676381880E+04  0.11676381880E+04  0.25500000920E-02 0.  1.
    10030    2    1    2    0    0  0.00000000000E+00  0.00000000000E+00 -0.76094448775E+03  0.15743318882E+04  0.13782178277E+04 0.  0.
        4    1    3    3  502    0  0.68818287564E+03  0.83522041977E+01 -0.42010927930E+03  0.80632428283E+03  0.12699999809E+01 0.  1.
       -4    1    3    3    0  502 -0.68818287564E+03 -0.83522041977E+01 -0.34083520845E+03  0.76800760533E+03  0.12699999809E+01 0. -1.
</event>
<event>
 5   0  0.1238683E-03  0.1414974E+04  0.7818609E-02  0.8943050E-01
       -1   -1    0    0    0  501  0.00000000000E+00  0.00000000000E+00  0.38799596495E+03  0.38799596498E+03  0.50400001928E-02 0.  1.
        1   -1    0    0  501    0  0.00000000000E+00  0.00000000000E+00 -0.12900598319E+04  0.12900598319E+04  0.50400001928E-02 0. -1.
    10030    2    1    2    0    0  0.00000000000E+00  0.00000000000E+00 -0.90206386698E+03  0.16780557969E+04  0.14149742180E+04 0.  0.
        2    1    3    3  502    0  0.28124400719E+03  0.30078803999E+03 -0.11332917701E+04  0.12057868272E+04  0.25500000920E-02 0. -1.
       -2    1    3    3    0  502 -0.28124400719E+03 -0.30078803999E+03  0.23122790308E+03  0.47226896971E+03  0.25500000920E-02 0.  1.
</event>
<event>
 5   0  0.1210275E-03  0.1452064E+04  0.7818609E-02  0.8916971E-01
        1   -1    0    0  501    0  0.00000000000E+00  0.00000000000E+00  0.13658910070E+04  0.13658910070E+04  0.50400001928E-02 0.  1.
       -1   -1    0    0    0  501  0.00000000000E+00  0.00000000000E+00 -0.38591858493E+03  0.38591858496E+03  0.50400001928E-02 0. -1.
    10030    2    1    2    0    0  0.00000000000E+00  0.00000000000E+00  0.97997242203E+03  0.17518095919E+04  0.14520643575E+04 0.  0.
        1    1    3    3  502    0  0.64729727292E+03  0.25684611922E+03  0.24227459588E+03  0.73733348515E+03  0.50400001928E-02 0. -1.
       -1    1    3    3    0  502 -0.64729727292E+03 -0.25684611922E+03  0.73769782615E+03  0.10144761068E+04  0.50400001928E-02 0.  1.
</event>
<event>
 5   0  0.2195980E-03  0.1416357E+04  0.7818609E-02  0.8942063E-01
        2   -1    0    0  501    0  0.00000000000E+00  0.00000000000E+00  0.91259255724E+03  0.91259255724E+03  0.25500000920E-02 0.  1.
       -2   -1    0    0    0  501  0.00000000000E+00  0.00000000000E+00 -0.54955149776E+03  0.54955149777E+03  0.25500000920E-02 0. -1.
    10030    2    1    2    0    0  0.00000000000E+00  0.00000000000E+00  0.36304105948E+03  0.14621440550E+04  0.14163567442E+04 0.  0.
        4    1    3    3  502    0 -0.69250222313E+02 -0.54026818128E+03  0.64873250388E+03  0.84707778597E+03  0.12699999809E+01 0.  1.
       -4    1    3    3    0  502  0.69250222313E+02  0.54026818128E+03 -0.28569144440E+03  0.61506626903E+03  0.12699999809E+01 0. -1.
</event>
<event>
 5   0  0.2236184E-03  0.1073106E+04  0.7818609E-02  0.9231808E-01
       -2   -1    0    0    0  501  0.00000000000E+00  0.00000000000E+00  0.16111736362E+03  0.16111736364E+03  0.25500000920E-02 0. -1.
        2   -1    0    0  501    0  0.00000000000E+00  0.00000000000E+00 -0.17868294294E+04  0.17868294294E+04  0.25500000920E-02 0.  1.
    10030    2    1    2    0    0  0.00000000000E+00  0.00000000000E+00 -0.16257120658E+04  0.19479467931E+04  0.10731062332E+04 0.  0.
        3    1    3    3  502    0  0.13837904596E+03 -0.49839684802E+03 -0.55396253428E+03  0.75790677399E+03  0.10100000352E+00 0. -1.
       -3    1    3    3    0  502 -0.13837904596E+03  0.49839684802E+03 -0.10717495315E+04  0.11900400191E+04  0.10100000352E+00 0.  1.
</event>
<event>
 5   0  0.1238683E-03  0.1420065E+04  0.7818609E-02  0.8939421E-01
        1   -1    0    0  501    0  0.00000000000E+00  0.00000000000E+00  0.20877300916E+04  0.20877300916E+04  0.50400001928E-02 0. -1.
       -1   -1    0    0    0  501  0.00000000000E+00  0.00000000000E+00 -0.24148047653E+03  0.24148047658E+03  0.50400001928E-02 0.  1.
    10030    2    1    2    0    0  0.00000000000E+00  0.00000000000E+00  0.18462496151E+04  0.23292105682E+04  0.14200648682E+04 0.  0.
        2    1    3    3  502    0 -0.11866544624E+03 -0.49457549310E+03  0.17357506416E+04  0.18087334509E+04  0.25500000920E-02 0. -1.
       -2    1    3    3    0  502  0.11866544624E+03  0.49457549310E+03  0.11049897348E+03  0.52047711732E+03  0.25500000920E-02 0.  1.
</event>
<event>
 5   0  0.8293000E-04  0.1396674E+04  0.7818609E-02  0.8956230E-01
       -3   -1    0    0    0  501  0.00000000000E+00  0.00000000000E+00  0.51062255835E+03  0.51062256834E+03  0.10100000352E+00 0. -1.
        3   -1    0    0  501    0  0.00000000000E+00  0.00000000000E+00 -0.95505811491E+03  0.95505812025E+03  0.10100000352E+00 0.  1.
    10030    2    1    2    0    0  0.00000000000E+00  0.00000000000E+00 -0.44443555656E+03  0.14656806886E+04  0.13966735184E+04 0.  0.
        3    1    3    3  502    0 -0.15813414968E+03 -0.67642390021E+03 -0.14713911349E+03  0.71007438413E+03  0.10100000352E+00 0. -1.
       -3    1    3    3    0  502  0.15813414968E+03  0.67642390021E+03 -0.29729644307E+03  0.75560630446E+03  0.10100000352E+00 0.  1.
</event>
<event>
 5   0  0.1175374E-03  0.1415503E+04  0.7818609E-02  0.8942672E-01
        1   -1    0    0  501    0  0.00000000000E+00  0.00000000000E+00  0.11162234516E+04  0.11162234517E+04  0.50400001928E-02 0.  1.
       -1   -1    0    0    0  501  0.00000000000E+00  0.00000000000E+00 -0.44875635888E+03  0.44875635891E+03  0.50400001928E-02 0. -1.
    10030    2    1    2    0    0  0.00000000000E+00  0.00000000000E+00  0.66746709276E+03  0.15649798106E+04  0.14155032630E+04 0.  0.
        3    1    3    3  502    0 -0.37486647954E+03  0.80102540988E+02  0.99151518584E+03  0.10630351210E+04  0.10100000352E+00 0.  1.
       -3    1    3    3    0  502  0.37486647954E+03 -0.80102540988E+02 -0.32404809307E+03  0.50194468956E+03  0.10100000352E+00 0. -1.
</event>
<event>
 5   0  0.2172901E-03  0.1310781E+04  0.7818609E-02  0.9021059E-01
        2   -1    0    0  501    0  0.00000000000E+00  0.00000000000E+00  0.90445987153E+03  0.90445987153E+03  0.25500000920E-02 0.  1.
       -2   -1    0    0    0  501  0.00000000000E+00  0.00000000000E+00 -0.47490960823E+03  0.47490960824E+03  0.25500000920E-02 0. -1.
    10030    2    1    2    0    0  0.00000000000E+00  0.00000000000E+00  0.42955026330E+03  0.13793694798E+04  0.13107809630E+04 0.  0.
        2    1    3    3  502    0  0.16989594489E+03  0.43152938269E+03 -0.27254910512E+03  0.53792681187E+03  0.25500000920E-02 0. -1.
       -2    1    3    3    0  502 -0.16989594489E+03 -0.43152938269E+03  0.70209936842E+03  0.84144266790E+03  0.25500000920E-02 0.  1.
</event>
<event>
 5   0  0.2195980E-03  0.1407783E+04  0.7818609E-02  0.8948204E-01
       -2   -1    0    0    0  501  0.00000000000E+00  0.00000000000E+00  0.39687864945E+03  0.39687864946E+03  0.25500000920E-02 0.  1.
        2   -1    0    0  501    0  0.00000000000E+00  0.00000000000E+00 -0.12484002633E+04  0.12484002633E+04  0.25500000920E-02 0. -1.
    10030    2    1    2    0    0  0.00000000000E+00  0.00000000000E+00 -0.85152161383E+03  0.16452789127E+04  0.14077832368E+04 0.  0.
        4    1    3    3  502    0  0.53727956343E+02 -0.37337095496E+03 -0.11202974662E+04  0.11821000757E+04  0.12699999809E+01 0. -1.
       -4    1    3    3    0  502 -0.53727956343E+02  0.37337095496E+03  0.26877585241E+03  0.46317883699E+03  0.12699999809E+01 0.  1.
</event>
<event>
 5   0  0.1210275E-03  0.1416556E+04  0.7818609E-02  0.8941921E-01
       -1   -1    0    0    0  501  0.00000000000E+00  0.00000000000E+00  0.65465959267E+03  0.65465959269E+03  0.50400001928E-02 0.  1.
        1   -1    0    0  501    0  0.00000000000E+00  0.00000000000E+00 -0.76628767859E+03  0.76628767861E+03  0.50400001928E-02 0. -1.
    10030    2    1    2    0    0  0.00000000000E+00  0.00000000000E+00 -0.11162808592E+03  0.14209472713E+04  0.14165557943E+04 0.  0.
        1    1    3    3  502    0 -0.28496881748E+03  0.50553237102E+03  0.35150806141E+03  0.67847485020E+03  0.50400001928E-02 0.  1.
       -1    1    3    3    0  502  0.28496881748E+03 -0.50553237102E+03 -0.46313614734E+03  0.74247242109E+03  0.50400001928E-02 0. -1.
</event>
<event>
 5   0  0.1210275E-03  0.9986991E+03  0.7818609E-02  0.9309973E-01
        1   -1    0    0  501    0  0.00000000000E+00  0.00000000000E+00  0.37729765397E+03  0.37729765400E+03  0.50400001928E-02 0. -1.
       -1   -1    0    0    0  501  0.00000000000E+00  0.00000000000E+00 -0.66088396389E+03  0.66088396391E+03  0.50400001928E-02 0.  1.
    10030    2    1    2    0    0  0.00000000000E+00  0.00000000000E+00 -0.28358630992E+03  0.10381816179E+04  0.99869909211E+03 0.  0.
        1    1    3    3  502    0  0.39402834944E+03 -0.24583671159E+03 -0.33250143243E+03  0.57118406099E+03  0.50400001928E-02 0.  1.
       -1    1    3    3    0  502 -0.39402834944E+03  0.24583671159E+03  0.48915122512E+02  0.46699755692E+03  0.50400001928E-02 0. -1.
</event>
<event>
 5   0  0.2236184E-03  0.1223491E+04  0.7818609E-02  0.9092540E-01
        2   -1    0    0  501    0  0.00000000000E+00  0.00000000000E+00  0.18126642587E+04  0.18126642587E+04  0.25500000920E-02 0.  1.
       -2   -1    0    0    0  501  0.00000000000E+00  0.00000000000E+00 -0.20645430083E+03  0.20645430084E+03  0.25500000920E-02 0. -1.
    10030    2    1    2    0    0  0.00000000000E+00  0.00000000000E+00  0.16062099579E+04  0.20191185596E+04  0.12234906329E+04 0.  0.
        3    1    3    3  502    0 -0.52213732725E+03  0.22177440960E+03  0.42525969315E+03  0.70898314090E+03  0.10100000352E+00 0. -1.
       -3    1    3    3    0  502  0.52213732725E+03 -0.22177440960E+03  0.11809502648E+04  0.13101354187E+04  0.10100000352E+00 0.  1.
</event>
<event>
 5   0  0.1225690E-03  0.1425014E+04  0.7818609E-02  0.8935908E-01
        1   -1    0    0  501    0  0.00000000000E+00  0.00000000000E+00  0.18627224016E+04  0.18627224016E+04  0.50400001928E-02 0. -1.
       -1   -1    0    0    0  501  0.00000000000E+00  0.00000000000E+00 -0.27254011635E+03  0.27254011640E+03  0.50400001928E-02 0.  1.
    10030    2    1    2    0    0  0.00000000000E+00  0.00000000000E+00  0.15901822852E+04  0.21352625180E+04  0.14250144983E+04 0.  0.
        4    1    3    3  502    0 -0.30014194800E+03  0.63511203045E+03  0.97372634014E+03  0.12006652650E+04  0.12699999809E+01 0.  1.
       -4    1    3    3    0  502  0.30014194800E+03 -0.63511203045E+03  0.61645594506E+03  0.93459725297E+03  0.12699999809E+01 0. -1.
</event>
<event>
 5   0  0.1210275E-03  0.1450638E+04  0.7818609E-02  0.8917959E-01
       -1   -1    0    0    0  501  0.00000000000E+00  0.00000000000E+00  0.28271533899E+03  0.28271533903E+03  0.50400001928E-02 0. -1.
        1   -1    0    0  501    0  0.00000000000E+00  0.00000000000E+00 -0.18608376004E+04  0.18608376004E+04  0.50400001928E-02 0.  1.
    10030    2    1    2    0    0  0.00000000000E+00  0.00000000000E+00 -0.15781222614E+04  0.21435529394E+04  0.14506375606E+04 0.  0.
        1    1    3    3  502    0  0.11010608123E+03 -0.54780749621E+03 -0.14724236820E+04  0.15748802816E+04  0.50400001928E-02 0.  1.
       -1    1    3    3    0  502 -0.11010608123E+03  0.54780749621E+03 -0.10569857938E+03  0.56867265781E+03  0.50400001928E-02 0. -1.
</event>
<event>
 5   0  0.8293000E-04  0.1370912E+04  0.7818609E-02  0.8975147E-01
        3   -1    0    0  501    0  0.00000000000E+00  0.00000000000E+00  0.16141585954E+04  0.16141585985E+04  0.10100000352E+00 0.  1.
       -3   -1    0    0    0  501  0.00000000000E+00  0.00000000000E+00 -0.29108057944E+03  0.29108059696E+03  0.10100000352E+00 0. -1.
    10030    2    1    2    0    0  0.00000000000E+00  0.00000000000E+00  0.13230780159E+04  0.19052391955E+04  0.13709124537E+04 0.  0.
        5    1    3    3  502    0  0.76135500794E+02 -0.43546444602E+03  0.13895427646E+04  0.14581759438E+04  0.46999998093E+01 0.  1.
       -5    1    3    3    0  502 -0.76135500794E+02  0.43546444602E+03 -0.66464748692E+02  0.44706325173E+03  0.46999998093E+01 0. -1.
</event>
<event>
 5   0  0.1210275E-03  0.1386010E+04  0.7818609E-02  0.8964008E-01
       -1   -1    0    0    0  501  0.00000000000E+00  0.00000000000E+00  0.96297009126E+03  0.96297009127E+03  0.50400001928E-02 0.  1.
        1   -1    0    0  501    0  0.00000000000E+00  0.00000000000E+00 -0.49872393819E+03  0.49872393822E+03  0.50400001928E-02 0. -1.
    10030    2    1    2    0    0  0.00000000000E+00  0.00000000000E+00  0.46424615307E+03  0.14616940295E+04  0.13860104420E+04 0.  0.
        1    1    3    3  502    0  0.43503504335E+03  0.41515409204E+03  0.59538498940E+03  0.84622201266E+03  0.50400001928E-02 0.  1.
       -1    1    3    3    0  502 -0.43503504335E+03 -0.41515409204E+03 -0.13113883633E+03  0.61547201683E+03  0.50400001928E-02 0. -1.
</event>
<event>
 5   0  0.1175374E-03  0.1392699E+04  0.7818609E-02  0.8959120E-01
       -1   -1    0    0    0  501  0.00000000000E+00  0.00000000000E+00  0.59562308926E+03  0.59562308928E+03  0.50400001928E-02 0.  1.
        1   -1    0    0  501    0  0.00000000000E+00  0.00000000000E+00 -0.81410988674E+03  0.81410988675E+03  0.50400001928E-02 0. -1.
    10030    2    1    2    0    0  0.00000000000E+00  0.00000000000E+00 -0.21848679748E+03  0.14097329760E+04  0.13926990282E+04 0.  0.
        3    1    3    3  502    0 -0.46348666599E+03 -0.37515495311E+03 -0.47328292862E+03  0.76128698210E+03  0.10100000352E+00 0. -1.
       -3    1    3    3    0  502  0.46348666599E+03  0.37515495311E+03  0.25479613114E+03  0.64844599393E+03  0.10100000352E+00 0.  1.
</event>
<event>
 5   0  0.2190704E-03  0.1383159E+04  0.7818609E-02  0.8966100E-01
        2   -1    0    0  501    0  0.00000000000E+00  0.00000000000E+00  0.18944871157E+04  0.18944871157E+04  0.25500000920E-02 0. -1.
       -2   -1    0    0    0  501  0.00000000000E+00  0.00000000000E+00 -0.25245991766E+03  0.25245991767E+03  0.25500000920E-02 0.  1.
    10030    2    1    2    0    0  0.00000000000E+00  0.00000000000E+00  0.16420271980E+04  0.21469470334E+04  0.13831587924E+04 0.  0.
        5    1    3    3  502    0  0.48507690466E+03  0.39204591693E+03  0.35726925900E+03  0.71879275027E+03  0.46999998093E+01 0.  1.
       -5    1    3    3    0  502 -0.48507690466E+03 -0.39204591693E+03  0.12847579390E+04  0.14281542831E+04  0.46999998093E+01 0. -1.
</event>
<event>
 5   0  0.1225690E-03  0.1418270E+04  0.7818609E-02  0.8940699E-01
       -1   -1    0    0    0  501  0.00000000000E+00  0.00000000000E+00  0.12422098518E+04  0.12422098518E+04  0.50400001928E-02 0. -1.
        1   -1    0    0  501    0  0.00000000000E+00  0.00000000000E+00 -0.40482075922E+03  0.40482075925E+03  0.50400001928E-02 0.  1.
    10030    2    1    2    0    0  0.00000000000E+00  0.00000000000E+00  0.83738909259E+03  0.16470306111E+04  0.14182698408E+04 0.  0.
        4    1    3    3  502    0 -0.37309475265E+03 -0.18242518563E+03 -0.24881520868E+03  0.48413764962E+03  0.12699999809E+01 0.  1.
       -4    1    3    3    0  502  0.37309475265E+03  0.18242518563E+03  0.10862043013E+04  0.11628929615E+04  0.12699999809E+01 0. -1.
</event>
<event>
 5   0  0.1210275E-03  0.1407548E+04  0.7818609E-02  0.8948373E-01
       -1   -1    0    0    0  501  0.00000000000E+00  0.00000000000E+00  0.50416770468E+03  0.50416770471E+03  0.50400001928E-02 0.  1.
        1   -1    0    0  501    0  0.00000000000E+00  0.00000000000E+00 -0.98240701911E+03  0.98240701912E+03  0.50400001928E-02 0. -1.
    10030    2    1    2    0    0  0.00000000000E+00  0.00000000000E+00 -0.47823931442E+03  0.14865747238E+04  0.14075480694E+04 0.  0.
        1    1    3    3  502    0 -0.37685120240E+03 -0.53517223874E+03 -0.51223419255E+03  0.83114981918E+03  0.50400001928E-02 0. -1.
       -1    1    3    3    0  502  0.37685120240E+03  0.53517223874E+03  0.33994878129E+02  0.65542490465E+03  0.50400001928E-02 0.  1.
</event>
<event>
 5   0  0.1210275E-03  0.1423812E+04  0.7818609E-02  0.8936761E-01
        1   -1    0    0  501    0  0.00000000000E+00  0.00000000000E+00  0.21862105354E+04  0.21862105354E+04  0.50400001928E-02 0.  1.
       -1   -1    0    0    0  501  0.00000000000E+00  0.00000000000E+00 -0.23182115067E+03  0.23182115072E+03  0.50400001928E-02 0. -1.
    10030    2    1    2    0    0  0.00000000000E+00  0.00000000000E+00  0.19543893848E+04  0.24180316861E+04  0.14238115634E+04 0.  0.
        1    1    3    3  502    0 -0.29556554560E+03  0.49393685821E+03  0.16886045152E+04  0.17840173262E+04  0.50400001928E-02 0.  1.
       -1    1    3    3    0  502  0.29556554560E+03 -0.49393685821E+03  0.26578486959E+03  0.63401435991E+03  0.50400001928E-02 0. -1.
</event>
<event>
 5   0  0.2190704E-03  0.1388349E+04  0.7818609E-02  0.8962296E-01
        2   -1    0    0  501    0  0.00000000000E+00  0.00000000000E+00  0.28806790752E+03  0.28806790753E+03  0.25500000920E-02 0.  1.
       -2   -1    0    0    0  501  0.00000000000E+00  0.00000000000E+00 -0.16727931764E+04  0.16727931764E+04  0.25500000920E-02 0. -1.
    10030    2    1    2    0    0  0.00000000000E+00  0.00000000000E+00 -0.13847252688E+04  0.19608610839E+04  0.13883487027E+04 0.  0.
        5    1    3    3  502    0  0.53560524316E+03  0.41404260301E+03 -0.47561255069E+03  0.82736548271E+03  0.46999998093E+01 0.  1.
       -5    1    3    3    0  502 -0.53560524316E+03 -0.41404260301E+03 -0.90911271815E+03  0.11334956012E+04  0.46999998093E+01 0. -1.
</event>
<event>
 5   0  0.2195980E-03  0.1276174E+04  0.7818609E-02  0.9048676E-01
       -2   -1    0    0    0  501  0.00000000000E+00  0.00000000000E+00  0.36133324584E+03  0.36133324585E+03  0.25500000920E-02 0. -1.
        2   -1    0    0  501    0  0.00000000000E+00  0.00000000000E+00 -0.11268128981E+04  0.11268128981E+04  0.25500000920E-02 0.  1.
    10030    2    1    2    0    0  0.00000000000E+00  0.00000000000E+00 -0.76547965227E+03  0.14881461440E+04  0.12761739097E+04 0.  0.
        4    1    3    3  502    0 -0.45890690957E+03  0.12664143937E+02  0.13403768674E+03  0.47825061062E+03  0.12699999809E+01 0. -1.
       -4    1    3    3    0  502  0.45890690957E+03 -0.12664143937E+02 -0.89951733902E+03  0.10098955333E+04  0.12699999809E+01 0.  1.
</event>
<event>
 5   0  0.1199720E-03  0.1387758E+04  0.7818609E-02  0.8962728E-01
       -1   -1    0    0    0  501  0.00000000000E+00  0.00000000000E+00  0.10514393563E+04  0.10514393563E+04  0.50400001928E-02 0. -1.
        1   -1    0    0  501    0  0.00000000000E+00  0.00000000000E+00 -0.45791338371E+03  0.45791338374E+03  0.50400001928E-02 0.  1.
    10030    2    1    2    0    0  0.00000000000E+00  0.00000000000E+00  0.59352597258E+03  0.15093527400E+04  0.13877581251E+04 0.  0.
        5    1    3    3  502    0 -0.33866542209E+03  0.20730664589E+03  0.91563255471E+03  0.99803576028E+03  0.46999998093E+01 0. -1.
       -5    1    3    3    0  502  0.33866542209E+03 -0.20730664589E+03 -0.32210658213E+03  0.51131697977E+03  0.46999998093E+01 0.  1.
</event>
<event>
 5   0  0.2195980E-03  0.1381337E+04  0.7818609E-02  0.8967439E-01
        2   -1    0    0  501    0  0.00000000000E+00  0.00000000000E+00  0.14991218009E+04  0.14991218009E+04  0.25500000920E-02 0. -1.
       -2   -1    0    0    0  501  0.00000000000E+00  0.00000000000E+00 -0.31820181543E+03  0.31820181544E+03  0.25500000920E-02 0.  1.
    10030    2    1    2    0    0  0.00000000000E+00  0.00000000000E+00  0.11809199855E+04  0.18173236163E+04  0.13813374368E+04 0.  0.
        4    1    3    3  502    0 -0.52956425344E+02 -0.62590187552E+03  0.21265732904E+03  0.66316083513E+03  0.12699999809E+01 0. -1.
       -4    1    3    3    0  502  0.52956425344E+02  0.62590187552E+03  0.96826265643E+03  0.11541627812E+04  0.12699999809E+01 0.  1.
</event>
<event>
 5   0  0.1175374E-03  0.1397591E+04  0.7818609E-02  0.8955564E-01
       -1   -1    0    0    0  501  0.00000000000E+00  0.00000000000E+00  0.41254228497E+03  0.41254228500E+03  0.50400001928E-02 0. -1.
        1   -1    0    0  501    0  0.00000000000E+00  0.00000000000E+00 -0.11836724743E+04  0.11836724743E+04  0.50400001928E-02 0.  1.
    10030    2    1    2    0    0  0.00000000000E+00  0.00000000000E+00 -0.77113018935E+03  0.15962147593E+04  0.13975907087E+04 0.  0.
        3    1    3    3  502    0  0.33201648429E+03 -0.30184454226E+03 -0.99739325618E+03  0.10936811195E+04  0.10100000352E+00 0.  1.
       -3    1    3    3    0  502 -0.33201648429E+03  0.30184454226E+03  0.22626306683E+03  0.50253363981E+03  0.10100000352E+00 0. -1.
</event>
<event>
 5   0  0.2172901E-03  0.1506318E+04  0.7818609E-02  0.8880263E-01
        2   -1    0    0  501    0  0.00000000000E+00  0.00000000000E+00  0.50006076907E+03  0.50006076907E+03  0.25500000920E-02 0. -1.
       -2   -1    0    0    0  501  0.00000000000E+00  0.00000000000E+00 -0.11343587193E+04  0.11343587193E+04  0.25500000920E-02 0.  1.
    10030    2    1    2    0    0  0.00000000000E+00  0.00000000000E+00 -0.63429795024E+03  0.16344194884E+04  0.15063177534E+04 0.  0.
        2    1    3    3  502    0 -0.62875189995E+03  0.41450767901E+03 -0.32814629787E+03  0.82147766888E+03  0.25500000920E-02 0.  1.
       -2    1    3    3    0  502  0.62875189995E+03 -0.41450767901E+03 -0.30615165237E+03  0.81294181951E+03  0.25500000920E-02 0. -1.
</event>
<event>
 5   0  0.2083966E-03  0.1406510E+04  0.7818609E-02  0.8949120E-01
       -2   -1    0    0    0  501  0.00000000000E+00  0.00000000000E+00  0.85291397085E+03  0.85291397086E+03  0.25500000920E-02 0. -1.
        2   -1    0    0  501    0  0.00000000000E+00  0.00000000000E+00 -0.57985614062E+03  0.57985614062E+03  0.25500000920E-02 0.  1.
    10030    2    1    2    0    0  0.00000000000E+00  0.00000000000E+00  0.27305783023E+03  0.14327701115E+04  0.14065097276E+04 0.  0.
        1    1    3    3  502    0  0.36333115709E+03  0.49120000506E+03 -0.21822658289E+03  0.64877562854E+03  0.50400001928E-02 0.  1.
       -1    1    3    3    0  502 -0.36333115709E+03 -0.49120000506E+03  0.49128441312E+03  0.78399448294E+03  0.50400001928E-02 0. -1.
</event>
<event>
 5   0  0.1225690E-03  0.1419487E+04  0.7818609E-02  0.8939832E-01
        1   -1    0    0  501    0  0.00000000000E+00  0.00000000000E+00  0.62426546558E+03  0.62426546560E+03  0.50400001928E-02 0. -1.
       -1   -1    0    0    0  501  0.00000000000E+00  0.00000000000E+00 -0.80692557841E+03  0.80692557843E+03  0.50400001928E-02 0.  1.
    10030    2    1    2    0    0  0.00000000000E+00  0.00000000000E+00 -0.18266011283E+03  0.14311910440E+04  0.14194869100E+04 0.  0.
        4    1    3    3  502    0  0.56108745152E+03 -0.42642417608E+03 -0.17615131447E+03  0.72642109323E+03  0.12699999809E+01 0. -1.
       -4    1    3    3    0  502 -0.56108745152E+03  0.42642417608E+03 -0.65087983552E+01  0.70476995080E+03  0.12699999809E+01 0.  1.
</event>
<event>
 5   0  0.2083966E-03  0.1417895E+04  0.7818609E-02  0.8940966E-01
       -2   -1    0    0    0  501  0.00000000000E+00  0.00000000000E+00  0.70080711341E+03  0.70080711342E+03  0.25500000920E-02 0. -1.
        2   -1    0    0  501    0  0.00000000000E+00  0.00000000000E+00 -0.71718200980E+03  0.71718200981E+03  0.25500000920E-02 0.  1.
    10030    2    1    2    0    0  0.00000000000E+00  0.00000000000E+00 -0.16374896387E+02  0.14179891232E+04  0.14178945717E+04 0.  0.
        1    1    3    3  502    0 -0.52557171854E+03  0.16091338504E+02 -0.48374170396E+03  0.71448624807E+03  0.50400001928E-02 0.  1.
       -1    1    3    3    0  502  0.52557171854E+03 -0.16091338504E+02  0.46736680757E+03  0.70350287516E+03  0.50400001928E-02 0. -1.
</event>
<event>
 5   0  0.8293000E-04  0.1382412E+04  0.7818609E-02  0.8966649E-01
        4   -1    0    0  501    0  0.00000000000E+00  0.00000000000E+00  0.73890601627E+03  0.73890710768E+03  0.12699999809E+01 0. -1.
       -4   -1    0    0    0  501  0.00000000000E+00  0.00000000000E+00 -0.64658312111E+03  0.64658436836E+03  0.12699999809E+01 0.  1.
    10030    2    1    2    0    0  0.00000000000E+00  0.00000000000E+00  0.92322895166E+02  0.13854914760E+04  0.13824120635E+04 0.  0.
        3    1    3    3  502    0 -0.14230616193E+03  0.55178179621E+03  0.43825097540E+03  0.71887281350E+03  0.10100000352E+00 0. -1.
       -3    1    3    3    0  502  0.14230616193E+03 -0.55178179621E+03 -0.34592808023E+03  0.66661866254E+03  0.10100000352E+00 0.  1.
</event>
<event>
 5   0  0.2195980E-03  0.1391843E+04  0.7818609E-02  0.8959744E-01
        2   -1    0    0  501    0  0.00000000000E+00  0.00000000000E+00  0.51205703773E+03  0.51205703774E+03  0.25500000920E-02 0.  1.
       -2   -1    0    0    0  501  0.00000000000E+00  0.00000000000E+00 -0.94580662275E+03  0.94580662275E+03  0.25500000920E-02 0. -1.
    10030    2    1    2    0    0  0.00000000000E+00  0.00000000000E+00 -0.43374958502E+03  0.14578636605E+04  0.13918432922E+04 0.  0.
        4    1    3    3  502    0  0.38300250526E+03 -0.47292854501E+03 -0.57045622059E+03  0.83413082920E+03  0.12699999809E+01 0. -1.
       -4    1    3    3    0  502 -0.38300250526E+03  0.47292854501E+03  0.13670663557E+03  0.62373283129E+03  0.12699999809E+01 0.  1.
</event>
<event>
 5   0  0.2236184E-03  0.1415706E+04  0.7818609E-02  0.8942528E-01
        2   -1    0    0  501    0  0.00000000000E+00  0.00000000000E+00  0.10228343624E+04  0.10228343625E+04  0.25500000920E-02 0. -1.
       -2   -1    0    0    0  501  0.00000000000E+00  0.00000000000E+00 -0.48987001989E+03  0.48987001989E+03  0.25500000920E-02 0.  1.
    10030    2    1    2    0    0  0.00000000000E+00  0.00000000000E+00  0.53296434256E+03  0.15127043823E+04  0.14157060281E+04 0.  0.
        3    1    3    3  502    0 -0.62356841385E+03 -0.24936412888E+03  0.27469130219E+02  0.67214179965E+03  0.10100000352E+00 0.  1.
       -3    1    3    3    0  502  0.62356841385E+03  0.24936412888E+03  0.50549521234E+03  0.84056258269E+03  0.10100000352E+00 0. -1.
</event>
<event>
 5   0  0.1238683E-03  0.1397078E+04  0.7818609E-02  0.8955936E-01
        1   -1    0    0  501    0  0.00000000000E+00  0.00000000000E+00  0.89814871297E+03  0.89814871298E+03  0.50400001928E-02 0.  1.
       -1   -1    0    0    0  501  0.00000000000E+00  0.00000000000E+00 -0.54329201070E+03  0.54329201072E+03  0.50400001928E-02 0. -1.
    10030    2    1    2    0    0  0.00000000000E+00  0.00000000000E+00  0.35485670227E+03  0.14414407237E+04  0.13970784090E+04 0.  0.
        2    1    3    3  502    0 -0.40952479846E+03  0.45992828341E+03 -0.16275700593E+03  0.63697286396E+03  0.25500000920E-02 0. -1.
       -2    1    3    3    0  502  0.40952479846E+03 -0.45992828341E+03  0.51761370820E+03  0.80446785975E+03  0.25500000920E-02 0.  1.
</event>
<event>
 5   0  0.1225690E-03  0.1400583E+04  0.7818609E-02  0.8953397E-01
       -1   -1    0    0    0  501  0.00000000000E+00  0.00000000000E+00  0.70289060251E+03  0.70289060253E+03  0.50400001928E-02 0.  1.
        1   -1    0    0  501    0  0.00000000000E+00  0.00000000000E+00 -0.69770209537E+03  0.69770209539E+03  0.50400001928E-02 0. -1.
    10030    2    1    2    0    0  0.00000000000E+00  0.00000000000E+00  0.51885071402E+01  0.14005926979E+04  0.14005830874E+04 0.  0.
        4    1    3    3  502    0  0.27608312203E+03 -0.89060930539E+02  0.63997833631E+03  0.70265754352E+03  0.12699999809E+01 0.  1.
       -4    1    3    3    0  502 -0.27608312203E+03  0.89060930539E+02 -0.63478982917E+03  0.69793515439E+03  0.12699999809E+01 0. -1.
</event>
<event>
 5   0  0.1175374E-03  0.1610627E+04  0.7818609E-02  0.8814046E-01
        1   -1    0    0  501    0  0.00000000000E+00  0.00000000000E+00  0.85085494751E+03  0.85085494752E+03  0.50400001928E-02 0. -1.
       -1   -1    0    0    0  501  0.00000000000E+00  0.00000000000E+00 -0.76220946142E+03  0.76220946144E+03  0.50400001928E-02 0.  1.
    10030    2    1    2    0    0  0.00000000000E+00  0.00000000000E+00  0.88645486089E+02  0.16130644090E+04  0.16106268237E+04 0.  0.
        3    1    3    3  502    0 -0.21427985536E+03 -0.40214539887E+01 -0.73312373247E+03  0.76380785922E+03  0.10100000352E+00 0.  1.
       -3    1    3    3    0  502  0.21427985536E+03  0.40214539887E+01  0.82176921856E+03  0.84925654974E+03  0.10100000352E+00 0. -1.
</event>
<event>
 5   0  0.1175374E-03  0.1383040E+04  0.7818609E-02  0.8966187E-01
        1   -1    0    0  501    0  0.00000000000E+00  0.00000000000E+00  0.15310776837E+04  0.15310776837E+04  0.50400001928E-02 0. -1.
       -1   -1    0    0    0  501  0.00000000000E+00  0.00000000000E+00 -0.31232900439E+03  0.31232900443E+03  0.50400001928E-02 0.  1.
    10030    2    1    2    0    0  0.00000000000E+00  0.00000000000E+00  0.12187486793E+04  0.18434066881E+04  0.13830400842E+04 0.  0.
        3    1    3    3  502    0 -0.68193571667E+03 -0.88409524655E+02  0.51190737722E+03  0.85726410095E+03  0.10100000352E+00 0. -1.
       -3    1    3    3    0  502  0.68193571667E+03  0.88409524655E+02  0.70684130209E+03  0.98614258719E+03  0.10100000352E+00 0.  1.
</event>
<event>
 5   0  0.2083966E-03  0.1371415E+04  0.7818609E-02  0.8974774E-01
        2   -1    0    0  501    0  0.00000000000E+00  0.00000000000E+00  0.87972136274E+03  0.87972136274E+03  0.25500000920E-02 0.  1.
       -2   -1    0    0    0  501  0.00000000000E+00  0.00000000000E+00 -0.53448136022E+03  0.53448136022E+03  0.25500000920E-02 0. -1.
    10030    2    1    2    0    0  0.00000000000E+00  0.00000000000E+00  0.34524000252E+03  0.14142027230E+04  0.13714148469E+04 0.  0.
        1    1    3    3  502    0 -0.99100444059E+02  0.53620861192E+03 -0.25610880153E+03  0.60243862074E+03  0.50400001928E-02 0. -1.
       -1    1    3    3    0  502  0.99100444059E+02 -0.53620861192E+03  0.60134880405E+03  0.81176410223E+03  0.50400001928E-02 0.  1.
</event>
<event>
 5   0  0.2190704E-03  0.1565461E+04  0.7818609E-02  0.8842052E-01
        2   -1    0    0  501    0  0.00000000000E+00  0.00000000000E+00  0.20430387231E+04  0.20430387231E+04  0.25500000920E-02 0. -1.
       -2   -1    0    0    0  501  0.00000000000E+00  0.00000000000E+00 -0.29988012209E+03  0.29988012211E+03  0.25500000920E-02 0.  1.
    10030    2    1    2    0    0  0.00000000000E+00  0.00000000000E+00  0.17431586010E+04  0.23429188452E+04  0.15654605734E+04 0.  0.
        5    1    3    3  502    0 -0.39567511311E+03 -0.60729923275E+03  0.13137156332E+04  0.15004139456E+04  0.46999998093E+01 0. -1.
       -5    1    3    3    0  502  0.39567511311E+03  0.60729923275E+03  0.42944296776E+03  0.84250489957E+03  0.46999998093E+01 0.  1.
</event>
<event>
 5   0  0.2172901E-03  0.1403369E+04  0.7818609E-02  0.8951384E-01
        2   -1    0    0  501    0  0.00000000000E+00  0.00000000000E+00  0.50895737022E+03  0.50895737023E+03  0.25500000920E-02 0. -1.
       -2   -1    0    0    0  501  0.00000000000E+00  0.00000000000E+00 -0.96739169346E+03  0.96739169346E+03  0.25500000920E-02 0.  1.
    10030    2    1    2    0    0  0.00000000000E+00  0.00000000000E+00 -0.45843432324E+03  0.14763490637E+04  0.14033689925E+04 0.  0.
        2    1    3    3  502    0  0.25730999639E+03 -0.19465581731E+03 -0.88472745278E+03  0.94172288237E+03  0.25500000920E-02 0.  1.
       -2    1    3    3    0  502 -0.25730999639E+03  0.19465581731E+03  0.42629312955E+03  0.53462618133E+03  0.25500000920E-02 0. -1.
</event>
<event>
 5   0  0.1210275E-03  0.1418100E+04  0.7818609E-02  0.8940820E-01
        1   -1    0    0  501    0  0.00000000000E+00  0.00000000000E+00  0.80374662175E+03  0.80374662177E+03  0.50400001928E-02 0. -1.
       -1   -1    0    0    0  501  0.00000000000E+00  0.00000000000E+00 -0.62551078586E+03  0.62551078588E+03  0.50400001928E-02 0.  1.
    10030    2    1    2    0    0  0.00000000000E+00  0.00000000000E+00  0.17823583589E+03  0.14292574077E+04  0.14181003928E+04 0.  0.
        1    1    3    3  502    0 -0.17633566969E+03 -0.54639038402E+03  0.50846285367E+03  0.76692319938E+03  0.50400001928E-02 0. -1.
       -1    1    3    3    0  502  0.17633566969E+03  0.54639038402E+03 -0.33022701778E+03  0.66233420828E+03  0.50400001928E-02 0.  1.
</event>
<event>
 5   0  0.2172901E-03  0.9364965E+03  0.7818609E-02  0.9381075E-01
        2   -1    0    0  501    0  0.00000000000E+00  0.00000000000E+00  0.91365027081E+03  0.91365027081E+03  0.25500000920E-02 0.  1.
       -2   -1    0    0    0  501  0.00000000000E+00  0.00000000000E+00 -0.23997848579E+03  0.23997848581E+03  0.25500000920E-02 0. -1.
    10030    2    1    2    0    0  0.00000000000E+00  0.00000000000E+00  0.67367178502E+03  0.11536287566E+04  0.93649646778E+03 0.  0.
        2    1    3    3  502    0 -0.22701108578E+03  0.11165133451E+03 -0.14854717552E+03  0.29337061360E+03  0.25500000920E-02 0. -1.
       -2    1    3    3    0  502  0.22701108578E+03 -0.11165133451E+03  0.82221896053E+03  0.86025814302E+03  0.25500000920E-02 0.  1.
</event>
<event>
 5   0  0.1210275E-03  0.1431190E+04  0.7818609E-02  0.8931546E-01
        1   -1    0    0  501    0  0.00000000000E+00  0.00000000000E+00  0.20820314085E+04  0.20820314085E+04  0.50400001928E-02 0. -1.
       -1   -1    0    0    0  501  0.00000000000E+00  0.00000000000E+00 -0.24595025430E+03  0.24595025435E+03  0.50400001928E-02 0.  1.
    10030    2    1    2    0    0  0.00000000000E+00  0.00000000000E+00  0.18360811542E+04  0.23279816629E+04  0.14311899307E+04 0.  0.
        1    1    3    3  502    0  0.28727538854E+03 -0.44339473568E+03  0.13296087923E+03  0.54479779361E+03  0.50400001928E-02 0.  1.
       -1    1    3    3    0  502 -0.28727538854E+03  0.44339473568E+03  0.17031202750E+04  0.17831838693E+04  0.50400001928E-02 0. -1.
</event>
<event>
 5   0  0.1199720E-03  0.1098739E+04  0.7818609E-02  0.9206422E-01
       -1   -1    0    0    0  501  0.00000000000E+00  0.00000000000E+00  0.23379384664E+03  0.23379384670E+03  0.50400001928E-02 0. -1.
        1   -1    0    0  501    0  0.00000000000E+00  0.00000000000E+00 -0.12909107023E+04  0.12909107023E+04  0.50400001928E-02 0.  1.
    10030    2    1    2    0    0  0.00000000000E+00  0.00000000000E+00 -0.10571168557E+04  0.15247045490E+04  0.10987392390E+04 0.  0.
        5    1    3    3  502    0 -0.12497418911E+03  0.96114893355E+02 -0.12588137087E+04  0.12686570316E+04  0.46999998093E+01 0.  1.
       -5    1    3    3    0  502  0.12497418911E+03 -0.96114893355E+02  0.20169685301E+03  0.25604751742E+03  0.46999998093E+01 0. -1.
</event>
<event>
 5   0  0.2195980E-03  0.1440457E+04  0.7818609E-02  0.8925043E-01
        2   -1    0    0  501    0  0.00000000000E+00  0.00000000000E+00  0.73547385091E+03  0.73547385091E+03  0.25500000920E-02 0. -1.
       -2   -1    0    0    0  501  0.00000000000E+00  0.00000000000E+00 -0.70529920936E+03  0.70529920936E+03  0.25500000920E-02 0.  1.
    10030    2    1    2    0    0  0.00000000000E+00  0.00000000000E+00  0.30174641550E+02  0.14407730603E+04  0.14404570463E+04 0.  0.
        4    1    3    3  502    0 -0.41847413824E+03 -0.52868261583E+03 -0.23815116144E+03  0.71508286321E+03  0.12699999809E+01 0.  1.
       -4    1    3    3    0  502  0.41847413824E+03  0.52868261583E+03  0.26832580299E+03  0.72569019706E+03  0.12699999809E+01 0. -1.
</event>
<event>
 5   0  0.1210275E-03  0.1405980E+04  0.7818609E-02  0.8949501E-01
        1   -1    0    0  501    0  0.00000000000E+00  0.00000000000E+00  0.21167373225E+04  0.21167373225E+04  0.50400001928E-02 0.  1.
       -1   -1    0    0    0  501  0.00000000000E+00  0.00000000000E+00 -0.23347016696E+03  0.23347016702E+03  0.50400001928E-02 0. -1.
    10030    2    1    2    0    0  0.00000000000E+00  0.00000000000E+00  0.18832671555E+04  0.23502074895E+04  0.14059801082E+04 0.  0.
        1    1    3    3  502    0 -0.59178211494E+02  0.10670563846E+03 -0.21563417840E+03  0.24776249295E+03  0.50400001928E-02 0. -1.
       -1    1    3    3    0  502  0.59178211494E+02 -0.10670563846E+03  0.20989013339E+04  0.21024449966E+04  0.50400001928E-02 0.  1.
</event>
<event>
 5   0  0.8293000E-04  0.1334921E+04  0.7818609E-02  0.9002322E-01
       -3   -1    0    0    0  501  0.00000000000E+00  0.00000000000E+00  0.40873728165E+03  0.40873729413E+03  0.10100000352E+00 0. -1.
        3   -1    0    0  501    0  0.00000000000E+00  0.00000000000E+00 -0.10899506074E+04  0.10899506121E+04  0.10100000352E+00 0.  1.
    10030    2    1    2    0    0  0.00000000000E+00  0.00000000000E+00 -0.68121332576E+03  0.14986879062E+04  0.13349209134E+04 0.  0.
        2    1    3    3  502    0  0.28980258655E+02 -0.16597388065E+03 -0.10656838386E+04  0.10789203995E+04  0.25500000920E-02 0.  1.
       -2    1    3    3    0  502 -0.28980258655E+02  0.16597388065E+03  0.38447051287E+03  0.41976750675E+03  0.25500000920E-02 0. -1.
</event>
<event>
 5   0  0.1210275E-03  0.1364161E+04  0.7818609E-02  0.8980177E-01
        1   -1    0    0  501    0  0.00000000000E+00  0.00000000000E+00  0.10220841032E+04  0.10220841032E+04  0.50400001928E-02 0.  1.
       -1   -1    0    0    0  501  0.00000000000E+00  0.00000000000E+00 -0.45518167251E+03  0.45518167254E+03  0.50400001928E-02 0. -1.
    10030    2    1    2    0    0  0.00000000000E+00  0.00000000000E+00  0.56690243064E+03  0.14772657757E+04  0.13641612098E+04 0.  0.
        1    1    3    3  502    0  0.67050035901E+03  0.12215359075E+03  0.25395861668E+03  0.72731506940E+03  0.50400001928E-02 0. -1.
       -1    1    3    3    0  502 -0.67050035901E+03 -0.12215359075E+03  0.31294381397E+03  0.74995070631E+03  0.50400001928E-02 0.  1.
</event>
<event>
 5   0  0.1238683E-03  0.1392031E+04  0.7818609E-02  0.8959607E-01
       -1   -1    0    0    0  501  0.00000000000E+00  0.00000000000E+00  0.60786301948E+03  0.60786301950E+03  0.50400001928E-02 0. -1.
        1   -1    0    0  501    0  0.00000000000E+00  0.00000000000E+00 -0.79695192715E+03  0.79695192716E+03  0.50400001928E-02 0.  1.
    10030    2    1    2    0    0  0.00000000000E+00  0.00000000000E+00 -0.18908890767E+03  0.14048149467E+04  0.13920310411E+04 0.  0.
        2    1    3    3  502    0  0.68812032487E+03  0.54477103283E+02 -0.45047496924E+01  0.69028807686E+03  0.25500000920E-02 0. -1.
       -2    1    3    3    0  502 -0.68812032487E+03 -0.54477103283E+02 -0.18458415797E+03  0.71452686980E+03  0.25500000920E-02 0.  1.
</event>
<event>
 5   0  0.1225690E-03  0.1379135E+04  0.7818609E-02  0.8969062E-01
        1   -1    0    0  501    0  0.00000000000E+00  0.00000000000E+00  0.18422357817E+04  0.18422357817E+04  0.50400001928E-02 0.  1.
       -1   -1    0    0    0  501  0.00000000000E+00  0.00000000000E+00 -0.25811199605E+03  0.25811199610E+03  0.50400001928E-02 0. -1.
    10030    2    1    2    0    0  0.00000000000E+00  0.00000000000E+00  0.15841237857E+04  0.21003477778E+04  0.13791347358E+04 0.  0.
        4    1    3    3  502    0  0.46754286992E+03  0.49116764111E+03  0.98264053312E+03  0.11939120642E+04  0.12699999809E+01 0. -1.
       -4    1    3    3    0  502 -0.46754286992E+03 -0.49116764111E+03  0.60148325256E+03  0.90643571361E+03  0.12699999809E+01 0.  1.
</event>
<event>
 5   0  0.1199720E-03  0.1417061E+04  0.7818609E-02  0.8941561E-01
        1   -1    0    0  501    0  0.00000000000E+00  0.00000000000E+00  0.11181348873E+04  0.11181348873E+04  0.50400001928E-02 0. -1.
       -1   -1    0    0    0  501  0.00000000000E+00  0.00000000000E+00 -0.44897580292E+03  0.44897580295E+03  0.50400001928E-02 0.  1.
    10030    2    1    2    0    0  0.00000000000E+00  0.00000000000E+00  0.66915908435E+03  0.15671106902E+04  0.14170610556E+04 0.  0.
        5    1    3    3  502    0 -0.70601466234E+03 -0.57980745107E+02  0.31995216946E+03  0.77730943065E+03  0.46999998093E+01 0. -1.
       -5    1    3    3    0  502  0.70601466234E+03  0.57980745107E+02  0.34920691489E+03  0.78980125959E+03  0.46999998093E+01 0.  1.
</event>
<event>
 5   0  0.2083966E-03  0.1380610E+04  0.7818609E-02  0.8967975E-01
        2   -1    0    0  501    0  0.00000000000E+00  0.00000000000E+00  0.17935325433E+04  0.17935325433E+04  0.25500000920E-02 0.  1.
       -2   -1    0    0    0  501  0.00000000000E+00  0.00000000000E+00 -0.26568852000E+03  0.26568852001E+03  0.25500000920E-02 0. -1.
    10030    2    1    2    0    0  0.00000000000E+00  0.00000000000E+00  0.15278440233E+04  0.20592210633E+04  0.13806100203E+04 0.  0.
        1    1    3    3  502    0 -0.23770141318E+03 -0.63047654895E+03  0.54010123870E+03  0.86354617055E+03  0.50400001928E-02 0. -1.
       -1    1    3    3    0  502  0.23770141318E+03  0.63047654895E+03  0.98774278462E+03  0.11956748928E+04  0.50400001928E-02 0.  1.
</event>
<event>
 5   0  0.1238683E-03  0.1410713E+04  0.7818609E-02  0.8946100E-01
       -1   -1    0    0    0  501  0.00000000000E+00  0.00000000000E+00  0.38887280840E+03  0.38887280843E+03  0.50400001928E-02 0. -1.
        1   -1    0    0  501    0  0.00000000000E+00  0.00000000000E+00 -0.12794107527E+04  0.12794107527E+04  0.50400001928E-02 0.  1.
    10030    2    1    2    0    0  0.00000000000E+00  0.00000000000E+00 -0.89053794426E+03  0.16682835611E+04  0.14107133692E+04 0.  0.
        2    1    3    3  502    0  0.90098062144E+02 -0.38039523247E+03 -0.11395861986E+04  0.12047717202E+04  0.25500000920E-02 0.  1.
       -2    1    3    3    0  502 -0.90098062144E+02  0.38039523247E+03  0.24904825433E+03  0.46351184093E+03  0.25500000920E-02 0. -1.
</event>
<event>
 5   0  0.2236184E-03  0.1390484E+04  0.7818609E-02  0.8960736E-01
       -2   -1    0    0    0  501  0.00000000000E+00  0.00000000000E+00  0.25090159765E+03  0.25090159766E+03  0.25500000920E-02 0.  1.
        2   -1    0    0  501    0  0.00000000000E+00  0.00000000000E+00 -0.19264977617E+04  0.19264977617E+04  0.25500000920E-02 0. -1.
    10030    2    1    2    0    0  0.00000000000E+00  0.00000000000E+00 -0.16755961641E+04  0.21773993594E+04  0.13904838961E+04 0.  0.
        3    1    3    3  502    0  0.34311651758E+03 -0.10421858084E+03 -0.17705069835E+04  0.18064565996E+04  0.10100000352E+00 0. -1.
       -3    1    3    3    0  502 -0.34311651758E+03  0.10421858084E+03  0.94910819428E+02  0.37094275983E+03  0.10100000352E+00 0.  1.
</event>
<event>
 5   0  0.1225690E-03  0.1385073E+04  0.7818609E-02  0.8964695E-01
        1   -1    0    0  501    0  0.00000000000E+00  0.00000000000E+00  0.70350727452E+03  0.70350727454E+03  0.50400001928E-02 0. -1.
       -1   -1    0    0    0  501  0.00000000000E+00  0.00000000000E+00 -0.68173707462E+03  0.68173707464E+03  0.50400001928E-02 0.  1.
    10030    2    1    2    0    0  0.00000000000E+00  0.00000000000E+00  0.21770199907E+02  0.13852443492E+04  0.13850732707E+04 0.  0.
        4    1    3    3  502    0  0.75877211840E+02 -0.25615064331E+03  0.64989662429E+03  0.70266474119E+03  0.12699999809E+01 0. -1.
       -4    1    3    3    0  502 -0.75877211840E+02  0.25615064331E+03 -0.62812642438E+03  0.68257960799E+03  0.12699999809E+01 0.  1.
</event>
<event>
 5   0  0.2083966E-03  0.1398749E+04  0.7818609E-02  0.8954725E-01
        2   -1    0    0  501    0  0.00000000000E+00  0.00000000000E+00  0.72150596799E+03  0.72150596799E+03  0.25500000920E-02 0. -1.
       -2   -1    0    0    0  501  0.00000000000E+00  0.00000000000E+00 -0.67792160181E+03  0.67792160182E+03  0.25500000920E-02 0.  1.
    10030    2    1    2    0    0  0.00000000000E+00  0.00000000000E+00  0.43584366175E+02  0.13994275698E+04  0.13987487002E+04 0.  0.
        1    1    3    3  502    0  0.91046140125E+01 -0.46997614638E+03  0.53988906046E+03  0.71584961394E+03  0.50400001928E-02 0. -1.
       -1    1    3    3    0  502 -0.91046140125E+01  0.46997614638E+03 -0.49630469428E+03  0.68357795587E+03  0.50400001928E-02 0.  1.
</event>
<event>
 5   0  0.1175374E-03  0.1397718E+04  0.7818609E-02  0.8955472E-01
        1   -1    0    0  501    0  0.00000000000E+00  0.00000000000E+00  0.13248252868E+04  0.13248252868E+04  0.50400001928E-02 0.  1.
       -1   -1    0    0    0  501  0.00000000000E+00  0.00000000000E+00 -0.36865553473E+03  0.36865553477E+03  0.50400001928E-02 0. -1.
    10030    2    1    2    0    0  0.00000000000E+00  0.00000000000E+00  0.95616975203E+03  0.16934808215E+04  0.13977183902E+04 0.  0.
        3    1    3    3  502    0 -0.43960047371E+03  0.29873321356E+02  0.11353317963E+04  0.12178338515E+04  0.10100000352E+00 0.  1.
       -3    1    3    3    0  502  0.43960047371E+03 -0.29873321356E+02 -0.17916204430E+03  0.47564697007E+03  0.10100000352E+00 0. -1.
</event>
<event>
 5   0  0.2195980E-03  0.1401452E+04  0.7818609E-02  0.8952768E-01
       -2   -1    0    0    0  501  0.00000000000E+00  0.00000000000E+00  0.41670185450E+03  0.41670185451E+03  0.25500000920E-02 0. -1.
        2   -1    0    0  501    0  0.00000000000E+00  0.00000000000E+00 -0.11783409999E+04  0.11783409999E+04  0.25500000920E-02 0.  1.
    10030    2    1    2    0    0  0.00000000000E+00  0.00000000000E+00 -0.76163914544E+03  0.15950428545E+04  0.14014519327E+04 0.  0.
        4    1    3    3  502    0 -0.56862571490E+03  0.35045780843E+03 -0.13976197698E+03  0.68241549091E+03  0.12699999809E+01 0. -1.
       -4    1    3    3    0  502  0.56862571490E+03 -0.35045780843E+03 -0.62187716846E+03  0.91262736354E+03  0.12699999809E+01 0.  1.
</event>
<event>
 5   0  0.8293000E-04  0.1406530E+04  0.7818609E-02  0.8949105E-01
       -3   -1    0    0    0  501  0.00000000000E+00  0.00000000000E+00  0.48121366980E+03  0.48121368040E+03  0.10100000352E+00 0. -1.
        3   -1    0    0  501    0  0.00000000000E+00  0.00000000000E+00 -0.10277800897E+04  0.10277800947E+04  0.10100000352E+00 0.  1.
    10030    2    1    2    0    0  0.00000000000E+00  0.00000000000E+00 -0.54656641994E+03  0.15089937751E+04  0.14065302563E+04 0.  0.
        3    1    3    3  502    0  0.39978005215E+03 -0.28458609531E+03 -0.81373532530E+03  0.95025182220E+03  0.10100000352E+00 0.  1.
       -3    1    3    3    0  502 -0.39978005215E+03  0.28458609531E+03  0.26716890536E+03  0.55874195291E+03  0.10100000352E+00 0. -1.
</event>
<event>
 5   0  0.2195980E-03  0.1422901E+04  0.7818609E-02  0.8937407E-01
        2   -1    0    0  501    0  0.00000000000E+00  0.00000000000E+00  0.17717900151E+04  0.17717900151E+04  0.25500000920E-02 0.  1.
       -2   -1    0    0    0  501  0.00000000000E+00  0.00000000000E+00 -0.28567815573E+03  0.28567815574E+03  0.25500000920E-02 0. -1.
    10030    2    1    2    0    0  0.00000000000E+00  0.00000000000E+00  0.14861118594E+04  0.20574681708E+04  0.14229008453E+04 0.  0.
        4    1    3    3  502    0  0.41000572206E+03  0.25457892405E+03  0.14989041176E+04  0.15746841866E+04  0.12699999809E+01 0.  1.
       -4    1    3    3    0  502 -0.41000572206E+03 -0.25457892405E+03 -0.12792258267E+02  0.48278398427E+03  0.12699999809E+01 0. -1.
</event>
<event>
 5   0  0.2190704E-03  0.1498841E+04  0.7818609E-02  0.8885224E-01
        2   -1    0    0  501    0  0.00000000000E+00  0.00000000000E+00  0.42899747890E+03  0.42899747890E+03  0.25500000920E-02 0.  1.
       -2   -1    0    0    0  501  0.00000000000E+00  0.00000000000E+00 -0.13091717707E+04  0.13091717707E+04  0.25500000920E-02 0. -1.
    10030    2    1    2    0    0  0.00000000000E+00  0.00000000000E+00 -0.88017429184E+03  0.17381692496E+04  0.14988414047E+04 0.  0.
        5    1    3    3  502    0  0.69944242159E+03  0.75255477669E+02 -0.14052660016E+03  0.71739313029E+03  0.46999998093E+01 0.  1.
       -5    1    3    3    0  502 -0.69944242159E+03 -0.75255477669E+02 -0.73964769167E+03  0.10207761193E+04  0.46999998093E+01 0. -1.
</event>
<event>
 5   0  0.2172901E-03  0.1413305E+04  0.7818609E-02  0.8944244E-01
        2   -1    0    0  501    0  0.00000000000E+00  0.00000000000E+00  0.20857519355E+04  0.20857519355E+04  0.25500000920E-02 0. -1.
       -2   -1    0    0    0  501  0.00000000000E+00  0.00000000000E+00 -0.23941366799E+03  0.23941366800E+03  0.25500000920E-02 0.  1.
    10030    2    1    2    0    0  0.00000000000E+00  0.00000000000E+00  0.18463382675E+04  0.23251656035E+04  0.14133046684E+04 0.  0.
        2    1    3    3  502    0 -0.53350767001E+03 -0.35210557107E+03  0.42756099196E+03  0.76903651993E+03  0.25500000920E-02 0.  1.
       -2    1    3    3    0  502  0.53350767001E+03  0.35210557107E+03  0.14187772756E+04  0.15561290836E+04  0.25500000920E-02 0. -1.
</event>
<event>
 5   0  0.2236184E-03  0.1369722E+04  0.7818609E-02  0.8976032E-01
        2   -1    0    0  501    0  0.00000000000E+00  0.00000000000E+00  0.80284904982E+03  0.80284904982E+03  0.25500000920E-02 0.  1.
       -2   -1    0    0    0  501  0.00000000000E+00  0.00000000000E+00 -0.58421250403E+03  0.58421250404E+03  0.25500000920E-02 0. -1.
    10030    2    1    2    0    0  0.00000000000E+00  0.00000000000E+00  0.21863654578E+03  0.13870615539E+04  0.13697218021E+04 0.  0.
        3    1    3    3  502    0  0.42152037123E+03 -0.27485099598E+03  0.57975488139E+03  0.76768367577E+03  0.10100000352E+00 0.  1.
       -3    1    3    3    0  502 -0.42152037123E+03  0.27485099598E+03 -0.36111833561E+03  0.61937787809E+03  0.10100000352E+00 0. -1.
</event>
<event>
 5   0  0.2236184E-03  0.1272508E+04  0.7818609E-02  0.9051655E-01
       -2   -1    0    0    0  501  0.00000000000E+00  0.00000000000E+00  0.42782933950E+03  0.42782933950E+03  0.25500000920E-02 0. -1.
        2   -1    0    0  501    0  0.00000000000E+00  0.00000000000E+00 -0.94621699176E+03  0.94621699176E+03  0.25500000920E-02 0.  1.
    10030    2    1    2    0    0  0.00000000000E+00  0.00000000000E+00 -0.51838765226E+03  0.13740463313E+04  0.12725083742E+04 0.  0.
        3    1    3    3  502    0 -0.55677474411E+03 -0.11754167738E+03 -0.56651835715E+03  0.80296775825E+03  0.10100000352E+00 0.  1.
       -3    1    3    3    0  502  0.55677474411E+03  0.11754167738E+03  0.48130704886E+02  0.57107857301E+03  0.10100000352E+00 0. -1.
</event>
<event>
 5   0  0.2172901E-03  0.1398417E+04  0.7818609E-02  0.8954965E-01
       -2   -1    0    0    0  501  0.00000000000E+00  0.00000000000E+00  0.32028910833E+03  0.32028910834E+03  0.25500000920E-02 0. -1.
        2   -1    0    0  501    0  0.00000000000E+00  0.00000000000E+00 -0.15264105232E+04  0.15264105232E+04  0.25500000920E-02 0.  1.
    10030    2    1    2    0    0  0.00000000000E+00  0.00000000000E+00 -0.12061214148E+04  0.18466996315E+04  0.13984171987E+04 0.  0.
        2    1    3    3  502    0 -0.26837885588E+03  0.27962657546E+03 -0.13715728122E+04  0.14252825022E+04  0.25500000920E-02 0.  1.
       -2    1    3    3    0  502  0.26837885588E+03 -0.27962657546E+03  0.16545139734E+03  0.42141712931E+03  0.25500000920E-02 0. -1.
</event>
<event>
 5   0  0.8293000E-04  0.1401493E+04  0.7818609E-02  0.8952739E-01
       -3   -1    0    0    0  501  0.00000000000E+00  0.00000000000E+00  0.38372886231E+03  0.38372887560E+03  0.10100000352E+00 0.  1.
        3   -1    0    0  501    0  0.00000000000E+00  0.00000000000E+00 -0.12796678605E+04  0.12796678645E+04  0.10100000352E+00 0. -1.
    10030    2    1    2    0    0  0.00000000000E+00  0.00000000000E+00 -0.89593899815E+03  0.16633967401E+04  0.14014927850E+04 0.  0.
        4    1    3    3  502    0 -0.10652837743E+03 -0.20696045201E+03 -0.12324417693E+04  0.12542309402E+04  0.12699999809E+01 0. -1.
       -4    1    3    3    0  502  0.10652837743E+03  0.20696045201E+03  0.33650277111E+03  0.40916579984E+03  0.12699999809E+01 0.  1.
</event>
<event>
 5   0  0.2190704E-03  0.1371604E+04  0.7818609E-02  0.8974634E-01
        2   -1    0    0  501    0  0.00000000000E+00  0.00000000000E+00  0.10809088847E+04  0.10809088847E+04  0.25500000920E-02 0.  1.
       -2   -1    0    0    0  501  0.00000000000E+00  0.00000000000E+00 -0.43511913066E+03  0.43511913067E+03  0.25500000920E-02 0. -1.
    10030    2    1    2    0    0  0.00000000000E+00  0.00000000000E+00  0.64578975406E+03  0.15160280154E+04  0.13716036370E+04 0.  0.
        5    1    3    3  502    0 -0.30186974829E+03 -0.61392554701E+03  0.27020897416E+03  0.73557113994E+03  0.46999998093E+01 0. -1.
       -5    1    3    3    0  502  0.30186974829E+03  0.61392554701E+03  0.37558077990E+03  0.78045687544E+03  0.46999998093E+01 0.  1.
</event>
<event>
 5   0  0.2236184E-03  0.1334103E+04  0.7818609E-02  0.9002950E-01
       -2   -1    0    0    0  501  0.00000000000E+00  0.00000000000E+00  0.26151265144E+03  0.26151265145E+03  0.25500000920E-02 0.  1.
        2   -1    0    0  501    0  0.00000000000E+00  0.00000000000E+00 -0.17014775298E+04  0.17014775298E+04  0.25500000920E-02 0. -1.
    10030    2    1    2    0    0  0.00000000000E+00  0.00000000000E+00 -0.14399648784E+04  0.19629901813E+04  0.13341032946E+04 0.  0.
        3    1    3    3  502    0  0.41195867148E+02  0.34382637364E+03 -0.15588625377E+04  0.15968613265E+04  0.10100000352E+00 0. -1.
       -3    1    3    3    0  502 -0.41195867148E+02 -0.34382637364E+03  0.11889765928E+03  0.36612885472E+03  0.10100000352E+00 0.  1.
</event>
<event>
 5   0  0.1225690E-03  0.1392686E+04  0.7818609E-02  0.8959130E-01
       -1   -1    0    0    0  501  0.00000000000E+00  0.00000000000E+00  0.51311777458E+03  0.51311777461E+03  0.50400001928E-02 0.  1.
        1   -1    0    0  501    0  0.00000000000E+00  0.00000000000E+00 -0.94499443622E+03  0.94499443624E+03  0.50400001928E-02 0. -1.
    10030    2    1    2    0    0  0.00000000000E+00  0.00000000000E+00 -0.43187666164E+03  0.14581122108E+04  0.13926858111E+04 0.  0.
        4    1    3    3  502    0 -0.42900587596E+03 -0.20905312011E+03 -0.74685308547E+03  0.88630716618E+03  0.12699999809E+01 0. -1.
       -4    1    3    3    0  502  0.42900587596E+03  0.20905312011E+03  0.31497642383E+03  0.57180504467E+03  0.12699999809E+01 0.  1.
</event>
<event>
 5   0  0.2083966E-03  0.1604789E+04  0.7818609E-02  0.8817611E-01
       -2   -1    0    0    0  501  0.00000000000E+00  0.00000000000E+00  0.74559515983E+03  0.74559515983E+03  0.25500000920E-02 0.  1.
        2   -1    0    0  501    0  0.00000000000E+00  0.00000000000E+00 -0.86352090470E+03  0.86352090470E+03  0.25500000920E-02 0. -1.
    10030    2    1    2    0    0  0.00000000000E+00  0.00000000000E+00 -0.11792574487E+03  0.16091160645E+04  0.16047890914E+04 0.  0.
        1    1    3    3  502    0 -0.33458910155E+02 -0.49665759097E+03 -0.68998374975E+03  0.85080305376E+03  0.50400001928E-02 0. -1.
       -1    1    3    3    0  502  0.33458910155E+02  0.49665759097E+03  0.57205800488E+03  0.75831301078E+03  0.50400001928E-02 0.  1.
</event>
<event>
 5   0  0.2172901E-03  0.1163300E+04  0.7818609E-02  0.9145600E-01
       -2   -1    0    0    0  501  0.00000000000E+00  0.00000000000E+00  0.54757460316E+03  0.54757460317E+03  0.25500000920E-02 0. -1.
        2   -1    0    0  501    0  0.00000000000E+00  0.00000000000E+00 -0.61784619991E+03  0.61784619991E+03  0.25500000920E-02 0.  1.
    10030    2    1    2    0    0  0.00000000000E+00  0.00000000000E+00 -0.70271596742E+02  0.11654208031E+04  0.11633002841E+04 0.  0.
        2    1    3    3  502    0 -0.18176812594E+03  0.41916494787E+03  0.32548978995E+03  0.56096569280E+03  0.25500000920E-02 0. -1.
       -2    1    3    3    0  502  0.18176812594E+03 -0.41916494787E+03 -0.39576138670E+03  0.60445511028E+03  0.25500000920E-02 0.  1.
</event>
<event>
 5   0  0.1238683E-03  0.9441237E+03  0.7818609E-02  0.9372046E-01
       -1   -1    0    0    0  501  0.00000000000E+00  0.00000000000E+00  0.93380766621E+03  0.93380766622E+03  0.50400001928E-02 0.  1.
        1   -1    0    0  501    0  0.00000000000E+00  0.00000000000E+00 -0.23863842194E+03  0.23863842199E+03  0.50400001928E-02 0. -1.
    10030    2    1    2    0    0  0.00000000000E+00  0.00000000000E+00  0.69516924427E+03  0.11724460882E+04  0.94412369506E+03 0.  0.
        2    1    3    3  502    0  0.94992459477E+02 -0.45859999585E+03  0.42110362205E+03  0.62981408690E+03  0.25500000920E-02 0.  1.
       -2    1    3    3    0  502 -0.94992459477E+02  0.45859999585E+03  0.27406562222E+03  0.54263200131E+03  0.25500000920E-02 0. -1.
</event>
<event>
 5   0  0.2190704E-03  0.1412877E+04  0.7818609E-02  0.8944550E-01
       -2   -1    0    0    0  501  0.00000000000E+00  0.00000000000E+00  0.16184339135E+03  0.16184339137E+03  0.25500000920E-02 0.  1.
        2   -1    0    0  501    0  0.00000000000E+00  0.00000000000E+00 -0.30835680050E+04  0.30835680050E+04  0.25500000920E-02 0. -1.
    10030    2    1    2    0    0  0.00000000000E+00  0.00000000000E+00 -0.29217246136E+04  0.32454113964E+04  0.14128766449E+04 0.  0.
        5    1    3    3  502    0  0.17912423291E+03 -0.43102798970E+03 -0.26788534421E+04  0.27192183570E+04  0.46999998093E+01 0. -1.
       -5    1    3    3    0  502 -0.17912423291E+03  0.43102798970E+03 -0.24287117155E+03  0.52619303938E+03  0.46999998093E+01 0.  1.
</event>
<event>
 5   0  0.1175374E-03  0.1417124E+04  0.7818609E-02  0.8941515E-01
        1   -1    0    0  501    0  0.00000000000E+00  0.00000000000E+00  0.65474290862E+03  0.65474290864E+03  0.50400001928E-02 0.  1.
       -1   -1    0    0    0  501  0.00000000000E+00  0.00000000000E+00 -0.76680537759E+03  0.76680537760E+03  0.50400001928E-02 0. -1.
    10030    2    1    2    0    0  0.00000000000E+00  0.00000000000E+00 -0.11206246896E+03  0.14215482862E+04  0.14171243887E+04 0.  0.
        3    1    3    3  502    0 -0.29936133116E+02  0.65947982446E+03 -0.31422659111E+03  0.73112801321E+03  0.10100000352E+00 0. -1.
       -3    1    3    3    0  502  0.29936133116E+02 -0.65947982446E+03  0.20216412214E+03  0.69042027304E+03  0.10100000352E+00 0.  1.
</event>
<event>
 5   0  0.1175374E-03  0.1409396E+04  0.7818609E-02  0.8947045E-01
       -1   -1    0    0    0  501  0.00000000000E+00  0.00000000000E+00  0.33673580372E+03  0.33673580376E+03  0.50400001928E-02 0.  1.
        1   -1    0    0  501    0  0.00000000000E+00  0.00000000000E+00 -0.14747446809E+04  0.14747446809E+04  0.50400001928E-02 0. -1.
    10030    2    1    2    0    0  0.00000000000E+00  0.00000000000E+00 -0.11380088771E+04  0.18114804846E+04  0.14093960912E+04 0.  0.
        3    1    3    3  502    0  0.26893867140E+03  0.42078856317E+03 -0.12080504407E+04  0.13072019359E+04  0.10100000352E+00 0. -1.
       -3    1    3    3    0  502 -0.26893867140E+03 -0.42078856317E+03  0.70041563530E+02  0.50427854871E+03  0.10100000352E+00 0.  1.
</event>
<event>
 5   0  0.1225690E-03  0.1422661E+04  0.7818609E-02  0.8937576E-01
       -1   -1    0    0    0  501  0.00000000000E+00  0.00000000000E+00  0.39339530910E+03  0.39339530913E+03  0.50400001928E-02 0. -1.
        1   -1    0    0  501    0  0.00000000000E+00  0.00000000000E+00 -0.12862160615E+04  0.12862160615E+04  0.50400001928E-02 0.  1.
    10030    2    1    2    0    0  0.00000000000E+00  0.00000000000E+00 -0.89282075240E+03  0.16796113706E+04  0.14226614005E+04 0.  0.
        4    1    3    3  502    0  0.55053001570E+03 -0.43725377709E+03 -0.57419815200E+03  0.90773305241E+03  0.12699999809E+01 0.  1.
       -4    1    3    3    0  502 -0.55053001570E+03  0.43725377709E+03 -0.31862260040E+03  0.77187831823E+03  0.12699999809E+01 0. -1.
</event>
<event>
 5   0  0.2195980E-03  0.1370881E+04  0.7818609E-02  0.8975171E-01
       -2   -1    0    0    0  501  0.00000000000E+00  0.00000000000E+00  0.32864223962E+03  0.32864223963E+03  0.25500000920E-02 0. -1.
        2   -1    0    0  501    0  0.00000000000E+00  0.00000000000E+00 -0.14296045223E+04  0.14296045223E+04  0.25500000920E-02 0.  1.
    10030    2    1    2    0    0  0.00000000000E+00  0.00000000000E+00 -0.11009622827E+04  0.17582467619E+04  0.13708806396E+04 0.  0.
        4    1    3    3  502    0  0.52747371806E+03 -0.94693279240E+00  0.10922193254E+02  0.52758916510E+03  0.12699999809E+01 0. -1.
       -4    1    3    3    0  502 -0.52747371806E+03  0.94693279240E+00 -0.11118844759E+04  0.12306575968E+04  0.12699999809E+01 0.  1.
</event>
<event>
 5   0  0.2172901E-03  0.1326810E+04  0.7818609E-02  0.9008570E-01
       -2   -1    0    0    0  501  0.00000000000E+00  0.00000000000E+00  0.25480020770E+03  0.25480020771E+03  0.25500000920E-02 0. -1.
        2   -1    0    0  501    0  0.00000000000E+00  0.00000000000E+00 -0.17272611551E+04  0.17272611551E+04  0.25500000920E-02 0.  1.
    10030    2    1    2    0    0  0.00000000000E+00  0.00000000000E+00 -0.14724609474E+04  0.19820613629E+04  0.13268104629E+04 0.  0.
        2    1    3    3  502    0  0.17321426240E+03 -0.18853658152E+03 -0.16504854401E+04  0.16702249582E+04  0.25500000920E-02 0.  1.
       -2    1    3    3    0  502 -0.17321426240E+03  0.18853658152E+03  0.17802449261E+03  0.31183640462E+03  0.25500000920E-02 0. -1.
</event>
<event>
 5   0  0.2195980E-03  0.1376811E+04  0.7818609E-02  0.8970777E-01
        2   -1    0    0  501    0  0.00000000000E+00  0.00000000000E+00  0.11755890105E+04  0.11755890105E+04  0.25500000920E-02 0.  1.
       -2   -1    0    0    0  501  0.00000000000E+00  0.00000000000E+00 -0.40311900326E+03  0.40311900327E+03  0.25500000920E-02 0. -1.
    10030    2    1    2    0    0  0.00000000000E+00  0.00000000000E+00  0.77247000724E+03  0.15787080138E+04  0.13768112001E+04 0.  0.
        4    1    3    3  502    0 -0.65520322860E+03  0.14483487206E+03  0.56250562103E+03  0.87560413289E+03  0.12699999809E+01 0.  1.
       -4    1    3    3    0  502  0.65520322860E+03 -0.14483487206E+03  0.20996438621E+03  0.70310388088E+03  0.12699999809E+01 0. -1.
</event>
<event>
 5   0  0.2083966E-03  0.1048554E+04  0.7818609E-02  0.9256839E-01
        2   -1    0    0  501    0  0.00000000000E+00  0.00000000000E+00  0.29005643030E+03  0.29005643031E+03  0.25500000920E-02 0.  1.
       -2   -1    0    0    0  501  0.00000000000E+00  0.00000000000E+00 -0.94762990668E+03  0.94762990668E+03  0.25500000920E-02 0. -1.
    10030    2    1    2    0    0  0.00000000000E+00  0.00000000000E+00 -0.65757347638E+03  0.12376863370E+04  0.10485535713E+04 0.  0.
        1    1    3    3  502    0  0.43777021725E+03 -0.13735871779E+03 -0.29343586767E+02  0.45975126599E+03  0.50400001928E-02 0.  1.
       -1    1    3    3    0  502 -0.43777021725E+03  0.13735871779E+03 -0.62822988961E+03  0.77793507100E+03  0.50400001928E-02 0. -1.
</event>
<event>
 5   0  0.2236184E-03  0.1279430E+04  0.7818609E-02  0.9046038E-01
        2   -1    0    0  501    0  0.00000000000E+00  0.00000000000E+00  0.14779199854E+04  0.14779199854E+04  0.25500000920E-02 0.  1.
       -2   -1    0    0    0  501  0.00000000000E+00  0.00000000000E+00 -0.27689959528E+03  0.27689959529E+03  0.25500000920E-02 0. -1.
    10030    2    1    2    0    0  0.00000000000E+00  0.00000000000E+00  0.12010203901E+04  0.17548195807E+04  0.12794302573E+04 0.  0.
        3    1    3    3  502    0  0.61187391529E+03  0.11598266347E+03  0.80112339605E+03  0.10147119652E+04  0.10100000352E+00 0.  1.
       -3    1    3    3    0  502 -0.61187391529E+03 -0.11598266347E+03  0.39989699408E+03  0.74010761549E+03  0.10100000352E+00 0. -1.
</event>
<event>
 5   0  0.1210275E-03  0.1400020E+04  0.7818609E-02  0.8953804E-01
       -1   -1    0    0    0  501  0.00000000000E+00  0.00000000000E+00  0.89355867454E+03  0.89355867455E+03  0.50400001928E-02 0. -1.
        1   -1    0    0  501    0  0.00000000000E+00  0.00000000000E+00 -0.54838457362E+03  0.54838457364E+03  0.50400001928E-02 0.  1.
    10030    2    1    2    0    0  0.00000000000E+00  0.00000000000E+00  0.34517410092E+03  0.14419432482E+04  0.14000197038E+04 0.  0.
        1    1    3    3  502    0 -0.69184255670E+02  0.69658225299E+03  0.17331264702E+03  0.72114531827E+03  0.50400001928E-02 0.  1.
       -1    1    3    3    0  502  0.69184255670E+02 -0.69658225299E+03  0.17186145389E+03  0.72079792992E+03  0.50400001928E-02 0. -1.
</event>
<event>
 5   0  0.2172901E-03  0.1429755E+04  0.7818609E-02  0.8932558E-01
        2   -1    0    0  501    0  0.00000000000E+00  0.00000000000E+00  0.11567073625E+04  0.11567073625E+04  0.25500000920E-02 0.  1.
       -2   -1    0    0    0  501  0.00000000000E+00  0.00000000000E+00 -0.44181405121E+03  0.44181405121E+03  0.25500000920E-02 0. -1.
    10030    2    1    2    0    0  0.00000000000E+00  0.00000000000E+00  0.71489331131E+03  0.15985214137E+04  0.14297546166E+04 0.  0.
        2    1    3    3  502    0  0.44590042369E+03  0.54179815382E+03  0.20465060776E+03  0.73092701318E+03  0.25500000920E-02 0. -1.
       -2    1    3    3    0  502 -0.44590042369E+03 -0.54179815382E+03  0.51024270354E+03  0.86759440055E+03  0.25500000920E-02 0.  1.
</event>
<event>
 5   0  0.1238683E-03  0.1407007E+04  0.7818609E-02  0.8948762E-01
       -1   -1    0    0    0  501  0.00000000000E+00  0.00000000000E+00  0.67540412682E+03  0.67540412683E+03  0.50400001928E-02 0.  1.
        1   -1    0    0  501    0  0.00000000000E+00  0.00000000000E+00 -0.73277186767E+03  0.73277186769E+03  0.50400001928E-02 0. -1.
    10030    2    1    2    0    0  0.00000000000E+00  0.00000000000E+00 -0.57367740853E+02  0.14081759945E+04  0.14070069559E+04 0.  0.
        2    1    3    3  502    0 -0.60035173577E+02 -0.10141341519E+03  0.66545438361E+03  0.67580946984E+03  0.25500000920E-02 0.  1.
       -2    1    3    3    0  502  0.60035173577E+02  0.10141341519E+03 -0.72282212447E+03  0.73236652468E+03  0.25500000920E-02 0. -1.
</event>
<event>
 5   0  0.2172901E-03  0.1442473E+04  0.7818609E-02  0.8923635E-01
       -2   -1    0    0    0  501  0.00000000000E+00  0.00000000000E+00  0.61374911441E+03  0.61374911442E+03  0.25500000920E-02 0. -1.
        2   -1    0    0  501    0  0.00000000000E+00  0.00000000000E+00 -0.84754857724E+03  0.84754857725E+03  0.25500000920E-02 0.  1.
    10030    2    1    2    0    0  0.00000000000E+00  0.00000000000E+00 -0.23379946283E+03  0.14612976917E+04  0.14424731383E+04 0.  0.
        2    1    3    3  502    0 -0.31448890989E+03 -0.41405930682E+03  0.38945697307E+03  0.64963460336E+03  0.25500000920E-02 0. -1.
       -2    1    3    3    0  502  0.31448890989E+03  0.41405930682E+03 -0.62325643590E+03  0.81166308830E+03  0.25500000920E-02 0.  1.
</event>
<event>
 5   0  0.2195980E-03  0.1396924E+04  0.7818609E-02  0.8956048E-01
       -2   -1    0    0    0  501  0.00000000000E+00  0.00000000000E+00  0.52534816277E+03  0.52534816278E+03  0.25500000920E-02 0.  1.
        2   -1    0    0  501    0  0.00000000000E+00  0.00000000000E+00 -0.92862055374E+03  0.92862055374E+03  0.25500000920E-02 0. -1.
    10030    2    1    2    0    0  0.00000000000E+00  0.00000000000E+00 -0.40327239097E+03  0.14539687165E+04  0.13969239089E+04 0.  0.
        4    1    3    3  502    0 -0.11828403395E+03 -0.41529983472E+03 -0.77303755884E+03  0.88546809411E+03  0.12699999809E+01 0. -1.
       -4    1    3    3    0  502  0.11828403395E+03  0.41529983472E+03  0.36976516787E+03  0.56850062241E+03  0.12699999809E+01 0.  1.
</event>
<event>
 5   0  0.1210275E-03  0.1361174E+04  0.7818609E-02  0.8982412E-01
       -1   -1    0    0    0  501  0.00000000000E+00  0.00000000000E+00  0.87625968317E+03  0.87625968319E+03  0.50400001928E-02 0. -1.
        1   -1    0    0  501    0  0.00000000000E+00  0.00000000000E+00 -0.52860911354E+03  0.52860911356E+03  0.50400001928E-02 0.  1.
    10030    2    1    2    0    0  0.00000000000E+00  0.00000000000E+00  0.34765056964E+03  0.14048687967E+04  0.13611742789E+04 0.  0.
        1    1    3    3  502    0 -0.15525953927E+03  0.64447972521E+03  0.14804022406E+02  0.66308280014E+03  0.50400001928E-02 0.  1.
       -1    1    3    3    0  502  0.15525953927E+03 -0.64447972521E+03  0.33284654723E+03  0.74178599661E+03  0.50400001928E-02 0. -1.
</event>
<event>
 5   0  0.1175374E-03  0.1343222E+04  0.7818609E-02  0.8995975E-01
       -1   -1    0    0    0  501  0.00000000000E+00  0.00000000000E+00  0.33799317547E+03  0.33799317551E+03  0.50400001928E-02 0. -1.
        1   -1    0    0  501    0  0.00000000000E+00  0.00000000000E+00 -0.13345272828E+04  0.13345272828E+04  0.50400001928E-02 0.  1.
    10030    2    1    2    0    0  0.00000000000E+00  0.00000000000E+00 -0.99653410737E+03  0.16725204584E+04  0.13432216706E+04 0.  0.
        3    1    3    3  502    0 -0.51793396352E+02 -0.37465008176E+03 -0.11893183590E+04  0.12480077759E+04  0.10100000352E+00 0.  1.
       -3    1    3    3    0  502  0.51793396352E+02  0.37465008176E+03  0.19278425159E+03  0.42451268241E+03  0.10100000352E+00 0. -1.
</event>
<event>
 5   0  0.2236184E-03  0.1269781E+04  0.7818609E-02  0.9053879E-01
        2   -1    0    0  501    0  0.00000000000E+00  0.00000000000E+00  0.72515506149E+03  0.72515506150E+03  0.25500000920E-02 0. -1.
       -2   -1    0    0    0  501  0.00000000000E+00  0.00000000000E+00 -0.55586140315E+03  0.55586140316E+03  0.25500000920E-02 0.  1.
    10030    2    1    2    0    0  0.00000000000E+00  0.00000000000E+00  0.16929365834E+03  0.12810164647E+04  0.12697806267E+04 0.  0.
        3    1    3    3  502    0  0.61488863107E+03  0.91518287205E+01 -0.74591277793E+02  0.61946400501E+03  0.10100000352E+00 0.  1.
       -3    1    3    3    0  502 -0.61488863107E+03 -0.91518287205E+01  0.24388493613E+03  0.66155245964E+03  0.10100000352E+00 0. -1.
</event>
<event>
 5   0  0.1199720E-03  0.1150742E+04  0.7818609E-02  0.9157099E-01
       -1   -1    0    0    0  501  0.00000000000E+00  0.00000000000E+00  0.74024107648E+03  0.74024107649E+03  0.50400001928E-02 0.  1.
        1   -1    0    0  501    0  0.00000000000E+00  0.00000000000E+00 -0.44722151904E+03  0.44722151907E+03  0.50400001928E-02 0. -1.
    10030    2    1    2    0    0  0.00000000000E+00  0.00000000000E+00  0.29301955743E+03  0.11874625956E+04  0.11507419150E+04 0.  0.
        5    1    3    3  502    0 -0.19405309343E+03 -0.29229526777E+03 -0.32404197256E+03  0.47761743750E+03  0.46999998093E+01 0. -1.
       -5    1    3    3    0  502  0.19405309343E+03  0.29229526777E+03  0.61706152999E+03  0.70984515806E+03  0.46999998093E+01 0.  1.
</event>
<event>
 5   0  0.1225690E-03  0.1437881E+04  0.7818609E-02  0.8926845E-01
        1   -1    0    0  501    0  0.00000000000E+00  0.00000000000E+00  0.61142171888E+03  0.61142171890E+03  0.50400001928E-02 0. -1.
       -1   -1    0    0    0  501  0.00000000000E+00  0.00000000000E+00 -0.84536702027E+03  0.84536702029E+03  0.50400001928E-02 0.  1.
    10030    2    1    2    0    0  0.00000000000E+00  0.00000000000E+00 -0.23394530139E+03  0.14567887392E+04  0.14378814369E+04 0.  0.
        4    1    3    3  502    0 -0.10861105443E+03 -0.22022741098E+03 -0.80156309450E+03  0.83833255994E+03  0.12699999809E+01 0.  1.
       -4    1    3    3    0  502  0.10861105443E+03  0.22022741098E+03  0.56761779311E+03  0.61845617925E+03  0.12699999809E+01 0. -1.
</event>
<event>
 5   0  0.2195980E-03  0.1319415E+04  0.7818609E-02  0.9014309E-01
        2   -1    0    0  501    0  0.00000000000E+00  0.00000000000E+00  0.13962747411E+04  0.13962747411E+04  0.25500000920E-02 0.  1.
       -2   -1    0    0    0  501  0.00000000000E+00  0.00000000000E+00 -0.31169647148E+03  0.31169647149E+03  0.25500000920E-02 0. -1.
    10030    2    1    2    0    0  0.00000000000E+00  0.00000000000E+00  0.10845782696E+04  0.17079712126E+04  0.13194148855E+04 0.  0.
        4    1    3    3  502    0 -0.53986081151E+03 -0.25852182450E+03  0.90133042952E+03  0.10819803074E+04  0.12699999809E+01 0.  1.
       -4    1    3    3    0  502  0.53986081151E+03  0.25852182450E+03  0.18324784009E+03  0.62599090517E+03  0.12699999809E+01 0. -1.
</event>
<event>
 5   0  0.2083966E-03  0.1456763E+04  0.7818609E-02  0.8913725E-01
       -2   -1    0    0    0  501  0.00000000000E+00  0.00000000000E+00  0.65614870828E+03  0.65614870828E+03  0.25500000920E-02 0. -1.
        2   -1    0    0  501    0  0.00000000000E+00  0.00000000000E+00 -0.80856600822E+03  0.80856600823E+03  0.25500000920E-02 0.  1.
    10030    2    1    2    0    0  0.00000000000E+00  0.00000000000E+00 -0.15241729995E+03  0.14647147165E+04  0.14567629071E+04 0.  0.
        1    1    3    3  502    0  0.48516390913E+03  0.45595166054E+03 -0.37322526823E+03  0.76326472232E+03  0.50400001928E-02 0.  1.
       -1    1    3    3    0  502 -0.48516390913E+03 -0.45595166054E+03  0.22080796828E+03  0.70144999419E+03  0.50400001928E-02 0. -1.
</event>
<event>
 5   0  0.1238683E-03  0.1388353E+04  0.7818609E-02  0.8962293E-01
       -1   -1    0    0    0  501  0.00000000000E+00  0.00000000000E+00  0.58046847377E+03  0.58046847379E+03  0.50400001928E-02 0.  1.
        1   -1    0    0  501    0  0.00000000000E+00  0.00000000000E+00 -0.83015900024E+03  0.83015900025E+03  0.50400001928E-02 0. -1.
    10030    2    1    2    0    0  0.00000000000E+00  0.00000000000E+00 -0.24969052647E+03  0.14106274740E+04  0.13883531653E+04 0.  0.
        2    1    3    3  502    0 -0.18951405498E+03  0.63397199571E+03  0.88390960965E+02  0.66756949479E+03  0.25500000920E-02 0.  1.
       -2    1    3    3    0  502  0.18951405498E+03 -0.63397199571E+03 -0.33808148743E+03  0.74305797926E+03  0.25500000920E-02 0. -1.
</event>
<event>
 5   0  0.2172901E-03  0.1394356E+04  0.7818609E-02  0.8957914E-01
       -2   -1    0    0    0  501  0.00000000000E+00  0.00000000000E+00  0.36916899242E+03  0.36916899243E+03  0.25500000920E-02 0. -1.
        2   -1    0    0  501    0  0.00000000000E+00  0.00000000000E+00 -0.13166246635E+04  0.13166246635E+04  0.25500000920E-02 0.  1.
    10030    2    1    2    0    0  0.00000000000E+00  0.00000000000E+00 -0.94745567111E+03  0.16857936560E+04  0.13943557658E+04 0.  0.
        2    1    3    3  502    0  0.30840637405E+02 -0.50733920297E+03  0.10320403302E+03  0.51864755299E+03  0.25500000920E-02 0. -1.
       -2    1    3    3    0  502 -0.30840637405E+02  0.50733920297E+03 -0.10506597041E+04  0.11671461030E+04  0.25500000920E-02 0.  1.
</event>
<event>
 5   0  0.2083966E-03  0.1320725E+04  0.7818609E-02  0.9013290E-01
        2   -1    0    0  501    0  0.00000000000E+00  0.00000000000E+00  0.10129350598E+04  0.10129350598E+04  0.25500000920E-02 0.  1.
       -2   -1    0    0    0  501  0.00000000000E+00  0.00000000000E+00 -0.43050975055E+03  0.43050975056E+03  0.25500000920E-02 0. -1.
    10030    2    1    2    0    0  0.00000000000E+00  0.00000000000E+00  0.58242530925E+03  0.14434448104E+04  0.13207246798E+04 0.  0.
        1    1    3    3  502    0 -0.38688091526E+03  0.46619308010E+03  0.57843534853E+03  0.83761583257E+03  0.50400001928E-02 0.  1.
       -1    1    3    3    0  502  0.38688091526E+03 -0.46619308010E+03  0.39899607204E+01  0.60582897779E+03  0.50400001928E-02 0. -1.
</event>
<event>
 5   0  0.2236184E-03  0.1394602E+04  0.7818609E-02  0.8957735E-01
       -2   -1    0    0    0  501  0.00000000000E+00  0.00000000000E+00  0.84928749897E+03  0.84928749897E+03  0.25500000920E-02 0. -1.
        2   -1    0    0  501    0  0.00000000000E+00  0.00000000000E+00 -0.57251350289E+03  0.57251350290E+03  0.25500000920E-02 0.  1.
    10030    2    1    2    0    0  0.00000000000E+00  0.00000000000E+00  0.27677399607E+03  0.14218010019E+04  0.13946018227E+04 0.  0.
        3    1    3    3  502    0  0.22229406316E+03  0.16515099998E+03 -0.51404649150E+03  0.58389494683E+03  0.10100000352E+00 0.  1.
       -3    1    3    3    0  502 -0.22229406316E+03 -0.16515099998E+03  0.79082048757E+03  0.83790605504E+03  0.10100000352E+00 0. -1.
</event>
<event>
 5   0  0.2172901E-03  0.1418632E+04  0.7818609E-02  0.8940441E-01
        2   -1    0    0  501    0  0.00000000000E+00  0.00000000000E+00  0.55935394084E+03  0.55935394085E+03  0.25500000920E-02 0.  1.
       -2   -1    0    0    0  501  0.00000000000E+00  0.00000000000E+00 -0.89948304439E+03  0.89948304440E+03  0.25500000920E-02 0. -1.
    10030    2    1    2    0    0  0.00000000000E+00  0.00000000000E+00 -0.34012910355E+03  0.14588369852E+04  0.14186322788E+04 0.  0.
        2    1    3    3  502    0  0.63232816678E+03  0.31586552212E+03 -0.10905832782E+03  0.71519483880E+03  0.25500000920E-02 0. -1.
       -2    1    3    3    0  502 -0.63232816678E+03 -0.31586552212E+03 -0.23107077573E+03  0.74364214645E+03  0.25500000920E-02 0.  1.
</event>
<event>
 5   0  0.1199720E-03  0.8600540E+03  0.7818609E-02  0.9476941E-01
       -1   -1    0    0    0  501  0.00000000000E+00  0.00000000000E+00  0.94217301819E+02  0.94217301954E+02  0.50400001928E-02 0.  1.
        1   -1    0    0  501    0  0.00000000000E+00  0.00000000000E+00 -0.19627312066E+04  0.19627312066E+04  0.50400001928E-02 0. -1.
    10030    2    1    2    0    0  0.00000000000E+00  0.00000000000E+00 -0.18685139048E+04  0.20569485086E+04  0.86005404162E+03 0.  0.
        5    1    3    3  502    0 -0.33802650600E+03  0.26428626063E+03 -0.10015640563E+04  0.10896154345E+04  0.46999998093E+01 0.  1.
       -5    1    3    3    0  502  0.33802650600E+03 -0.26428626063E+03 -0.86694984851E+03  0.96733307404E+03  0.46999998093E+01 0. -1.
</event>
<event>
 5   0  0.2195980E-03  0.1401720E+04  0.7818609E-02  0.8952575E-01
       -2   -1    0    0    0  501  0.00000000000E+00  0.00000000000E+00  0.91108790005E+03  0.91108790005E+03  0.25500000920E-02 0. -1.
        2   -1    0    0  501    0  0.00000000000E+00  0.00000000000E+00 -0.53914069752E+03  0.53914069752E+03  0.25500000920E-02 0.  1.
    10030    2    1    2    0    0  0.00000000000E+00  0.00000000000E+00  0.37194720253E+03  0.14502285976E+04  0.14017197522E+04 0.  0.
        4    1    3    3  502    0  0.63950678479E+03 -0.70211923737E+02 -0.10168484383E+03  0.65133713420E+03  0.12699999809E+01 0.  1.
       -4    1    3    3    0  502 -0.63950678479E+03  0.70211923737E+02  0.47363204636E+03  0.79889146338E+03  0.12699999809E+01 0. -1.
</event>
<event>
 5   0  0.1175374E-03  0.1237266E+04  0.7818609E-02  0.9080849E-01
        1   -1    0    0  501    0  0.00000000000E+00  0.00000000000E+00  0.75067654597E+03  0.75067654598E+03  0.50400001928E-02 0. -1.
       -1   -1    0    0    0  501  0.00000000000E+00  0.00000000000E+00 -0.50981546517E+03  0.50981546520E+03  0.50400001928E-02 0.  1.
    10030    2    1    2    0    0  0.00000000000E+00  0.00000000000E+00  0.24086108079E+03  0.12604920112E+04  0.12372655536E+04 0.  0.
        3    1    3    3  502    0  0.53384381258E+03 -0.20186533047E+03  0.36359014075E+03  0.67671015104E+03  0.10100000352E+00 0. -1.
       -3    1    3    3    0  502 -0.53384381258E+03  0.20186533047E+03 -0.12272905996E+03  0.58378186014E+03  0.10100000352E+00 0.  1.
</event>
<event>
 5   0  0.1210275E-03  0.1392735E+04  0.7818609E-02  0.8959094E-01
       -1   -1    0    0    0  501  0.00000000000E+00  0.00000000000E+00  0.80048244653E+03  0.80048244654E+03  0.50400001928E-02 0. -1.
        1   -1    0    0  501    0  0.00000000000E+00  0.00000000000E+00 -0.60579414780E+03  0.60579414782E+03  0.50400001928E-02 0.  1.
    10030    2    1    2    0    0  0.00000000000E+00  0.00000000000E+00  0.19468829873E+03  0.14062765944E+04  0.13927348370E+04 0.  0.
        1    1    3    3  502    0 -0.29516050768E+03  0.29264174029E+03 -0.46680893301E+03  0.62503559372E+03  0.50400001928E-02 0.  1.
       -1    1    3    3    0  502  0.29516050768E+03 -0.29264174029E+03  0.66149723174E+03  0.78124100064E+03  0.50400001928E-02 0. -1.
</event>
<event>
 5   0  0.2236184E-03  0.1397675E+04  0.7818609E-02  0.8955503E-01
       -2   -1    0    0    0  501  0.00000000000E+00  0.00000000000E+00  0.42685143805E+03  0.42685143806E+03  0.25500000920E-02 0.  1.
        2   -1    0    0  501    0  0.00000000000E+00  0.00000000000E+00 -0.11441311907E+04  0.11441311907E+04  0.25500000920E-02 0. -1.
    10030    2    1    2    0    0  0.00000000000E+00  0.00000000000E+00 -0.71727975260E+03  0.15709826287E+04  0.13976752757E+04 0.  0.
        3    1    3    3  502    0 -0.56282170582E+03  0.32832432985E+03 -0.74713516427E+02  0.65585612588E+03  0.10100000352E+00 0.  1.
       -3    1    3    3    0  502  0.56282170582E+03 -0.32832432985E+03 -0.64256623618E+03  0.91512650283E+03  0.10100000352E+00 0. -1.
</event>
<event>
 5   0  0.8293000E-04  0.1380718E+04  0.7818609E-02  0.8967895E-01
        3   -1    0    0  501    0  0.00000000000E+00  0.00000000000E+00  0.99043485080E+03  0.99043485595E+03  0.10100000352E+00 0. -1.
       -3   -1    0    0    0  501  0.00000000000E+00  0.00000000000E+00 -0.48119858297E+03  0.48119859357E+03  0.10100000352E+00 0.  1.
    10030    2    1    2    0    0  0.00000000000E+00  0.00000000000E+00  0.50923626783E+03  0.14716334495E+04  0.13807184482E+04 0.  0.
        2    1    3    3  502    0  0.77010323873E+02  0.28898329412E+03  0.91780567025E+03  0.96530263783E+03  0.25500000920E-02 0. -1.
       -2    1    3    3    0  502 -0.77010323873E+02 -0.28898329412E+03 -0.40856940242E+03  0.50633081169E+03  0.25500000920E-02 0.  1.
</event>
<event>
 5   0  0.1175374E-03  0.1443664E+04  0.7818609E-02  0.8922805E-01
       -1   -1    0    0    0  501  0.00000000000E+00  0.00000000000E+00  0.36605253709E+03  0.36605253712E+03  0.50400001928E-02 0. -1.
        1   -1    0    0  501    0  0.00000000000E+00  0.00000000000E+00 -0.14234060216E+04  0.14234060216E+04  0.50400001928E-02 0.  1.
    10030    2    1    2    0    0  0.00000000000E+00  0.00000000000E+00 -0.10573534845E+04  0.17894585587E+04  0.14436639298E+04 0.  0.
        3    1    3    3  502    0 -0.59055155576E+03 -0.24695238342E+03 -0.11514162096E+03  0.65038006025E+03  0.10100000352E+00 0. -1.
       -3    1    3    3    0  502  0.59055155576E+03  0.24695238342E+03 -0.94221186356E+03  0.11390784985E+04  0.10100000352E+00 0.  1.
</event>
<event>
 5   0  0.1225690E-03  0.1360453E+04  0.7818609E-02  0.8982953E-01
        1   -1    0    0  501    0  0.00000000000E+00  0.00000000000E+00  0.23943185069E+04  0.23943185069E+04  0.50400001928E-02 0.  1.
       -1   -1    0    0    0  501  0.00000000000E+00  0.00000000000E+00 -0.19325261141E+03  0.19325261148E+03  0.50400001928E-02 0. -1.
    10030    2    1    2    0    0  0.00000000000E+00  0.00000000000E+00  0.22010658954E+04  0.25875711183E+04  0.13604533128E+04 0.  0.
        4    1    3    3  502    0 -0.58444487987E+03  0.17659440395E+03  0.16709570478E+04  0.17790054720E+04  0.12699999809E+01 0.  1.
       -4    1    3    3    0  502  0.58444487987E+03 -0.17659440395E+03  0.53010884768E+03  0.80856564632E+03  0.12699999809E+01 0. -1.
</event>
<event>
 5   0  0.1199720E-03  0.1404619E+04  0.7818609E-02  0.8950482E-01
       -1   -1    0    0    0  501  0.00000000000E+00  0.00000000000E+00  0.87740090685E+03  0.87740090686E+03  0.50400001928E-02 0. -1.
        1   -1    0    0  501    0  0.00000000000E+00  0.00000000000E+00 -0.56215886231E+03  0.56215886234E+03  0.50400001928E-02 0.  1.
    10030    2    1    2    0    0  0.00000000000E+00  0.00000000000E+00  0.31524204453E+03  0.14395597692E+04  0.14046190880E+04 0.  0.
        5    1    3    3  502    0 -0.47539785745E+03  0.14673975401E+03  0.66561300303E+03  0.83102252561E+03  0.46999998093E+01 0. -1.
       -5    1    3    3    0  502  0.47539785745E+03 -0.14673975401E+03 -0.35037095850E+03  0.60853724359E+03  0.46999998093E+01 0.  1.
</event>
<event>
 5   0  0.1225690E-03  0.1408877E+04  0.7818609E-02  0.8947418E-01
        1   -1    0    0  501    0  0.00000000000E+00  0.00000000000E+00  0.14250411156E+04  0.14250411156E+04  0.50400001928E-02 0.  1.
       -1   -1    0    0    0  501  0.00000000000E+00  0.00000000000E+00 -0.34822388642E+03  0.34822388646E+03  0.50400001928E-02 0. -1.
    10030    2    1    2    0    0  0.00000000000E+00  0.00000000000E+00  0.10768172292E+04  0.17732650021E+04  0.14088766527E+04 0.  0.
        4    1    3    3  502    0 -0.55462475799E+03 -0.42378119741E+03  0.41878760178E+03  0.81399250227E+03  0.12699999809E+01 0.  1.
       -4    1    3    3    0  502  0.55462475799E+03  0.42378119741E+03  0.65802962742E+03  0.95927249982E+03  0.12699999809E+01 0. -1.
</event>
<event>
 5   0  0.2083966E-03  0.1421230E+04  0.7818609E-02  0.8938593E-01
       -2   -1    0    0    0  501  0.00000000000E+00  0.00000000000E+00  0.26016846303E+03  0.26016846304E+03  0.25500000920E-02 0. -1.
        2   -1    0    0  501    0  0.00000000000E+00  0.00000000000E+00 -0.19409480742E+04  0.19409480742E+04  0.25500000920E-02 0.  1.
    10030    2    1    2    0    0  0.00000000000E+00  0.00000000000E+00 -0.16807796111E+04  0.22011165372E+04  0.14212297172E+04 0.  0.
        1    1    3    3  502    0 -0.87703876127E+01 -0.15231988217E+03 -0.19152820298E+04  0.19213494008E+04  0.50400001928E-02 0.  1.
       -1    1    3    3    0  502  0.87703876127E+01  0.15231988217E+03  0.23450241869E+03  0.27976713639E+03  0.50400001928E-02 0. -1.
</event>
<event>
 5   0  0.1225690E-03  0.1267389E+04  0.7818609E-02  0.9055833E-01
       -1   -1    0    0    0  501  0.00000000000E+00  0.00000000000E+00  0.19231976765E+04  0.19231976765E+04  0.50400001928E-02 0.  1.
        1   -1    0    0  501    0  0.00000000000E+00  0.00000000000E+00 -0.20880269558E+03  0.20880269565E+03  0.50400001928E-02 0. -1.
    10030    2    1    2    0    0  0.00000000000E+00  0.00000000000E+00  0.17143949810E+04  0.21320003722E+04  0.12673892205E+04 0.  0.
        4    1    3    3  502    0 -0.10863801028E+02  0.63301866772E+03  0.90285269276E+03  0.11027126795E+04  0.12699999809E+01 0.  1.
       -4    1    3    3    0  502  0.10863801028E+02 -0.63301866772E+03  0.81154228819E+03  0.10292876927E+04  0.12699999809E+01 0. -1.
</event>
<event>
 5   0  0.2236184E-03  0.1397504E+04  0.7818609E-02  0.8955627E-01
       -2   -1    0    0    0  501  0.00000000000E+00  0.00000000000E+00  0.48094135868E+03  0.48094135869E+03  0.25500000920E-02 0. -1.
        2   -1    0    0  501    0  0.00000000000E+00  0.00000000000E+00 -0.10152057798E+04  0.10152057798E+04  0.25500000920E-02 0.  1.
    10030    2    1    2    0    0  0.00000000000E+00  0.00000000000E+00 -0.53426442111E+03  0.14961471385E+04  0.13975041282E+04 0.  0.
        3    1    3    3  502    0  0.91566164756E+02  0.51364853342E+03  0.23047140271E+03  0.57038255240E+03  0.10100000352E+00 0.  1.
       -3    1    3    3    0  502 -0.91566164756E+02 -0.51364853342E+03 -0.76473582381E+03  0.92576458608E+03  0.10100000352E+00 0. -1.
</event>
<event>
 5   0  0.2195980E-03  0.1463278E+04  0.7818609E-02  0.8909247E-01
       -2   -1    0    0    0  501  0.00000000000E+00  0.00000000000E+00  0.88735800406E+03  0.88735800407E+03  0.25500000920E-02 0.  1.
        2   -1    0    0  501    0  0.00000000000E+00  0.00000000000E+00 -0.60324641927E+03  0.60324641928E+03  0.25500000920E-02 0. -1.
    10030    2    1    2    0    0  0.00000000000E+00  0.00000000000E+00  0.28411158479E+03  0.14906044233E+04  0.14632778801E+04 0.  0.
        4    1    3    3  502    0 -0.30701269638E+03 -0.56436146145E+03 -0.21452883067E+03  0.67733661276E+03  0.12699999809E+01 0. -1.
       -4    1    3    3    0  502  0.30701269638E+03  0.56436146145E+03  0.49864041546E+03  0.81326781058E+03  0.12699999809E+01 0.  1.
</event>
<event>
 5   0  0.1225690E-03  0.1427955E+04  0.7818609E-02  0.8933828E-01
        1   -1    0    0  501    0  0.00000000000E+00  0.00000000000E+00  0.12426596590E+04  0.12426596590E+04  0.50400001928E-02 0. -1.
       -1   -1    0    0    0  501  0.00000000000E+00  0.00000000000E+00 -0.41022014685E+03  0.41022014688E+03  0.50400001928E-02 0.  1.
    10030    2    1    2    0    0  0.00000000000E+00  0.00000000000E+00  0.83243951213E+03  0.16528798059E+04  0.14279552204E+04 0.  0.
        4    1    3    3  502    0  0.19508986239E+03  0.24652732991E+03  0.11582281730E+04  0.12001374473E+04  0.12699999809E+01 0. -1.
       -4    1    3    3    0  502 -0.19508986239E+03 -0.24652732991E+03 -0.32578866087E+03  0.45274235857E+03  0.12699999809E+01 0.  1.
</event>
<event>
 5   0  0.1210275E-03  0.1455749E+04  0.7818609E-02  0.8914425E-01
       -1   -1    0    0    0  501  0.00000000000E+00  0.00000000000E+00  0.41535141060E+03  0.41535141063E+03  0.50400001928E-02 0. -1.
        1   -1    0    0  501    0  0.00000000000E+00  0.00000000000E+00 -0.12755494814E+04  0.12755494814E+04  0.50400001928E-02 0.  1.
    10030    2    1    2    0    0  0.00000000000E+00  0.00000000000E+00 -0.86019807080E+03  0.16909008920E+04  0.14557489844E+04 0.  0.
        1    1    3    3  502    0  0.31418051215E+03 -0.64984741417E+03 -0.32119811724E+03  0.79005017972E+03  0.50400001928E-02 0. -1.
       -1    1    3    3    0  502 -0.31418051215E+03  0.64984741417E+03 -0.53899995356E+03  0.90085071232E+03  0.50400001928E-02 0.  1.
</event>
<event>
 5   0  0.2172901E-03  0.1398303E+04  0.7818609E-02  0.8955048E-01
       -2   -1    0    0    0  501  0.00000000000E+00  0.00000000000E+00  0.25586230428E+03  0.25586230429E+03  0.25500000920E-02 0. -1.
        2   -1    0    0  501    0  0.00000000000E+00  0.00000000000E+00 -0.19104516282E+04  0.19104516282E+04  0.25500000920E-02 0.  1.
    10030    2    1    2    0    0  0.00000000000E+00  0.00000000000E+00 -0.16545893239E+04  0.21663139325E+04  0.13983026222E+04 0.  0.
        2    1    3    3  502    0 -0.34332560823E+03  0.11653085806E+03  0.98838809622E+02  0.37579385897E+03  0.25500000920E-02 0. -1.
       -2    1    3    3    0  502  0.34332560823E+03 -0.11653085806E+03 -0.17534281336E+04  0.17905200735E+04  0.25500000920E-02 0.  1.
</event>
<event>
 5   0  0.2236184E-03  0.1392890E+04  0.7818609E-02  0.8958982E-01
       -2   -1    0    0    0  501  0.00000000000E+00  0.00000000000E+00  0.12414094389E+04  0.12414094389E+04  0.25500000920E-02 0. -1.
        2   -1    0    0  501    0  0.00000000000E+00  0.00000000000E+00 -0.39071341772E+03  0.39071341773E+03  0.25500000920E-02 0.  1.
    10030    2    1    2    0    0  0.00000000000E+00  0.00000000000E+00  0.85069602120E+03  0.16321228567E+04  0.13928895501E+04 0.  0.
        3    1    3    3  502    0  0.27787079547E+03 -0.52256614375E+03  0.85547524854E+03  0.10402525966E+04  0.10100000352E+00 0. -1.
       -3    1    3    3    0  502 -0.27787079547E+03  0.52256614375E+03 -0.47792273373E+01  0.59187026010E+03  0.10100000352E+00 0.  1.
</event>
<event>
 5   0  0.1225690E-03  0.1394663E+04  0.7818609E-02  0.8957691E-01
        1   -1    0    0  501    0  0.00000000000E+00  0.00000000000E+00  0.12462264919E+04  0.12462264920E+04  0.50400001928E-02 0. -1.
       -1   -1    0    0    0  501  0.00000000000E+00  0.00000000000E+00 -0.39019497207E+03  0.39019497210E+03  0.50400001928E-02 0.  1.
    10030    2    1    2    0    0  0.00000000000E+00  0.00000000000E+00  0.85603151988E+03  0.16364214641E+04  0.13946631296E+04 0.  0.
        4    1    3    3  502    0  0.96553220848E+02 -0.40202945818E+03 -0.23085654741E+03  0.47354679609E+03  0.12699999809E+01 0.  1.
       -4    1    3    3    0  502 -0.96553220848E+02  0.40202945818E+03  0.10868880673E+04  0.11628746680E+04  0.12699999809E+01 0. -1.
</event>
<event>
 5   0  0.1238683E-03  0.1394225E+04  0.7818609E-02  0.8958009E-01
        1   -1    0    0  501    0  0.00000000000E+00  0.00000000000E+00  0.90404472137E+03  0.90404472138E+03  0.50400001928E-02 0.  1.
       -1   -1    0    0    0  501  0.00000000000E+00  0.00000000000E+00 -0.53754644085E+03  0.53754644088E+03  0.50400001928E-02 0. -1.
    10030    2    1    2    0    0  0.00000000000E+00  0.00000000000E+00  0.36649828052E+03  0.14415911623E+04  0.13942252650E+04 0.  0.
        2    1    3    3  502    0 -0.33445231149E+03 -0.42047707924E+03  0.64253183159E+03  0.83755983514E+03  0.25500000920E-02 0.  1.
       -2    1    3    3    0  502  0.33445231149E+03  0.42047707924E+03 -0.27603355107E+03  0.60403132712E+03  0.25500000920E-02 0. -1.
</event>
<event>
 5   0  0.1210275E-03  0.1514354E+04  0.7818609E-02  0.8874963E-01
       -1   -1    0    0    0  501  0.00000000000E+00  0.00000000000E+00  0.44980373968E+03  0.44980373971E+03  0.50400001928E-02 0.  1.
        1   -1    0    0  501    0  0.00000000000E+00  0.00000000000E+00 -0.12745939980E+04  0.12745939980E+04  0.50400001928E-02 0. -1.
    10030    2    1    2    0    0  0.00000000000E+00  0.00000000000E+00 -0.82479025832E+03  0.17243977377E+04  0.15143541817E+04 0.  0.
        1    1    3    3  502    0  0.53399009034E+03 -0.16463659698E+03  0.16942075581E+03  0.58391268026E+03  0.50400001928E-02 0.  1.
       -1    1    3    3    0  502 -0.53399009034E+03  0.16463659698E+03 -0.99421101413E+03  0.11404850575E+04  0.50400001928E-02 0. -1.
</event>
<event>
 5   0  0.2172901E-03  0.1354131E+04  0.7818609E-02  0.8987707E-01
       -2   -1    0    0    0  501  0.00000000000E+00  0.00000000000E+00  0.44064630716E+03  0.44064630716E+03  0.25500000920E-02 0.  1.
        2   -1    0    0  501    0  0.00000000000E+00  0.00000000000E+00 -0.10403301611E+04  0.10403301611E+04  0.25500000920E-02 0. -1.
    10030    2    1    2    0    0  0.00000000000E+00  0.00000000000E+00 -0.59968385397E+03  0.14809764683E+04  0.13541309298E+04 0.  0.
        2    1    3    3  502    0  0.10771319321E+03 -0.62229191299E+03 -0.56677049387E+03  0.84857418632E+03  0.25500000920E-02 0. -1.
       -2    1    3    3    0  502 -0.10771319321E+03  0.62229191299E+03 -0.32913360106E+02  0.63240228197E+03  0.25500000920E-02 0.  1.
</event>
<event>
 5   0  0.1199720E-03  0.1411281E+04  0.7818609E-02  0.8945693E-01
        1   -1    0    0  501    0  0.00000000000E+00  0.00000000000E+00  0.49492386726E+03  0.49492386728E+03  0.50400001928E-02 0.  1.
       -1   -1    0    0    0  501  0.00000000000E+00  0.00000000000E+00 -0.10060704438E+04  0.10060704438E+04  0.50400001928E-02 0. -1.
    10030    2    1    2    0    0  0.00000000000E+00  0.00000000000E+00 -0.51114657652E+03  0.15009943111E+04  0.14112806593E+04 0.  0.
        5    1    3    3  502    0  0.50382079029E+03  0.11192189602E+03  0.25620598083E+03  0.57621653408E+03  0.46999998093E+01 0.  1.
       -5    1    3    3    0  502 -0.50382079029E+03 -0.11192189602E+03 -0.76735255735E+03  0.92477777699E+03  0.46999998093E+01 0. -1.
</event>
<event>
 5   0  0.1175374E-03  0.1489548E+04  0.7818609E-02  0.8891433E-01
       -1   -1    0    0    0  501  0.00000000000E+00  0.00000000000E+00  0.33202275374E+03  0.33202275378E+03  0.50400001928E-02 0. -1.
        1   -1    0    0  501    0  0.00000000000E+00  0.00000000000E+00 -0.16706337607E+04  0.16706337607E+04  0.50400001928E-02 0.  1.
    10030    2    1    2    0    0  0.00000000000E+00  0.00000000000E+00 -0.13386110069E+04  0.20026565145E+04  0.14895481486E+04 0.  0.
        3    1    3    3  502    0 -0.65155906867E+03 -0.12326799648E+03 -0.21344368511E+03  0.69662216146E+03  0.10100000352E+00 0. -1.
       -3    1    3    3    0  502  0.65155906867E+03  0.12326799648E+03 -0.11251673218E+04  0.13060343530E+04  0.10100000352E+00 0.  1.
</event>
<event>
 5   0  0.2236184E-03  0.1386635E+04  0.7818609E-02  0.8963550E-01
       -2   -1    0    0    0  501  0.00000000000E+00  0.00000000000E+00  0.55330392645E+03  0.55330392646E+03  0.25500000920E-02 0. -1.
        2   -1    0    0  501    0  0.00000000000E+00  0.00000000000E+00 -0.86876138481E+03  0.86876138482E+03  0.25500000920E-02 0.  1.
    10030    2    1    2    0    0  0.00000000000E+00  0.00000000000E+00 -0.31545745836E+03  0.14220653113E+04  0.13866348984E+04 0.  0.
        3    1    3    3  502    0 -0.16320090475E+03  0.19914705808E+03  0.50245476834E+03  0.56458382060E+03  0.10100000352E+00 0. -1.
       -3    1    3    3    0  502  0.16320090475E+03 -0.19914705808E+03 -0.81791222671E+03  0.85748149067E+03  0.10100000352E+00 0.  1.
</event>
<event>
 5   0  0.2236184E-03  0.1419518E+04  0.7818609E-02  0.8939810E-01
        2   -1    0    0  501    0  0.00000000000E+00  0.00000000000E+00  0.84836445458E+03  0.84836445458E+03  0.25500000920E-02 0.  1.
       -2   -1    0    0    0  501  0.00000000000E+00  0.00000000000E+00 -0.59379900479E+03  0.59379900480E+03  0.25500000920E-02 0. -1.
    10030    2    1    2    0    0  0.00000000000E+00  0.00000000000E+00  0.25456544978E+03  0.14421634594E+04  0.14195181842E+04 0.  0.
        3    1    3    3  502    0 -0.42924351676E+01  0.42572442181E+03  0.70423143747E+03  0.82292261850E+03  0.10100000352E+00 0.  1.
       -3    1    3    3    0  502  0.42924351676E+01 -0.42572442181E+03 -0.44966598769E+03  0.61924084088E+03  0.10100000352E+00 0. -1.
</event>
<event>
 5   0  0.1210275E-03  0.1482150E+04  0.7818609E-02  0.8896410E-01
       -1   -1    0    0    0  501  0.00000000000E+00  0.00000000000E+00  0.39955658931E+03  0.39955658934E+03  0.50400001928E-02 0. -1.
        1   -1    0    0  501    0  0.00000000000E+00  0.00000000000E+00 -0.13745042627E+04  0.13745042627E+04  0.50400001928E-02 0.  1.
    10030    2    1    2    0    0  0.00000000000E+00  0.00000000000E+00 -0.97494767343E+03  0.17740608521E+04  0.14821501074E+04 0.  0.
        1    1    3    3  502    0  0.15418498251E+03  0.23792381593E+03 -0.13070238158E+04  0.13374199065E+04  0.50400001928E-02 0.  1.
       -1    1    3    3    0  502 -0.15418498251E+03 -0.23792381593E+03  0.33207614240E+03  0.43664094562E+03  0.50400001928E-02 0. -1.
</event>
<event>
 5   0  0.2083966E-03  0.1433386E+04  0.7818609E-02  0.8930000E-01
        2   -1    0    0  501    0  0.00000000000E+00  0.00000000000E+00  0.24615096265E+04  0.24615096265E+04  0.25500000920E-02 0.  1.
       -2   -1    0    0    0  501  0.00000000000E+00  0.00000000000E+00 -0.20867234510E+03  0.20867234511E+03  0.25500000920E-02 0. -1.
    10030    2    1    2    0    0  0.00000000000E+00  0.00000000000E+00  0.22528372814E+04  0.26701819716E+04  0.14333861814E+04 0.  0.
        1    1    3    3  502    0  0.38966219783E+03 -0.56836743957E+03  0.75961799515E+03  0.10256206284E+04  0.50400001928E-02 0.  1.
       -1    1    3    3    0  502 -0.38966219783E+03  0.56836743957E+03  0.14932192863E+04  0.16445613432E+04  0.50400001928E-02 0. -1.
</event>
<event>
 5   0  0.1238683E-03  0.1361501E+04  0.7818609E-02  0.8982167E-01
       -1   -1    0    0    0  501  0.00000000000E+00  0.00000000000E+00  0.63534659300E+03  0.63534659302E+03  0.50400001928E-02 0. -1.
        1   -1    0    0  501    0  0.00000000000E+00  0.00000000000E+00 -0.72939952121E+03  0.72939952123E+03  0.50400001928E-02 0.  1.
    10030    2    1    2    0    0  0.00000000000E+00  0.00000000000E+00 -0.94052928209E+02  0.13647461142E+04  0.13615013783E+04 0.  0.
        2    1    3    3  502    0  0.67463746160E+03 -0.84036384273E+02 -0.82091001788E+02  0.68478956699E+03  0.25500000920E-02 0.  1.
       -2    1    3    3    0  502 -0.67463746160E+03  0.84036384273E+02 -0.11961926421E+02  0.67995654726E+03  0.25500000920E-02 0. -1.
</event>
<event>
 5   0  0.1210275E-03  0.1388835E+04  0.7818609E-02  0.8961940E-01
        1   -1    0    0  501    0  0.00000000000E+00  0.00000000000E+00  0.49402693438E+03  0.49402693441E+03  0.50400001928E-02 0. -1.
       -1   -1    0    0    0  501  0.00000000000E+00  0.00000000000E+00 -0.97609204265E+03  0.97609204266E+03  0.50400001928E-02 0.  1.
    10030    2    1    2    0    0  0.00000000000E+00  0.00000000000E+00 -0.48206510827E+03  0.14701189771E+04  0.13888351371E+04 0.  0.
        1    1    3    3  502    0 -0.30043744710E+02  0.56547375904E+03 -0.66649253027E+03  0.87457160467E+03  0.50400001928E-02 0. -1.
       -1    1    3    3    0  502  0.30043744710E+02 -0.56547375904E+03  0.18442742200E+03  0.59554737240E+03  0.50400001928E-02 0.  1.
</event>
<event>
 5   0  0.2190704E-03  0.1386883E+04  0.7818609E-02  0.8963368E-01
       -2   -1    0    0    0  501  0.00000000000E+00  0.00000000000E+00  0.19393308690E+03  0.19393308692E+03  0.25500000920E-02 0. -1.
        2   -1    0    0  501    0  0.00000000000E+00  0.00000000000E+00 -0.24795209913E+04  0.24795209913E+04  0.25500000920E-02 0.  1.
    10030    2    1    2    0    0  0.00000000000E+00  0.00000000000E+00 -0.22855879044E+04  0.26734540782E+04  0.13868830663E+04 0.  0.
        5    1    3    3  502    0 -0.85448009901E+02 -0.44411153013E+03 -0.12952341888E+03  0.47046234667E+03  0.46999998093E+01 0. -1.
       -5    1    3    3    0  502  0.85448009901E+02  0.44411153013E+03 -0.21560644855E+04  0.22029917316E+04  0.46999998093E+01 0.  1.
</event>
<event>
 5   0  0.2083966E-03  0.1416491E+04  0.7818609E-02  0.8941967E-01
        2   -1    0    0  501    0  0.00000000000E+00  0.00000000000E+00  0.77314294330E+03  0.77314294330E+03  0.25500000920E-02 0. -1.
       -2   -1    0    0    0  501  0.00000000000E+00  0.00000000000E+00 -0.64879553701E+03  0.64879553701E+03  0.25500000920E-02 0.  1.
    10030    2    1    2    0    0  0.00000000000E+00  0.00000000000E+00  0.12434740629E+03  0.14219384803E+04  0.14164910040E+04 0.  0.
        1    1    3    3  502    0  0.15450524421E+03  0.26910067377E+03  0.70127322641E+03  0.76685799286E+03  0.50400001928E-02 0. -1.
       -1    1    3    3    0  502 -0.15450524421E+03 -0.26910067377E+03 -0.57692582011E+03  0.65508048746E+03  0.50400001928E-02 0.  1.
</event>
<event>
 5   0  0.1238683E-03  0.1348512E+04  0.7818609E-02  0.8991955E-01
        1   -1    0    0  501    0  0.00000000000E+00  0.00000000000E+00  0.71183981593E+03  0.71183981595E+03  0.50400001928E-02 0. -1.
       -1   -1    0    0    0  501  0.00000000000E+00  0.00000000000E+00 -0.63865657056E+03  0.63865657058E+03  0.50400001928E-02 0.  1.
    10030    2    1    2    0    0  0.00000000000E+00  0.00000000000E+00  0.73183245377E+02  0.13504963865E+04  0.13485120328E+04 0.  0.
        2    1    3    3  502    0  0.56970944789E+03  0.14330467151E+03 -0.29482750429E+03  0.65728862852E+03  0.25500000920E-02 0. -1.
       -2    1    3    3    0  502 -0.56970944789E+03 -0.14330467151E+03  0.36801074966E+03  0.69320775801E+03  0.25500000920E-02 0.  1.
</event>
<event>
 5   0  0.1238683E-03  0.1370206E+04  0.7818609E-02  0.8975672E-01
       -1   -1    0    0    0  501  0.00000000000E+00  0.00000000000E+00  0.43397816991E+03  0.43397816994E+03  0.50400001928E-02 0.  1.
        1   -1    0    0  501    0  0.00000000000E+00  0.00000000000E+00 -0.10815423955E+04  0.10815423955E+04  0.50400001928E-02 0. -1.
    10030    2    1    2    0    0  0.00000000000E+00  0.00000000000E+00 -0.64756422557E+03  0.15155205654E+04  0.13702055167E+04 0.  0.
        2    1    3    3  502    0  0.26785622856E+03  0.56033472375E+03 -0.64366652055E+03  0.89444315163E+03  0.25500000920E-02 0. -1.
       -2    1    3    3    0  502 -0.26785622856E+03 -0.56033472375E+03 -0.38977050234E+01  0.62107741380E+03  0.25500000920E-02 0.  1.
</event>
<event>
 5   0  0.2172901E-03  0.1311101E+04  0.7818609E-02  0.9020808E-01
        2   -1    0    0  501    0  0.00000000000E+00  0.00000000000E+00  0.20965158882E+04  0.20965158882E+04  0.25500000920E-02 0. -1.
       -2   -1    0    0    0  501  0.00000000000E+00  0.00000000000E+00 -0.20498120744E+03  0.20498120746E+03  0.25500000920E-02 0.  1.
    10030    2    1    2    0    0  0.00000000000E+00  0.00000000000E+00  0.18915346807E+04  0.23014970956E+04  0.13111008477E+04 0.  0.
        2    1    3    3  502    0 -0.15103356467E+03  0.29904071403E+03 -0.43361692325E+02  0.33781166746E+03  0.25500000920E-02 0.  1.
       -2    1    3    3    0  502  0.15103356467E+03 -0.29904071403E+03  0.19348963730E+04  0.19636854281E+04  0.25500000920E-02 0. -1.
</event>
<event>
 5   0  0.8293000E-04  0.1403861E+04  0.7818609E-02  0.8951028E-01
        3   -1    0    0  501    0  0.00000000000E+00  0.00000000000E+00  0.77864668869E+03  0.77864669524E+03  0.10100000352E+00 0.  1.
       -3   -1    0    0    0  501  0.00000000000E+00  0.00000000000E+00 -0.63277314926E+03  0.63277315732E+03  0.10100000352E+00 0. -1.
    10030    2    1    2    0    0  0.00000000000E+00  0.00000000000E+00  0.14587353943E+03  0.14114198526E+04  0.14038614286E+04 0.  0.
        3    1    3    3  502    0 -0.20839476779E+03  0.20526032885E+03  0.71445256182E+03  0.77201208225E+03  0.10100000352E+00 0.  1.
       -3    1    3    3    0  502  0.20839476779E+03 -0.20526032885E+03 -0.56857902239E+03  0.63940777032E+03  0.10100000352E+00 0. -1.
</event>
<event>
 5   0  0.1175374E-03  0.1394115E+04  0.7818609E-02  0.8958089E-01
        1   -1    0    0  501    0  0.00000000000E+00  0.00000000000E+00  0.11108981658E+04  0.11108981658E+04  0.50400001928E-02 0. -1.
       -1   -1    0    0    0  501  0.00000000000E+00  0.00000000000E+00 -0.43738417304E+03  0.43738417307E+03  0.50400001928E-02 0.  1.
    10030    2    1    2    0    0  0.00000000000E+00  0.00000000000E+00  0.67351399279E+03  0.15482823389E+04  0.13941151683E+04 0.  0.
        3    1    3    3  502    0  0.67805645505E+03  0.53021851862E+02  0.50634358270E+03  0.84791255856E+03  0.10100000352E+00 0. -1.
       -3    1    3    3    0  502 -0.67805645505E+03 -0.53021851862E+02  0.16717041009E+03  0.70036978035E+03  0.10100000352E+00 0.  1.
</event>
<event>
 5   0  0.2190704E-03  0.1398325E+04  0.7818609E-02  0.8955032E-01
        2   -1    0    0  501    0  0.00000000000E+00  0.00000000000E+00  0.92933114802E+03  0.92933114802E+03  0.25500000920E-02 0. -1.
       -2   -1    0    0    0  501  0.00000000000E+00  0.00000000000E+00 -0.52600023241E+03  0.52600023241E+03  0.25500000920E-02 0.  1.
    10030    2    1    2    0    0  0.00000000000E+00  0.00000000000E+00  0.40333091561E+03  0.14553313804E+04  0.13983252838E+04 0.  0.
        5    1    3    3  502    0  0.24417834015E+03 -0.35534487305E+03 -0.37114749845E+03  0.56891615920E+03  0.46999998093E+01 0.  1.
       -5    1    3    3    0  502 -0.24417834015E+03  0.35534487305E+03  0.77447841406E+03  0.88641522124E+03  0.46999998093E+01 0. -1.
</event>
<event>
 5   0  0.1175374E-03  0.1399429E+04  0.7818609E-02  0.8954232E-01
       -1   -1    0    0    0  501  0.00000000000E+00  0.00000000000E+00  0.63046392772E+03  0.63046392774E+03  0.50400001928E-02 0.  1.
        1   -1    0    0  501    0  0.00000000000E+00  0.00000000000E+00 -0.77657105136E+03  0.77657105137E+03  0.50400001928E-02 0. -1.
    10030    2    1    2    0    0  0.00000000000E+00  0.00000000000E+00 -0.14610712364E+03  0.14070349791E+04  0.13994285051E+04 0.  0.
        3    1    3    3  502    0 -0.65174353995E+03  0.24849561631E+03 -0.17251336255E+02  0.69772296221E+03  0.10100000352E+00 0.  1.
       -3    1    3    3    0  502  0.65174353995E+03 -0.24849561631E+03 -0.12885578738E+03  0.70931201691E+03  0.10100000352E+00 0. -1.
</event>
<event>
 5   0  0.2172901E-03  0.1384049E+04  0.7818609E-02  0.8965446E-01
        2   -1    0    0  501    0  0.00000000000E+00  0.00000000000E+00  0.75944632161E+03  0.75944632161E+03  0.25500000920E-02 0. -1.
       -2   -1    0    0    0  501  0.00000000000E+00  0.00000000000E+00 -0.63058850243E+03  0.63058850244E+03  0.25500000920E-02 0.  1.
    10030    2    1    2    0    0  0.00000000000E+00  0.00000000000E+00  0.12885781917E+03  0.13900348240E+04  0.13840493035E+04 0.  0.
        2    1    3    3  502    0  0.23179197765E+03 -0.35583629355E+03  0.61319021316E+03  0.74588821296E+03  0.25500000920E-02 0. -1.
       -2    1    3    3    0  502 -0.23179197765E+03  0.35583629355E+03 -0.48433239399E+03  0.64414661109E+03  0.25500000920E-02 0.  1.
</event>
<event>
 5   0  0.2172901E-03  0.1391835E+04  0.7818609E-02  0.8959750E-01
        2   -1    0    0  501    0  0.00000000000E+00  0.00000000000E+00  0.80817002009E+03  0.80817002010E+03  0.25500000920E-02 0.  1.
       -2   -1    0    0    0  501  0.00000000000E+00  0.00000000000E+00 -0.59925683432E+03  0.59925683433E+03  0.25500000920E-02 0. -1.
    10030    2    1    2    0    0  0.00000000000E+00  0.00000000000E+00  0.20891318577E+03  0.14074268544E+04  0.13918353464E+04 0.  0.
        2    1    3    3  502    0 -0.22281143386E+03  0.42409816168E+03  0.61488556402E+03  0.77947959732E+03  0.25500000920E-02 0.  1.
       -2    1    3    3    0  502  0.22281143386E+03 -0.42409816168E+03 -0.40597237825E+03  0.62794725710E+03  0.25500000920E-02 0. -1.
</event>
<event>
 5   0  0.1210275E-03  0.1428591E+04  0.7818609E-02  0.8933379E-01
       -1   -1    0    0    0  501  0.00000000000E+00  0.00000000000E+00  0.42835140372E+03  0.42835140375E+03  0.50400001928E-02 0. -1.
        1   -1    0    0  501    0  0.00000000000E+00  0.00000000000E+00 -0.11911204731E+04  0.11911204731E+04  0.50400001928E-02 0.  1.
    10030    2    1    2    0    0  0.00000000000E+00  0.00000000000E+00 -0.76276906938E+03  0.16194718769E+04  0.14285910915E+04 0.  0.
        1    1    3    3  502    0  0.15193685167E+03  0.54886284223E+03 -0.87013275941E+03  0.10399356930E+04  0.50400001928E-02 0. -1.
       -1    1    3    3    0  502 -0.15193685167E+03 -0.54886284223E+03  0.10736369003E+03  0.57953618389E+03  0.50400001928E-02 0.  1.
</event>
<event>
 5   0  0.2236184E-03  0.1403898E+04  0.7818609E-02  0.8951002E-01
        2   -1    0    0  501    0  0.00000000000E+00  0.00000000000E+00  0.17155250149E+04  0.17155250149E+04  0.25500000920E-02 0.  1.
       -2   -1    0    0    0  501  0.00000000000E+00  0.00000000000E+00 -0.28721944293E+03  0.28721944294E+03  0.25500000920E-02 0. -1.
    10030    2    1    2    0    0  0.00000000000E+00  0.00000000000E+00  0.14283055720E+04  0.20027444579E+04  0.14038976304E+04 0.  0.
        3    1    3    3  502    0  0.25305615224E+03  0.61023238624E+03  0.10526750888E+04  0.12427975837E+04  0.10100000352E+00 0.  1.
       -3    1    3    3    0  502 -0.25305615224E+03 -0.61023238624E+03  0.37563048324E+03  0.75994687416E+03  0.10100000352E+00 0. -1.
</event>
<event>
 5   0  0.2172901E-03  0.1430621E+04  0.7818609E-02  0.8931947E-01
        2   -1    0    0  501    0  0.00000000000E+00  0.00000000000E+00  0.15961959290E+04  0.15961959290E+04  0.25500000920E-02 0. -1.
       -2   -1    0    0    0  501  0.00000000000E+00  0.00000000000E+00 -0.32055534501E+03  0.32055534502E+03  0.25500000920E-02 0.  1.
    10030    2    1    2    0    0  0.00000000000E+00  0.00000000000E+00  0.12756405840E+04  0.19167512741E+04  0.14306210354E+04 0.  0.
        2    1    3    3  502    0 -0.65970645780E+03  0.15021017435E+03  0.32678543252E+03  0.75137502344E+03  0.25500000920E-02 0.  1.
       -2    1    3    3    0  502  0.65970645780E+03 -0.15021017435E+03  0.94885515151E+03  0.11653762506E+04  0.25500000920E-02 0. -1.
</event>
<event>
 5   0  0.1175374E-03  0.1432395E+04  0.7818609E-02  0.8930698E-01
       -1   -1    0    0    0  501  0.00000000000E+00  0.00000000000E+00  0.64670522591E+03  0.64670522593E+03  0.50400001928E-02 0.  1.
        1   -1    0    0  501    0  0.00000000000E+00  0.00000000000E+00 -0.79315683791E+03  0.79315683792E+03  0.50400001928E-02 0. -1.
    10030    2    1    2    0    0  0.00000000000E+00  0.00000000000E+00 -0.14645161199E+03  0.14398620639E+04  0.14323947390E+04 0.  0.
        3    1    3    3  502    0 -0.61142072185E+03 -0.33868208877E+03 -0.23023806233E+03  0.73590110199E+03  0.10100000352E+00 0. -1.
       -3    1    3    3    0  502  0.61142072185E+03  0.33868208877E+03  0.83786450334E+02  0.70396096186E+03  0.10100000352E+00 0.  1.
</event>
<event>
 5   0  0.1175374E-03  0.1388786E+04  0.7818609E-02  0.8961976E-01
       -1   -1    0    0    0  501  0.00000000000E+00  0.00000000000E+00  0.44078011751E+03  0.44078011754E+03  0.50400001928E-02 0.  1.
        1   -1    0    0  501    0  0.00000000000E+00  0.00000000000E+00 -0.10939277597E+04  0.10939277597E+04  0.50400001928E-02 0. -1.
    10030    2    1    2    0    0  0.00000000000E+00  0.00000000000E+00 -0.65314764215E+03  0.15347078772E+04  0.13887859540E+04 0.  0.
        3    1    3    3  502    0 -0.55368450454E+03 -0.51336601387E+02  0.13303449166E+03  0.57175183723E+03  0.10100000352E+00 0.  1.
       -3    1    3    3    0  502  0.55368450454E+03  0.51336601387E+02 -0.78618213381E+03  0.96295603998E+03  0.10100000352E+00 0. -1.
</event>
<event>
 5   0  0.1225690E-03  0.1439923E+04  0.7818609E-02  0.8925417E-01
        1   -1    0    0  501    0  0.00000000000E+00  0.00000000000E+00  0.84066146030E+03  0.84066146031E+03  0.50400001928E-02 0. -1.
       -1   -1    0    0    0  501  0.00000000000E+00  0.00000000000E+00 -0.61659101394E+03  0.61659101396E+03  0.50400001928E-02 0.  1.
    10030    2    1    2    0    0  0.00000000000E+00  0.00000000000E+00  0.22407044635E+03  0.14572524743E+04  0.14399226399E+04 0.  0.
        4    1    3    3  502    0 -0.16518371367E+03  0.14123873792E+03 -0.58259900581E+03  0.62181770225E+03  0.12699999809E+01 0.  1.
       -4    1    3    3    0  502  0.16518371367E+03 -0.14123873792E+03  0.80666945217E+03  0.83543477203E+03  0.12699999809E+01 0. -1.
</event>
<event>
 5   0  0.2236184E-03  0.1387642E+04  0.7818609E-02  0.8962813E-01
       -2   -1    0    0    0  501  0.00000000000E+00  0.00000000000E+00  0.46808806872E+03  0.46808806873E+03  0.25500000920E-02 0.  1.
        2   -1    0    0  501    0  0.00000000000E+00  0.00000000000E+00 -0.10284124971E+04  0.10284124971E+04  0.25500000920E-02 0. -1.
    10030    2    1    2    0    0  0.00000000000E+00  0.00000000000E+00 -0.56032442839E+03  0.14965005658E+04  0.13876420571E+04 0.  0.
        3    1    3    3  502    0 -0.38690493844E+02 -0.28607551772E+03 -0.96056962977E+03  0.10030105583E+04  0.10100000352E+00 0. -1.
       -3    1    3    3    0  502  0.38690493844E+02  0.28607551772E+03  0.40024520138E+03  0.49349000758E+03  0.10100000352E+00 0.  1.
</event>
<event>
 5   0  0.2172901E-03  0.1407374E+04  0.7818609E-02  0.8948498E-01
       -2   -1    0    0    0  501  0.00000000000E+00  0.00000000000E+00  0.21726016702E+03  0.21726016703E+03  0.25500000920E-02 0. -1.
        2   -1    0    0  501    0  0.00000000000E+00  0.00000000000E+00 -0.22791808932E+04  0.22791808932E+04  0.25500000920E-02 0.  1.
    10030    2    1    2    0    0  0.00000000000E+00  0.00000000000E+00 -0.20619207262E+04  0.24964410602E+04  0.14073737550E+04 0.  0.
        2    1    3    3  502    0  0.42897396430E+03 -0.38995252354E+02 -0.20180067067E+04  0.20634656188E+04  0.25500000920E-02 0.  1.
       -2    1    3    3    0  502 -0.42897396430E+03  0.38995252354E+02 -0.43914019468E+02  0.43297544141E+03  0.25500000920E-02 0. -1.
</event>
<event>
 5   0  0.2195980E-03  0.1442971E+04  0.7818609E-02  0.8923288E-01
       -2   -1    0    0    0  501  0.00000000000E+00  0.00000000000E+00  0.59917501101E+03  0.59917501101E+03  0.25500000920E-02 0. -1.
        2   -1    0    0  501    0  0.00000000000E+00  0.00000000000E+00 -0.86876369466E+03  0.86876369466E+03  0.25500000920E-02 0.  1.
    10030    2    1    2    0    0  0.00000000000E+00  0.00000000000E+00 -0.26958868365E+03  0.14679387057E+04  0.14429712351E+04 0.  0.
        4    1    3    3  502    0 -0.12150993846E+03 -0.48914876202E+03 -0.65997164550E+03  0.83041878729E+03  0.12699999809E+01 0.  1.
       -4    1    3    3    0  502  0.12150993846E+03  0.48914876202E+03  0.39038296185E+03  0.63751991838E+03  0.12699999809E+01 0. -1.
</event>
<event>
 5   0  0.1238683E-03  0.1034133E+04  0.7818609E-02  0.9271880E-01
        1   -1    0    0  501    0  0.00000000000E+00  0.00000000000E+00  0.98867635128E+03  0.98867635130E+03  0.50400001928E-02 0.  1.
       -1   -1    0    0    0  501  0.00000000000E+00  0.00000000000E+00 -0.27042004254E+03  0.27042004258E+03  0.50400001928E-02 0. -1.
    10030    2    1    2    0    0  0.00000000000E+00  0.00000000000E+00  0.71825630875E+03  0.12590963939E+04  0.10341332622E+04 0.  0.
        2    1    3    3  502    0 -0.35410533362E+03 -0.25568503057E+03  0.22170337628E+02  0.43732933361E+03  0.25500000920E-02 0. -1.
       -2    1    3    3    0  502  0.35410533362E+03  0.25568503057E+03  0.69608597112E+03  0.82176706027E+03  0.25500000920E-02 0.  1.
</event>
<event>
 5   0  0.8293000E-04  0.1387953E+04  0.7818609E-02  0.8962585E-01
        3   -1    0    0  501    0  0.00000000000E+00  0.00000000000E+00  0.24157710081E+04  0.24157710102E+04  0.10100000352E+00 0. -1.
       -3   -1    0    0    0  501  0.00000000000E+00  0.00000000000E+00 -0.19935809423E+03  0.19935811981E+03  0.10100000352E+00 0.  1.
    10030    2    1    2    0    0  0.00000000000E+00  0.00000000000E+00  0.22164129139E+04  0.26151291301E+04  0.13879532276E+04 0.  0.
        4    1    3    3  502    0 -0.50147465761E+03 -0.75979783698E+02  0.20006555291E+04  0.20639462006E+04  0.12699999809E+01 0. -1.
       -4    1    3    3    0  502  0.50147465761E+03  0.75979783698E+02  0.21575738476E+03  0.55118292946E+03  0.12699999809E+01 0.  1.
</event>
<event>
 5   0  0.2083966E-03  0.1369084E+04  0.7818609E-02  0.8976506E-01
       -2   -1    0    0    0  501  0.00000000000E+00  0.00000000000E+00  0.30284700212E+03  0.30284700213E+03  0.25500000920E-02 0.  1.
        2   -1    0    0  501    0  0.00000000000E+00  0.00000000000E+00 -0.15473089493E+04  0.15473089493E+04  0.25500000920E-02 0. -1.
    10030    2    1    2    0    0  0.00000000000E+00  0.00000000000E+00 -0.12444619472E+04  0.18501559514E+04  0.13690841854E+04 0.  0.
        1    1    3    3  502    0 -0.48141174856E+03  0.48621146897E+03 -0.59391597216E+03  0.90603258563E+03  0.50400001928E-02 0. -1.
       -1    1    3    3    0  502  0.48141174856E+03 -0.48621146897E+03 -0.65054597504E+03  0.94412336581E+03  0.50400001928E-02 0.  1.
</event>
<event>
 5   0  0.2172901E-03  0.1431052E+04  0.7818609E-02  0.8931643E-01
        2   -1    0    0  501    0  0.00000000000E+00  0.00000000000E+00  0.59422000039E+03  0.59422000040E+03  0.25500000920E-02 0.  1.
       -2   -1    0    0    0  501  0.00000000000E+00  0.00000000000E+00 -0.86159620219E+03  0.86159620220E+03  0.25500000920E-02 0. -1.
    10030    2    1    2    0    0  0.00000000000E+00  0.00000000000E+00 -0.26737620180E+03  0.14558162026E+04  0.14310523339E+04 0.  0.
        2    1    3    3  502    0 -0.14437928112E+03 -0.44919186760E+03  0.41354142064E+03  0.62740355222E+03  0.25500000920E-02 0.  1.
       -2    1    3    3    0  502  0.14437928112E+03  0.44919186760E+03 -0.68091762245E+03  0.82841265038E+03  0.25500000920E-02 0. -1.
</event>
<event>
 5   0  0.1210275E-03  0.1390266E+04  0.7818609E-02  0.8960895E-01
       -1   -1    0    0    0  501  0.00000000000E+00  0.00000000000E+00  0.68746800254E+03  0.68746800256E+03  0.50400001928E-02 0.  1.
        1   -1    0    0  501    0  0.00000000000E+00  0.00000000000E+00 -0.70288311692E+03  0.70288311693E+03  0.50400001928E-02 0. -1.
    10030    2    1    2    0    0  0.00000000000E+00  0.00000000000E+00 -0.15415114377E+02  0.13903511195E+04  0.13902656616E+04 0.  0.
        1    1    3    3  502    0  0.62367958355E+03 -0.29805055390E+03  0.65776866944E+02  0.69436082253E+03  0.50400001928E-02 0. -1.
       -1    1    3    3    0  502 -0.62367958355E+03  0.29805055390E+03 -0.81191981320E+02  0.69599029696E+03  0.50400001928E-02 0.  1.
</event>
<event>
 5   0  0.1175374E-03  0.1383070E+04  0.7818609E-02  0.8966165E-01
        1   -1    0    0  501    0  0.00000000000E+00  0.00000000000E+00  0.13652690886E+04  0.13652690886E+04  0.50400001928E-02 0. -1.
       -1   -1    0    0    0  501  0.00000000000E+00  0.00000000000E+00 -0.35027591636E+03  0.35027591640E+03  0.50400001928E-02 0.  1.
    10030    2    1    2    0    0  0.00000000000E+00  0.00000000000E+00  0.10149931722E+04  0.17155450050E+04  0.13830703252E+04 0.  0.
        3    1    3    3  502    0  0.36381496211E+03 -0.47580509956E+03  0.78764921459E+02  0.60411566978E+03  0.10100000352E+00 0.  1.
       -3    1    3    3    0  502 -0.36381496211E+03  0.47580509956E+03  0.93622825078E+03  0.11114293352E+04  0.10100000352E+00 0. -1.
</event>
<event>
 5   0  0.1225690E-03  0.1399151E+04  0.7818609E-02  0.8954434E-01
        1   -1    0    0  501    0  0.00000000000E+00  0.00000000000E+00  0.23954217025E+04  0.23954217025E+04  0.50400001928E-02 0.  1.
       -1   -1    0    0    0  501  0.00000000000E+00  0.00000000000E+00 -0.20430875647E+03  0.20430875653E+03  0.50400001928E-02 0. -1.
    10030    2    1    2    0    0  0.00000000000E+00  0.00000000000E+00  0.21911129460E+04  0.25997304590E+04  0.13991506414E+04 0.  0.
        4    1    3    3  502    0  0.37190584874E+03 -0.33430864653E+03  0.18656374833E+03  0.53374514195E+03  0.12699999809E+01 0. -1.
       -4    1    3    3    0  502 -0.37190584874E+03  0.33430864653E+03  0.20045491977E+04  0.20659853170E+04  0.12699999809E+01 0.  1.
</event>
<event>
 5   0  0.8293000E-04  0.1350915E+04  0.7818609E-02  0.8990136E-01
       -3   -1    0    0    0  501  0.00000000000E+00  0.00000000000E+00  0.27060247137E+03  0.27060249022E+03  0.10100000352E+00 0.  1.
        3   -1    0    0  501    0  0.00000000000E+00  0.00000000000E+00 -0.16860262291E+04  0.16860262322E+04  0.10100000352E+00 0. -1.
    10030    2    1    2    0    0  0.00000000000E+00  0.00000000000E+00 -0.14154237578E+04  0.19566287224E+04  0.13509150762E+04 0.  0.
        3    1    3    3  502    0 -0.57454645822E+02  0.23458397453E+03 -0.16213495591E+04  0.16392391774E+04  0.10100000352E+00 0. -1.
       -3    1    3    3    0  502  0.57454645822E+02 -0.23458397453E+03  0.20592580137E+03  0.31738954504E+03  0.10100000352E+00 0.  1.
</event>
<event>
 5   0  0.1210275E-03  0.1540918E+04  0.7818609E-02  0.8857690E-01
       -1   -1    0    0    0  501  0.00000000000E+00  0.00000000000E+00  0.42863165226E+03  0.42863165229E+03  0.50400001928E-02 0. -1.
        1   -1    0    0  501    0  0.00000000000E+00  0.00000000000E+00 -0.13848887842E+04  0.13848887842E+04  0.50400001928E-02 0.  1.
    10030    2    1    2    0    0  0.00000000000E+00  0.00000000000E+00 -0.95625713193E+03  0.18135204365E+04  0.15409181260E+04 0.  0.
        1    1    3    3  502    0  0.69987693236E+02 -0.71414631647E+03 -0.14795591440E+03  0.73266239917E+03  0.50400001928E-02 0. -1.
       -1    1    3    3    0  502 -0.69987693236E+02  0.71414631647E+03 -0.80830121753E+03  0.10808580373E+04  0.50400001928E-02 0.  1.
</event>
<event>
 5   0  0.2236184E-03  0.1407606E+04  0.7818609E-02  0.8948331E-01
        2   -1    0    0  501    0  0.00000000000E+00  0.00000000000E+00  0.19736110557E+04  0.19736110557E+04  0.25500000920E-02 0. -1.
       -2   -1    0    0    0  501  0.00000000000E+00  0.00000000000E+00 -0.25098082031E+03  0.25098082033E+03  0.25500000920E-02 0.  1.
    10030    2    1    2    0    0  0.00000000000E+00  0.00000000000E+00  0.17226302354E+04  0.22245918760E+04  0.14076057996E+04 0.  0.
        3    1    3    3  502    0  0.29343233168E+03 -0.25253665450E+03 -0.67584851129E+02  0.39299493310E+03  0.10100000352E+00 0.  1.
       -3    1    3    3    0  502 -0.29343233168E+03  0.25253665450E+03  0.17902150865E+04  0.18315969429E+04  0.10100000352E+00 0. -1.
</event>
<event>
 5   0  0.1238683E-03  0.9524769E+03  0.7818609E-02  0.9362260E-01
       -1   -1    0    0    0  501  0.00000000000E+00  0.00000000000E+00  0.20915921587E+03  0.20915921593E+03  0.50400001928E-02 0.  1.
        1   -1    0    0  501    0  0.00000000000E+00  0.00000000000E+00 -0.10843561437E+04  0.10843561437E+04  0.50400001928E-02 0. -1.
    10030    2    1    2    0    0  0.00000000000E+00  0.00000000000E+00 -0.87519692785E+03  0.12935153597E+04  0.95247694100E+03 0.  0.
        2    1    3    3  502    0  0.46698535764E+03  0.79068546341E+02 -0.37002354151E+03  0.60103625560E+03  0.25500000920E-02 0.  1.
       -2    1    3    3    0  502 -0.46698535764E+03 -0.79068546341E+02 -0.50517338634E+03  0.69247910405E+03  0.25500000920E-02 0. -1.
</event>
<event>
 5   0  0.2083966E-03  0.1455049E+04  0.7818609E-02  0.8914908E-01
       -2   -1    0    0    0  501  0.00000000000E+00  0.00000000000E+00  0.45482962025E+03  0.45482962026E+03  0.25500000920E-02 0. -1.
        2   -1    0    0  501    0  0.00000000000E+00  0.00000000000E+00 -0.11637142255E+04  0.11637142255E+04  0.25500000920E-02 0.  1.
    10030    2    1    2    0    0  0.00000000000E+00  0.00000000000E+00 -0.70888460523E+03  0.16185438457E+04  0.14550487267E+04 0.  0.
        1    1    3    3  502    0  0.18616130114E+02 -0.72277299772E+03 -0.26445533506E+03  0.76985972151E+03  0.50400001928E-02 0. -1.
       -1    1    3    3    0  502 -0.18616130114E+02  0.72277299772E+03 -0.44442927017E+03  0.84868412424E+03  0.50400001928E-02 0.  1.
</event>
<event>
 5   0  0.1238683E-03  0.1361145E+04  0.7818609E-02  0.8982434E-01
       -1   -1    0    0    0  501  0.00000000000E+00  0.00000000000E+00  0.48233810259E+03  0.48233810262E+03  0.50400001928E-02 0. -1.
        1   -1    0    0  501    0  0.00000000000E+00  0.00000000000E+00 -0.96027804623E+03  0.96027804624E+03  0.50400001928E-02 0.  1.
    10030    2    1    2    0    0  0.00000000000E+00  0.00000000000E+00 -0.47793994364E+03  0.14426161489E+04  0.13611446518E+04 0.  0.
        2    1    3    3  502    0 -0.21736944742E+02  0.60910438982E+03  0.81972010611E+02  0.61497972568E+03  0.25500000920E-02 0. -1.
       -2    1    3    3    0  502  0.21736944742E+02 -0.60910438982E+03 -0.55991195425E+03  0.82763642318E+03  0.25500000920E-02 0.  1.
</event>
<event>
 5   0  0.1175374E-03  0.1329901E+04  0.7818609E-02  0.9006184E-01
        1   -1    0    0  501    0  0.00000000000E+00  0.00000000000E+00  0.10034596368E+04  0.10034596368E+04  0.50400001928E-02 0.  1.
       -1   -1    0    0    0  501  0.00000000000E+00  0.00000000000E+00 -0.44063451259E+03  0.44063451262E+03  0.50400001928E-02 0. -1.
    10030    2    1    2    0    0  0.00000000000E+00  0.00000000000E+00  0.56282512420E+03  0.14440941494E+04  0.13299006700E+04 0.  0.
        3    1    3    3  502    0 -0.55737454260E+03  0.34101496049E+02 -0.11059812757E+03  0.56926377786E+03  0.10100000352E+00 0. -1.
       -3    1    3    3    0  502  0.55737454260E+03 -0.34101496049E+02  0.67342325177E+03  0.87483037155E+03  0.10100000352E+00 0.  1.
</event>
<event>
 5   0  0.2195980E-03  0.1392986E+04  0.7818609E-02  0.8958911E-01
       -2   -1    0    0    0  501  0.00000000000E+00  0.00000000000E+00  0.22838745961E+03  0.22838745963E+03  0.25500000920E-02 0.  1.
        2   -1    0    0  501    0  0.00000000000E+00  0.00000000000E+00 -0.21240328383E+04  0.21240328383E+04  0.25500000920E-02 0. -1.
    10030    2    1    2    0    0  0.00000000000E+00  0.00000000000E+00 -0.18956453787E+04  0.23524202980E+04  0.13929859498E+04 0.  0.
        4    1    3    3  502    0  0.61946952103E+03  0.18374205606E+03 -0.13868915138E+04  0.15300239588E+04  0.12699999809E+01 0. -1.
       -4    1    3    3    0  502 -0.61946952103E+03 -0.18374205606E+03 -0.50875386493E+03  0.82239633914E+03  0.12699999809E+01 0.  1.
</event>
<event>
 5   0  0.1225690E-03  0.1360455E+04  0.7818609E-02  0.8982951E-01
        1   -1    0    0  501    0  0.00000000000E+00  0.00000000000E+00  0.23648848962E+04  0.23648848962E+04  0.50400001928E-02 0. -1.
       -1   -1    0    0    0  501  0.00000000000E+00  0.00000000000E+00 -0.19565830369E+03  0.19565830376E+03  0.50400001928E-02 0.  1.
    10030    2    1    2    0    0  0.00000000000E+00  0.00000000000E+00  0.21692265925E+04  0.25605431999E+04  0.13604548758E+04 0.  0.
        4    1    3    3  502    0 -0.25143626729E+03  0.31750051045E+01 -0.10496796718E+03  0.27248883317E+03  0.12699999809E+01 0.  1.
       -4    1    3    3    0  502  0.25143626729E+03 -0.31750051045E+01  0.22741945597E+04  0.22880543668E+04  0.12699999809E+01 0. -1.
</event>
<event>
 5   0  0.2172901E-03  0.1405257E+04  0.7818609E-02  0.8950022E-01
        2   -1    0    0  501    0  0.00000000000E+00  0.00000000000E+00  0.11346477025E+04  0.11346477025E+04  0.25500000920E-02 0.  1.
       -2   -1    0    0    0  501  0.00000000000E+00  0.00000000000E+00 -0.43510140277E+03  0.43510140278E+03  0.25500000920E-02 0. -1.
    10030    2    1    2    0    0  0.00000000000E+00  0.00000000000E+00  0.69954629972E+03  0.15697491053E+04  0.14052569972E+04 0.  0.
        2    1    3    3  502    0 -0.26751603988E+03  0.12167776116E+03 -0.36314634098E+03  0.46716760817E+03  0.25500000920E-02 0. -1.
       -2    1    3    3    0  502  0.26751603988E+03 -0.12167776116E+03  0.10626926407E+04  0.11025814971E+04  0.25500000920E-02 0.  1.
</event>
<event>
 5   0  0.1175374E-03  0.1388121E+04  0.7818609E-02  0.8962462E-01
        1   -1    0    0  501    0  0.00000000000E+00  0.00000000000E+00  0.17278531692E+04  0.17278531692E+04  0.50400001928E-02 0.  1.
       -1   -1    0    0    0  501  0.00000000000E+00  0.00000000000E+00 -0.27879685406E+03  0.27879685410E+03  0.50400001928E-02 0. -1.
    10030    2    1    2    0    0  0.00000000000E+00  0.00000000000E+00  0.14490563151E+04  0.20066500233E+04  0.13881210724E+04 0.  0.
        3    1    3    3  502    0 -0.28446795727E+03  0.30210053665E+03 -0.79734586992E+02  0.42254510709E+03  0.10100000352E+00 0. -1.
       -3    1    3    3    0  502  0.28446795727E+03 -0.30210053665E+03  0.15287909021E+04  0.15841049162E+04  0.10100000352E+00 0.  1.
</event>
<event>
 5   0  0.2236184E-03  0.1405625E+04  0.7818609E-02  0.8949757E-01
       -2   -1    0    0    0  501  0.00000000000E+00  0.00000000000E+00  0.41024486515E+03  0.41024486516E+03  0.25500000920E-02 0. -1.
        2   -1    0    0  501    0  0.00000000000E+00  0.00000000000E+00 -0.12040261695E+04  0.12040261695E+04  0.25500000920E-02 0.  1.
    10030    2    1    2    0    0  0.00000000000E+00  0.00000000000E+00 -0.79378130438E+03  0.16142710347E+04  0.14056252041E+04 0.  0.
        3    1    3    3  502    0  0.64879952798E+03 -0.26265932544E+03 -0.32412296275E+03  0.77135365036E+03  0.10100000352E+00 0.  1.
       -3    1    3    3    0  502 -0.64879952798E+03  0.26265932544E+03 -0.46965834163E+03  0.84291738433E+03  0.10100000352E+00 0. -1.
</event>
<event>
 5   0  0.1238683E-03  0.1425012E+04  0.7818609E-02  0.8935910E-01
       -1   -1    0    0    0  501  0.00000000000E+00  0.00000000000E+00  0.19125414819E+03  0.19125414825E+03  0.50400001928E-02 0.  1.
        1   -1    0    0  501    0  0.00000000000E+00  0.00000000000E+00 -0.26544006886E+04  0.26544006886E+04  0.50400001928E-02 0. -1.
    10030    2    1    2    0    0  0.00000000000E+00  0.00000000000E+00 -0.24631465404E+04  0.28456548368E+04  0.14250124810E+04 0.  0.
        2    1    3    3  502    0  0.32572007227E+03 -0.63214980790E+03 -0.13199406166E+04  0.14993165698E+04  0.25500000920E-02 0. -1.
       -2    1    3    3    0  502 -0.32572007227E+03  0.63214980790E+03 -0.11432059238E+04  0.13463382671E+04  0.25500000920E-02 0.  1.
</event>
<event>
 5   0  0.2172901E-03  0.1467559E+04  0.7818609E-02  0.8906317E-01
        2   -1    0    0  501    0  0.00000000000E+00  0.00000000000E+00  0.15831837929E+04  0.15831837929E+04  0.25500000920E-02 0.  1.
       -2   -1    0    0    0  501  0.00000000000E+00  0.00000000000E+00 -0.34009463811E+03  0.34009463812E+03  0.25500000920E-02 0. -1.
    10030    2    1    2    0    0  0.00000000000E+00  0.00000000000E+00  0.12430891548E+04  0.19232784310E+04  0.14675589516E+04 0.  0.
        2    1    3    3  502    0 -0.14046947008E+03 -0.14959988523E+03  0.15448124459E+04  0.15583829089E+04  0.25500000920E-02 0.  1.
       -2    1    3    3    0  502  0.14046947008E+03  0.14959988523E+03 -0.30172329110E+03  0.36489552215E+03  0.25500000920E-02 0. -1.
</event>
<event>
 5   0  0.2083966E-03  0.1368644E+04  0.7818609E-02  0.8976833E-01
       -2   -1    0    0    0  501  0.00000000000E+00  0.00000000000E+00  0.52829367398E+03  0.52829367398E+03  0.25500000920E-02 0.  1.
        2   -1    0    0  501    0  0.00000000000E+00  0.00000000000E+00 -0.88643294986E+03  0.88643294987E+03  0.25500000920E-02 0. -1.
    10030    2    1    2    0    0  0.00000000000E+00  0.00000000000E+00 -0.35813927589E+03  0.14147266238E+04  0.13686444678E+04 0.  0.
        1    1    3    3  502    0 -0.35921694266E+01 -0.95596877756E+02  0.52134776728E+03  0.53005203631E+03  0.50400001928E-02 0.  1.
       -1    1    3    3    0  502  0.35921694266E+01  0.95596877756E+02 -0.87948704317E+03  0.88467458754E+03  0.50400001928E-02 0. -1.
</event>
<event>
 5   0  0.1175374E-03  0.1387388E+04  0.7818609E-02  0.8962999E-01
       -1   -1    0    0    0  501  0.00000000000E+00  0.00000000000E+00  0.41055187311E+03  0.41055187314E+03  0.50400001928E-02 0. -1.
        1   -1    0    0  501    0  0.00000000000E+00  0.00000000000E+00 -0.11721081457E+04  0.11721081457E+04  0.50400001928E-02 0.  1.
    10030    2    1    2    0    0  0.00000000000E+00  0.00000000000E+00 -0.76155627258E+03  0.15826600188E+04  0.13873877536E+04 0.  0.
        3    1    3    3  502    0  0.59228048067E+03  0.30820762303E+03 -0.59547856988E+03  0.89464118174E+03  0.10100000352E+00 0.  1.
       -3    1    3    3    0  502 -0.59228048067E+03 -0.30820762303E+03 -0.16607770270E+03  0.68801883710E+03  0.10100000352E+00 0. -1.
</event>
<event>
 5   0  0.1238683E-03  0.1391971E+04  0.7818609E-02  0.8959651E-01
       -1   -1    0    0    0  501  0.00000000000E+00  0.00000000000E+00  0.63681286555E+03  0.63681286557E+03  0.50400001928E-02 0.  1.
        1   -1    0    0  501    0  0.00000000000E+00  0.00000000000E+00 -0.76065611443E+03  0.76065611445E+03  0.50400001928E-02 0. -1.
    10030    2    1    2    0    0  0.00000000000E+00  0.00000000000E+00 -0.12384324888E+03  0.13974689800E+04  0.13919706893E+04 0.  0.
        2    1    3    3  502    0  0.13749312079E+03 -0.68079306703E+03 -0.16888657478E+02  0.69474368305E+03  0.25500000920E-02 0. -1.
       -2    1    3    3    0  502 -0.13749312079E+03  0.68079306703E+03 -0.10695459140E+03  0.70272529697E+03  0.25500000920E-02 0.  1.
</event>
<event>
 5   0  0.2172901E-03  0.1386928E+04  0.7818609E-02  0.8963335E-01
       -2   -1    0    0    0  501  0.00000000000E+00  0.00000000000E+00  0.48897513544E+03  0.48897513545E+03  0.25500000920E-02 0. -1.
        2   -1    0    0  501    0  0.00000000000E+00  0.00000000000E+00 -0.98346980456E+03  0.98346980456E+03  0.25500000920E-02 0.  1.
    10030    2    1    2    0    0  0.00000000000E+00  0.00000000000E+00 -0.49449466912E+03  0.14724449400E+04  0.13869279446E+04 0.  0.
        2    1    3    3  502    0  0.42209125808E+03 -0.27445137091E+03  0.25902913633E+03  0.56619844455E+03  0.25500000920E-02 0.  1.
       -2    1    3    3    0  502 -0.42209125808E+03  0.27445137091E+03 -0.75352380545E+03  0.90624649545E+03  0.25500000920E-02 0. -1.
</event>
<event>
 5   0  0.2195980E-03  0.1405341E+04  0.7818609E-02  0.8949961E-01
       -2   -1    0    0    0  501  0.00000000000E+00  0.00000000000E+00  0.35742798909E+03  0.35742798910E+03  0.25500000920E-02 0. -1.
        2   -1    0    0  501    0  0.00000000000E+00  0.00000000000E+00 -0.13813857066E+04  0.13813857066E+04  0.25500000920E-02 0.  1.
    10030    2    1    2    0    0  0.00000000000E+00  0.00000000000E+00 -0.10239577175E+04  0.17388136957E+04  0.14053411191E+04 0.  0.
        4    1    3    3  502    0  0.79141205415E+02  0.41902257090E+03  0.17902380573E+03  0.46248716873E+03  0.12699999809E+01 0. -1.
       -4    1    3    3    0  502 -0.79141205415E+02 -0.41902257090E+03 -0.12029815232E+04  0.12763265269E+04  0.12699999809E+01 0.  1.
</event>
<event>
 5   0  0.2236184E-03  0.1376429E+04  0.7818609E-02  0.8971060E-01
       -2   -1    0    0    0  501  0.00000000000E+00  0.00000000000E+00  0.62249847029E+03  0.62249847030E+03  0.25500000920E-02 0. -1.
        2   -1    0    0  501    0  0.00000000000E+00  0.00000000000E+00 -0.76086781409E+03  0.76086781409E+03  0.25500000920E-02 0.  1.
    10030    2    1    2    0    0  0.00000000000E+00  0.00000000000E+00 -0.13836934379E+03  0.13833662844E+04  0.13764287855E+04 0.  0.
        3    1    3    3  502    0 -0.38199436288E+03  0.28323110869E+03  0.43081600342E+03  0.64167125010E+03  0.10100000352E+00 0. -1.
       -3    1    3    3    0  502  0.38199436288E+03 -0.28323110869E+03 -0.56918534722E+03  0.74169503429E+03  0.10100000352E+00 0.  1.
</event>
<event>
 5   0  0.2190704E-03  0.1390918E+04  0.7818609E-02  0.8960419E-01
        2   -1    0    0  501    0  0.00000000000E+00  0.00000000000E+00  0.48066591564E+03  0.48066591565E+03  0.25500000920E-02 0.  1.
       -2   -1    0    0    0  501  0.00000000000E+00  0.00000000000E+00 -0.10062361207E+04  0.10062361207E+04  0.25500000920E-02 0. -1.
    10030    2    1    2    0    0  0.00000000000E+00  0.00000000000E+00 -0.52557020508E+03  0.14869020364E+04  0.13909182669E+04 0.  0.
        5    1    3    3  502    0 -0.36091327831E+03  0.27911138010E+03  0.29829593701E+03  0.54512761166E+03  0.46999998093E+01 0.  1.
       -5    1    3    3    0  502  0.36091327831E+03 -0.27911138010E+03 -0.82386614209E+03  0.94177442471E+03  0.46999998093E+01 0. -1.
</event>
<event>
 5   0  0.1225690E-03  0.1424904E+04  0.7818609E-02  0.8935986E-01
        1   -1    0    0  501    0  0.00000000000E+00  0.00000000000E+00  0.45212093995E+03  0.45212093997E+03  0.50400001928E-02 0.  1.
       -1   -1    0    0    0  501  0.00000000000E+00  0.00000000000E+00 -0.11226822936E+04  0.11226822936E+04  0.50400001928E-02 0. -1.
    10030    2    1    2    0    0  0.00000000000E+00  0.00000000000E+00 -0.67056135367E+03  0.15748032336E+04  0.14249044514E+04 0.  0.
        4    1    3    3  502    0 -0.44580144004E+03  0.52959766406E+03 -0.14911463552E+03  0.70813091808E+03  0.12699999809E+01 0.  1.
       -4    1    3    3    0  502  0.44580144004E+03 -0.52959766406E+03 -0.52144671816E+03  0.86667231552E+03  0.12699999809E+01 0. -1.
</event>
<event>
 5   0  0.1175374E-03  0.1387888E+04  0.7818609E-02  0.8962633E-01
        1   -1    0    0  501    0  0.00000000000E+00  0.00000000000E+00  0.11670307077E+04  0.11670307077E+04  0.50400001928E-02 0.  1.
       -1   -1    0    0    0  501  0.00000000000E+00  0.00000000000E+00 -0.41263526542E+03  0.41263526545E+03  0.50400001928E-02 0. -1.
    10030    2    1    2    0    0  0.00000000000E+00  0.00000000000E+00  0.75439544229E+03  0.15796659732E+04  0.13878876408E+04 0.  0.
        3    1    3    3  502    0 -0.58789153442E+03  0.31674874300E+02 -0.40900683727E+02  0.59016322321E+03  0.10100000352E+00 0. -1.
       -3    1    3    3    0  502  0.58789153442E+03 -0.31674874300E+02  0.79529612602E+03  0.98950274995E+03  0.10100000352E+00 0.  1.
</event>
<event>
 5   0  0.1210275E-03  0.1394543E+04  0.7818609E-02  0.8957778E-01
        1   -1    0    0  501    0  0.00000000000E+00  0.00000000000E+00  0.60742845186E+03  0.60742845189E+03  0.50400001928E-02 0.  1.
       -1   -1    0    0    0  501  0.00000000000E+00  0.00000000000E+00 -0.80040264114E+03  0.80040264115E+03  0.50400001928E-02 0. -1.
    10030    2    1    2    0    0  0.00000000000E+00  0.00000000000E+00 -0.19297418927E+03  0.14078310930E+04  0.13945427024E+04 0.  0.
        1    1    3    3  502    0 -0.54259773008E+03  0.31396269957E+03  0.21171276159E+03  0.66166998334E+03  0.50400001928E-02 0. -1.
       -1    1    3    3    0  502  0.54259773008E+03 -0.31396269957E+03 -0.40468695087E+03  0.74616110970E+03  0.50400001928E-02 0.  1.
</event>
<event>
 5   0  0.2195980E-03  0.1460780E+04  0.7818609E-02  0.8910961E-01
        2   -1    0    0  501    0  0.00000000000E+00  0.00000000000E+00  0.76648414118E+03  0.76648414119E+03  0.25500000920E-02 0.  1.
       -2   -1    0    0    0  501  0.00000000000E+00  0.00000000000E+00 -0.69599534156E+03  0.69599534156E+03  0.25500000920E-02 0. -1.
    10030    2    1    2    0    0  0.00000000000E+00  0.00000000000E+00  0.70488799625E+02  0.14624794828E+04  0.14607797803E+04 0.  0.
        4    1    3    3  502    0 -0.20286691851E+03  0.65570958395E+03  0.28525026329E+03  0.74328956048E+03  0.12699999809E+01 0.  1.
       -4    1    3    3    0  502  0.20286691851E+03 -0.65570958395E+03 -0.21476146367E+03  0.71918992227E+03  0.12699999809E+01 0. -1.
</event>
<event>
 5   0  0.2195980E-03  0.1408227E+04  0.7818609E-02  0.8947885E-01
        2   -1    0    0  501    0  0.00000000000E+00  0.00000000000E+00  0.11127532955E+04  0.11127532955E+04  0.25500000920E-02 0. -1.
       -2   -1    0    0    0  501  0.00000000000E+00  0.00000000000E+00 -0.44553987328E+03  0.44553987329E+03  0.25500000920E-02 0.  1.
    10030    2    1    2    0    0  0.00000000000E+00  0.00000000000E+00  0.66721342220E+03  0.15582931688E+04  0.14082272008E+04 0.  0.
        4    1    3    3  502    0 -0.59702207397E+03  0.10353135642E+03  0.73046103283E+03  0.94906745385E+03  0.12699999809E+01 0. -1.
       -4    1    3    3    0  502  0.59702207397E+03 -0.10353135642E+03 -0.63247610630E+02  0.60922571492E+03  0.12699999809E+01 0.  1.
</event>
<event>
 5   0  0.1199720E-03  0.1415963E+04  0.7818609E-02  0.8942344E-01
        1   -1    0    0  501    0  0.00000000000E+00  0.00000000000E+00  0.73797425810E+03  0.73797425811E+03  0.50400001928E-02 0. -1.
       -1   -1    0    0    0  501  0.00000000000E+00  0.00000000000E+00 -0.67920815474E+03  0.67920815476E+03  0.50400001928E-02 0.  1.
    10030    2    1    2    0    0  0.00000000000E+00  0.00000000000E+00  0.58766103353E+02  0.14171824129E+04  0.14159634658E+04 0.  0.
        5    1    3    3  502    0  0.35836175854E+03  0.35968095463E+03 -0.46442034145E+03  0.68811473074E+03  0.46999998093E+01 0.  1.
       -5    1    3    3    0  502 -0.35836175854E+03 -0.35968095463E+03  0.52318644481E+03  0.72906768213E+03  0.46999998093E+01 0. -1.
</event>
<event>
 5   0  0.2172901E-03  0.1396341E+04  0.7818609E-02  0.8956472E-01
        2   -1    0    0  501    0  0.00000000000E+00  0.00000000000E+00  0.83196133142E+03  0.83196133142E+03  0.25500000920E-02 0. -1.
       -2   -1    0    0    0  501  0.00000000000E+00  0.00000000000E+00 -0.58589493246E+03  0.58589493247E+03  0.25500000920E-02 0.  1.
    10030    2    1    2    0    0  0.00000000000E+00  0.00000000000E+00  0.24606639896E+03  0.14178562639E+04  0.13963408296E+04 0.  0.
        2    1    3    3  502    0 -0.40784641377E+03 -0.56218969013E+03  0.50903575505E+02  0.69641016572E+03  0.25500000920E-02 0. -1.
       -2    1    3    3    0  502  0.40784641377E+03  0.56218969013E+03  0.19516282345E+03  0.72144609817E+03  0.25500000920E-02 0.  1.
</event>
<event>
 5   0  0.1238683E-03  0.1187429E+04  0.7818609E-02  0.9123932E-01
        1   -1    0    0  501    0  0.00000000000E+00  0.00000000000E+00  0.42833144135E+03  0.42833144138E+03  0.50400001928E-02 0. -1.
       -1   -1    0    0    0  501  0.00000000000E+00  0.00000000000E+00 -0.82295374991E+03  0.82295374993E+03  0.50400001928E-02 0.  1.
    10030    2    1    2    0    0  0.00000000000E+00  0.00000000000E+00 -0.39462230856E+03  0.12512851913E+04  0.11874290983E+04 0.  0.
        2    1    3    3  502    0  0.19223977767E+03  0.42610272974E+02  0.39292161682E+03  0.43949876502E+03  0.25500000920E-02 0. -1.
       -2    1    3    3    0  502 -0.19223977767E+03 -0.42610272974E+02 -0.78754392539E+03  0.81178642629E+03  0.25500000920E-02 0.  1.
</event>
<event>
 5   0  0.1175374E-03  0.1397819E+04  0.7818609E-02  0.8955399E-01
        1   -1    0    0  501    0  0.00000000000E+00  0.00000000000E+00  0.15323428513E+04  0.15323428513E+04  0.50400001928E-02 0.  1.
       -1   -1    0    0    0  501  0.00000000000E+00  0.00000000000E+00 -0.31877606665E+03  0.31877606669E+03  0.50400001928E-02 0. -1.
    10030    2    1    2    0    0  0.00000000000E+00  0.00000000000E+00  0.12135667847E+04  0.18511189180E+04  0.13978186248E+04 0.  0.
        3    1    3    3  502    0 -0.66818558866E+03 -0.45581338485E+02  0.34217497175E+03  0.75208600625E+03  0.10100000352E+00 0.  1.
       -3    1    3    3    0  502  0.66818558866E+03  0.45581338485E+02  0.87139181291E+03  0.10990329118E+04  0.10100000352E+00 0. -1.
</event>
<event>
 5   0  0.2190704E-03  0.1409178E+04  0.7818609E-02  0.8947202E-01
       -2   -1    0    0    0  501  0.00000000000E+00  0.00000000000E+00  0.52733980093E+03  0.52733980094E+03  0.25500000920E-02 0. -1.
        2   -1    0    0  501    0  0.00000000000E+00  0.00000000000E+00 -0.94141456377E+03  0.94141456377E+03  0.25500000920E-02 0.  1.
    10030    2    1    2    0    0  0.00000000000E+00  0.00000000000E+00 -0.41407476284E+03  0.14687543647E+04  0.14091775880E+04 0.  0.
        5    1    3    3  502    0 -0.26738516784E+03 -0.12738875564E+03 -0.87336230300E+03  0.92222910675E+03  0.46999998093E+01 0.  1.
       -5    1    3    3    0  502  0.26738516784E+03  0.12738875564E+03  0.45928754016E+03  0.54652525796E+03  0.46999998093E+01 0. -1.
</event>
<event>
 5   0  0.2083966E-03  0.1353419E+04  0.7818609E-02  0.8988244E-01
       -2   -1    0    0    0  501  0.00000000000E+00  0.00000000000E+00  0.43695902673E+03  0.43695902674E+03  0.25500000920E-02 0. -1.
        2   -1    0    0  501    0  0.00000000000E+00  0.00000000000E+00 -0.10480055683E+04  0.10480055683E+04  0.25500000920E-02 0.  1.
    10030    2    1    2    0    0  0.00000000000E+00  0.00000000000E+00 -0.61104654161E+03  0.14849645951E+04  0.13534186243E+04 0.  0.
        1    1    3    3  502    0  0.16529816292E+03  0.11807621666E+03 -0.10137626592E+04  0.10339149892E+04  0.50400001928E-02 0.  1.
       -1    1    3    3    0  502 -0.16529816292E+03 -0.11807621666E+03  0.40271611759E+03  0.45104960591E+03  0.50400001928E-02 0. -1.
</event>
<event>
 5   0  0.1225690E-03  0.1401919E+04  0.7818609E-02  0.8952431E-01
        1   -1    0    0  501    0  0.00000000000E+00  0.00000000000E+00  0.92304973307E+03  0.92304973309E+03  0.50400001928E-02 0.  1.
       -1   -1    0    0    0  501  0.00000000000E+00  0.00000000000E+00 -0.53230490715E+03  0.53230490717E+03  0.50400001928E-02 0. -1.
    10030    2    1    2    0    0  0.00000000000E+00  0.00000000000E+00  0.39074482593E+03  0.14553546403E+04  0.14019185461E+04 0.  0.
        4    1    3    3  502    0  0.11171733397E+03  0.33119828348E+03 -0.43537982208E+03  0.55832810073E+03  0.12699999809E+01 0. -1.
       -4    1    3    3    0  502 -0.11171733397E+03 -0.33119828348E+03  0.82612464800E+03  0.89702653953E+03  0.12699999809E+01 0.  1.
</event>
<event>
 5   0  0.1225690E-03  0.1420250E+04  0.7818609E-02  0.8939289E-01
       -1   -1    0    0    0  501  0.00000000000E+00  0.00000000000E+00  0.58014942397E+03  0.58014942399E+03  0.50400001928E-02 0.  1.
        1   -1    0    0  501    0  0.00000000000E+00  0.00000000000E+00 -0.86922051708E+03  0.86922051709E+03  0.50400001928E-02 0. -1.
    10030    2    1    2    0    0  0.00000000000E+00  0.00000000000E+00 -0.28907109311E+03  0.14493699411E+04  0.14202503755E+04 0.  0.
        4    1    3    3  502    0 -0.54818685497E+03 -0.30838272761E+03 -0.48094178804E+03  0.79177986274E+03  0.12699999809E+01 0. -1.
       -4    1    3    3    0  502  0.54818685497E+03  0.30838272761E+03  0.19187069493E+03  0.65759007834E+03  0.12699999809E+01 0.  1.
</event>
<event>
 5   0  0.1175374E-03  0.1385556E+04  0.7818609E-02  0.8964341E-01
        1   -1    0    0  501    0  0.00000000000E+00  0.00000000000E+00  0.80273885571E+03  0.80273885572E+03  0.50400001928E-02 0. -1.
       -1   -1    0    0    0  501  0.00000000000E+00  0.00000000000E+00 -0.59787997443E+03  0.59787997445E+03  0.50400001928E-02 0.  1.
    10030    2    1    2    0    0  0.00000000000E+00  0.00000000000E+00  0.20485888128E+03  0.14006188302E+04  0.13855561866E+04 0.  0.
        3    1    3    3  502    0  0.38485717711E+03  0.36914926938E+03  0.54945314690E+03  0.76569249748E+03  0.10100000352E+00 0. -1.
       -3    1    3    3    0  502 -0.38485717711E+03 -0.36914926938E+03 -0.34459426562E+03  0.63492633270E+03  0.10100000352E+00 0.  1.
</event>
<event>
 5   0  0.2195980E-03  0.1203104E+04  0.7818609E-02  0.9110144E-01
       -2   -1    0    0    0  501  0.00000000000E+00  0.00000000000E+00  0.28900584432E+03  0.28900584433E+03  0.25500000920E-02 0.  1.
        2   -1    0    0  501    0  0.00000000000E+00  0.00000000000E+00 -0.12521012409E+04  0.12521012409E+04  0.25500000920E-02 0. -1.
    10030    2    1    2    0    0  0.00000000000E+00  0.00000000000E+00 -0.96309539661E+03  0.15411070853E+04  0.12031036137E+04 0.  0.
        4    1    3    3  502    0 -0.27300486416E+03 -0.42054995190E+02 -0.11660588285E+04  0.11983301227E+04  0.12699999809E+01 0. -1.
       -4    1    3    3    0  502  0.27300486416E+03  0.42054995190E+02  0.20296343192E+03  0.34277696258E+03  0.12699999809E+01 0.  1.
</event>
<event>
 5   0  0.1199720E-03  0.1402330E+04  0.7818609E-02  0.8952134E-01
        1   -1    0    0  501    0  0.00000000000E+00  0.00000000000E+00  0.13996352534E+04  0.13996352534E+04  0.50400001928E-02 0.  1.
       -1   -1    0    0    0  501  0.00000000000E+00  0.00000000000E+00 -0.35125728615E+03  0.35125728619E+03  0.50400001928E-02 0. -1.
    10030    2    1    2    0    0  0.00000000000E+00  0.00000000000E+00  0.10483779673E+04  0.17508925396E+04  0.14023296057E+04 0.  0.
        5    1    3    3  502    0  0.17962749451E+03  0.65492253639E+03  0.30642200270E+03  0.74505442700E+03  0.46999998093E+01 0. -1.
       -5    1    3    3    0  502 -0.17962749451E+03 -0.65492253639E+03  0.74195596456E+03  0.10058381126E+04  0.46999998093E+01 0.  1.
</event>
<event>
 5   0  0.2236184E-03  0.1423925E+04  0.7818609E-02  0.8936680E-01
       -2   -1    0    0    0  501  0.00000000000E+00  0.00000000000E+00  0.34170992379E+03  0.34170992380E+03  0.25500000920E-02 0. -1.
        2   -1    0    0  501    0  0.00000000000E+00  0.00000000000E+00 -0.14833940300E+04  0.14833940300E+04  0.25500000920E-02 0.  1.
    10030    2    1    2    0    0  0.00000000000E+00  0.00000000000E+00 -0.11416841062E+04  0.18251039538E+04  0.14239248027E+04 0.  0.
        3    1    3    3  502    0  0.13871342861E+03  0.66364295441E+03 -0.29229662973E+03  0.73830936346E+03  0.10100000352E+00 0.  1.
       -3    1    3    3    0  502 -0.13871342861E+03 -0.66364295441E+03 -0.84938747648E+03  0.10867945903E+04  0.10100000352E+00 0. -1.
</event>
<event>
 5   0  0.2236184E-03  0.1384672E+04  0.7818609E-02  0.8964989E-01
       -2   -1    0    0    0  501  0.00000000000E+00  0.00000000000E+00  0.29726535392E+03  0.29726535393E+03  0.25500000920E-02 0. -1.
        2   -1    0    0  501    0  0.00000000000E+00  0.00000000000E+00 -0.16124621473E+04  0.16124621474E+04  0.25500000920E-02 0.  1.
    10030    2    1    2    0    0  0.00000000000E+00  0.00000000000E+00 -0.13151967934E+04  0.19097275013E+04  0.13846719914E+04 0.  0.
        3    1    3    3  502    0 -0.42256491075E+03 -0.18343657301E+02 -0.14135556657E+04  0.14754786423E+04  0.10100000352E+00 0.  1.
       -3    1    3    3    0  502  0.42256491075E+03  0.18343657301E+02  0.98358872309E+02  0.43424885898E+03  0.10100000352E+00 0. -1.
</event>
<event>
 5   0  0.8293000E-04  0.1388726E+04  0.7818609E-02  0.8962020E-01
       -3   -1    0    0    0  501  0.00000000000E+00  0.00000000000E+00  0.84856623833E+03  0.84856624434E+03  0.10100000352E+00 0. -1.
        3   -1    0    0  501    0  0.00000000000E+00  0.00000000000E+00 -0.56818196634E+03  0.56818197532E+03  0.10100000352E+00 0.  1.
    10030    2    1    2    0    0  0.00000000000E+00  0.00000000000E+00  0.28038427199E+03  0.14167482197E+04  0.13887260990E+04 0.  0.
        2    1    3    3  502    0 -0.12170322395E+03  0.13724145840E+03  0.82340177689E+03  0.84358602337E+03  0.25500000920E-02 0. -1.
       -2    1    3    3    0  502  0.12170322395E+03 -0.13724145840E+03 -0.54301750490E+03  0.57316219630E+03  0.25500000920E-02 0.  1.
</event>
<event>
 5   0  0.1199720E-03  0.1413000E+04  0.7818609E-02  0.8944462E-01
        1   -1    0    0  501    0  0.00000000000E+00  0.00000000000E+00  0.65394009316E+03  0.65394009318E+03  0.50400001928E-02 0. -1.
       -1   -1    0    0    0  501  0.00000000000E+00  0.00000000000E+00 -0.76328399432E+03  0.76328399433E+03  0.50400001928E-02 0.  1.
    10030    2    1    2    0    0  0.00000000000E+00  0.00000000000E+00 -0.10934390116E+03  0.14172240875E+04  0.14129996552E+04 0.  0.
        5    1    3    3  502    0  0.18376905216E+03 -0.21934827760E+02  0.62917853887E+03  0.65585053554E+03  0.46999998093E+01 0. -1.
       -5    1    3    3    0  502 -0.18376905216E+03  0.21934827760E+02 -0.73852244003E+03  0.76137355196E+03  0.46999998093E+01 0.  1.
</event>
<event>
 5   0  0.2236184E-03  0.1405120E+04  0.7818609E-02  0.8950121E-01
       -2   -1    0    0    0  501  0.00000000000E+00  0.00000000000E+00  0.10621756561E+04  0.10621756561E+04  0.25500000920E-02 0. -1.
        2   -1    0    0  501    0  0.00000000000E+00  0.00000000000E+00 -0.46469753728E+03  0.46469753729E+03  0.25500000920E-02 0.  1.
    10030    2    1    2    0    0  0.00000000000E+00  0.00000000000E+00  0.59747811882E+03  0.15268731934E+04  0.14051197978E+04 0.  0.
        3    1    3    3  502    0 -0.30773852323E+03 -0.27757467658E+03  0.91520548106E+03  0.10046650101E+04  0.10100000352E+00 0. -1.
       -3    1    3    3    0  502  0.30773852323E+03  0.27757467658E+03 -0.31772736225E+03  0.52220818328E+03  0.10100000352E+00 0.  1.
</event>
<event>
 5   0  0.8293000E-04  0.1384315E+04  0.7818609E-02  0.8965251E-01
        3   -1    0    0  501    0  0.00000000000E+00  0.00000000000E+00  0.61501821162E+03  0.61501821992E+03  0.10100000352E+00 0.  1.
       -3   -1    0    0    0  501  0.00000000000E+00  0.00000000000E+00 -0.77897225434E+03  0.77897226089E+03  0.10100000352E+00 0. -1.
    10030    2    1    2    0    0  0.00000000000E+00  0.00000000000E+00 -0.16395404271E+03  0.13939904808E+04  0.13843151854E+04 0.  0.
        4    1    3    3  502    0  0.41478578563E+03 -0.20368499073E+02 -0.63957851597E+03  0.76257748112E+03  0.12699999809E+01 0. -1.
       -4    1    3    3    0  502 -0.41478578563E+03  0.20368499073E+02  0.47562447325E+03  0.63141299969E+03  0.12699999809E+01 0.  1.
</event>
<event>
 5   0  0.2172901E-03  0.1432357E+04  0.7818609E-02  0.8930724E-01
        2   -1    0    0  501    0  0.00000000000E+00  0.00000000000E+00  0.51711246461E+03  0.51711246462E+03  0.25500000920E-02 0.  1.
       -2   -1    0    0    0  501  0.00000000000E+00  0.00000000000E+00 -0.99187596929E+03  0.99187596930E+03  0.25500000920E-02 0. -1.
    10030    2    1    2    0    0  0.00000000000E+00  0.00000000000E+00 -0.47476350468E+03  0.15089884339E+04  0.14323566973E+04 0.  0.
        2    1    3    3  502    0  0.19095623600E+03 -0.57297692884E+03 -0.64286938656E+03  0.88207023146E+03  0.25500000920E-02 0.  1.
       -2    1    3    3    0  502 -0.19095623600E+03  0.57297692884E+03  0.16810588188E+03  0.62691820246E+03  0.25500000920E-02 0. -1.
</event>
<event>
 5   0  0.2083966E-03  0.1419008E+04  0.7818609E-02  0.8940173E-01
       -2   -1    0    0    0  501  0.00000000000E+00  0.00000000000E+00  0.68839334984E+03  0.68839334984E+03  0.25500000920E-02 0.  1.
        2   -1    0    0  501    0  0.00000000000E+00  0.00000000000E+00 -0.73126222105E+03  0.73126222106E+03  0.25500000920E-02 0. -1.
    10030    2    1    2    0    0  0.00000000000E+00  0.00000000000E+00 -0.42868871213E+02  0.14196555709E+04  0.14190081747E+04 0.  0.
        1    1    3    3  502    0 -0.47613980077E+03  0.18317439655E+02 -0.54736563778E+03  0.72570915656E+03  0.50400001928E-02 0. -1.
       -1    1    3    3    0  502  0.47613980077E+03 -0.18317439655E+02  0.50449676656E+03  0.69394641434E+03  0.50400001928E-02 0.  1.
</event>
<event>
 5   0  0.1210275E-03  0.1428982E+04  0.7818609E-02  0.8933103E-01
       -1   -1    0    0    0  501  0.00000000000E+00  0.00000000000E+00  0.54859461402E+03  0.54859461404E+03  0.50400001928E-02 0.  1.
        1   -1    0    0  501    0  0.00000000000E+00  0.00000000000E+00 -0.93055535636E+03  0.93055535638E+03  0.50400001928E-02 0. -1.
    10030    2    1    2    0    0  0.00000000000E+00  0.00000000000E+00 -0.38196074234E+03  0.14791499704E+04  0.14289823744E+04 0.  0.
        1    1    3    3  502    0 -0.55891405409E+02 -0.71078734861E+03 -0.14292694795E+03  0.72716615475E+03  0.50400001928E-02 0.  1.
       -1    1    3    3    0  502  0.55891405409E+02  0.71078734861E+03 -0.23903379439E+03  0.75198381567E+03  0.50400001928E-02 0. -1.
</event>
<event>
 5   0  0.2195980E-03  0.1383455E+04  0.7818609E-02  0.8965883E-01
        2   -1    0    0  501    0  0.00000000000E+00  0.00000000000E+00  0.70743095736E+03  0.70743095736E+03  0.25500000920E-02 0. -1.
       -2   -1    0    0    0  501  0.00000000000E+00  0.00000000000E+00 -0.67637245843E+03  0.67637245843E+03  0.25500000920E-02 0.  1.
    10030    2    1    2    0    0  0.00000000000E+00  0.00000000000E+00  0.31058498931E+02  0.13838034158E+04  0.13834548288E+04 0.  0.
        4    1    3    3  502    0  0.67991925927E+03 -0.12591990412E+03 -0.28922726906E+01  0.69148824973E+03  0.12699999809E+01 0.  1.
       -4    1    3    3    0  502 -0.67991925927E+03  0.12591990412E+03  0.33950771621E+02  0.69231516607E+03  0.12699999809E+01 0. -1.
</event>
<event>
 5   0  0.2195980E-03  0.1358236E+04  0.7818609E-02  0.8984617E-01
        2   -1    0    0  501    0  0.00000000000E+00  0.00000000000E+00  0.93110417095E+03  0.93110417095E+03  0.25500000920E-02 0.  1.
       -2   -1    0    0    0  501  0.00000000000E+00  0.00000000000E+00 -0.49532703536E+03  0.49532703536E+03  0.25500000920E-02 0. -1.
    10030    2    1    2    0    0  0.00000000000E+00  0.00000000000E+00  0.43577713560E+03  0.14264312063E+04  0.13582357212E+04 0.  0.
        4    1    3    3  502    0 -0.11055267439E+02 -0.64519145365E+03 -0.44117144894E+01  0.64530249257E+03  0.12699999809E+01 0. -1.
       -4    1    3    3    0  502  0.11055267439E+02  0.64519145365E+03  0.44018885009E+03  0.78112871374E+03  0.12699999809E+01 0.  1.
</event>
<event>
 5   0  0.2236184E-03  0.1394276E+04  0.7818609E-02  0.8957972E-01
        2   -1    0    0  501    0  0.00000000000E+00  0.00000000000E+00  0.73435724924E+03  0.73435724924E+03  0.25500000920E-02 0.  1.
       -2   -1    0    0    0  501  0.00000000000E+00  0.00000000000E+00 -0.66180493199E+03  0.66180493199E+03  0.25500000920E-02 0. -1.
    10030    2    1    2    0    0  0.00000000000E+00  0.00000000000E+00  0.72552317251E+02  0.13961621812E+04  0.13942757968E+04 0.  0.
        3    1    3    3  502    0  0.26433039051E+03 -0.21218932190E+03  0.64628536431E+03  0.72978054646E+03  0.10100000352E+00 0.  1.
       -3    1    3    3    0  502 -0.26433039051E+03  0.21218932190E+03 -0.57373304706E+03  0.66638163477E+03  0.10100000352E+00 0. -1.
</event>
<event>
 5   0  0.1225690E-03  0.1181600E+04  0.7818609E-02  0.9129116E-01
        1   -1    0    0  501    0  0.00000000000E+00  0.00000000000E+00  0.10222293757E+04  0.10222293757E+04  0.50400001928E-02 0. -1.
       -1   -1    0    0    0  501  0.00000000000E+00  0.00000000000E+00 -0.34145424323E+03  0.34145424327E+03  0.50400001928E-02 0.  1.
    10030    2    1    2    0    0  0.00000000000E+00  0.00000000000E+00  0.68077513243E+03  0.13636836189E+04  0.11815998610E+04 0.  0.
        4    1    3    3  502    0  0.41318144503E+03  0.41941707951E+03  0.28369142265E+03  0.65353808557E+03  0.12699999809E+01 0.  1.
       -4    1    3    3    0  502 -0.41318144503E+03 -0.41941707951E+03  0.39708370977E+03  0.71014553337E+03  0.12699999809E+01 0. -1.
</event>
<event>
 5   0  0.1238683E-03  0.1365709E+04  0.7818609E-02  0.8979021E-01
       -1   -1    0    0    0  501  0.00000000000E+00  0.00000000000E+00  0.58644410412E+03  0.58644410414E+03  0.50400001928E-02 0. -1.
        1   -1    0    0  501    0  0.00000000000E+00  0.00000000000E+00 -0.79511485846E+03  0.79511485848E+03  0.50400001928E-02 0.  1.
    10030    2    1    2    0    0  0.00000000000E+00  0.00000000000E+00 -0.20867075435E+03  0.13815589626E+04  0.13657092236E+04 0.  0.
        2    1    3    3  502    0  0.39313112083E+03 -0.33859460656E+03 -0.55343813197E+03  0.75861199021E+03  0.25500000920E-02 0.  1.
       -2    1    3    3    0  502 -0.39313112083E+03  0.33859460656E+03  0.34476737763E+03  0.62294697241E+03  0.25500000920E-02 0. -1.
</event>
<event>
 5   0  0.2236184E-03  0.1406399E+04  0.7818609E-02  0.8949200E-01
        2   -1    0    0  501    0  0.00000000000E+00  0.00000000000E+00  0.91396398160E+03  0.91396398160E+03  0.25500000920E-02 0.  1.
       -2   -1    0    0    0  501  0.00000000000E+00  0.00000000000E+00 -0.54103829670E+03  0.54103829671E+03  0.25500000920E-02 0. -1.
    10030    2    1    2    0    0  0.00000000000E+00  0.00000000000E+00  0.37292568490E+03  0.14550022783E+04  0.14063989702E+04 0.  0.
        3    1    3    3  502    0 -0.26495186922E+03  0.59603634021E+03  0.45827961581E+03  0.79716938496E+03  0.10100000352E+00 0.  1.
       -3    1    3    3    0  502  0.26495186922E+03 -0.59603634021E+03 -0.85353930913E+02  0.65783289335E+03  0.10100000352E+00 0. -1.
</event>
<event>
 5   0  0.2195980E-03  0.1377269E+04  0.7818609E-02  0.8970439E-01
        2   -1    0    0  501    0  0.00000000000E+00  0.00000000000E+00  0.69216944439E+03  0.69216944439E+03  0.25500000920E-02 0.  1.
       -2   -1    0    0    0  501  0.00000000000E+00  0.00000000000E+00 -0.68511775631E+03  0.68511775632E+03  0.25500000920E-02 0. -1.
    10030    2    1    2    0    0  0.00000000000E+00  0.00000000000E+00  0.70516880740E+01  0.13772872007E+04  0.13772691483E+04 0.  0.
        4    1    3    3  502    0 -0.17604868122E+03 -0.44149894816E+03 -0.49477929707E+03  0.68609228613E+03  0.12699999809E+01 0. -1.
       -4    1    3    3    0  502  0.17604868122E+03  0.44149894816E+03  0.50183098514E+03  0.69119491457E+03  0.12699999809E+01 0.  1.
</event>
<event>
 5   0  0.2195980E-03  0.1393917E+04  0.7818609E-02  0.8958233E-01
       -2   -1    0    0    0  501  0.00000000000E+00  0.00000000000E+00  0.71718662010E+03  0.71718662010E+03  0.25500000920E-02 0. -1.
        2   -1    0    0  501    0  0.00000000000E+00  0.00000000000E+00 -0.67730099767E+03  0.67730099768E+03  0.25500000920E-02 0.  1.
    10030    2    1    2    0    0  0.00000000000E+00  0.00000000000E+00  0.39885622425E+02  0.13944876178E+04  0.13939170898E+04 0.  0.
        4    1    3    3  502    0 -0.54417920097E+03  0.11186402133E+03 -0.40106793171E+03  0.68520191242E+03  0.12699999809E+01 0.  1.
       -4    1    3    3    0  502  0.54417920097E+03 -0.11186402133E+03  0.44095355413E+03  0.70928570537E+03  0.12699999809E+01 0. -1.
</event>
<event>
 5   0  0.1175374E-03  0.1384665E+04  0.7818609E-02  0.8964994E-01
        1   -1    0    0  501    0  0.00000000000E+00  0.00000000000E+00  0.17456634284E+04  0.17456634284E+04  0.50400001928E-02 0. -1.
       -1   -1    0    0    0  501  0.00000000000E+00  0.00000000000E+00 -0.27458017441E+03  0.27458017445E+03  0.50400001928E-02 0.  1.
    10030    2    1    2    0    0  0.00000000000E+00  0.00000000000E+00  0.14710832540E+04  0.20202436028E+04  0.13846654017E+04 0.  0.
        3    1    3    3  502    0 -0.46187375921E+03  0.27494215397E+03  0.13721860434E+04  0.14737079444E+04  0.10100000352E+00 0. -1.
       -3    1    3    3    0  502  0.46187375921E+03 -0.27494215397E+03  0.98897210564E+02  0.54653565843E+03  0.10100000352E+00 0.  1.
</event>
<event>
 5   0  0.1210275E-03  0.1433424E+04  0.7818609E-02  0.8929974E-01
        1   -1    0    0  501    0  0.00000000000E+00  0.00000000000E+00  0.88328978962E+03  0.88328978964E+03  0.50400001928E-02 0.  1.
       -1   -1    0    0    0  501  0.00000000000E+00  0.00000000000E+00 -0.58154868703E+03  0.58154868705E+03  0.50400001928E-02 0. -1.
    10030    2    1    2    0    0  0.00000000000E+00  0.00000000000E+00  0.30174110259E+03  0.14648384767E+04  0.14334238975E+04 0.  0.
        1    1    3    3  502    0 -0.62365603574E+03  0.35274959165E+03  0.13326237319E+03  0.72879214146E+03  0.50400001928E-02 0.  1.
       -1    1    3    3    0  502  0.62365603574E+03 -0.35274959165E+03  0.16847872940E+03  0.73604633523E+03  0.50400001928E-02 0. -1.
</event>
<event>
 5   0  0.1238683E-03  0.1408062E+04  0.7818609E-02  0.8948003E-01
        1   -1    0    0  501    0  0.00000000000E+00  0.00000000000E+00  0.72342479152E+03  0.72342479154E+03  0.50400001928E-02 0. -1.
       -1   -1    0    0    0  501  0.00000000000E+00  0.00000000000E+00 -0.68515750334E+03  0.68515750336E+03  0.50400001928E-02 0.  1.
    10030    2    1    2    0    0  0.00000000000E+00  0.00000000000E+00  0.38267288178E+02  0.14085822949E+04  0.14080623907E+04 0.  0.
        2    1    3    3  502    0  0.15843149788E+03 -0.65789080032E+03 -0.17520357211E+03  0.69901154236E+03  0.25500000920E-02 0.  1.
       -2    1    3    3    0  502 -0.15843149788E+03  0.65789080032E+03  0.21347086029E+03  0.70957075254E+03  0.25500000920E-02 0. -1.
</event>
<event>
 5   0  0.2083966E-03  0.1415859E+04  0.7818609E-02  0.8942419E-01
       -2   -1    0    0    0  501  0.00000000000E+00  0.00000000000E+00  0.78344183686E+03  0.78344183686E+03  0.25500000920E-02 0.  1.
        2   -1    0    0  501    0  0.00000000000E+00  0.00000000000E+00 -0.63969509258E+03  0.63969509258E+03  0.25500000920E-02 0. -1.
    10030    2    1    2    0    0  0.00000000000E+00  0.00000000000E+00  0.14374674428E+03  0.14231369294E+04  0.14158586064E+04 0.  0.
        1    1    3    3  502    0 -0.21946466784E+03 -0.12818202607E+03  0.73600324381E+03  0.77865020848E+03  0.50400001928E-02 0.  1.
       -1    1    3    3    0  502  0.21946466784E+03  0.12818202607E+03 -0.59225649953E+03  0.64448672097E+03  0.50400001928E-02 0. -1.
</event>
<event>
 5   0  0.2195980E-03  0.1306020E+04  0.7818609E-02  0.9024805E-01
       -2   -1    0    0    0  501  0.00000000000E+00  0.00000000000E+00  0.68177510776E+03  0.68177510776E+03  0.25500000920E-02 0.  1.
        2   -1    0    0  501    0  0.00000000000E+00  0.00000000000E+00 -0.62545891071E+03  0.62545891072E+03  0.25500000920E-02 0. -1.
    10030    2    1    2    0    0  0.00000000000E+00  0.00000000000E+00  0.56316197045E+02  0.13072340185E+04  0.13060203923E+04 0.  0.
        4    1    3    3  502    0 -0.32005930201E+03 -0.51581174751E+03 -0.21273333854E+03  0.64323930376E+03  0.12699999809E+01 0. -1.
       -4    1    3    3    0  502  0.32005930201E+03  0.51581174751E+03  0.26904953559E+03  0.66399471472E+03  0.12699999809E+01 0.  1.
</event>
<event>
 5   0  0.1199720E-03  0.1390438E+04  0.7818609E-02  0.8960769E-01
        1   -1    0    0  501    0  0.00000000000E+00  0.00000000000E+00  0.11805271986E+04  0.11805271986E+04  0.50400001928E-02 0.  1.
       -1   -1    0    0    0  501  0.00000000000E+00  0.00000000000E+00 -0.40941819748E+03  0.40941819751E+03  0.50400001928E-02 0. -1.
    10030    2    1    2    0    0  0.00000000000E+00  0.00000000000E+00  0.77110900115E+03  0.15899453961E+04  0.13904377983E+04 0.  0.
        5    1    3    3  502    0  0.63638092747E+03  0.27585123390E+03  0.43958512210E+03  0.82117705622E+03  0.46999998093E+01 0.  1.
       -5    1    3    3    0  502 -0.63638092747E+03 -0.27585123390E+03  0.33152387905E+03  0.76876833993E+03  0.46999998093E+01 0. -1.
</event>
<event>
 5   0  0.2083966E-03  0.1507512E+04  0.7818609E-02  0.8879473E-01
        2   -1    0    0  501    0  0.00000000000E+00  0.00000000000E+00  0.18541241992E+04  0.18541241992E+04  0.25500000920E-02 0. -1.
       -2   -1    0    0    0  501  0.00000000000E+00  0.00000000000E+00 -0.30642379978E+03  0.30642379979E+03  0.25500000920E-02 0.  1.
    10030    2    1    2    0    0  0.00000000000E+00  0.00000000000E+00  0.15477003994E+04  0.21605479990E+04  0.15075115686E+04 0.  0.
        1    1    3    3  502    0 -0.51110888486E+03  0.40366522854E+03  0.23005035786E+03  0.69072503653E+03  0.50400001928E-02 0. -1.
       -1    1    3    3    0  502  0.51110888486E+03 -0.40366522854E+03  0.13176500416E+04  0.14698229625E+04  0.50400001928E-02 0.  1.
</event>
<event>
 5   0  0.1175374E-03  0.1385569E+04  0.7818609E-02  0.8964331E-01
       -1   -1    0    0    0  501  0.00000000000E+00  0.00000000000E+00  0.57165327568E+03  0.57165327570E+03  0.50400001928E-02 0. -1.
        1   -1    0    0  501    0  0.00000000000E+00  0.00000000000E+00 -0.83958286610E+03  0.83958286612E+03  0.50400001928E-02 0.  1.
    10030    2    1    2    0    0  0.00000000000E+00  0.00000000000E+00 -0.26792959042E+03  0.14112361418E+04  0.13855689021E+04 0.  0.
        3    1    3    3  502    0 -0.16558818741E+03 -0.67181588214E+03 -0.16916301231E+03  0.71230061227E+03  0.10100000352E+00 0. -1.
       -3    1    3    3    0  502  0.16558818741E+03  0.67181588214E+03 -0.98766578107E+02  0.69893552954E+03  0.10100000352E+00 0.  1.
</event>
<event>
 5   0  0.1199720E-03  0.1402852E+04  0.7818609E-02  0.8951757E-01
       -1   -1    0    0    0  501  0.00000000000E+00  0.00000000000E+00  0.22538625467E+03  0.22538625472E+03  0.50400001928E-02 0. -1.
        1   -1    0    0  501    0  0.00000000000E+00  0.00000000000E+00 -0.21829112465E+04  0.21829112465E+04  0.50400001928E-02 0.  1.
    10030    2    1    2    0    0  0.00000000000E+00  0.00000000000E+00 -0.19575249919E+04  0.24082975013E+04  0.14028516532E+04 0.  0.
        5    1    3    3  502    0  0.20812559165E+02  0.11592676776E+03 -0.21657866056E+04  0.21689919062E+04  0.46999998093E+01 0.  1.
       -5    1    3    3    0  502 -0.20812559165E+02 -0.11592676776E+03  0.20826161371E+03  0.23930559510E+03  0.46999998093E+01 0. -1.
</event>
<event>
 5   0  0.1199720E-03  0.1402445E+04  0.7818609E-02  0.8952051E-01
        1   -1    0    0  501    0  0.00000000000E+00  0.00000000000E+00  0.10148978144E+04  0.10148978145E+04  0.50400001928E-02 0. -1.
       -1   -1    0    0    0  501  0.00000000000E+00  0.00000000000E+00 -0.48449502314E+03  0.48449502317E+03  0.50400001928E-02 0.  1.
    10030    2    1    2    0    0  0.00000000000E+00  0.00000000000E+00  0.53040279130E+03  0.14993928376E+04  0.14024449224E+04 0.  0.
        5    1    3    3  502    0  0.30788473231E+02 -0.48901796556E+03  0.80147780106E+03  0.93940154158E+03  0.46999998093E+01 0. -1.
       -5    1    3    3    0  502 -0.30788473231E+02  0.48901796556E+03 -0.27107500977E+03  0.55999129604E+03  0.46999998093E+01 0.  1.
</event>
<event>
 5   0  0.2190704E-03  0.1551730E+04  0.7818609E-02  0.8850763E-01
       -2   -1    0    0    0  501  0.00000000000E+00  0.00000000000E+00  0.95497264708E+03  0.95497264709E+03  0.25500000920E-02 0.  1.
        2   -1    0    0  501    0  0.00000000000E+00  0.00000000000E+00 -0.63034953040E+03  0.63034953040E+03  0.25500000920E-02 0. -1.
    10030    2    1    2    0    0  0.00000000000E+00  0.00000000000E+00  0.32462311669E+03  0.15853221775E+04  0.15517300792E+04 0.  0.
        5    1    3    3  502    0 -0.37678880734E+03  0.58371012611E+03  0.51512374269E+03  0.86490570408E+03  0.46999998093E+01 0.  1.
       -5    1    3    3    0  502  0.37678880734E+03 -0.58371012611E+03 -0.19050062600E+03  0.72041647341E+03  0.46999998093E+01 0. -1.
</event>
<event>
 5   0  0.2190704E-03  0.1373060E+04  0.7818609E-02  0.8973553E-01
       -2   -1    0    0    0  501  0.00000000000E+00  0.00000000000E+00  0.29442931058E+03  0.29442931060E+03  0.25500000920E-02 0.  1.
        2   -1    0    0  501    0  0.00000000000E+00  0.00000000000E+00 -0.16008030961E+04  0.16008030961E+04  0.25500000920E-02 0. -1.
    10030    2    1    2    0    0  0.00000000000E+00  0.00000000000E+00 -0.13063737855E+04  0.18952324067E+04  0.13730598705E+04 0.  0.
        5    1    3    3  502    0 -0.51425049798E+03  0.28258205287E+03 -0.11450751235E+04  0.12866721881E+04  0.46999998093E+01 0. -1.
       -5    1    3    3    0  502  0.51425049798E+03 -0.28258205287E+03 -0.16129866205E+03  0.60856021859E+03  0.46999998093E+01 0.  1.
</event>
<event>
 5   0  0.2195980E-03  0.1362310E+04  0.7818609E-02  0.8981561E-01
       -2   -1    0    0    0  501  0.00000000000E+00  0.00000000000E+00  0.16670330747E+03  0.16670330749E+03  0.25500000920E-02 0.  1.
        2   -1    0    0  501    0  0.00000000000E+00  0.00000000000E+00 -0.27832214927E+04  0.27832214927E+04  0.25500000920E-02 0. -1.
    10030    2    1    2    0    0  0.00000000000E+00  0.00000000000E+00 -0.26165181852E+04  0.29499248002E+04  0.13623101384E+04 0.  0.
        4    1    3    3  502    0  0.28976495299E+03 -0.19346011520E+03 -0.25756658083E+04  0.25991241820E+04  0.12699999809E+01 0. -1.
       -4    1    3    3    0  502 -0.28976495299E+03  0.19346011520E+03 -0.40852376911E+02  0.35080061823E+03  0.12699999809E+01 0.  1.
</event>
<event>
 5   0  0.1210275E-03  0.1374345E+04  0.7818609E-02  0.8972601E-01
        1   -1    0    0  501    0  0.00000000000E+00  0.00000000000E+00  0.48752878811E+03  0.48752878813E+03  0.50400001928E-02 0.  1.
       -1   -1    0    0    0  501  0.00000000000E+00  0.00000000000E+00 -0.96857037364E+03  0.96857037365E+03  0.50400001928E-02 0. -1.
    10030    2    1    2    0    0  0.00000000000E+00  0.00000000000E+00 -0.48104158553E+03  0.14560991618E+04  0.13743448483E+04 0.  0.
        1    1    3    3  502    0 -0.54653704645E+03  0.92535337021E+01 -0.68172716938E+03  0.87380793343E+03  0.50400001928E-02 0. -1.
       -1    1    3    3    0  502  0.54653704645E+03 -0.92535337021E+01  0.20068558385E+03  0.58229122835E+03  0.50400001928E-02 0.  1.
</event>
<event>
 5   0  0.2190704E-03  0.1443545E+04  0.7818609E-02  0.8922888E-01
        2   -1    0    0  501    0  0.00000000000E+00  0.00000000000E+00  0.38875396359E+03  0.38875396360E+03  0.25500000920E-02 0.  1.
       -2   -1    0    0    0  501  0.00000000000E+00  0.00000000000E+00 -0.13400654787E+04  0.13400654787E+04  0.25500000920E-02 0. -1.
    10030    2    1    2    0    0  0.00000000000E+00  0.00000000000E+00 -0.95131151507E+03  0.17288194423E+04  0.14435453111E+04 0.  0.
        5    1    3    3  502    0  0.29155094490E+03  0.25136947783E+03 -0.12068372566E+04  0.12667544442E+04  0.46999998093E+01 0. -1.
       -5    1    3    3    0  502 -0.29155094490E+03 -0.25136947783E+03  0.25552574155E+03  0.46206499808E+03  0.46999998093E+01 0.  1.
</event>
<event>
 5   0  0.1199720E-03  0.1427410E+04  0.7818609E-02  0.8934214E-01
        1   -1    0    0  501    0  0.00000000000E+00  0.00000000000E+00  0.72821122236E+03  0.72821122237E+03  0.50400001928E-02 0. -1.
       -1   -1    0    0    0  501  0.00000000000E+00  0.00000000000E+00 -0.69948731737E+03  0.69948731739E+03  0.50400001928E-02 0.  1.
    10030    2    1    2    0    0  0.00000000000E+00  0.00000000000E+00  0.28723904989E+02  0.14276985398E+04  0.14274095620E+04 0.  0.
        5    1    3    3  502    0 -0.20897372257E+02 -0.41809615859E+03  0.59250261115E+03  0.72548089721E+03  0.46999998093E+01 0. -1.
       -5    1    3    3    0  502  0.20897372257E+02  0.41809615859E+03 -0.56377870616E+03  0.70221764255E+03  0.46999998093E+01 0.  1.
</event>
<event>
 5   0  0.2236184E-03  0.1388633E+04  0.7818609E-02  0.8962088E-01
        2   -1    0    0  501    0  0.00000000000E+00  0.00000000000E+00  0.89063648831E+03  0.89063648832E+03  0.25500000920E-02 0.  1.
       -2   -1    0    0    0  501  0.00000000000E+00  0.00000000000E+00 -0.54127061102E+03  0.54127061103E+03  0.25500000920E-02 0. -1.
    10030    2    1    2    0    0  0.00000000000E+00  0.00000000000E+00  0.34936587729E+03  0.14319070993E+04  0.13886329338E+04 0.  0.
        3    1    3    3  502    0 -0.26380421891E+03 -0.40730572783E+03 -0.33736481544E+03  0.59102085473E+03  0.10100000352E+00 0. -1.
       -3    1    3    3    0  502  0.26380421891E+03  0.40730572783E+03  0.68673069273E+03  0.84088624461E+03  0.10100000352E+00 0.  1.
</event>
<event>
 5   0  0.2190704E-03  0.1403108E+04  0.7818609E-02  0.8951572E-01
        2   -1    0    0  501    0  0.00000000000E+00  0.00000000000E+00  0.22069949450E+04  0.22069949450E+04  0.25500000920E-02 0. -1.
       -2   -1    0    0    0  501  0.00000000000E+00  0.00000000000E+00 -0.22300814793E+03  0.22300814795E+03  0.25500000920E-02 0.  1.
    10030    2    1    2    0    0  0.00000000000E+00  0.00000000000E+00  0.19839867970E+04  0.24300030929E+04  0.14031077723E+04 0.  0.
        5    1    3    3  502    0 -0.16216755513E+03 -0.63676718486E+03  0.56641425432E+03  0.86753556766E+03  0.46999998093E+01 0.  1.
       -5    1    3    3    0  502  0.16216755513E+03  0.63676718486E+03  0.14175725427E+04  0.15624675253E+04  0.46999998093E+01 0. -1.
</event>
<event>
 5   0  0.1225690E-03  0.1389900E+04  0.7818609E-02  0.8961162E-01
        1   -1    0    0  501    0  0.00000000000E+00  0.00000000000E+00  0.30543493526E+03  0.30543493530E+03  0.50400001928E-02 0. -1.
       -1   -1    0    0    0  501  0.00000000000E+00  0.00000000000E+00 -0.15812054756E+04  0.15812054756E+04  0.50400001928E-02 0.  1.
    10030    2    1    2    0    0  0.00000000000E+00  0.00000000000E+00 -0.12757705403E+04  0.18866404109E+04  0.13898998412E+04 0.  0.
        4    1    3    3  502    0  0.13919050901E+03 -0.47321542126E+03 -0.13023800555E+04  0.13926601361E+04  0.12699999809E+01 0.  1.
       -4    1    3    3    0  502 -0.13919050901E+03  0.47321542126E+03  0.26609515188E+02  0.49398027482E+03  0.12699999809E+01 0. -1.
</event>
<event>
 5   0  0.2236184E-03  0.1366821E+04  0.7818609E-02  0.8978192E-01
       -2   -1    0    0    0  501  0.00000000000E+00  0.00000000000E+00  0.14334508320E+04  0.14334508320E+04  0.25500000920E-02 0.  1.
        2   -1    0    0  501    0  0.00000000000E+00  0.00000000000E+00 -0.32582193455E+03  0.32582193456E+03  0.25500000920E-02 0. -1.
    10030    2    1    2    0    0  0.00000000000E+00  0.00000000000E+00  0.11076288974E+04  0.17592727666E+04  0.13668207244E+04 0.  0.
        3    1    3    3  502    0  0.17661995281E+03 -0.62369354778E+03  0.83244552307E+03  0.10550610448E+04  0.10100000352E+00 0. -1.
       -3    1    3    3    0  502 -0.17661995281E+03  0.62369354778E+03  0.27518337436E+03  0.70421172171E+03  0.10100000352E+00 0.  1.
</event>
<event>
 5   0  0.2172901E-03  0.1341671E+04  0.7818609E-02  0.8997157E-01
       -2   -1    0    0    0  501  0.00000000000E+00  0.00000000000E+00  0.48624991382E+03  0.48624991383E+03  0.25500000920E-02 0.  1.
        2   -1    0    0  501    0  0.00000000000E+00  0.00000000000E+00 -0.92549145778E+03  0.92549145778E+03  0.25500000920E-02 0. -1.
    10030    2    1    2    0    0  0.00000000000E+00  0.00000000000E+00 -0.43924154395E+03  0.14117413716E+04  0.13416708115E+04 0.  0.
        2    1    3    3  502    0  0.26269791956E+02 -0.26699999861E+03 -0.86658258215E+03  0.90716287012E+03  0.25500000920E-02 0. -1.
       -2    1    3    3    0  502 -0.26269791956E+02  0.26699999861E+03  0.42734103820E+03  0.50457850149E+03  0.25500000920E-02 0.  1.
</event>
<event>
 5   0  0.2195980E-03  0.1396822E+04  0.7818609E-02  0.8956122E-01
       -2   -1    0    0    0  501  0.00000000000E+00  0.00000000000E+00  0.44518133238E+03  0.44518133239E+03  0.25500000920E-02 0. -1.
        2   -1    0    0  501    0  0.00000000000E+00  0.00000000000E+00 -0.10956836558E+04  0.10956836558E+04  0.25500000920E-02 0.  1.
    10030    2    1    2    0    0  0.00000000000E+00  0.00000000000E+00 -0.65050232339E+03  0.15408649882E+04  0.13968219783E+04 0.  0.
        4    1    3    3  502    0  0.63616879803E+02 -0.30946668200E+03 -0.10123461133E+04  0.10605012969E+04  0.12699999809E+01 0.  1.
       -4    1    3    3    0  502 -0.63616879803E+02  0.30946668200E+03  0.36184378994E+03  0.48036369126E+03  0.12699999809E+01 0. -1.
</event>
<event>
 5   0  0.2236184E-03  0.1408551E+04  0.7818609E-02  0.8947652E-01
       -2   -1    0    0    0  501  0.00000000000E+00  0.00000000000E+00  0.28601411032E+03  0.28601411033E+03  0.25500000920E-02 0. -1.
        2   -1    0    0  501    0  0.00000000000E+00  0.00000000000E+00 -0.17341936517E+04  0.17341936517E+04  0.25500000920E-02 0.  1.
    10030    2    1    2    0    0  0.00000000000E+00  0.00000000000E+00 -0.14481795413E+04  0.20202077620E+04  0.14085508218E+04 0.  0.
        3    1    3    3  502    0  0.26314782968E+03  0.71173140556E+02 -0.16554569096E+04  0.16777514673E+04  0.10100000352E+00 0.  1.
       -3    1    3    3    0  502 -0.26314782968E+03 -0.71173140556E+02  0.20727736826E+03  0.34245629472E+03  0.10100000352E+00 0. -1.
</event>
<event>
 5   0  0.2083966E-03  0.1400038E+04  0.7818609E-02  0.8953791E-01
        2   -1    0    0  501    0  0.00000000000E+00  0.00000000000E+00  0.96082232292E+03  0.96082232292E+03  0.25500000920E-02 0. -1.
       -2   -1    0    0    0  501  0.00000000000E+00  0.00000000000E+00 -0.51000751049E+03  0.51000751050E+03  0.25500000920E-02 0.  1.
    10030    2    1    2    0    0  0.00000000000E+00  0.00000000000E+00  0.45081481242E+03  0.14708298334E+04  0.14000380008E+04 0.  0.
        1    1    3    3  502    0  0.16707740552E+03 -0.65128553448E+03  0.43003534983E+03  0.79813414223E+03  0.50400001928E-02 0. -1.
       -1    1    3    3    0  502 -0.16707740552E+03  0.65128553448E+03  0.20779462595E+02  0.67269569119E+03  0.50400001928E-02 0.  1.
</event>
<event>
 5   0  0.2083966E-03  0.1410919E+04  0.7818609E-02  0.8945952E-01
       -2   -1    0    0    0  501  0.00000000000E+00  0.00000000000E+00  0.39417544295E+03  0.39417544295E+03  0.25500000920E-02 0.  1.
        2   -1    0    0  501    0  0.00000000000E+00  0.00000000000E+00 -0.12625677267E+04  0.12625677267E+04  0.25500000920E-02 0. -1.
    10030    2    1    2    0    0  0.00000000000E+00  0.00000000000E+00 -0.86839228372E+03  0.16567431696E+04  0.14109191230E+04 0.  0.
        1    1    3    3  502    0 -0.56723569325E+03  0.32772477262E+03 -0.12684090177E+03  0.66726941536E+03  0.50400001928E-02 0.  1.
       -1    1    3    3    0  502  0.56723569325E+03 -0.32772477262E+03 -0.74155138195E+03  0.98947375426E+03  0.50400001928E-02 0. -1.
</event>
<event>
 5   0  0.1210275E-03  0.1401406E+04  0.7818609E-02  0.8952801E-01
        1   -1    0    0  501    0  0.00000000000E+00  0.00000000000E+00  0.64415612683E+03  0.64415612685E+03  0.50400001928E-02 0.  1.
       -1   -1    0    0    0  501  0.00000000000E+00  0.00000000000E+00 -0.76221402548E+03  0.76221402549E+03  0.50400001928E-02 0. -1.
    10030    2    1    2    0    0  0.00000000000E+00  0.00000000000E+00 -0.11805789864E+03  0.14063701523E+04  0.14014062002E+04 0.  0.
        1    1    3    3  502    0  0.66308211515E+03  0.15703244348E+03 -0.22284857049E+03  0.71693693247E+03  0.50400001928E-02 0. -1.
       -1    1    3    3    0  502 -0.66308211515E+03 -0.15703244348E+03  0.10479067185E+03  0.68943321988E+03  0.50400001928E-02 0.  1.
</event>
<event>
 5   0  0.1238683E-03  0.1389855E+04  0.7818609E-02  0.8961195E-01
       -1   -1    0    0    0  501  0.00000000000E+00  0.00000000000E+00  0.30788825585E+03  0.30788825589E+03  0.50400001928E-02 0.  1.
        1   -1    0    0  501    0  0.00000000000E+00  0.00000000000E+00 -0.15685042959E+04  0.15685042959E+04  0.50400001928E-02 0. -1.
    10030    2    1    2    0    0  0.00000000000E+00  0.00000000000E+00 -0.12606160401E+04  0.18763925518E+04  0.13898547435E+04 0.  0.
        2    1    3    3  502    0 -0.20245473433E+02 -0.63837575019E+03 -0.26060105986E+03  0.68981620018E+03  0.25500000920E-02 0.  1.
       -2    1    3    3    0  502  0.20245473433E+02  0.63837575019E+03 -0.10000149802E+04  0.11865763516E+04  0.25500000920E-02 0. -1.
</event>
<event>
 5   0  0.2083966E-03  0.1426481E+04  0.7818609E-02  0.8934871E-01
       -2   -1    0    0    0  501  0.00000000000E+00  0.00000000000E+00  0.75691842973E+03  0.75691842973E+03  0.25500000920E-02 0.  1.
        2   -1    0    0  501    0  0.00000000000E+00  0.00000000000E+00 -0.67208254695E+03  0.67208254695E+03  0.25500000920E-02 0. -1.
    10030    2    1    2    0    0  0.00000000000E+00  0.00000000000E+00  0.84835882779E+02  0.14290009767E+04  0.14264805166E+04 0.  0.
        1    1    3    3  502    0  0.37294163526E+03  0.27068849004E+03 -0.50292793942E+03  0.68212479373E+03  0.50400001928E-02 0. -1.
       -1    1    3    3    0  502 -0.37294163526E+03 -0.27068849004E+03  0.58776382220E+03  0.74687618295E+03  0.50400001928E-02 0.  1.
</event>
<event>
 5   0  0.1175374E-03  0.1327760E+04  0.7818609E-02  0.9007836E-01
       -1   -1    0    0    0  501  0.00000000000E+00  0.00000000000E+00  0.91495171244E+03  0.91495171246E+03  0.50400001928E-02 0.  1.
        1   -1    0    0  501    0  0.00000000000E+00  0.00000000000E+00 -0.48170506071E+03  0.48170506074E+03  0.50400001928E-02 0. -1.
    10030    2    1    2    0    0  0.00000000000E+00  0.00000000000E+00  0.43324665173E+03  0.13966567732E+04  0.13277603251E+04 0.  0.
        3    1    3    3  502    0  0.44664810916E+03  0.21323779603E+03 -0.24879690675E+03  0.55395379056E+03  0.10100000352E+00 0. -1.
       -3    1    3    3    0  502 -0.44664810916E+03 -0.21323779603E+03  0.68204355848E+03  0.84270298263E+03  0.10100000352E+00 0.  1.
</event>
<event>
 5   0  0.2190704E-03  0.1598049E+04  0.7818609E-02  0.8821748E-01
        2   -1    0    0  501    0  0.00000000000E+00  0.00000000000E+00  0.10534450886E+04  0.10534450886E+04  0.25500000920E-02 0.  1.
       -2   -1    0    0    0  501  0.00000000000E+00  0.00000000000E+00 -0.60604947908E+03  0.60604947908E+03  0.25500000920E-02 0. -1.
    10030    2    1    2    0    0  0.00000000000E+00  0.00000000000E+00  0.44739560949E+03  0.16594945676E+04  0.15980486190E+04 0.  0.
        5    1    3    3  502    0 -0.43925844922E+03  0.23846854068E+03  0.87104706666E+03  0.10042710354E+04  0.46999998093E+01 0.  1.
       -5    1    3    3    0  502  0.43925844922E+03 -0.23846854068E+03 -0.42365145718E+03  0.65522353229E+03  0.46999998093E+01 0. -1.
</event>
<event>
 5   0  0.1175374E-03  0.1375115E+04  0.7818609E-02  0.8972031E-01
        1   -1    0    0  501    0  0.00000000000E+00  0.00000000000E+00  0.14255147299E+04  0.14255147299E+04  0.50400001928E-02 0. -1.
       -1   -1    0    0    0  501  0.00000000000E+00  0.00000000000E+00 -0.33162418500E+03  0.33162418504E+03  0.50400001928E-02 0.  1.
    10030    2    1    2    0    0  0.00000000000E+00  0.00000000000E+00  0.10938905449E+04  0.17571389150E+04  0.13751147742E+04 0.  0.
        3    1    3    3  502    0  0.26087604722E+03  0.53440103518E+03  0.98791905326E+03  0.11530935974E+04  0.10100000352E+00 0. -1.
       -3    1    3    3    0  502 -0.26087604722E+03 -0.53440103518E+03  0.10597149166E+03  0.60404531755E+03  0.10100000352E+00 0.  1.
</event>
<event>
 5   0  0.2172901E-03  0.1414331E+04  0.7818609E-02  0.8943510E-01
        2   -1    0    0  501    0  0.00000000000E+00  0.00000000000E+00  0.82204921849E+03  0.82204921850E+03  0.25500000920E-02 0.  1.
       -2   -1    0    0    0  501  0.00000000000E+00  0.00000000000E+00 -0.60833707871E+03  0.60833707872E+03  0.25500000920E-02 0. -1.
    10030    2    1    2    0    0  0.00000000000E+00  0.00000000000E+00  0.21371213978E+03  0.14303862972E+04  0.14143309657E+04 0.  0.
        2    1    3    3  502    0 -0.70729997654E+02 -0.42985213877E+02  0.81713373705E+03  0.82131480286E+03  0.25500000920E-02 0.  1.
       -2    1    3    3    0  502  0.70729997654E+02  0.42985213877E+02 -0.60342159727E+03  0.60907149435E+03  0.25500000920E-02 0. -1.
</event>
<event>
 5   0  0.1225690E-03  0.1404675E+04  0.7818609E-02  0.8950441E-01
       -1   -1    0    0    0  501  0.00000000000E+00  0.00000000000E+00  0.13794951928E+04  0.13794951928E+04  0.50400001928E-02 0.  1.
        1   -1    0    0  501    0  0.00000000000E+00  0.00000000000E+00 -0.35757883090E+03  0.35757883094E+03  0.50400001928E-02 0. -1.
    10030    2    1    2    0    0  0.00000000000E+00  0.00000000000E+00  0.10219163619E+04  0.17370740238E+04  0.14046754477E+04 0.  0.
        4    1    3    3  502    0  0.51798986074E+03  0.15009400980E+02  0.10972049761E+04  0.12134245549E+04  0.12699999809E+01 0.  1.
       -4    1    3    3    0  502 -0.51798986074E+03 -0.15009400980E+02 -0.75288614162E+02  0.52364946889E+03  0.12699999809E+01 0. -1.
</event>
<event>
 5   0  0.1199720E-03  0.1407685E+04  0.7818609E-02  0.8948274E-01
        1   -1    0    0  501    0  0.00000000000E+00  0.00000000000E+00  0.87244937024E+03  0.87244937025E+03  0.50400001928E-02 0. -1.
       -1   -1    0    0    0  501  0.00000000000E+00  0.00000000000E+00 -0.56782008252E+03  0.56782008254E+03  0.50400001928E-02 0.  1.
    10030    2    1    2    0    0  0.00000000000E+00  0.00000000000E+00  0.30462928772E+03  0.14402694528E+04  0.14076850122E+04 0.  0.
        5    1    3    3  502    0  0.47011373636E+03  0.44272587413E+03 -0.13409185488E+03  0.65955730629E+03  0.46999998093E+01 0.  1.
       -5    1    3    3    0  502 -0.47011373636E+03 -0.44272587413E+03  0.43872114261E+03  0.78071214651E+03  0.46999998093E+01 0. -1.
</event>
<event>
 5   0  0.1210275E-03  0.1392975E+04  0.7818609E-02  0.8958919E-01
        1   -1    0    0  501    0  0.00000000000E+00  0.00000000000E+00  0.57550552790E+03  0.57550552792E+03  0.50400001928E-02 0. -1.
       -1   -1    0    0    0  501  0.00000000000E+00  0.00000000000E+00 -0.84290200124E+03  0.84290200126E+03  0.50400001928E-02 0.  1.
    10030    2    1    2    0    0  0.00000000000E+00  0.00000000000E+00 -0.26739647334E+03  0.14184075292E+04  0.13929748903E+04 0.  0.
        1    1    3    3  502    0 -0.63926446021E+03 -0.10268886485E+03 -0.39507671635E+03  0.75847851972E+03  0.50400001928E-02 0.  1.
       -1    1    3    3    0  502  0.63926446021E+03  0.10268886485E+03  0.12768024301E+03  0.65992900946E+03  0.50400001928E-02 0. -1.
</event>
<event>
 5   0  0.1238683E-03  0.1309075E+04  0.7818609E-02  0.9022400E-01
        1   -1    0    0  501    0  0.00000000000E+00  0.00000000000E+00  0.88374323573E+03  0.88374323574E+03  0.50400001928E-02 0. -1.
       -1   -1    0    0    0  501  0.00000000000E+00  0.00000000000E+00 -0.48477773983E+03  0.48477773985E+03  0.50400001928E-02 0.  1.
    10030    2    1    2    0    0  0.00000000000E+00  0.00000000000E+00  0.39896549590E+03  0.13685209756E+04  0.13090745562E+04 0.  0.
        2    1    3    3  502    0 -0.28571980052E+03  0.46751726546E+03 -0.17484279838E+03  0.57513320376E+03  0.25500000920E-02 0.  1.
       -2    1    3    3    0  502  0.28571980052E+03 -0.46751726546E+03  0.57380829428E+03  0.79338777184E+03  0.25500000920E-02 0. -1.
</event>
<event>
 5   0  0.2236184E-03  0.1264268E+04  0.7818609E-02  0.9058391E-01
       -2   -1    0    0    0  501  0.00000000000E+00  0.00000000000E+00  0.50670155438E+03  0.50670155439E+03  0.25500000920E-02 0.  1.
        2   -1    0    0  501    0  0.00000000000E+00  0.00000000000E+00 -0.78861677309E+03  0.78861677310E+03  0.25500000920E-02 0. -1.
    10030    2    1    2    0    0  0.00000000000E+00  0.00000000000E+00 -0.28191521871E+03  0.12953183275E+04  0.12642679221E+04 0.  0.
        3    1    3    3  502    0  0.26652143411E+03  0.11469093775E+03 -0.71636061338E+03  0.77289082324E+03  0.10100000352E+00 0. -1.
       -3    1    3    3    0  502 -0.26652143411E+03 -0.11469093775E+03  0.43444539467E+03  0.52242750424E+03  0.10100000352E+00 0.  1.
</event>
<event>
 5   0  0.2083966E-03  0.1358530E+04  0.7818609E-02  0.8984396E-01
       -2   -1    0    0    0  501  0.00000000000E+00  0.00000000000E+00  0.52980454040E+03  0.52980454041E+03  0.25500000920E-02 0. -1.
        2   -1    0    0  501    0  0.00000000000E+00  0.00000000000E+00 -0.87088912805E+03  0.87088912806E+03  0.25500000920E-02 0.  1.
    10030    2    1    2    0    0  0.00000000000E+00  0.00000000000E+00 -0.34108458765E+03  0.14006936685E+04  0.13585301090E+04 0.  0.
        1    1    3    3  502    0 -0.32849596051E+03  0.22511296893E+03 -0.73790789033E+03  0.83850670808E+03  0.50400001928E-02 0.  1.
       -1    1    3    3    0  502  0.32849596051E+03 -0.22511296893E+03  0.39682330268E+03  0.56218696038E+03  0.50400001928E-02 0. -1.
</event>
<event>
 5   0  0.1238683E-03  0.1412987E+04  0.7818609E-02  0.8944471E-01
       -1   -1    0    0    0  501  0.00000000000E+00  0.00000000000E+00  0.45870959115E+03  0.45870959118E+03  0.50400001928E-02 0.  1.
        1   -1    0    0  501    0  0.00000000000E+00  0.00000000000E+00 -0.10881240827E+04  0.10881240827E+04  0.50400001928E-02 0. -1.
    10030    2    1    2    0    0  0.00000000000E+00  0.00000000000E+00 -0.62941449158E+03  0.15468336739E+04  0.14129868409E+04 0.  0.
        2    1    3    3  502    0  0.35337372630E+03  0.48227623373E+03 -0.72675146917E+03  0.94107972777E+03  0.25500000920E-02 0. -1.
       -2    1    3    3    0  502 -0.35337372630E+03 -0.48227623373E+03  0.97336977597E+02  0.60575394615E+03  0.25500000920E-02 0.  1.
</event>
<event>
 5   0  0.1225690E-03  0.1408792E+04  0.7818609E-02  0.8947479E-01
        1   -1    0    0  501    0  0.00000000000E+00  0.00000000000E+00  0.71249967831E+03  0.71249967833E+03  0.50400001928E-02 0. -1.
       -1   -1    0    0    0  501  0.00000000000E+00  0.00000000000E+00 -0.69638437325E+03  0.69638437327E+03  0.50400001928E-02 0.  1.
    10030    2    1    2    0    0  0.00000000000E+00  0.00000000000E+00  0.16115305059E+02  0.14088840516E+04  0.14087918824E+04 0.  0.
        4    1    3    3  502    0 -0.36028823902E+03 -0.22782003814E+02 -0.59683346669E+03  0.69752307111E+03  0.12699999809E+01 0.  1.
       -4    1    3    3    0  502  0.36028823902E+03  0.22782003814E+02  0.61294877175E+03  0.71136098049E+03  0.12699999809E+01 0. -1.
</event>
<event>
 5   0  0.1175374E-03  0.1529598E+04  0.7818609E-02  0.8865006E-01
       -1   -1    0    0    0  501  0.00000000000E+00  0.00000000000E+00  0.85868035528E+03  0.85868035529E+03  0.50400001928E-02 0. -1.
        1   -1    0    0  501    0  0.00000000000E+00  0.00000000000E+00 -0.68118197510E+03  0.68118197512E+03  0.50400001928E-02 0.  1.
    10030    2    1    2    0    0  0.00000000000E+00  0.00000000000E+00  0.17749838018E+03  0.15398623304E+04  0.15295980915E+04 0.  0.
        3    1    3    3  502    0  0.75461728603E+03 -0.11741467403E+02 -0.35906032660E+02  0.75556228321E+03  0.10100000352E+00 0.  1.
       -3    1    3    3    0  502 -0.75461728603E+03  0.11741467403E+02  0.21340441284E+03  0.78430004720E+03  0.10100000352E+00 0. -1.
</event>
<event>
 5   0  0.1225690E-03  0.1418162E+04  0.7818609E-02  0.8940776E-01
       -1   -1    0    0    0  501  0.00000000000E+00  0.00000000000E+00  0.75241567341E+03  0.75241567343E+03  0.50400001928E-02 0. -1.
        1   -1    0    0  501    0  0.00000000000E+00  0.00000000000E+00 -0.66824254289E+03  0.66824254291E+03  0.50400001928E-02 0.  1.
    10030    2    1    2    0    0  0.00000000000E+00  0.00000000000E+00  0.84173130525E+02  0.14206582163E+04  0.14181624208E+04 0.  0.
        4    1    3    3  502    0  0.57409972201E+03 -0.36024611993E+03 -0.16667113802E+03  0.69796034191E+03  0.12699999809E+01 0. -1.
       -4    1    3    3    0  502 -0.57409972201E+03  0.36024611993E+03  0.25084426854E+03  0.72269787442E+03  0.12699999809E+01 0.  1.
</event>
<event>
 5   0  0.2172901E-03  0.1392902E+04  0.7818609E-02  0.8958972E-01
       -2   -1    0    0    0  501  0.00000000000E+00  0.00000000000E+00  0.48615786359E+03  0.48615786360E+03  0.25500000920E-02 0.  1.
        2   -1    0    0  501    0  0.00000000000E+00  0.00000000000E+00 -0.99770917947E+03  0.99770917948E+03  0.25500000920E-02 0. -1.
    10030    2    1    2    0    0  0.00000000000E+00  0.00000000000E+00 -0.51155131588E+03  0.14838670431E+04  0.13929022409E+04 0.  0.
        2    1    3    3  502    0 -0.34854994105E+03  0.54982275597E+03 -0.51942981700E+03  0.83282618785E+03  0.25500000920E-02 0. -1.
       -2    1    3    3    0  502  0.34854994105E+03 -0.54982275597E+03  0.78785011179E+01  0.65104085522E+03  0.25500000920E-02 0.  1.
</event>
<event>
 5   0  0.2083966E-03  0.1383142E+04  0.7818609E-02  0.8966112E-01
       -2   -1    0    0    0  501  0.00000000000E+00  0.00000000000E+00  0.38497085274E+03  0.38497085275E+03  0.25500000920E-02 0.  1.
        2   -1    0    0  501    0  0.00000000000E+00  0.00000000000E+00 -0.12423552496E+04  0.12423552496E+04  0.25500000920E-02 0. -1.
    10030    2    1    2    0    0  0.00000000000E+00  0.00000000000E+00 -0.85738439683E+03  0.16273261023E+04  0.13831421617E+04 0.  0.
        1    1    3    3  502    0 -0.51511427288E+03 -0.28773393525E+03 -0.42601074179E+01  0.59004379512E+03  0.50400001928E-02 0.  1.
       -1    1    3    3    0  502  0.51511427288E+03  0.28773393525E+03 -0.85312428941E+03  0.10372823072E+04  0.50400001928E-02 0. -1.
</event>
<event>
 5   0  0.8293000E-04  0.1366755E+04  0.7818609E-02  0.8978241E-01
        3   -1    0    0  501    0  0.00000000000E+00  0.00000000000E+00  0.89668894968E+03  0.89668895536E+03  0.10100000352E+00 0. -1.
       -3   -1    0    0    0  501  0.00000000000E+00  0.00000000000E+00 -0.52081021998E+03  0.52081022977E+03  0.10100000352E+00 0.  1.
    10030    2    1    2    0    0  0.00000000000E+00  0.00000000000E+00  0.37587872970E+03  0.14174991851E+04  0.13667549599E+04 0.  0.
        5    1    3    3  502    0  0.11926490296E+02  0.26318236541E+03 -0.46600674639E+03  0.53534248506E+03  0.46999998093E+01 0.  1.
       -5    1    3    3    0  502 -0.11926490296E+02 -0.26318236541E+03  0.84188547609E+03  0.88215670007E+03  0.46999998093E+01 0. -1.
</event>
<event>
 5   0  0.1210275E-03  0.1391277E+04  0.7818609E-02  0.8960157E-01
        1   -1    0    0  501    0  0.00000000000E+00  0.00000000000E+00  0.18337051673E+04  0.18337051674E+04  0.50400001928E-02 0.  1.
       -1   -1    0    0    0  501  0.00000000000E+00  0.00000000000E+00 -0.26389885867E+03  0.26389885871E+03  0.50400001928E-02 0. -1.
    10030    2    1    2    0    0  0.00000000000E+00  0.00000000000E+00  0.15698063087E+04  0.20976040261E+04  0.13912766811E+04 0.  0.
        1    1    3    3  502    0  0.38913584313E+02 -0.59164860747E+03  0.23640829224E+03  0.63831906005E+03  0.50400001928E-02 0.  1.
       -1    1    3    3    0  502 -0.38913584313E+02  0.59164860747E+03  0.13333980164E+04  0.14592849660E+04  0.50400001928E-02 0. -1.
</event>
<event>
 5   0  0.2172901E-03  0.1399926E+04  0.7818609E-02  0.8953872E-01
       -2   -1    0    0    0  501  0.00000000000E+00  0.00000000000E+00  0.47310279362E+03  0.47310279363E+03  0.25500000920E-02 0. -1.
        2   -1    0    0  501    0  0.00000000000E+00  0.00000000000E+00 -0.10356063902E+04  0.10356063902E+04  0.25500000920E-02 0.  1.
    10030    2    1    2    0    0  0.00000000000E+00  0.00000000000E+00 -0.56250359656E+03  0.15087091838E+04  0.13999261070E+04 0.  0.
        2    1    3    3  502    0  0.62487023251E+03  0.29484825453E+03 -0.16051994638E+03  0.70934121117E+03  0.25500000920E-02 0. -1.
       -2    1    3    3    0  502 -0.62487023251E+03 -0.29484825453E+03 -0.40198365019E+03  0.79936797265E+03  0.25500000920E-02 0.  1.
</event>
<event>
 5   0  0.1175374E-03  0.1402525E+04  0.7818609E-02  0.8951993E-01
        1   -1    0    0  501    0  0.00000000000E+00  0.00000000000E+00  0.10757158969E+04  0.10757158969E+04  0.50400001928E-02 0.  1.
       -1   -1    0    0    0  501  0.00000000000E+00  0.00000000000E+00 -0.45715510508E+03  0.45715510511E+03  0.50400001928E-02 0. -1.
    10030    2    1    2    0    0  0.00000000000E+00  0.00000000000E+00  0.61856079184E+03  0.15328710020E+04  0.14025248859E+04 0.  0.
        3    1    3    3  502    0 -0.19982076853E+03  0.12528414807E+03 -0.41250859848E+03  0.47517134943E+03  0.10100000352E+00 0. -1.
       -3    1    3    3    0  502  0.19982076853E+03 -0.12528414807E+03  0.10310693903E+04  0.10576996526E+04  0.10100000352E+00 0.  1.
</event>
<event>
 5   0  0.2083966E-03  0.1405809E+04  0.7818609E-02  0.8949625E-01
       -2   -1    0    0    0  501  0.00000000000E+00  0.00000000000E+00  0.13468264568E+04  0.13468264568E+04  0.25500000920E-02 0.  1.
        2   -1    0    0  501    0  0.00000000000E+00  0.00000000000E+00 -0.36684357948E+03  0.36684357949E+03  0.25500000920E-02 0. -1.
    10030    2    1    2    0    0  0.00000000000E+00  0.00000000000E+00  0.97998287728E+03  0.17136700362E+04  0.14058088609E+04 0.  0.
        1    1    3    3  502    0  0.21121908511E+03  0.14772819750E+03  0.12871391909E+04  0.13126935740E+04  0.50400001928E-02 0.  1.
       -1    1    3    3    0  502 -0.21121908511E+03 -0.14772819750E+03 -0.30715631366E+03  0.40097646228E+03  0.50400001928E-02 0. -1.
</event>
<event>
 5   0  0.1175374E-03  0.1386937E+04  0.7818609E-02  0.8963329E-01
       -1   -1    0    0    0  501  0.00000000000E+00  0.00000000000E+00  0.37249296851E+03  0.37249296854E+03  0.50400001928E-02 0. -1.
        1   -1    0    0  501    0  0.00000000000E+00  0.00000000000E+00 -0.12910265438E+04  0.12910265438E+04  0.50400001928E-02 0.  1.
    10030    2    1    2    0    0  0.00000000000E+00  0.00000000000E+00 -0.91853357525E+03  0.16635195123E+04  0.13869366384E+04 0.  0.
        3    1    3    3  502    0 -0.24762616345E+03  0.58185960492E+03 -0.80066769549E+03  0.10202686340E+04  0.10100000352E+00 0.  1.
       -3    1    3    3    0  502  0.24762616345E+03 -0.58185960492E+03 -0.11786587976E+03  0.64325087834E+03  0.10100000352E+00 0. -1.
</event>
<event>
 5   0  0.2190704E-03  0.1457325E+04  0.7818609E-02  0.8913338E-01
       -2   -1    0    0    0  501  0.00000000000E+00  0.00000000000E+00  0.51779748311E+03  0.51779748311E+03  0.25500000920E-02 0.  1.
        2   -1    0    0  501    0  0.00000000000E+00  0.00000000000E+00 -0.10253984793E+04  0.10253984793E+04  0.25500000920E-02 0. -1.
    10030    2    1    2    0    0  0.00000000000E+00  0.00000000000E+00 -0.50760099619E+03  0.15431959624E+04  0.14573246059E+04 0.  0.
        5    1    3    3  502    0  0.27868526541E+03 -0.59504674042E+03 -0.58728684746E+03  0.88129111628E+03  0.46999998093E+01 0.  1.
       -5    1    3    3    0  502 -0.27868526541E+03  0.59504674042E+03  0.79685851277E+02  0.66190484613E+03  0.46999998093E+01 0. -1.
</event>
<event>
 5   0  0.2083966E-03  0.1404855E+04  0.7818609E-02  0.8950312E-01
        2   -1    0    0  501    0  0.00000000000E+00  0.00000000000E+00  0.41138637100E+03  0.41138637101E+03  0.25500000920E-02 0. -1.
       -2   -1    0    0    0  501  0.00000000000E+00  0.00000000000E+00 -0.11993693616E+04  0.11993693616E+04  0.25500000920E-02 0.  1.
    10030    2    1    2    0    0  0.00000000000E+00  0.00000000000E+00 -0.78798299062E+03  0.16107557326E+04  0.14048547387E+04 0.  0.
        1    1    3    3  502    0 -0.33966094835E+03  0.42799059912E+03  0.11213393770E+03  0.55778090034E+03  0.50400001928E-02 0. -1.
       -1    1    3    3    0  502  0.33966094835E+03 -0.42799059912E+03 -0.90011692833E+03  0.10529748323E+04  0.50400001928E-02 0.  1.
</event>
<event>
 5   0  0.1238683E-03  0.1387217E+04  0.7818609E-02  0.8963124E-01
        1   -1    0    0  501    0  0.00000000000E+00  0.00000000000E+00  0.44817631254E+03  0.44817631257E+03  0.50400001928E-02 0.  1.
       -1   -1    0    0    0  501  0.00000000000E+00  0.00000000000E+00 -0.10734452272E+04  0.10734452272E+04  0.50400001928E-02 0. -1.
    10030    2    1    2    0    0  0.00000000000E+00  0.00000000000E+00 -0.62526891465E+03  0.15216215398E+04  0.13872169602E+04 0.  0.
        2    1    3    3  502    0  0.46879683920E+03  0.88799971276E+02  0.23956643778E+03  0.53389885696E+03  0.25500000920E-02 0.  1.
       -2    1    3    3    0  502 -0.46879683920E+03 -0.88799971276E+02 -0.86483535243E+03  0.98772268282E+03  0.25500000920E-02 0. -1.
</event>
<event>
 5   0  0.2172901E-03  0.1414802E+04  0.7818609E-02  0.8943173E-01
        2   -1    0    0  501    0  0.00000000000E+00  0.00000000000E+00  0.16973664731E+04  0.16973664731E+04  0.25500000920E-02 0. -1.
       -2   -1    0    0    0  501  0.00000000000E+00  0.00000000000E+00 -0.29481915777E+03  0.29481915778E+03  0.25500000920E-02 0.  1.
    10030    2    1    2    0    0  0.00000000000E+00  0.00000000000E+00  0.14025473154E+04  0.19921856309E+04  0.14148019707E+04 0.  0.
        2    1    3    3  502    0  0.32993267332E+03  0.22677725418E+03 -0.11994407076E+03  0.41793548791E+03  0.25500000920E-02 0.  1.
       -2    1    3    3    0  502 -0.32993267332E+03 -0.22677725418E+03  0.15224913861E+04  0.15742501430E+04  0.25500000920E-02 0. -1.
</event>
<event>
 5   0  0.2083966E-03  0.1416460E+04  0.7818609E-02  0.8941989E-01
        2   -1    0    0  501    0  0.00000000000E+00  0.00000000000E+00  0.71657920210E+03  0.71657920211E+03  0.25500000920E-02 0. -1.
       -2   -1    0    0    0  501  0.00000000000E+00  0.00000000000E+00 -0.69997849857E+03  0.69997849857E+03  0.25500000920E-02 0.  1.
    10030    2    1    2    0    0  0.00000000000E+00  0.00000000000E+00  0.16600703535E+02  0.14165577007E+04  0.14164604251E+04 0.  0.
        1    1    3    3  502    0  0.22318265182E+03  0.48302951489E+03 -0.45913096134E+03  0.70280100171E+03  0.50400001928E-02 0.  1.
       -1    1    3    3    0  502 -0.22318265182E+03 -0.48302951489E+03  0.47573166487E+03  0.71375669896E+03  0.50400001928E-02 0. -1.
</event>
<event>
 5   0  0.1238683E-03  0.1238470E+04  0.7818609E-02  0.9079835E-01
       -1   -1    0    0    0  501  0.00000000000E+00  0.00000000000E+00  0.62989944465E+03  0.62989944467E+03  0.50400001928E-02 0.  1.
        1   -1    0    0  501    0  0.00000000000E+00  0.00000000000E+00 -0.60875068592E+03  0.60875068594E+03  0.50400001928E-02 0. -1.
    10030    2    1    2    0    0  0.00000000000E+00  0.00000000000E+00  0.21148758730E+02  0.12386501306E+04  0.12384695701E+04 0.  0.
        2    1    3    3  502    0  0.76227902472E+02  0.32242967583E+03  0.53379511413E+03  0.62825855573E+03  0.25500000920E-02 0.  1.
       -2    1    3    3    0  502 -0.76227902472E+02 -0.32242967583E+03 -0.51264635540E+03  0.61039157488E+03  0.25500000920E-02 0. -1.
</event>
<event>
 5   0  0.1225690E-03  0.1389996E+04  0.7818609E-02  0.8961092E-01
       -1   -1    0    0    0  501  0.00000000000E+00  0.00000000000E+00  0.40419363270E+03  0.40419363273E+03  0.50400001928E-02 0.  1.
        1   -1    0    0  501    0  0.00000000000E+00  0.00000000000E+00 -0.11950263049E+04  0.11950263049E+04  0.50400001928E-02 0. -1.
    10030    2    1    2    0    0  0.00000000000E+00  0.00000000000E+00 -0.79083267219E+03  0.15992199376E+04  0.13899957171E+04 0.  0.
        4    1    3    3  502    0 -0.94560815728E+02  0.71843273374E+02 -0.11832650276E+04  0.11892102179E+04  0.12699999809E+01 0. -1.
       -4    1    3    3    0  502  0.94560815728E+02 -0.71843273374E+02  0.39243235544E+03  0.41000971976E+03  0.12699999809E+01 0.  1.
</event>
<event>
 5   0  0.2190704E-03  0.1386587E+04  0.7818609E-02  0.8963585E-01
       -2   -1    0    0    0  501  0.00000000000E+00  0.00000000000E+00  0.32035044303E+03  0.32035044304E+03  0.25500000920E-02 0. -1.
        2   -1    0    0  501    0  0.00000000000E+00  0.00000000000E+00 -0.15004064793E+04  0.15004064794E+04  0.25500000920E-02 0.  1.
    10030    2    1    2    0    0  0.00000000000E+00  0.00000000000E+00 -0.11800560363E+04  0.18207569224E+04  0.13865870047E+04 0.  0.
        5    1    3    3  502    0 -0.48524626357E+03  0.44145961936E+03 -0.29557463320E+03  0.71953942603E+03  0.46999998093E+01 0. -1.
       -5    1    3    3    0  502  0.48524626357E+03 -0.44145961936E+03 -0.88448140312E+03  0.11012174964E+04  0.46999998093E+01 0.  1.
</event>
<event>
 5   0  0.1175374E-03  0.1420013E+04  0.7818609E-02  0.8939458E-01
       -1   -1    0    0    0  501  0.00000000000E+00  0.00000000000E+00  0.85272257455E+03  0.85272257456E+03  0.50400001928E-02 0. -1.
        1   -1    0    0  501    0  0.00000000000E+00  0.00000000000E+00 -0.59117598130E+03  0.59117598132E+03  0.50400001928E-02 0.  1.
    10030    2    1    2    0    0  0.00000000000E+00  0.00000000000E+00  0.26154659325E+03  0.14438985559E+04  0.14200128236E+04 0.  0.
        3    1    3    3  502    0 -0.11891306564E+03 -0.27484492544E+02  0.84197629509E+03  0.85077600237E+03  0.10100000352E+00 0. -1.
       -3    1    3    3    0  502  0.11891306564E+03  0.27484492544E+02 -0.58042970184E+03  0.59312255352E+03  0.10100000352E+00 0.  1.
</event>
<event>
 5   0  0.1175374E-03  0.1410630E+04  0.7818609E-02  0.8946160E-01
       -1   -1    0    0    0  501  0.00000000000E+00  0.00000000000E+00  0.66384731512E+03  0.66384731514E+03  0.50400001928E-02 0. -1.
        1   -1    0    0  501    0  0.00000000000E+00  0.00000000000E+00 -0.74937274214E+03  0.74937274215E+03  0.50400001928E-02 0.  1.
    10030    2    1    2    0    0  0.00000000000E+00  0.00000000000E+00 -0.85525427013E+02  0.14132200573E+04  0.14106297642E+04 0.  0.
        3    1    3    3  502    0  0.61262769232E+02  0.19131924968E+03 -0.72010545881E+03  0.74760154106E+03  0.10100000352E+00 0.  1.
       -3    1    3    3    0  502 -0.61262769232E+02 -0.19131924968E+03  0.63458003180E+03  0.66561851623E+03  0.10100000352E+00 0. -1.
</event>
<event>
 5   0  0.2236184E-03  0.1391496E+04  0.7818609E-02  0.8959997E-01
       -2   -1    0    0    0  501  0.00000000000E+00  0.00000000000E+00  0.30396940155E+03  0.30396940156E+03  0.25500000920E-02 0.  1.
        2   -1    0    0  501    0  0.00000000000E+00  0.00000000000E+00 -0.15924802133E+04  0.15924802133E+04  0.25500000920E-02 0. -1.
    10030    2    1    2    0    0  0.00000000000E+00  0.00000000000E+00 -0.12885108118E+04  0.18964496149E+04  0.13914959683E+04 0.  0.
        3    1    3    3  502    0  0.36123673933E+03  0.56113305781E+03 -0.91237677544E+03  0.11303953649E+04  0.10100000352E+00 0. -1.
       -3    1    3    3    0  502 -0.36123673933E+03 -0.56113305781E+03 -0.37613403631E+03  0.76605424996E+03  0.10100000352E+00 0.  1.
</event>
<event>
 5   0  0.2190704E-03  0.1411396E+04  0.7818609E-02  0.8945611E-01
       -2   -1    0    0    0  501  0.00000000000E+00  0.00000000000E+00  0.20202034982E+03  0.20202034984E+03  0.25500000920E-02 0. -1.
        2   -1    0    0  501    0  0.00000000000E+00  0.00000000000E+00 -0.24651455957E+04  0.24651455957E+04  0.25500000920E-02 0.  1.
    10030    2    1    2    0    0  0.00000000000E+00  0.00000000000E+00 -0.22631252459E+04  0.26671659455E+04  0.14113958702E+04 0.  0.
        5    1    3    3  502    0 -0.23480023718E+03  0.18189233931E+03 -0.23412470109E+04  0.23600160234E+04  0.46999998093E+01 0.  1.
       -5    1    3    3    0  502  0.23480023718E+03 -0.18189233931E+03  0.78121765084E+02  0.30714992212E+03  0.46999998093E+01 0. -1.
</event>
<event>
 5   0  0.1199720E-03  0.1408391E+04  0.7818609E-02  0.8947767E-01
       -1   -1    0    0    0  501  0.00000000000E+00  0.00000000000E+00  0.55576210695E+03  0.55576210698E+03  0.50400001928E-02 0. -1.
        1   -1    0    0  501    0  0.00000000000E+00  0.00000000000E+00 -0.89227220311E+03  0.89227220313E+03  0.50400001928E-02 0.  1.
    10030    2    1    2    0    0  0.00000000000E+00  0.00000000000E+00 -0.33651009616E+03  0.14480343101E+04  0.14083906839E+04 0.  0.
        5    1    3    3  502    0 -0.46535953359E+03  0.39235016013E+03 -0.53229913957E+03  0.80861771415E+03  0.46999998093E+01 0.  1.
       -5    1    3    3    0  502  0.46535953359E+03 -0.39235016013E+03  0.19578904341E+03  0.63941659595E+03  0.46999998093E+01 0. -1.
</event>
<event>
 5   0  0.1238683E-03  0.1405933E+04  0.7818609E-02  0.8949535E-01
       -1   -1    0    0    0  501  0.00000000000E+00  0.00000000000E+00  0.43529022180E+03  0.43529022183E+03  0.50400001928E-02 0. -1.
        1   -1    0    0  501    0  0.00000000000E+00  0.00000000000E+00 -0.11352468977E+04  0.11352468977E+04  0.50400001928E-02 0.  1.
    10030    2    1    2    0    0  0.00000000000E+00  0.00000000000E+00 -0.69995667587E+03  0.15705371195E+04  0.14059329627E+04 0.  0.
        2    1    3    3  502    0  0.42662058735E+03 -0.89848118420E+02  0.26602125121E+03  0.51072998349E+03  0.25500000920E-02 0. -1.
       -2    1    3    3    0  502 -0.42662058735E+03  0.89848118420E+02 -0.96597792708E+03  0.10598071360E+04  0.25500000920E-02 0.  1.
</event>
<event>
 5   0  0.2195980E-03  0.1405395E+04  0.7818609E-02  0.8949922E-01
        2   -1    0    0  501    0  0.00000000000E+00  0.00000000000E+00  0.16522354832E+04  0.16522354832E+04  0.25500000920E-02 0. -1.
       -2   -1    0    0    0  501  0.00000000000E+00  0.00000000000E+00 -0.29885810835E+03  0.29885810836E+03  0.25500000920E-02 0.  1.
    10030    2    1    2    0    0  0.00000000000E+00  0.00000000000E+00  0.13533773748E+04  0.19510935915E+04  0.14053952769E+04 0.  0.
        4    1    3    3  502    0 -0.34981643551E+03 -0.59009883274E+03  0.88811994442E+03  0.11222062286E+04  0.12699999809E+01 0. -1.
       -4    1    3    3    0  502  0.34981643551E+03  0.59009883274E+03  0.46525743040E+03  0.82888736292E+03  0.12699999809E+01 0.  1.
</event>
<event>
 5   0  0.2190704E-03  0.1359526E+04  0.7818609E-02  0.8983648E-01
        2   -1    0    0  501    0  0.00000000000E+00  0.00000000000E+00  0.26894425055E+04  0.26894425055E+04  0.25500000920E-02 0. -1.
       -2   -1    0    0    0  501  0.00000000000E+00  0.00000000000E+00 -0.17181167788E+03  0.17181167790E+03  0.25500000920E-02 0.  1.
    10030    2    1    2    0    0  0.00000000000E+00  0.00000000000E+00  0.25176308276E+04  0.28612541834E+04  0.13595258430E+04 0.  0.
        5    1    3    3  502    0 -0.29993891207E+03  0.57516889064E+03  0.16863799281E+04  0.18068430911E+04  0.46999998093E+01 0. -1.
       -5    1    3    3    0  502  0.29993891207E+03 -0.57516889064E+03  0.83125089950E+03  0.10544110923E+04  0.46999998093E+01 0.  1.
</event>
<event>
 5   0  0.1210275E-03  0.9645646E+03  0.7818609E-02  0.9348287E-01
       -1   -1    0    0    0  501  0.00000000000E+00  0.00000000000E+00  0.14175104055E+03  0.14175104064E+03  0.50400001928E-02 0.  1.
        1   -1    0    0  501    0  0.00000000000E+00  0.00000000000E+00 -0.16408782454E+04  0.16408782454E+04  0.50400001928E-02 0. -1.
    10030    2    1    2    0    0  0.00000000000E+00  0.00000000000E+00 -0.14991272049E+04  0.17826292860E+04  0.96456456245E+03 0.  0.
        1    1    3    3  502    0  0.45545511889E+03  0.15694618495E+03 -0.79189835707E+03  0.92691665119E+03  0.50400001928E-02 0.  1.
       -1    1    3    3    0  502 -0.45545511889E+03 -0.15694618495E+03 -0.70722884778E+03  0.85571263485E+03  0.50400001928E-02 0. -1.
</event>
<event>
 5   0  0.2172901E-03  0.1392732E+04  0.7818609E-02  0.8959096E-01
        2   -1    0    0  501    0  0.00000000000E+00  0.00000000000E+00  0.13626342141E+04  0.13626342141E+04  0.25500000920E-02 0. -1.
       -2   -1    0    0    0  501  0.00000000000E+00  0.00000000000E+00 -0.35587358753E+03  0.35587358754E+03  0.25500000920E-02 0.  1.
    10030    2    1    2    0    0  0.00000000000E+00  0.00000000000E+00  0.10067606266E+04  0.17185078017E+04  0.13927318856E+04 0.  0.
        2    1    3    3  502    0  0.30268932313E+03  0.44820558517E+01  0.12771958872E+04  0.13125815210E+04  0.25500000920E-02 0. -1.
       -2    1    3    3    0  502 -0.30268932313E+03 -0.44820558517E+01 -0.27043526056E+03  0.40592628065E+03  0.25500000920E-02 0.  1.
</event>
<event>
 5   0  0.1238683E-03  0.1388938E+04  0.7818609E-02  0.8961865E-01
       -1   -1    0    0    0  501  0.00000000000E+00  0.00000000000E+00  0.27437285203E+03  0.27437285208E+03  0.50400001928E-02 0. -1.
        1   -1    0    0  501    0  0.00000000000E+00  0.00000000000E+00 -0.17577810493E+04  0.17577810493E+04  0.50400001928E-02 0.  1.
    10030    2    1    2    0    0  0.00000000000E+00  0.00000000000E+00 -0.14834081973E+04  0.20321539014E+04  0.13889382993E+04 0.  0.
        2    1    3    3  502    0  0.90944534210E+02 -0.38567632219E+03 -0.15761454625E+04  0.16251928048E+04  0.25500000920E-02 0.  1.
       -2    1    3    3    0  502 -0.90944534210E+02  0.38567632219E+03  0.92737265194E+02  0.40696109662E+03  0.25500000920E-02 0. -1.
</event>
<event>
 5   0  0.2083966E-03  0.1398931E+04  0.7818609E-02  0.8954592E-01
       -2   -1    0    0    0  501  0.00000000000E+00  0.00000000000E+00  0.39302998147E+03  0.39302998148E+03  0.25500000920E-02 0. -1.
        2   -1    0    0  501    0  0.00000000000E+00  0.00000000000E+00 -0.12448217427E+04  0.12448217427E+04  0.25500000920E-02 0.  1.
    10030    2    1    2    0    0  0.00000000000E+00  0.00000000000E+00 -0.85179176124E+03  0.16378517242E+04  0.13989314014E+04 0.  0.
        1    1    3    3  502    0 -0.52981201538E+03 -0.33002271673E+03 -0.56333804790E+02  0.62672901863E+03  0.50400001928E-02 0. -1.
       -1    1    3    3    0  502  0.52981201538E+03  0.33002271673E+03 -0.79545795645E+03  0.10111227056E+04  0.50400001928E-02 0.  1.
</event>
<event>
 5   0  0.1175374E-03  0.1367021E+04  0.7818609E-02  0.8978043E-01
        1   -1    0    0  501    0  0.00000000000E+00  0.00000000000E+00  0.17831026245E+04  0.17831026245E+04  0.50400001928E-02 0.  1.
       -1   -1    0    0    0  501  0.00000000000E+00  0.00000000000E+00 -0.26200767576E+03  0.26200767581E+03  0.50400001928E-02 0. -1.
    10030    2    1    2    0    0  0.00000000000E+00  0.00000000000E+00  0.15210949487E+04  0.20451103003E+04  0.13670209572E+04 0.  0.
        3    1    3    3  502    0 -0.41700679501E+03 -0.36441203070E+03  0.16120734480E+03  0.57678298642E+03  0.10100000352E+00 0. -1.
       -3    1    3    3    0  502  0.41700679501E+03  0.36441203070E+03  0.13598876039E+04  0.14683273139E+04  0.10100000352E+00 0.  1.
</event>
<event>
 5   0  0.1175374E-03  0.1482659E+04  0.7818609E-02  0.8896067E-01
       -1   -1    0    0    0  501  0.00000000000E+00  0.00000000000E+00  0.28919346144E+03  0.28919346148E+03  0.50400001928E-02 0. -1.
        1   -1    0    0  501    0  0.00000000000E+00  0.00000000000E+00 -0.19003516466E+04  0.19003516466E+04  0.50400001928E-02 0.  1.
    10030    2    1    2    0    0  0.00000000000E+00  0.00000000000E+00 -0.16111581852E+04  0.21895451081E+04  0.14826587884E+04 0.  0.
        3    1    3    3  502    0  0.70709211512E+03  0.22175701661E+02 -0.11328034628E+04  0.13355578298E+04  0.10100000352E+00 0.  1.
       -3    1    3    3    0  502 -0.70709211512E+03 -0.22175701661E+02 -0.47835472235E+03  0.85398727836E+03  0.10100000352E+00 0. -1.
</event>
<event>
 5   0  0.2195980E-03  0.1434944E+04  0.7818609E-02  0.8928906E-01
        2   -1    0    0  501    0  0.00000000000E+00  0.00000000000E+00  0.15756597798E+04  0.15756597798E+04  0.25500000920E-02 0. -1.
       -2   -1    0    0    0  501  0.00000000000E+00  0.00000000000E+00 -0.32669869494E+03  0.32669869495E+03  0.25500000920E-02 0.  1.
    10030    2    1    2    0    0  0.00000000000E+00  0.00000000000E+00  0.12489610849E+04  0.19023584748E+04  0.14349438926E+04 0.  0.
        4    1    3    3  502    0  0.46495594784E+03  0.37549715387E+03  0.98207572078E+02  0.60566367409E+03  0.12699999809E+01 0.  1.
       -4    1    3    3    0  502 -0.46495594784E+03 -0.37549715387E+03  0.11507535128E+04  0.12966948007E+04  0.12699999809E+01 0. -1.
</event>
<event>
 5   0  0.2083966E-03  0.1406309E+04  0.7818609E-02  0.8949264E-01
       -2   -1    0    0    0  501  0.00000000000E+00  0.00000000000E+00  0.84794797720E+03  0.84794797720E+03  0.25500000920E-02 0.  1.
        2   -1    0    0  501    0  0.00000000000E+00  0.00000000000E+00 -0.58308579602E+03  0.58308579602E+03  0.25500000920E-02 0. -1.
    10030    2    1    2    0    0  0.00000000000E+00  0.00000000000E+00  0.26486218118E+03  0.14310337732E+04  0.14063092423E+04 0.  0.
        1    1    3    3  502    0  0.44997719522E+02 -0.95801150316E+02  0.83979548470E+03  0.84643907714E+03  0.50400001928E-02 0.  1.
       -1    1    3    3    0  502 -0.44997719522E+02  0.95801150316E+02 -0.57493330352E+03  0.58459469608E+03  0.50400001928E-02 0. -1.
</event>
<event>
 5   0  0.8293000E-04  0.1401893E+04  0.7818609E-02  0.8952449E-01
       -4   -1    0    0    0  501  0.00000000000E+00  0.00000000000E+00  0.92774091561E+03  0.92774178488E+03  0.12699999809E+01 0.  1.
        4   -1    0    0  501    0  0.00000000000E+00  0.00000000000E+00 -0.52959246897E+03  0.52959399174E+03  0.12699999809E+01 0. -1.
    10030    2    1    2    0    0  0.00000000000E+00  0.00000000000E+00  0.39814844664E+03  0.14573357766E+04  0.14018934982E+04 0.  0.
        2    1    3    3  502    0 -0.28245808834E+03 -0.59628706374E+03  0.44504438603E+03  0.79586766462E+03  0.25500000920E-02 0. -1.
       -2    1    3    3    0  502  0.28245808834E+03  0.59628706374E+03 -0.46895939385E+02  0.66146811199E+03  0.25500000920E-02 0.  1.
</event>
<event>
 5   0  0.1225690E-03  0.1376737E+04  0.7818609E-02  0.8970832E-01
        1   -1    0    0  501    0  0.00000000000E+00  0.00000000000E+00  0.11364035404E+04  0.11364035404E+04  0.50400001928E-02 0. -1.
       -1   -1    0    0    0  501  0.00000000000E+00  0.00000000000E+00 -0.41697419893E+03  0.41697419896E+03  0.50400001928E-02 0.  1.
    10030    2    1    2    0    0  0.00000000000E+00  0.00000000000E+00  0.71942934143E+03  0.15533777393E+04  0.13767366574E+04 0.  0.
        4    1    3    3  502    0  0.17650069326E+03 -0.32155932967E+03  0.10169423661E+04  0.10810764478E+04  0.12699999809E+01 0. -1.
       -4    1    3    3    0  502 -0.17650069326E+03  0.32155932967E+03 -0.29751302465E+03  0.47230129150E+03  0.12699999809E+01 0.  1.
</event>
<event>
 5   0  0.1199720E-03  0.1401557E+04  0.7818609E-02  0.8952692E-01
       -1   -1    0    0    0  501  0.00000000000E+00  0.00000000000E+00  0.24409512651E+03  0.24409512656E+03  0.50400001928E-02 0. -1.
        1   -1    0    0  501    0  0.00000000000E+00  0.00000000000E+00 -0.20118816934E+04  0.20118816934E+04  0.50400001928E-02 0.  1.
    10030    2    1    2    0    0  0.00000000000E+00  0.00000000000E+00 -0.17677865669E+04  0.22559768200E+04  0.14015570150E+04 0.  0.
        5    1    3    3  502    0  0.28468390190E+03 -0.52374610037E+03 -0.14768669796E+04  0.15926434212E+04  0.46999998093E+01 0.  1.
       -5    1    3    3    0  502 -0.28468390190E+03  0.52374610037E+03 -0.29091958729E+03  0.66333339877E+03  0.46999998093E+01 0. -1.
</event>
<event>
 5   0  0.2172901E-03  0.1377037E+04  0.7818609E-02  0.8970610E-01
        2   -1    0    0  501    0  0.00000000000E+00  0.00000000000E+00  0.93680291237E+03  0.93680291238E+03  0.25500000920E-02 0.  1.
       -2   -1    0    0    0  501  0.00000000000E+00  0.00000000000E+00 -0.50603758388E+03  0.50603758389E+03  0.25500000920E-02 0. -1.
    10030    2    1    2    0    0  0.00000000000E+00  0.00000000000E+00  0.43076532849E+03  0.14428404963E+04  0.13770366478E+04 0.  0.
        2    1    3    3  502    0  0.16160368338E+02 -0.14655131357E+03  0.92006803894E+03  0.93180665446E+03  0.25500000920E-02 0.  1.
       -2    1    3    3    0  502 -0.16160368338E+02  0.14655131357E+03 -0.48930271045E+03  0.51103384180E+03  0.25500000920E-02 0. -1.
</event>
<event>
 5   0  0.1225690E-03  0.1480385E+04  0.7818609E-02  0.8897603E-01
        1   -1    0    0  501    0  0.00000000000E+00  0.00000000000E+00  0.20118169195E+04  0.20118169195E+04  0.50400001928E-02 0.  1.
       -1   -1    0    0    0  501  0.00000000000E+00  0.00000000000E+00 -0.27233324141E+03  0.27233324145E+03  0.50400001928E-02 0. -1.
    10030    2    1    2    0    0  0.00000000000E+00  0.00000000000E+00  0.17394836781E+04  0.22841501609E+04  0.14803845755E+04 0.  0.
        4    1    3    3  502    0 -0.16858200881E+03  0.50546624799E+03  0.77012542395E+02  0.53837585954E+03  0.12699999809E+01 0. -1.
       -4    1    3    3    0  502  0.16858200881E+03 -0.50546624799E+03  0.16624711357E+04  0.17457743014E+04  0.12699999809E+01 0.  1.
</event>
<event>
 5   0  0.2190704E-03  0.1425098E+04  0.7818609E-02  0.8935849E-01
       -2   -1    0    0    0  501  0.00000000000E+00  0.00000000000E+00  0.50406544488E+03  0.50406544489E+03  0.25500000920E-02 0. -1.
        2   -1    0    0  501    0  0.00000000000E+00  0.00000000000E+00 -0.10072625173E+04  0.10072625173E+04  0.25500000920E-02 0.  1.
    10030    2    1    2    0    0  0.00000000000E+00  0.00000000000E+00 -0.50319707244E+03  0.15113279622E+04  0.14250982126E+04 0.  0.
        5    1    3    3  502    0  0.50887411306E+03 -0.48371759026E+03 -0.38047782424E+03  0.79857437651E+03  0.46999998093E+01 0.  1.
       -5    1    3    3    0  502 -0.50887411306E+03  0.48371759026E+03 -0.12271924820E+03  0.71275358571E+03  0.46999998093E+01 0. -1.
</event>
<event>
 5   0  0.1199720E-03  0.8974059E+03  0.7818609E-02  0.9428830E-01
        1   -1    0    0  501    0  0.00000000000E+00  0.00000000000E+00  0.29704899072E+03  0.29704899076E+03  0.50400001928E-02 0.  1.
       -1   -1    0    0    0  501  0.00000000000E+00  0.00000000000E+00 -0.67778151946E+03  0.67778151948E+03  0.50400001928E-02 0. -1.
    10030    2    1    2    0    0  0.00000000000E+00  0.00000000000E+00 -0.38073252875E+03  0.97483051024E+03  0.89740585314E+03 0.  0.
        5    1    3    3  502    0 -0.12891142830E+03 -0.99369858503E+02  0.26382147065E+03  0.31002642387E+03  0.46999998093E+01 0.  1.
       -5    1    3    3    0  502  0.12891142830E+03  0.99369858503E+02 -0.64455399939E+03  0.66480408637E+03  0.46999998093E+01 0. -1.
</event>
<event>
 5   0  0.1210275E-03  0.1416938E+04  0.7818609E-02  0.8941649E-01
       -1   -1    0    0    0  501  0.00000000000E+00  0.00000000000E+00  0.16145731092E+04  0.16145731092E+04  0.50400001928E-02 0. -1.
        1   -1    0    0  501    0  0.00000000000E+00  0.00000000000E+00 -0.31087349337E+03  0.31087349341E+03  0.50400001928E-02 0.  1.
    10030    2    1    2    0    0  0.00000000000E+00  0.00000000000E+00  0.13036996158E+04  0.19254466026E+04  0.14169375184E+04 0.  0.
        1    1    3    3  502    0  0.40289915774E+03 -0.36405922657E+03  0.12701936926E+04  0.13813974333E+04  0.50400001928E-02 0. -1.
       -1    1    3    3    0  502 -0.40289915774E+03  0.36405922657E+03  0.33505923192E+02  0.54404916935E+03  0.50400001928E-02 0.  1.
</event>
<event>
 5   0  0.2172901E-03  0.1412671E+04  0.7818609E-02  0.8944698E-01
        2   -1    0    0  501    0  0.00000000000E+00  0.00000000000E+00  0.83673071721E+03  0.83673071721E+03  0.25500000920E-02 0.  1.
       -2   -1    0    0    0  501  0.00000000000E+00  0.00000000000E+00 -0.59626069756E+03  0.59626069757E+03  0.25500000920E-02 0. -1.
    10030    2    1    2    0    0  0.00000000000E+00  0.00000000000E+00  0.24047001965E+03  0.14329914148E+04  0.14126707205E+04 0.  0.
        2    1    3    3  502    0  0.22777386355E+03 -0.39753156878E+02  0.79725476853E+03  0.83010626569E+03  0.25500000920E-02 0.  1.
       -2    1    3    3    0  502 -0.22777386355E+03  0.39753156878E+02 -0.55678474888E+03  0.60288514909E+03  0.25500000920E-02 0. -1.
</event>
<event>
 5   0  0.1199720E-03  0.1501797E+04  0.7818609E-02  0.8883259E-01
       -1   -1    0    0    0  501  0.00000000000E+00  0.00000000000E+00  0.27672666471E+03  0.27672666475E+03  0.50400001928E-02 0. -1.
        1   -1    0    0  501    0  0.00000000000E+00  0.00000000000E+00 -0.20375637952E+04  0.20375637953E+04  0.50400001928E-02 0.  1.
    10030    2    1    2    0    0  0.00000000000E+00  0.00000000000E+00 -0.17608371305E+04  0.23142904600E+04  0.15017965684E+04 0.  0.
        5    1    3    3  502    0 -0.63523483176E+03 -0.20638333560E+03 -0.35171630232E+03  0.75488000371E+03  0.46999998093E+01 0. -1.
       -5    1    3    3    0  502  0.63523483176E+03  0.20638333560E+03 -0.14091208282E+04  0.15594104563E+04  0.46999998093E+01 0.  1.
</event>
<event>
 5   0  0.2083966E-03  0.1359072E+04  0.7818609E-02  0.8983989E-01
       -2   -1    0    0    0  501  0.00000000000E+00  0.00000000000E+00  0.61324456691E+03  0.61324456692E+03  0.25500000920E-02 0. -1.
        2   -1    0    0  501    0  0.00000000000E+00  0.00000000000E+00 -0.75299382453E+03  0.75299382453E+03  0.25500000920E-02 0.  1.
    10030    2    1    2    0    0  0.00000000000E+00  0.00000000000E+00 -0.13974925761E+03  0.13662383914E+04  0.13590722892E+04 0.  0.
        1    1    3    3  502    0 -0.30865088720E+03  0.19238006022E+03  0.50716763907E+03  0.62409492218E+03  0.50400001928E-02 0. -1.
       -1    1    3    3    0  502  0.30865088720E+03 -0.19238006022E+03 -0.64691689669E+03  0.74214346927E+03  0.50400001928E-02 0.  1.
</event>
<event>
 5   0  0.1210275E-03  0.1383792E+04  0.7818609E-02  0.8965635E-01
        1   -1    0    0  501    0  0.00000000000E+00  0.00000000000E+00  0.65705328336E+03  0.65705328338E+03  0.50400001928E-02 0.  1.
       -1   -1    0    0    0  501  0.00000000000E+00  0.00000000000E+00 -0.72858682547E+03  0.72858682549E+03  0.50400001928E-02 0. -1.
    10030    2    1    2    0    0  0.00000000000E+00  0.00000000000E+00 -0.71533542113E+02  0.13856401089E+04  0.13837924207E+04 0.  0.
        1    1    3    3  502    0  0.60964968037E+03  0.32443872002E+03  0.65643731988E+01  0.69063471304E+03  0.50400001928E-02 0. -1.
       -1    1    3    3    0  502 -0.60964968037E+03 -0.32443872002E+03 -0.78097915312E+02  0.69500539583E+03  0.50400001928E-02 0.  1.
</event>
<event>
 5   0  0.1238683E-03  0.1626176E+04  0.7818609E-02  0.8804627E-01
       -1   -1    0    0    0  501  0.00000000000E+00  0.00000000000E+00  0.74863539852E+03  0.74863539854E+03  0.50400001928E-02 0.  1.
        1   -1    0    0  501    0  0.00000000000E+00  0.00000000000E+00 -0.88308957534E+03  0.88308957535E+03  0.50400001928E-02 0. -1.
    10030    2    1    2    0    0  0.00000000000E+00  0.00000000000E+00 -0.13445417682E+03  0.16317249739E+04  0.16261760251E+04 0.  0.
        2    1    3    3  502    0  0.41841400414E+03  0.56579458368E+03  0.34149356673E+03  0.78218389520E+03  0.25500000920E-02 0.  1.
       -2    1    3    3    0  502 -0.41841400414E+03 -0.56579458368E+03 -0.47594774355E+03  0.84954107869E+03  0.25500000920E-02 0. -1.
</event>
<event>
 5   0  0.2195980E-03  0.1398363E+04  0.7818609E-02  0.8955004E-01
        2   -1    0    0  501    0  0.00000000000E+00  0.00000000000E+00  0.11182830103E+04  0.11182830103E+04  0.25500000920E-02 0. -1.
       -2   -1    0    0    0  501  0.00000000000E+00  0.00000000000E+00 -0.43714762910E+03  0.43714762911E+03  0.25500000920E-02 0.  1.
    10030    2    1    2    0    0  0.00000000000E+00  0.00000000000E+00  0.68113538119E+03  0.15554306394E+04  0.13983629952E+04 0.  0.
        4    1    3    3  502    0 -0.17771527564E+03  0.13373951615E+03  0.10778824593E+04  0.11005912894E+04  0.12699999809E+01 0. -1.
       -4    1    3    3    0  502  0.17771527564E+03 -0.13373951615E+03 -0.39674707812E+03  0.45483934996E+03  0.12699999809E+01 0.  1.
</event>
<event>
 5   0  0.2172901E-03  0.1375166E+04  0.7818609E-02  0.8971993E-01
       -2   -1    0    0    0  501  0.00000000000E+00  0.00000000000E+00  0.28578892135E+03  0.28578892136E+03  0.25500000920E-02 0. -1.
        2   -1    0    0  501    0  0.00000000000E+00  0.00000000000E+00 -0.16542652506E+04  0.16542652506E+04  0.25500000920E-02 0.  1.
    10030    2    1    2    0    0  0.00000000000E+00  0.00000000000E+00 -0.13684763292E+04  0.19400541720E+04  0.13751664359E+04 0.  0.
        2    1    3    3  502    0  0.53965198407E+03  0.41085495485E+03 -0.84350380888E+03  0.10823699614E+04  0.25500000920E-02 0.  1.
       -2    1    3    3    0  502 -0.53965198407E+03 -0.41085495485E+03 -0.52497252036E+03  0.85768421052E+03  0.25500000920E-02 0. -1.
</event>
<event>
 5   0  0.2195980E-03  0.1368828E+04  0.7818609E-02  0.8976697E-01
       -2   -1    0    0    0  501  0.00000000000E+00  0.00000000000E+00  0.36861144113E+03  0.36861144114E+03  0.25500000920E-02 0. -1.
        2   -1    0    0  501    0  0.00000000000E+00  0.00000000000E+00 -0.12707750658E+04  0.12707750659E+04  0.25500000920E-02 0.  1.
    10030    2    1    2    0    0  0.00000000000E+00  0.00000000000E+00 -0.90216362472E+03  0.16393865070E+04  0.13688275690E+04 0.  0.
        4    1    3    3  502    0  0.40882059152E+03  0.53991834403E+03 -0.33267399937E+03  0.75453276736E+03  0.12699999809E+01 0. -1.
       -4    1    3    3    0  502 -0.40882059152E+03 -0.53991834403E+03 -0.56948962535E+03  0.88485373963E+03  0.12699999809E+01 0.  1.
</event>
<event>
 5   0  0.1238683E-03  0.1419448E+04  0.7818609E-02  0.8939860E-01
        1   -1    0    0  501    0  0.00000000000E+00  0.00000000000E+00  0.60977744242E+03  0.60977744244E+03  0.50400001928E-02 0. -1.
       -1   -1    0    0    0  501  0.00000000000E+00  0.00000000000E+00 -0.82605268535E+03  0.82605268537E+03  0.50400001928E-02 0.  1.
    10030    2    1    2    0    0  0.00000000000E+00  0.00000000000E+00 -0.21627524294E+03  0.14358301278E+04  0.14194481939E+04 0.  0.
        2    1    3    3  502    0 -0.17404431644E+03 -0.52033671636E+03  0.34724303139E+03  0.64932229696E+03  0.25500000920E-02 0. -1.
       -2    1    3    3    0  502  0.17404431644E+03  0.52033671636E+03 -0.56351827432E+03  0.78650783085E+03  0.25500000920E-02 0.  1.
</event>
<event>
 5   0  0.2083966E-03  0.1421953E+04  0.7818609E-02  0.8938079E-01
       -2   -1    0    0    0  501  0.00000000000E+00  0.00000000000E+00  0.68186024678E+03  0.68186024678E+03  0.25500000920E-02 0.  1.
        2   -1    0    0  501    0  0.00000000000E+00  0.00000000000E+00 -0.74133648656E+03  0.74133648657E+03  0.25500000920E-02 0. -1.
    10030    2    1    2    0    0  0.00000000000E+00  0.00000000000E+00 -0.59476239786E+02  0.14231967334E+04  0.14219534165E+04 0.  0.
        1    1    3    3  502    0 -0.28594409341E+02 -0.26415959056E+03  0.63030035941E+03  0.68401496521E+03  0.50400001928E-02 0.  1.
       -1    1    3    3    0  502  0.28594409341E+02  0.26415959056E+03 -0.68977659919E+03  0.73918176814E+03  0.50400001928E-02 0. -1.
</event>
<event>
 5   0  0.1225690E-03  0.1390449E+04  0.7818609E-02  0.8960761E-01
        1   -1    0    0  501    0  0.00000000000E+00  0.00000000000E+00  0.17870830048E+04  0.17870830048E+04  0.50400001928E-02 0.  1.
       -1   -1    0    0    0  501  0.00000000000E+00  0.00000000000E+00 -0.27046134117E+03  0.27046134122E+03  0.50400001928E-02 0. -1.
    10030    2    1    2    0    0  0.00000000000E+00  0.00000000000E+00  0.15166216636E+04  0.20575443460E+04  0.13904486561E+04 0.  0.
        4    1    3    3  502    0 -0.49561705159E+03 -0.45373043024E+02  0.39989090522E+02  0.49929521840E+03  0.12699999809E+01 0. -1.
       -4    1    3    3    0  502  0.49561705159E+03  0.45373043024E+02  0.14766325731E+04  0.15582491276E+04  0.12699999809E+01 0.  1.
</event>
<event>
 5   0  0.1238683E-03  0.1472296E+04  0.7818609E-02  0.8903088E-01
       -1   -1    0    0    0  501  0.00000000000E+00  0.00000000000E+00  0.39849062652E+03  0.39849062655E+03  0.50400001928E-02 0.  1.
        1   -1    0    0  501    0  0.00000000000E+00  0.00000000000E+00 -0.13599157104E+04  0.13599157104E+04  0.50400001928E-02 0. -1.
    10030    2    1    2    0    0  0.00000000000E+00  0.00000000000E+00 -0.96142508385E+03  0.17584063369E+04  0.14722957087E+04 0.  0.
        2    1    3    3  502    0 -0.12366904461E+03 -0.59693166098E+03  0.12145220871E+02  0.60972858459E+03  0.25500000920E-02 0.  1.
       -2    1    3    3    0  502  0.12366904461E+03  0.59693166098E+03 -0.97357030472E+03  0.11486777523E+04  0.25500000920E-02 0. -1.
</event>
<event>
 5   0  0.1210275E-03  0.1405759E+04  0.7818609E-02  0.8949661E-01
       -1   -1    0    0    0  501  0.00000000000E+00  0.00000000000E+00  0.61564001280E+03  0.61564001282E+03  0.50400001928E-02 0. -1.
        1   -1    0    0  501    0  0.00000000000E+00  0.00000000000E+00 -0.80248105934E+03  0.80248105936E+03  0.50400001928E-02 0.  1.
    10030    2    1    2    0    0  0.00000000000E+00  0.00000000000E+00 -0.18684104654E+03  0.14181210722E+04  0.14057587982E+04 0.  0.
        1    1    3    3  502    0  0.21777190484E+03  0.29696202178E+03  0.51053326501E+03  0.62948809331E+03  0.50400001928E-02 0. -1.
       -1    1    3    3    0  502 -0.21777190484E+03 -0.29696202178E+03 -0.69737431155E+03  0.78863297886E+03  0.50400001928E-02 0.  1.
</event>
<event>
 5   0  0.2083966E-03  0.1398644E+04  0.7818609E-02  0.8954800E-01
        2   -1    0    0  501    0  0.00000000000E+00  0.00000000000E+00  0.91346678083E+03  0.91346678083E+03  0.25500000920E-02 0. -1.
       -2   -1    0    0    0  501  0.00000000000E+00  0.00000000000E+00 -0.53537954360E+03  0.53537954361E+03  0.25500000920E-02 0.  1.
    10030    2    1    2    0    0  0.00000000000E+00  0.00000000000E+00  0.37808723723E+03  0.14488463244E+04  0.13986442410E+04 0.  0.
        1    1    3    3  502    0 -0.33821992841E+03  0.60665072631E+03  0.27341396828E+03  0.74644023323E+03  0.50400001928E-02 0. -1.
       -1    1    3    3    0  502  0.33821992841E+03 -0.60665072631E+03  0.10467326895E+03  0.70240609121E+03  0.50400001928E-02 0.  1.
</event>
<event>
 5   0  0.1175374E-03  0.1357357E+04  0.7818609E-02  0.8985278E-01
       -1   -1    0    0    0  501  0.00000000000E+00  0.00000000000E+00  0.48348666421E+03  0.48348666423E+03  0.50400001928E-02 0. -1.
        1   -1    0    0  501    0  0.00000000000E+00  0.00000000000E+00 -0.95267240700E+03  0.95267240702E+03  0.50400001928E-02 0.  1.
    10030    2    1    2    0    0  0.00000000000E+00  0.00000000000E+00 -0.46918574280E+03  0.14361590712E+04  0.13573568494E+04 0.  0.
        3    1    3    3  502    0  0.20253946419E+03 -0.63777857175E+03 -0.11479100691E+03  0.67894088594E+03  0.10100000352E+00 0. -1.
       -3    1    3    3    0  502 -0.20253946419E+03  0.63777857175E+03 -0.35439473589E+03  0.75721818531E+03  0.10100000352E+00 0.  1.
</event>
<event>
 5   0  0.1199720E-03  0.1396085E+04  0.7818609E-02  0.8956657E-01
        1   -1    0    0  501    0  0.00000000000E+00  0.00000000000E+00  0.53814710494E+03  0.53814710496E+03  0.50400001928E-02 0. -1.
       -1   -1    0    0    0  501  0.00000000000E+00  0.00000000000E+00 -0.90544641915E+03  0.90544641917E+03  0.50400001928E-02 0.  1.
    10030    2    1    2    0    0  0.00000000000E+00  0.00000000000E+00 -0.36729931422E+03  0.14435935241E+04  0.13960850535E+04 0.  0.
        5    1    3    3  502    0 -0.17447503541E+03  0.10795302965E+03  0.50624729919E+03  0.54626350101E+03  0.46999998093E+01 0. -1.
       -5    1    3    3    0  502  0.17447503541E+03 -0.10795302965E+03 -0.87354661341E+03  0.89733002312E+03  0.46999998093E+01 0.  1.
</event>
<event>
 5   0  0.1175374E-03  0.1360426E+04  0.7818609E-02  0.8982973E-01
       -1   -1    0    0    0  501  0.00000000000E+00  0.00000000000E+00  0.29157372711E+03  0.29157372716E+03  0.50400001928E-02 0. -1.
        1   -1    0    0  501    0  0.00000000000E+00  0.00000000000E+00 -0.15868704762E+04  0.15868704762E+04  0.50400001928E-02 0.  1.
    10030    2    1    2    0    0  0.00000000000E+00  0.00000000000E+00 -0.12952967490E+04  0.18784442033E+04  0.13604260204E+04 0.  0.
        3    1    3    3  502    0 -0.55216121089E+03  0.28104312479E+03 -0.25999065226E+03  0.67190951048E+03  0.10100000352E+00 0. -1.
       -3    1    3    3    0  502  0.55216121089E+03 -0.28104312479E+03 -0.10353060968E+04  0.12065346928E+04  0.10100000352E+00 0.  1.
</event>
<event>
 5   0  0.2172901E-03  0.1401035E+04  0.7818609E-02  0.8953070E-01
       -2   -1    0    0    0  501  0.00000000000E+00  0.00000000000E+00  0.75762889039E+03  0.75762889040E+03  0.25500000920E-02 0.  1.
        2   -1    0    0  501    0  0.00000000000E+00  0.00000000000E+00 -0.64771140437E+03  0.64771140437E+03  0.25500000920E-02 0. -1.
    10030    2    1    2    0    0  0.00000000000E+00  0.00000000000E+00  0.10991748603E+03  0.14053402948E+04  0.14010351496E+04 0.  0.
        2    1    3    3  502    0 -0.66856949827E+02  0.52327279702E+02 -0.64253174015E+03  0.64811652737E+03  0.25500000920E-02 0. -1.
       -2    1    3    3    0  502  0.66856949827E+02 -0.52327279702E+02  0.75244922618E+03  0.75722376740E+03  0.25500000920E-02 0.  1.
</event>
<event>
 5   0  0.2172901E-03  0.1399512E+04  0.7818609E-02  0.8954172E-01
        2   -1    0    0  501    0  0.00000000000E+00  0.00000000000E+00  0.82670748130E+03  0.82670748130E+03  0.25500000920E-02 0. -1.
       -2   -1    0    0    0  501  0.00000000000E+00  0.00000000000E+00 -0.59229947738E+03  0.59229947739E+03  0.25500000920E-02 0.  1.
    10030    2    1    2    0    0  0.00000000000E+00  0.00000000000E+00  0.23440800391E+03  0.14190069587E+04  0.13995119280E+04 0.  0.
        2    1    3    3  502    0  0.28022296082E+03  0.58602160521E+03  0.38104441467E+03  0.75308769443E+03  0.25500000920E-02 0. -1.
       -2    1    3    3    0  502 -0.28022296082E+03 -0.58602160521E+03 -0.14663641076E+03  0.66591926426E+03  0.25500000920E-02 0.  1.
</event>
<event>
 5   0  0.2195980E-03  0.1402911E+04  0.7818609E-02  0.8951714E-01
        2   -1    0    0  501    0  0.00000000000E+00  0.00000000000E+00  0.66353296980E+03  0.66353296980E+03  0.25500000920E-02 0. -1.
       -2   -1    0    0    0  501  0.00000000000E+00  0.00000000000E+00 -0.74154532802E+03  0.74154532802E+03  0.25500000920E-02 0.  1.
    10030    2    1    2    0    0  0.00000000000E+00  0.00000000000E+00 -0.78012358219E+02  0.14050782978E+04  0.14029109362E+04 0.  0.
        4    1    3    3  502    0 -0.32523595734E+03  0.54272908036E+03 -0.34230215242E+03  0.71937866181E+03  0.12699999809E+01 0.  1.
       -4    1    3    3    0  502  0.32523595734E+03 -0.54272908036E+03  0.26428979420E+03  0.68569963601E+03  0.12699999809E+01 0. -1.
</event>
<event>
 5   0  0.8293000E-04  0.1396398E+04  0.7818609E-02  0.8956430E-01
        3   -1    0    0  501    0  0.00000000000E+00  0.00000000000E+00  0.12961505270E+04  0.12961505310E+04  0.10100000352E+00 0.  1.
       -3   -1    0    0    0  501  0.00000000000E+00  0.00000000000E+00 -0.37609971861E+03  0.37609973218E+03  0.10100000352E+00 0. -1.
    10030    2    1    2    0    0  0.00000000000E+00  0.00000000000E+00  0.92005080842E+03  0.16722502631E+04  0.13963980280E+04 0.  0.
        2    1    3    3  502    0  0.13864074190E+03 -0.22880288776E+03 -0.31228457622E+03  0.41121001121E+03  0.25500000920E-02 0. -1.
       -2    1    3    3    0  502 -0.13864074190E+03  0.22880288776E+03  0.12323353846E+04  0.12610402519E+04  0.25500000920E-02 0.  1.
</event>
<event>
 5   0  0.1175374E-03  0.1399237E+04  0.7818609E-02  0.8954371E-01
       -1   -1    0    0    0  501  0.00000000000E+00  0.00000000000E+00  0.72641716012E+03  0.72641716014E+03  0.50400001928E-02 0. -1.
        1   -1    0    0  501    0  0.00000000000E+00  0.00000000000E+00 -0.67380833244E+03  0.67380833246E+03  0.50400001928E-02 0.  1.
    10030    2    1    2    0    0  0.00000000000E+00  0.00000000000E+00  0.52608827681E+02  0.14002254926E+04  0.13992368425E+04 0.  0.
        3    1    3    3  502    0  0.36521464634E+03  0.83187915551E+02  0.61762289444E+03  0.72232957653E+03  0.10100000352E+00 0. -1.
       -3    1    3    3    0  502 -0.36521464634E+03 -0.83187915551E+02 -0.56501406676E+03  0.67789591607E+03  0.10100000352E+00 0.  1.
</event>
<event>
 5   0  0.1225690E-03  0.1375613E+04  0.7818609E-02  0.8971663E-01
        1   -1    0    0  501    0  0.00000000000E+00  0.00000000000E+00  0.12048263972E+04  0.12048263972E+04  0.50400001928E-02 0. -1.
       -1   -1    0    0    0  501  0.00000000000E+00  0.00000000000E+00 -0.39265200208E+03  0.39265200212E+03  0.50400001928E-02 0.  1.
    10030    2    1    2    0    0  0.00000000000E+00  0.00000000000E+00  0.81217439508E+03  0.15974783993E+04  0.13756125865E+04 0.  0.
        4    1    3    3  502    0 -0.17797668406E+02  0.21737294146E+03 -0.35143050351E+03  0.41360943458E+03  0.12699999809E+01 0.  1.
       -4    1    3    3    0  502  0.17797668406E+02 -0.21737294146E+03  0.11636048986E+04  0.11838689647E+04  0.12699999809E+01 0. -1.
</event>
<event>
 5   0  0.2190704E-03  0.1397666E+04  0.7818609E-02  0.8955509E-01
       -2   -1    0    0    0  501  0.00000000000E+00  0.00000000000E+00  0.47894042945E+03  0.47894042946E+03  0.25500000920E-02 0.  1.
        2   -1    0    0  501    0  0.00000000000E+00  0.00000000000E+00 -0.10196839100E+04  0.10196839101E+04  0.25500000920E-02 0. -1.
    10030    2    1    2    0    0  0.00000000000E+00  0.00000000000E+00 -0.54074348059E+03  0.14986243395E+04  0.13976664120E+04 0.  0.
        5    1    3    3  502    0 -0.38094992373E+03 -0.24157981548E+03 -0.84264914014E+03  0.95580506120E+03  0.46999998093E+01 0. -1.
       -5    1    3    3    0  502  0.38094992373E+03  0.24157981548E+03  0.30190565955E+03  0.54281927831E+03  0.46999998093E+01 0.  1.
</event>
<event>
 5   0  0.1175374E-03  0.1374168E+04  0.7818609E-02  0.8972732E-01
        1   -1    0    0  501    0  0.00000000000E+00  0.00000000000E+00  0.11312546437E+04  0.11312546437E+04  0.50400001928E-02 0.  1.
       -1   -1    0    0    0  501  0.00000000000E+00  0.00000000000E+00 -0.41731062161E+03  0.41731062164E+03  0.50400001928E-02 0. -1.
    10030    2    1    2    0    0  0.00000000000E+00  0.00000000000E+00  0.71394402209E+03  0.15485652654E+04  0.13741682264E+04 0.  0.
        3    1    3    3  502    0  0.63195830059E+03  0.12945730876E+03  0.90405559626E+02  0.65138595616E+03  0.10100000352E+00 0. -1.
       -3    1    3    3    0  502 -0.63195830059E+03 -0.12945730876E+03  0.62353846246E+03  0.89717930919E+03  0.10100000352E+00 0.  1.
</event>
<event>
 5   0  0.1238683E-03  0.1400940E+04  0.7818609E-02  0.8953138E-01
       -1   -1    0    0    0  501  0.00000000000E+00  0.00000000000E+00  0.56067015366E+03  0.56067015368E+03  0.50400001928E-02 0.  1.
        1   -1    0    0  501    0  0.00000000000E+00  0.00000000000E+00 -0.87512801444E+03  0.87512801445E+03  0.50400001928E-02 0. -1.
    10030    2    1    2    0    0  0.00000000000E+00  0.00000000000E+00 -0.31445786078E+03  0.14357981681E+04  0.14009399107E+04 0.  0.
        2    1    3    3  502    0  0.42222324728E+03 -0.10016515023E+03 -0.72077673557E+03  0.84132314268E+03  0.25500000920E-02 0. -1.
       -2    1    3    3    0  502 -0.42222324728E+03  0.10016515023E+03  0.40631887480E+03  0.59447502545E+03  0.25500000920E-02 0.  1.
</event>
<event>
 5   0  0.2236184E-03  0.1414046E+04  0.7818609E-02  0.8943714E-01
        2   -1    0    0  501    0  0.00000000000E+00  0.00000000000E+00  0.13765529568E+04  0.13765529568E+04  0.25500000920E-02 0. -1.
       -2   -1    0    0    0  501  0.00000000000E+00  0.00000000000E+00 -0.36314000682E+03  0.36314000683E+03  0.25500000920E-02 0.  1.
    10030    2    1    2    0    0  0.00000000000E+00  0.00000000000E+00  0.10134129500E+04  0.17396929636E+04  0.14140458976E+04 0.  0.
        3    1    3    3  502    0 -0.40851758439E+02 -0.58928209216E+03  0.28694387629E+02  0.59139295598E+03  0.10100000352E+00 0.  1.
       -3    1    3    3    0  502  0.40851758439E+02  0.58928209216E+03  0.98471856234E+03  0.11483000076E+04  0.10100000352E+00 0. -1.
</event>
<event>
 5   0  0.1175374E-03  0.1402408E+04  0.7818609E-02  0.8952077E-01
       -1   -1    0    0    0  501  0.00000000000E+00  0.00000000000E+00  0.51480967188E+03  0.51480967191E+03  0.50400001928E-02 0. -1.
        1   -1    0    0  501    0  0.00000000000E+00  0.00000000000E+00 -0.95508562217E+03  0.95508562218E+03  0.50400001928E-02 0.  1.
    10030    2    1    2    0    0  0.00000000000E+00  0.00000000000E+00 -0.44027595029E+03  0.14698952941E+04  0.14024083796E+04 0.  0.
        3    1    3    3  502    0  0.57329709012E+03 -0.17460554673E+03 -0.60170433052E+03  0.84923775355E+03  0.10100000352E+00 0.  1.
       -3    1    3    3    0  502 -0.57329709012E+03  0.17460554673E+03  0.16142838023E+03  0.62065754054E+03  0.10100000352E+00 0. -1.
</event>
<event>
 5   0  0.1175374E-03  0.1414971E+04  0.7818609E-02  0.8943053E-01
       -1   -1    0    0    0  501  0.00000000000E+00  0.00000000000E+00  0.10205096000E+04  0.10205096000E+04  0.50400001928E-02 0. -1.
        1   -1    0    0  501    0  0.00000000000E+00  0.00000000000E+00 -0.49047607793E+03  0.49047607795E+03  0.50400001928E-02 0.  1.
    10030    2    1    2    0    0  0.00000000000E+00  0.00000000000E+00  0.53003352210E+03  0.15109856780E+04  0.14149707363E+04 0.  0.
        3    1    3    3  502    0 -0.42515218803E+03  0.11715077413E+03  0.85578065054E+03  0.96272489264E+03  0.10100000352E+00 0. -1.
       -3    1    3    3    0  502  0.42515218803E+03 -0.11715077413E+03 -0.32574712844E+03  0.54826078535E+03  0.10100000352E+00 0.  1.
</event>
<event>
 5   0  0.1175374E-03  0.1410607E+04  0.7818609E-02  0.8946176E-01
       -1   -1    0    0    0  501  0.00000000000E+00  0.00000000000E+00  0.80651117043E+03  0.80651117045E+03  0.50400001928E-02 0.  1.
        1   -1    0    0  501    0  0.00000000000E+00  0.00000000000E+00 -0.61679658997E+03  0.61679658999E+03  0.50400001928E-02 0. -1.
    10030    2    1    2    0    0  0.00000000000E+00  0.00000000000E+00  0.18971458047E+03  0.14233077604E+04  0.14106074432E+04 0.  0.
        3    1    3    3  502    0  0.67914097221E+03  0.18917876271E+03  0.73879113293E+02  0.70885767117E+03  0.10100000352E+00 0.  1.
       -3    1    3    3    0  502 -0.67914097221E+03 -0.18917876271E+03  0.11583546717E+03  0.71445008927E+03  0.10100000352E+00 0. -1.
</event>
<event>
 5   0  0.8293000E-04  0.1359053E+04  0.7818609E-02  0.8984003E-01
       -4   -1    0    0    0  501  0.00000000000E+00  0.00000000000E+00  0.14476121237E+04  0.14476126808E+04  0.12699999809E+01 0.  1.
        4   -1    0    0  501    0  0.00000000000E+00  0.00000000000E+00 -0.31897589575E+03  0.31897842399E+03  0.12699999809E+01 0. -1.
    10030    2    1    2    0    0  0.00000000000E+00  0.00000000000E+00  0.11286362280E+04  0.17665911048E+04  0.13590527571E+04 0.  0.
        2    1    3    3  502    0  0.56808524564E+03 -0.25919138100E+03  0.91275848261E+03  0.11059064454E+04  0.25500000920E-02 0.  1.
       -2    1    3    3    0  502 -0.56808524564E+03  0.25919138100E+03  0.21587774539E+03  0.66068465947E+03  0.25500000920E-02 0. -1.
</event>
<event>
 5   0  0.1225690E-03  0.1224419E+04  0.7818609E-02  0.9091747E-01
       -1   -1    0    0    0  501  0.00000000000E+00  0.00000000000E+00  0.36431942374E+03  0.36431942377E+03  0.50400001928E-02 0.  1.
        1   -1    0    0  501    0  0.00000000000E+00  0.00000000000E+00 -0.10287684438E+04  0.10287684438E+04  0.50400001928E-02 0. -1.
    10030    2    1    2    0    0  0.00000000000E+00  0.00000000000E+00 -0.66444902008E+03  0.13930878676E+04  0.12244187627E+04 0.  0.
        4    1    3    3  502    0 -0.56953894863E+03 -0.21114564798E+03 -0.24526541692E+03  0.65506781046E+03  0.12699999809E+01 0.  1.
       -4    1    3    3    0  502  0.56953894863E+03  0.21114564798E+03 -0.41918360316E+03  0.73802005713E+03  0.12699999809E+01 0. -1.
</event>
<event>
 5   0  0.1225690E-03  0.1468011E+04  0.7818609E-02  0.8906008E-01
        1   -1    0    0  501    0  0.00000000000E+00  0.00000000000E+00  0.54320247569E+03  0.54320247571E+03  0.50400001928E-02 0. -1.
       -1   -1    0    0    0  501  0.00000000000E+00  0.00000000000E+00 -0.99182944201E+03  0.99182944203E+03  0.50400001928E-02 0.  1.
    10030    2    1    2    0    0  0.00000000000E+00  0.00000000000E+00 -0.44862696633E+03  0.15350319177E+04  0.14680111830E+04 0.  0.
        4    1    3    3  502    0  0.38106168715E+03  0.86770741256E+02 -0.87398825235E+03  0.95738928816E+03  0.12699999809E+01 0.  1.
       -4    1    3    3    0  502 -0.38106168715E+03 -0.86770741256E+02  0.42536128602E+03  0.57764262957E+03  0.12699999809E+01 0. -1.
</event>
<event>
 5   0  0.2236184E-03  0.1399418E+04  0.7818609E-02  0.8954240E-01
        2   -1    0    0  501    0  0.00000000000E+00  0.00000000000E+00  0.18917491449E+04  0.18917491449E+04  0.25500000920E-02 0. -1.
       -2   -1    0    0    0  501  0.00000000000E+00  0.00000000000E+00 -0.25880433079E+03  0.25880433080E+03  0.25500000920E-02 0.  1.
    10030    2    1    2    0    0  0.00000000000E+00  0.00000000000E+00  0.16329448141E+04  0.21505534757E+04  0.13994182670E+04 0.  0.
        3    1    3    3  502    0 -0.44887683421E+02 -0.68019278759E+03  0.57390105677E+03  0.89108897736E+03  0.10100000352E+00 0. -1.
       -3    1    3    3    0  502  0.44887683421E+02  0.68019278759E+03  0.10590437573E+04  0.12594644983E+04  0.10100000352E+00 0.  1.
</event>
<event>
 5   0  0.2195980E-03  0.1418754E+04  0.7818609E-02  0.8940354E-01
       -2   -1    0    0    0  501  0.00000000000E+00  0.00000000000E+00  0.34862313591E+03  0.34862313592E+03  0.25500000920E-02 0.  1.
        2   -1    0    0  501    0  0.00000000000E+00  0.00000000000E+00 -0.14434382199E+04  0.14434382199E+04  0.25500000920E-02 0. -1.
    10030    2    1    2    0    0  0.00000000000E+00  0.00000000000E+00 -0.10948150840E+04  0.17920613559E+04  0.14187543251E+04 0.  0.
        4    1    3    3  502    0 -0.36515579944E+03  0.32964801191E+03 -0.11929706848E+04  0.12904213410E+04  0.12699999809E+01 0. -1.
       -4    1    3    3    0  502  0.36515579944E+03 -0.32964801191E+03  0.98155600793E+02  0.50164001484E+03  0.12699999809E+01 0.  1.
</event>
<event>
 5   0  0.2195980E-03  0.1006403E+04  0.7818609E-02  0.9301549E-01
       -2   -1    0    0    0  501  0.00000000000E+00  0.00000000000E+00  0.18393266160E+03  0.18393266162E+03  0.25500000920E-02 0. -1.
        2   -1    0    0  501    0  0.00000000000E+00  0.00000000000E+00 -0.13766557157E+04  0.13766557157E+04  0.25500000920E-02 0.  1.
    10030    2    1    2    0    0  0.00000000000E+00  0.00000000000E+00 -0.11927230541E+04  0.15605883773E+04  0.10064033981E+04 0.  0.
        4    1    3    3  502    0  0.39170622729E+03 -0.23681320513E+03 -0.92050515210E+03  0.10280299658E+04  0.12699999809E+01 0.  1.
       -4    1    3    3    0  502 -0.39170622729E+03  0.23681320513E+03 -0.27221790200E+03  0.53255841154E+03  0.12699999809E+01 0. -1.
</event>
<event>
 5   0  0.1199720E-03  0.1261092E+04  0.7818609E-02  0.9061002E-01
        1   -1    0    0  501    0  0.00000000000E+00  0.00000000000E+00  0.37391292632E+03  0.37391292636E+03  0.50400001928E-02 0. -1.
       -1   -1    0    0    0  501  0.00000000000E+00  0.00000000000E+00 -0.10633178655E+04  0.10633178655E+04  0.50400001928E-02 0.  1.
    10030    2    1    2    0    0  0.00000000000E+00  0.00000000000E+00 -0.68940493918E+03  0.14372307919E+04  0.12610920581E+04 0.  0.
        5    1    3    3  502    0 -0.23343223028E+03 -0.34698010180E+03 -0.88250238088E+03  0.97658503953E+03  0.46999998093E+01 0.  1.
       -5    1    3    3    0  502  0.23343223028E+03  0.34698010180E+03  0.19309744169E+03  0.46064575235E+03  0.46999998093E+01 0. -1.
</event>
<event>
 5   0  0.1175374E-03  0.1396300E+04  0.7818609E-02  0.8956501E-01
        1   -1    0    0  501    0  0.00000000000E+00  0.00000000000E+00  0.60931577682E+03  0.60931577684E+03  0.50400001928E-02 0. -1.
       -1   -1    0    0    0  501  0.00000000000E+00  0.00000000000E+00 -0.79993619376E+03  0.79993619378E+03  0.50400001928E-02 0.  1.
    10030    2    1    2    0    0  0.00000000000E+00  0.00000000000E+00 -0.19062041694E+03  0.14092519706E+04  0.13963004595E+04 0.  0.
        3    1    3    3  502    0 -0.68550406375E+03 -0.29950671196E+02 -0.22534967558E+03  0.72221558458E+03  0.10100000352E+00 0.  1.
       -3    1    3    3    0  502  0.68550406375E+03  0.29950671196E+02  0.34729258646E+02  0.68703638603E+03  0.10100000352E+00 0. -1.
</event>
<event>
 5   0  0.2195980E-03  0.1319484E+04  0.7818609E-02  0.9014255E-01
       -2   -1    0    0    0  501  0.00000000000E+00  0.00000000000E+00  0.28438309290E+03  0.28438309291E+03  0.25500000920E-02 0. -1.
        2   -1    0    0  501    0  0.00000000000E+00  0.00000000000E+00 -0.15305401477E+04  0.15305401477E+04  0.25500000920E-02 0.  1.
    10030    2    1    2    0    0  0.00000000000E+00  0.00000000000E+00 -0.12461570548E+04  0.18149232406E+04  0.13194843554E+04 0.  0.
        4    1    3    3  502    0  0.24935881543E+03  0.33167469100E+03 -0.13285668852E+04  0.13918618828E+04  0.12699999809E+01 0. -1.
       -4    1    3    3    0  502 -0.24935881543E+03 -0.33167469100E+03  0.82409830327E+02  0.42306135787E+03  0.12699999809E+01 0.  1.
</event>
<event>
 5   0  0.2190704E-03  0.1292351E+04  0.7818609E-02  0.9035653E-01
       -2   -1    0    0    0  501  0.00000000000E+00  0.00000000000E+00  0.65421835526E+03  0.65421835527E+03  0.25500000920E-02 0.  1.
        2   -1    0    0  501    0  0.00000000000E+00  0.00000000000E+00 -0.63823155819E+03  0.63823155820E+03  0.25500000920E-02 0. -1.
    10030    2    1    2    0    0  0.00000000000E+00  0.00000000000E+00  0.15986797072E+02  0.12924499135E+04  0.12923510363E+04 0.  0.
        5    1    3    3  502    0  0.82416304593E+02 -0.63657360386E+03  0.82176630297E+02  0.64714255691E+03  0.46999998093E+01 0.  1.
       -5    1    3    3    0  502 -0.82416304593E+02  0.63657360386E+03 -0.66189833226E+02  0.64530735655E+03  0.46999998093E+01 0. -1.
</event>
<event>
 5   0  0.1199720E-03  0.1390529E+04  0.7818609E-02  0.8960702E-01
        1   -1    0    0  501    0  0.00000000000E+00  0.00000000000E+00  0.12824640504E+04  0.12824640504E+04  0.50400001928E-02 0. -1.
       -1   -1    0    0    0  501  0.00000000000E+00  0.00000000000E+00 -0.37692519748E+03  0.37692519752E+03  0.50400001928E-02 0.  1.
    10030    2    1    2    0    0  0.00000000000E+00  0.00000000000E+00  0.90553885293E+03  0.16593892479E+04  0.13905294179E+04 0.  0.
        5    1    3    3  502    0  0.17894745512E+03 -0.31139273701E+03  0.11631723054E+04  0.12173658162E+04  0.46999998093E+01 0. -1.
       -5    1    3    3    0  502 -0.17894745512E+03  0.31139273701E+03 -0.25763345250E+03  0.44202343173E+03  0.46999998093E+01 0.  1.
</event>
<event>
 5   0  0.1175374E-03  0.1114162E+04  0.7818609E-02  0.9191497E-01
        1   -1    0    0  501    0  0.00000000000E+00  0.00000000000E+00  0.12987816435E+04  0.12987816435E+04  0.50400001928E-02 0.  1.
       -1   -1    0    0    0  501  0.00000000000E+00  0.00000000000E+00 -0.23894660255E+03  0.23894660260E+03  0.50400001928E-02 0. -1.
    10030    2    1    2    0    0  0.00000000000E+00  0.00000000000E+00  0.10598350410E+04  0.15377282461E+04  0.11141623961E+04 0.  0.
        3    1    3    3  502    0 -0.53979540872E+03  0.10421842268E+03  0.40571117182E+03  0.68325846358E+03  0.10100000352E+00 0. -1.
       -3    1    3    3    0  502  0.53979540872E+03 -0.10421842268E+03  0.65412386913E+03  0.85446978254E+03  0.10100000352E+00 0.  1.
</event>
<event>
 5   0  0.2172901E-03  0.9210549E+03  0.7818609E-02  0.9399638E-01
        2   -1    0    0  501    0  0.00000000000E+00  0.00000000000E+00  0.12114425155E+04  0.12114425155E+04  0.25500000920E-02 0.  1.
       -2   -1    0    0    0  501  0.00000000000E+00  0.00000000000E+00 -0.17506860501E+03  0.17506860502E+03  0.25500000920E-02 0. -1.
    10030    2    1    2    0    0  0.00000000000E+00  0.00000000000E+00  0.10363739105E+04  0.13865111205E+04  0.92105494136E+03 0.  0.
        2    1    3    3  502    0  0.12733865473E+03 -0.22697091213E+03 -0.53756598121E+02  0.26574555460E+03  0.25500000920E-02 0. -1.
       -2    1    3    3    0  502 -0.12733865473E+03  0.22697091213E+03  0.10901305086E+04  0.11207655659E+04  0.25500000920E-02 0.  1.
</event>
<event>
 5   0  0.2190704E-03  0.1409018E+04  0.7818609E-02  0.8947317E-01
       -2   -1    0    0    0  501  0.00000000000E+00  0.00000000000E+00  0.51570554063E+03  0.51570554064E+03  0.25500000920E-02 0. -1.
        2   -1    0    0  501    0  0.00000000000E+00  0.00000000000E+00 -0.96243454477E+03  0.96243454477E+03  0.25500000920E-02 0.  1.
    10030    2    1    2    0    0  0.00000000000E+00  0.00000000000E+00 -0.44672900414E+03  0.14781400854E+04  0.14090178526E+04 0.  0.
        5    1    3    3  502    0 -0.33060895368E+03 -0.10354489384E+03  0.42015046957E+03  0.54458455025E+03  0.46999998093E+01 0. -1.
       -5    1    3    3    0  502  0.33060895368E+03  0.10354489384E+03 -0.86687947371E+03  0.93355553516E+03  0.46999998093E+01 0.  1.
</event>
<event>
 5   0  0.2083966E-03  0.1401929E+04  0.7818609E-02  0.8952423E-01
        2   -1    0    0  501    0  0.00000000000E+00  0.00000000000E+00  0.21090587848E+04  0.21090587848E+04  0.25500000920E-02 0.  1.
       -2   -1    0    0    0  501  0.00000000000E+00  0.00000000000E+00 -0.23297191331E+03  0.23297191332E+03  0.25500000920E-02 0. -1.
    10030    2    1    2    0    0  0.00000000000E+00  0.00000000000E+00  0.18760868715E+04  0.23420306981E+04  0.14019293283E+04 0.  0.
        1    1    3    3  502    0 -0.58363154498E+02  0.34004014310E+03  0.19573936589E+04  0.19875672297E+04  0.50400001928E-02 0.  1.
       -1    1    3    3    0  502  0.58363154498E+02 -0.34004014310E+03 -0.81306787412E+02  0.35446346840E+03  0.50400001928E-02 0. -1.
</event>
<event>
 5   0  0.2195980E-03  0.1418352E+04  0.7818609E-02  0.8940641E-01
        2   -1    0    0  501    0  0.00000000000E+00  0.00000000000E+00  0.13481261573E+04  0.13481261573E+04  0.25500000920E-02 0. -1.
       -2   -1    0    0    0  501  0.00000000000E+00  0.00000000000E+00 -0.37305887923E+03  0.37305887924E+03  0.25500000920E-02 0.  1.
    10030    2    1    2    0    0  0.00000000000E+00  0.00000000000E+00  0.97506727807E+03  0.17211850365E+04  0.14183517664E+04 0.  0.
        4    1    3    3  502    0  0.42866090982E+02 -0.28441049212E+03  0.12741675431E+04  0.13062279168E+04  0.12699999809E+01 0. -1.
       -4    1    3    3    0  502 -0.42866090982E+02  0.28441049212E+03 -0.29910026504E+03  0.41495711975E+03  0.12699999809E+01 0.  1.
</event>
<event>
 5   0  0.2190704E-03  0.1273385E+04  0.7818609E-02  0.9050942E-01
        2   -1    0    0  501    0  0.00000000000E+00  0.00000000000E+00  0.20581740995E+04  0.20581740995E+04  0.25500000920E-02 0. -1.
       -2   -1    0    0    0  501  0.00000000000E+00  0.00000000000E+00 -0.19695956821E+03  0.19695956822E+03  0.25500000920E-02 0.  1.
    10030    2    1    2    0    0  0.00000000000E+00  0.00000000000E+00  0.18612145313E+04  0.22551336677E+04  0.12733845954E+04 0.  0.
        5    1    3    3  502    0  0.48694139275E+03  0.38254203071E+03  0.66849881584E+03  0.91124260327E+03  0.46999998093E+01 0.  1.
       -5    1    3    3    0  502 -0.48694139275E+03 -0.38254203071E+03  0.11927157155E+04  0.13438910645E+04  0.46999998093E+01 0. -1.
</event>
<event>
 5   0  0.2236184E-03  0.1424794E+04  0.7818609E-02  0.8936064E-01
        2   -1    0    0  501    0  0.00000000000E+00  0.00000000000E+00  0.13404299756E+04  0.13404299756E+04  0.25500000920E-02 0. -1.
       -2   -1    0    0    0  501  0.00000000000E+00  0.00000000000E+00 -0.37861707074E+03  0.37861707075E+03  0.25500000920E-02 0.  1.
    10030    2    1    2    0    0  0.00000000000E+00  0.00000000000E+00  0.96181290488E+03  0.17190470464E+04  0.14247942601E+04 0.  0.
        3    1    3    3  502    0 -0.52720253617E+03  0.73516468711E+02 -0.90331511500E+02  0.53991386117E+03  0.10100000352E+00 0.  1.
       -3    1    3    3    0  502  0.52720253617E+03 -0.73516468711E+02  0.10521444164E+04  0.11791331852E+04  0.10100000352E+00 0. -1.
</event>
<event>
 5   0  0.1238683E-03  0.1406349E+04  0.7818609E-02  0.8949235E-01
        1   -1    0    0  501    0  0.00000000000E+00  0.00000000000E+00  0.11634755716E+04  0.11634755716E+04  0.50400001928E-02 0.  1.
       -1   -1    0    0    0  501  0.00000000000E+00  0.00000000000E+00 -0.42498065196E+03  0.42498065199E+03  0.50400001928E-02 0. -1.
    10030    2    1    2    0    0  0.00000000000E+00  0.00000000000E+00  0.73849491966E+03  0.15884562236E+04  0.14063493265E+04 0.  0.
        2    1    3    3  502    0 -0.22435790669E+03  0.23219026005E+03  0.10747992731E+04  0.11222487534E+04  0.25500000920E-02 0.  1.
       -2    1    3    3    0  502  0.22435790669E+03 -0.23219026005E+03 -0.33630435340E+03  0.46620747021E+03  0.25500000920E-02 0. -1.
</event>
<event>
 5   0  0.2190704E-03  0.1455899E+04  0.7818609E-02  0.8914321E-01
        2   -1    0    0  501    0  0.00000000000E+00  0.00000000000E+00  0.10599420515E+04  0.10599420515E+04  0.25500000920E-02 0. -1.
       -2   -1    0    0    0  501  0.00000000000E+00  0.00000000000E+00 -0.49994268290E+03  0.49994268290E+03  0.25500000920E-02 0.  1.
    10030    2    1    2    0    0  0.00000000000E+00  0.00000000000E+00  0.55999936864E+03  0.15598847344E+04  0.14558987231E+04 0.  0.
        5    1    3    3  502    0 -0.22862676060E+03  0.47340349258E+03 -0.25945680776E+03  0.58627722755E+03  0.46999998093E+01 0.  1.
       -5    1    3    3    0  502  0.22862676060E+03 -0.47340349258E+03  0.81945617640E+03  0.97360750690E+03  0.46999998093E+01 0. -1.
</event>
<event>
 5   0  0.1199720E-03  0.1041100E+04  0.7818609E-02  0.9264581E-01
       -1   -1    0    0    0  501  0.00000000000E+00  0.00000000000E+00  0.10410589029E+04  0.10410589029E+04  0.50400001928E-02 0.  1.
        1   -1    0    0  501    0  0.00000000000E+00  0.00000000000E+00 -0.26028514909E+03  0.26028514914E+03  0.50400001928E-02 0. -1.
    10030    2    1    2    0    0  0.00000000000E+00  0.00000000000E+00  0.78077375381E+03  0.13013440520E+04  0.10410997489E+04 0.  0.
        5    1    3    3  502    0  0.78897483935E+02  0.43555072419E+03  0.48020790927E+02  0.44526097142E+03  0.46999998093E+01 0. -1.
       -5    1    3    3    0  502 -0.78897483935E+02 -0.43555072419E+03  0.73275296288E+03  0.85608308062E+03  0.46999998093E+01 0.  1.
</event>
<event>
 5   0  0.1199720E-03  0.1111360E+04  0.7818609E-02  0.9194190E-01
       -1   -1    0    0    0  501  0.00000000000E+00  0.00000000000E+00  0.58809980135E+03  0.58809980137E+03  0.50400001928E-02 0. -1.
        1   -1    0    0  501    0  0.00000000000E+00  0.00000000000E+00 -0.52504735766E+03  0.52504735769E+03  0.50400001928E-02 0.  1.
    10030    2    1    2    0    0  0.00000000000E+00  0.00000000000E+00  0.63052443687E+02  0.11131471591E+04  0.11113599719E+04 0.  0.
        5    1    3    3  502    0  0.30370505000E+03 -0.14796621925E+03 -0.41034917293E+03  0.53154425325E+03  0.46999998093E+01 0.  1.
       -5    1    3    3    0  502 -0.30370505000E+03  0.14796621925E+03  0.47340161662E+03  0.58160290581E+03  0.46999998093E+01 0. -1.
</event>
<event>
 5   0  0.1199720E-03  0.1430501E+04  0.7818609E-02  0.8932031E-01
       -1   -1    0    0    0  501  0.00000000000E+00  0.00000000000E+00  0.42995691824E+03  0.42995691827E+03  0.50400001928E-02 0.  1.
        1   -1    0    0  501    0  0.00000000000E+00  0.00000000000E+00 -0.11898478992E+04  0.11898478992E+04  0.50400001928E-02 0. -1.
    10030    2    1    2    0    0  0.00000000000E+00  0.00000000000E+00 -0.75989098096E+03  0.16198048175E+04  0.14305010814E+04 0.  0.
        5    1    3    3  502    0 -0.25824538750E+03 -0.24873098696E+03  0.32082506491E+03  0.48115340206E+03  0.46999998093E+01 0.  1.
       -5    1    3    3    0  502  0.25824538750E+03  0.24873098696E+03 -0.10807160459E+04  0.11386514154E+04  0.46999998093E+01 0. -1.
</event>
<event>
 5   0  0.1225690E-03  0.1393030E+04  0.7818609E-02  0.8958879E-01
       -1   -1    0    0    0  501  0.00000000000E+00  0.00000000000E+00  0.63748999546E+03  0.63748999548E+03  0.50400001928E-02 0. -1.
        1   -1    0    0  501    0  0.00000000000E+00  0.00000000000E+00 -0.76100556342E+03  0.76100556344E+03  0.50400001928E-02 0.  1.
    10030    2    1    2    0    0  0.00000000000E+00  0.00000000000E+00 -0.12351556796E+03  0.13984955589E+04  0.13930304135E+04 0.  0.
        4    1    3    3  502    0 -0.66755930666E+03  0.78608459048E+02  0.12148804840E+03  0.68306344987E+03  0.12699999809E+01 0. -1.
       -4    1    3    3    0  502  0.66755930666E+03 -0.78608459048E+02 -0.24500361636E+03  0.71543210906E+03  0.12699999809E+01 0.  1.
</event>
<event>
 5   0  0.2236184E-03  0.1469474E+04  0.7818609E-02  0.8905010E-01
        2   -1    0    0  501    0  0.00000000000E+00  0.00000000000E+00  0.22039896027E+03  0.22039896029E+03  0.25500000920E-02 0. -1.
       -2   -1    0    0    0  501  0.00000000000E+00  0.00000000000E+00 -0.24493691935E+04  0.24493691935E+04  0.25500000920E-02 0.  1.
    10030    2    1    2    0    0  0.00000000000E+00  0.00000000000E+00 -0.22289702332E+04  0.26697681538E+04  0.14694739516E+04 0.  0.
        3    1    3    3  502    0 -0.17033204169E+03 -0.23291861435E+03 -0.23421148557E+04  0.23598233181E+04  0.10100000352E+00 0.  1.
       -3    1    3    3    0  502  0.17033204169E+03  0.23291861435E+03  0.11314462249E+03  0.30994483563E+03  0.10100000352E+00 0. -1.
</event>
<event>
 5   0  0.2190704E-03  0.1396864E+04  0.7818609E-02  0.8956092E-01
       -2   -1    0    0    0  501  0.00000000000E+00  0.00000000000E+00  0.54716326502E+03  0.54716326503E+03  0.25500000920E-02 0. -1.
        2   -1    0    0  501    0  0.00000000000E+00  0.00000000000E+00 -0.89151996974E+03  0.89151996975E+03  0.25500000920E-02 0.  1.
    10030    2    1    2    0    0  0.00000000000E+00  0.00000000000E+00 -0.34435670472E+03  0.14386832348E+04  0.13968635975E+04 0.  0.
        5    1    3    3  502    0  0.21506270748E+03  0.78273472747E+01  0.51214694350E+03  0.55554461320E+03  0.46999998093E+01 0. -1.
       -5    1    3    3    0  502 -0.21506270748E+03 -0.78273472747E+01 -0.85650364822E+03  0.88313862158E+03  0.46999998093E+01 0.  1.
</event>
<event>
 5   0  0.1225690E-03  0.1361503E+04  0.7818609E-02  0.8982166E-01
        1   -1    0    0  501    0  0.00000000000E+00  0.00000000000E+00  0.86067700607E+03  0.86067700609E+03  0.50400001928E-02 0. -1.
       -1   -1    0    0    0  501  0.00000000000E+00  0.00000000000E+00 -0.53843948829E+03  0.53843948831E+03  0.50400001928E-02 0.  1.
    10030    2    1    2    0    0  0.00000000000E+00  0.00000000000E+00  0.32223751778E+03  0.13991164944E+04  0.13615028267E+04 0.  0.
        4    1    3    3  502    0 -0.38130765592E+02  0.32195857875E+03 -0.45400789618E+03  0.55788535059E+03  0.12699999809E+01 0.  1.
       -4    1    3    3    0  502  0.38130765592E+02 -0.32195857875E+03  0.77624541396E+03  0.84123114381E+03  0.12699999809E+01 0. -1.
</event>
<event>
 5   0  0.2172901E-03  0.1409450E+04  0.7818609E-02  0.8947007E-01
       -2   -1    0    0    0  501  0.00000000000E+00  0.00000000000E+00  0.37314105739E+03  0.37314105740E+03  0.25500000920E-02 0.  1.
        2   -1    0    0  501    0  0.00000000000E+00  0.00000000000E+00 -0.13309635186E+04  0.13309635186E+04  0.25500000920E-02 0. -1.
    10030    2    1    2    0    0  0.00000000000E+00  0.00000000000E+00 -0.95782246121E+03  0.17041045760E+04  0.14094497291E+04 0.  0.
        2    1    3    3  502    0  0.24595717626E+03  0.14355733431E+03  0.30046951059E+03  0.41398740028E+03  0.25500000920E-02 0.  1.
       -2    1    3    3    0  502 -0.24595717626E+03 -0.14355733431E+03 -0.12582919718E+04  0.12901171757E+04  0.25500000920E-02 0. -1.
</event>
<event>
 5   0  0.2172901E-03  0.1373416E+04  0.7818609E-02  0.8973290E-01
        2   -1    0    0  501    0  0.00000000000E+00  0.00000000000E+00  0.12795469680E+04  0.12795469680E+04  0.25500000920E-02 0.  1.
       -2   -1    0    0    0  501  0.00000000000E+00  0.00000000000E+00 -0.36854259862E+03  0.36854259863E+03  0.25500000920E-02 0. -1.
    10030    2    1    2    0    0  0.00000000000E+00  0.00000000000E+00  0.91100436936E+03  0.16480895666E+04  0.13734155448E+04 0.  0.
        2    1    3    3  502    0  0.24476606722E+03  0.62595949917E+02  0.12217511771E+04  0.12475995429E+04  0.25500000920E-02 0.  1.
       -2    1    3    3    0  502 -0.24476606722E+03 -0.62595949917E+02 -0.31074680773E+03  0.40049002376E+03  0.25500000920E-02 0. -1.
</event>
<event>
 5   0  0.1225690E-03  0.1359324E+04  0.7818609E-02  0.8983800E-01
        1   -1    0    0  501    0  0.00000000000E+00  0.00000000000E+00  0.58586626954E+03  0.58586626956E+03  0.50400001928E-02 0. -1.
       -1   -1    0    0    0  501  0.00000000000E+00  0.00000000000E+00 -0.78847399062E+03  0.78847399063E+03  0.50400001928E-02 0.  1.
    10030    2    1    2    0    0  0.00000000000E+00  0.00000000000E+00 -0.20260772107E+03  0.13743402602E+04  0.13593238253E+04 0.  0.
        4    1    3    3  502    0 -0.53493911767E+03  0.38364543537E+02  0.32080917118E+03  0.62494146528E+03  0.12699999809E+01 0. -1.
       -4    1    3    3    0  502  0.53493911767E+03 -0.38364543537E+02 -0.52341689226E+03  0.74939879491E+03  0.12699999809E+01 0.  1.
</event>
<event>
 5   0  0.2190704E-03  0.1403390E+04  0.7818609E-02  0.8951368E-01
        2   -1    0    0  501    0  0.00000000000E+00  0.00000000000E+00  0.76267473190E+03  0.76267473190E+03  0.25500000920E-02 0. -1.
       -2   -1    0    0    0  501  0.00000000000E+00  0.00000000000E+00 -0.64559105892E+03  0.64559105892E+03  0.25500000920E-02 0.  1.
    10030    2    1    2    0    0  0.00000000000E+00  0.00000000000E+00  0.11708367298E+03  0.14082657908E+04  0.14033901635E+04 0.  0.
        5    1    3    3  502    0 -0.86090805699E+02 -0.33303770622E+03  0.67224498337E+03  0.75515637338E+03  0.46999998093E+01 0. -1.
       -5    1    3    3    0  502  0.86090805699E+02  0.33303770622E+03 -0.55516131039E+03  0.65310941744E+03  0.46999998093E+01 0.  1.
</event>
<event>
 5   0  0.1175374E-03  0.1434662E+04  0.7818609E-02  0.8929104E-01
        1   -1    0    0  501    0  0.00000000000E+00  0.00000000000E+00  0.72717190494E+03  0.72717190496E+03  0.50400001928E-02 0. -1.
       -1   -1    0    0    0  501  0.00000000000E+00  0.00000000000E+00 -0.70762288529E+03  0.70762288531E+03  0.50400001928E-02 0.  1.
    10030    2    1    2    0    0  0.00000000000E+00  0.00000000000E+00  0.19549019647E+02  0.14347947903E+04  0.14346616068E+04 0.  0.
        3    1    3    3  502    0 -0.31570957993E+03  0.60670447369E+03  0.22612908847E+03  0.72034521732E+03  0.10100000352E+00 0. -1.
       -3    1    3    3    0  502  0.31570957993E+03 -0.60670447369E+03 -0.20658006883E+03  0.71444957295E+03  0.10100000352E+00 0.  1.
</event>
<event>
 5   0  0.2195980E-03  0.1407333E+04  0.7818609E-02  0.8948527E-01
       -2   -1    0    0    0  501  0.00000000000E+00  0.00000000000E+00  0.24627148759E+03  0.24627148760E+03  0.25500000920E-02 0. -1.
        2   -1    0    0  501    0  0.00000000000E+00  0.00000000000E+00 -0.20105732814E+04  0.20105732814E+04  0.25500000920E-02 0.  1.
    10030    2    1    2    0    0  0.00000000000E+00  0.00000000000E+00 -0.17643017938E+04  0.22568447690E+04  0.14073334686E+04 0.  0.
        4    1    3    3  502    0 -0.49142032226E+03  0.49905264063E+03 -0.77341343771E+03  0.10434162304E+04  0.12699999809E+01 0. -1.
       -4    1    3    3    0  502  0.49142032226E+03 -0.49905264063E+03 -0.99088835611E+03  0.12134285387E+04  0.12699999809E+01 0.  1.
</event>
<event>
 5   0  0.8293000E-04  0.1411192E+04  0.7818609E-02  0.8945757E-01
        3   -1    0    0  501    0  0.00000000000E+00  0.00000000000E+00  0.42521383684E+03  0.42521384884E+03  0.10100000352E+00 0. -1.
       -3   -1    0    0    0  501  0.00000000000E+00  0.00000000000E+00 -0.11708602957E+04  0.11708603000E+04  0.10100000352E+00 0.  1.
    10030    2    1    2    0    0  0.00000000000E+00  0.00000000000E+00 -0.74564645881E+03  0.15960741488E+04  0.14111924203E+04 0.  0.
        1    1    3    3  502    0  0.50570380183E+03  0.12411682584E+03  0.16571462639E+03  0.54644547675E+03  0.50400001928E-02 0. -1.
       -1    1    3    3    0  502 -0.50570380183E+03 -0.12411682584E+03 -0.91136108520E+03  0.10496286721E+04  0.50400001928E-02 0.  1.
</event>
<event>
 5   0  0.2190704E-03  0.1406158E+04  0.7818609E-02  0.8949373E-01
       -2   -1    0    0    0  501  0.00000000000E+00  0.00000000000E+00  0.65767843216E+03  0.65767843216E+03  0.25500000920E-02 0.  1.
        2   -1    0    0  501    0  0.00000000000E+00  0.00000000000E+00 -0.75161410194E+03  0.75161410194E+03  0.25500000920E-02 0. -1.
    10030    2    1    2    0    0  0.00000000000E+00  0.00000000000E+00 -0.93935669781E+02  0.14092925341E+04  0.14061584323E+04 0.  0.
        5    1    3    3  502    0 -0.38613368209E+03 -0.57970144360E+03  0.48876425767E+02  0.69825781710E+03  0.46999998093E+01 0.  1.
       -5    1    3    3    0  502  0.38613368209E+03  0.57970144360E+03 -0.14281209555E+03  0.71103471700E+03  0.46999998093E+01 0. -1.
</event>
<event>
 5   0  0.1210275E-03  0.1435035E+04  0.7818609E-02  0.8928842E-01
       -1   -1    0    0    0  501  0.00000000000E+00  0.00000000000E+00  0.64751727995E+03  0.64751727997E+03  0.50400001928E-02 0. -1.
        1   -1    0    0  501    0  0.00000000000E+00  0.00000000000E+00 -0.79508515954E+03  0.79508515956E+03  0.50400001928E-02 0.  1.
    10030    2    1    2    0    0  0.00000000000E+00  0.00000000000E+00 -0.14756787959E+03  0.14426024395E+04  0.14350350238E+04 0.  0.
        1    1    3    3  502    0  0.35953235335E+03 -0.49726505696E+03 -0.44762579124E+03  0.75954255903E+03  0.50400001928E-02 0.  1.
       -1    1    3    3    0  502 -0.35953235335E+03  0.49726505696E+03  0.30005791165E+03  0.68305988050E+03  0.50400001928E-02 0. -1.
</event>
<event>
 5   0  0.1210275E-03  0.1394403E+04  0.7818609E-02  0.8957880E-01
        1   -1    0    0  501    0  0.00000000000E+00  0.00000000000E+00  0.58764866807E+03  0.58764866809E+03  0.50400001928E-02 0. -1.
       -1   -1    0    0    0  501  0.00000000000E+00  0.00000000000E+00 -0.82717741458E+03  0.82717741460E+03  0.50400001928E-02 0.  1.
    10030    2    1    2    0    0  0.00000000000E+00  0.00000000000E+00 -0.23952874652E+03  0.14148260827E+04  0.13944026764E+04 0.  0.
        1    1    3    3  502    0  0.33621411472E+03 -0.24709582509E+03 -0.68650921098E+03  0.80336241790E+03  0.50400001928E-02 0.  1.
       -1    1    3    3    0  502 -0.33621411472E+03  0.24709582509E+03  0.44698046446E+03  0.61146366478E+03  0.50400001928E-02 0. -1.
</event>
<event>
 5   0  0.1175374E-03  0.9811922E+03  0.7818609E-02  0.9329417E-01
        1   -1    0    0  501    0  0.00000000000E+00  0.00000000000E+00  0.10737198537E+04  0.10737198537E+04  0.50400001928E-02 0.  1.
       -1   -1    0    0    0  501  0.00000000000E+00  0.00000000000E+00 -0.22415952320E+03  0.22415952325E+03  0.50400001928E-02 0. -1.
    10030    2    1    2    0    0  0.00000000000E+00  0.00000000000E+00  0.84956033053E+03  0.12978793770E+04  0.98119219422E+03 0.  0.
        3    1    3    3  502    0 -0.11527584525E+03 -0.19280210562E+03  0.10016955991E+04  0.10265745253E+04  0.10100000352E+00 0.  1.
       -3    1    3    3    0  502  0.11527584525E+03  0.19280210562E+03 -0.15213526858E+03  0.27130485173E+03  0.10100000352E+00 0. -1.
</event>
<event>
 5   0  0.2195980E-03  0.1067695E+04  0.7818609E-02  0.9237263E-01
        2   -1    0    0  501    0  0.00000000000E+00  0.00000000000E+00  0.38823210721E+03  0.38823210722E+03  0.25500000920E-02 0.  1.
       -2   -1    0    0    0  501  0.00000000000E+00  0.00000000000E+00 -0.73407979416E+03  0.73407979416E+03  0.25500000920E-02 0. -1.
    10030    2    1    2    0    0  0.00000000000E+00  0.00000000000E+00 -0.34584768694E+03  0.11223119014E+04  0.10676953598E+04 0.  0.
        4    1    3    3  502    0 -0.49325771724E+01 -0.16708740637E+03 -0.70585896487E+03  0.72538336270E+03  0.12699999809E+01 0. -1.
       -4    1    3    3    0  502  0.49325771724E+01  0.16708740637E+03  0.36001127793E+03  0.39692853869E+03  0.12699999809E+01 0.  1.
</event>
<event>
 5   0  0.2083966E-03  0.1544888E+04  0.7818609E-02  0.8855140E-01
        2   -1    0    0  501    0  0.00000000000E+00  0.00000000000E+00  0.65405800135E+03  0.65405800136E+03  0.25500000920E-02 0. -1.
       -2   -1    0    0    0  501  0.00000000000E+00  0.00000000000E+00 -0.91225787541E+03  0.91225787541E+03  0.25500000920E-02 0.  1.
    10030    2    1    2    0    0  0.00000000000E+00  0.00000000000E+00 -0.25819987406E+03  0.15663158768E+04  0.15448877794E+04 0.  0.
        1    1    3    3  502    0 -0.66705800967E+03  0.11521346299E+03  0.24812118623E+03  0.72097479387E+03  0.50400001928E-02 0. -1.
       -1    1    3    3    0  502  0.66705800967E+03 -0.11521346299E+03 -0.50632106029E+03  0.84534108290E+03  0.50400001928E-02 0.  1.
</event>
<event>
 5   0  0.2190704E-03  0.1401054E+04  0.7818609E-02  0.8953056E-01
        2   -1    0    0  501    0  0.00000000000E+00  0.00000000000E+00  0.15766639640E+04  0.15766639640E+04  0.25500000920E-02 0. -1.
       -2   -1    0    0    0  501  0.00000000000E+00  0.00000000000E+00 -0.31125071932E+03  0.31125071933E+03  0.25500000920E-02 0.  1.
    10030    2    1    2    0    0  0.00000000000E+00  0.00000000000E+00  0.12654132447E+04  0.18879146834E+04  0.14010535935E+04 0.  0.
        5    1    3    3  502    0  0.58984803398E+03 -0.33113051578E+03  0.38737499597E+03  0.77951882541E+03  0.46999998093E+01 0.  1.
       -5    1    3    3    0  502 -0.58984803398E+03  0.33113051578E+03  0.87803824875E+03  0.11083958580E+04  0.46999998093E+01 0. -1.
</event>
<event>
 5   0  0.1238683E-03  0.1479110E+04  0.7818609E-02  0.8898464E-01
        1   -1    0    0  501    0  0.00000000000E+00  0.00000000000E+00  0.19246535355E+04  0.19246535355E+04  0.50400001928E-02 0.  1.
       -1   -1    0    0    0  501  0.00000000000E+00  0.00000000000E+00 -0.28417677257E+03  0.28417677262E+03  0.50400001928E-02 0. -1.
    10030    2    1    2    0    0  0.00000000000E+00  0.00000000000E+00  0.16404767629E+04  0.22088303081E+04  0.14791103138E+04 0.  0.
        2    1    3    3  502    0 -0.72164370313E+03  0.98094640809E+02  0.10123510599E+04  0.12470953698E+04  0.25500000920E-02 0.  1.
       -2    1    3    3    0  502  0.72164370313E+03 -0.98094640809E+02  0.62812570300E+03  0.96173493832E+03  0.25500000920E-02 0. -1.
</event>
<event>
 5   0  0.1199720E-03  0.1396457E+04  0.7818609E-02  0.8956387E-01
       -1   -1    0    0    0  501  0.00000000000E+00  0.00000000000E+00  0.47929614916E+03  0.47929614919E+03  0.50400001928E-02 0.  1.
        1   -1    0    0  501    0  0.00000000000E+00  0.00000000000E+00 -0.10171643201E+04  0.10171643201E+04  0.50400001928E-02 0. -1.
    10030    2    1    2    0    0  0.00000000000E+00  0.00000000000E+00 -0.53786817096E+03  0.14964604693E+04  0.13964568618E+04 0.  0.
        5    1    3    3  502    0 -0.59657886599E+03 -0.91602310489E+02  0.10720571649E+03  0.61303546576E+03  0.46999998093E+01 0.  1.
       -5    1    3    3    0  502  0.59657886599E+03  0.91602310489E+02 -0.64507388746E+03  0.88342500356E+03  0.46999998093E+01 0. -1.
</event>
<event>
 5   0  0.2195980E-03  0.1438250E+04  0.7818609E-02  0.8926587E-01
        2   -1    0    0  501    0  0.00000000000E+00  0.00000000000E+00  0.11503885191E+04  0.11503885191E+04  0.25500000920E-02 0. -1.
       -2   -1    0    0    0  501  0.00000000000E+00  0.00000000000E+00 -0.44953577704E+03  0.44953577704E+03  0.25500000920E-02 0.  1.
    10030    2    1    2    0    0  0.00000000000E+00  0.00000000000E+00  0.70085274205E+03  0.15999242961E+04  0.14382500434E+04 0.  0.
        4    1    3    3  502    0  0.26882405509E+00 -0.22793315447E+02 -0.44913253898E+03  0.44971241696E+03  0.12699999809E+01 0.  1.
       -4    1    3    3    0  502 -0.26882405509E+00  0.22793315447E+02  0.11499852810E+04  0.11502118792E+04  0.12699999809E+01 0. -1.
</event>
<event>
 5   0  0.1175374E-03  0.1402989E+04  0.7818609E-02  0.8951658E-01
       -1   -1    0    0    0  501  0.00000000000E+00  0.00000000000E+00  0.26214335407E+03  0.26214335411E+03  0.50400001928E-02 0.  1.
        1   -1    0    0  501    0  0.00000000000E+00  0.00000000000E+00 -0.18771973288E+04  0.18771973288E+04  0.50400001928E-02 0. -1.
    10030    2    1    2    0    0  0.00000000000E+00  0.00000000000E+00 -0.16150539747E+04  0.21393406829E+04  0.14029893857E+04 0.  0.
        3    1    3    3  502    0  0.31051013831E+03  0.62023133037E+03 -0.64766287574E+03  0.94898401461E+03  0.10100000352E+00 0.  1.
       -3    1    3    3    0  502 -0.31051013831E+03 -0.62023133037E+03 -0.96739109897E+03  0.11903566683E+04  0.10100000352E+00 0. -1.
</event>
<event>
 5   0  0.2195980E-03  0.1409383E+04  0.7818609E-02  0.8947055E-01
        2   -1    0    0  501    0  0.00000000000E+00  0.00000000000E+00  0.20379788467E+04  0.20379788467E+04  0.25500000920E-02 0. -1.
       -2   -1    0    0    0  501  0.00000000000E+00  0.00000000000E+00 -0.24366782918E+03  0.24366782919E+03  0.25500000920E-02 0.  1.
    10030    2    1    2    0    0  0.00000000000E+00  0.00000000000E+00  0.17943110176E+04  0.22816466759E+04  0.14093826755E+04 0.  0.
        4    1    3    3  502    0 -0.10075172598E+03 -0.39258128694E+03 -0.36090053991E+02  0.40690918157E+03  0.12699999809E+01 0.  1.
       -4    1    3    3    0  502  0.10075172598E+03  0.39258128694E+03  0.18304010716E+04  0.18747374944E+04  0.12699999809E+01 0. -1.
</event>
<event>
 5   0  0.1210275E-03  0.1401139E+04  0.7818609E-02  0.8952995E-01
        1   -1    0    0  501    0  0.00000000000E+00  0.00000000000E+00  0.15032261894E+04  0.15032261894E+04  0.50400001928E-02 0.  1.
       -1   -1    0    0    0  501  0.00000000000E+00  0.00000000000E+00 -0.32649607807E+03  0.32649607811E+03  0.50400001928E-02 0. -1.
    10030    2    1    2    0    0  0.00000000000E+00  0.00000000000E+00  0.11767301114E+04  0.18297222675E+04  0.14011387588E+04 0.  0.
        1    1    3    3  502    0 -0.19736901765E+03  0.48909892801E+03 -0.13794188927E+02  0.52760076780E+03  0.50400001928E-02 0. -1.
       -1    1    3    3    0  502  0.19736901765E+03 -0.48909892801E+03  0.11905243003E+04  0.13021214997E+04  0.50400001928E-02 0.  1.
</event>
<event>
 5   0  0.1210275E-03  0.1372427E+04  0.7818609E-02  0.8974023E-01
        1   -1    0    0  501    0  0.00000000000E+00  0.00000000000E+00  0.60987756046E+03  0.60987756048E+03  0.50400001928E-02 0.  1.
       -1   -1    0    0    0  501  0.00000000000E+00  0.00000000000E+00 -0.77210396203E+03  0.77210396204E+03  0.50400001928E-02 0. -1.
    10030    2    1    2    0    0  0.00000000000E+00  0.00000000000E+00 -0.16222640157E+03  0.13819815225E+04  0.13724268735E+04 0.  0.
        1    1    3    3  502    0  0.51413115649E+03 -0.42094319889E+03  0.91441571813E+02  0.67073510706E+03  0.50400001928E-02 0.  1.
       -1    1    3    3    0  502 -0.51413115649E+03  0.42094319889E+03 -0.25366797339E+03  0.71124641546E+03  0.50400001928E-02 0. -1.
</event>
<event>
 5   0  0.2195980E-03  0.1414158E+04  0.7818609E-02  0.8943634E-01
        2   -1    0    0  501    0  0.00000000000E+00  0.00000000000E+00  0.45396469292E+03  0.45396469293E+03  0.25500000920E-02 0.  1.
       -2   -1    0    0    0  501  0.00000000000E+00  0.00000000000E+00 -0.11013204446E+04  0.11013204446E+04  0.25500000920E-02 0. -1.
    10030    2    1    2    0    0  0.00000000000E+00  0.00000000000E+00 -0.64735575169E+03  0.15552851375E+04  0.14141578377E+04 0.  0.
        4    1    3    3  502    0 -0.34639830176E+03 -0.25416247004E+03 -0.94129793064E+03  0.10347143334E+04  0.12699999809E+01 0. -1.
       -4    1    3    3    0  502  0.34639830176E+03  0.25416247004E+03  0.29394217896E+03  0.52057080413E+03  0.12699999809E+01 0.  1.
</event>
<event>
 5   0  0.2083966E-03  0.1420184E+04  0.7818609E-02  0.8939337E-01
        2   -1    0    0  501    0  0.00000000000E+00  0.00000000000E+00  0.25336405333E+03  0.25336405334E+03  0.25500000920E-02 0.  1.
       -2   -1    0    0    0  501  0.00000000000E+00  0.00000000000E+00 -0.19901420940E+04  0.19901420940E+04  0.25500000920E-02 0. -1.
    10030    2    1    2    0    0  0.00000000000E+00  0.00000000000E+00 -0.17367780406E+04  0.22435061473E+04  0.14201837453E+04 0.  0.
        1    1    3    3  502    0 -0.91906593259E+01  0.22815426761E+03  0.19378569579E+03  0.29948578257E+03  0.50400001928E-02 0.  1.
       -1    1    3    3    0  502  0.91906593259E+01 -0.22815426761E+03 -0.19305637364E+04  0.19440203647E+04  0.50400001928E-02 0. -1.
</event>
<event>
 5   0  0.2172901E-03  0.1353980E+04  0.7818609E-02  0.8987821E-01
        2   -1    0    0  501    0  0.00000000000E+00  0.00000000000E+00  0.55852595342E+03  0.55852595343E+03  0.25500000920E-02 0. -1.
       -2   -1    0    0    0  501  0.00000000000E+00  0.00000000000E+00 -0.82058018969E+03  0.82058018969E+03  0.25500000920E-02 0.  1.
    10030    2    1    2    0    0  0.00000000000E+00  0.00000000000E+00 -0.26205423627E+03  0.13791061431E+04  0.13539798120E+04 0.  0.
        2    1    3    3  502    0  0.38696491791E+03 -0.39340089647E+03  0.26843600077E+03  0.61364810727E+03  0.25500000920E-02 0. -1.
       -2    1    3    3    0  502 -0.38696491791E+03  0.39340089647E+03 -0.53049023704E+03  0.76545803585E+03  0.25500000920E-02 0.  1.
</event>
<event>
 5   0  0.2195980E-03  0.1438146E+04  0.7818609E-02  0.8926660E-01
        2   -1    0    0  501    0  0.00000000000E+00  0.00000000000E+00  0.11771521979E+04  0.11771521979E+04  0.25500000920E-02 0. -1.
       -2   -1    0    0    0  501  0.00000000000E+00  0.00000000000E+00 -0.43925171509E+03  0.43925171510E+03  0.25500000920E-02 0.  1.
    10030    2    1    2    0    0  0.00000000000E+00  0.00000000000E+00  0.73790048284E+03  0.16164039130E+04  0.14381461982E+04 0.  0.
        4    1    3    3  502    0  0.45881496869E+03 -0.23998711787E+03  0.92975439521E+03  0.10642132496E+04  0.12699999809E+01 0. -1.
       -4    1    3    3    0  502 -0.45881496869E+03  0.23998711787E+03 -0.19185391237E+03  0.55219066347E+03  0.12699999809E+01 0.  1.
</event>
<event>
 5   0  0.1210275E-03  0.1416823E+04  0.7818609E-02  0.8941731E-01
        1   -1    0    0  501    0  0.00000000000E+00  0.00000000000E+00  0.99869022257E+03  0.99869022258E+03  0.50400001928E-02 0.  1.
       -1   -1    0    0    0  501  0.00000000000E+00  0.00000000000E+00 -0.50250487642E+03  0.50250487644E+03  0.50400001928E-02 0. -1.
    10030    2    1    2    0    0  0.00000000000E+00  0.00000000000E+00  0.49618534615E+03  0.15011950990E+04  0.14168227933E+04 0.  0.
        1    1    3    3  502    0 -0.49039518870E+02 -0.68560259008E+03  0.42973966074E+03  0.81063676328E+03  0.50400001928E-02 0.  1.
       -1    1    3    3    0  502  0.49039518870E+02  0.68560259008E+03  0.66445685407E+02  0.69055833575E+03  0.50400001928E-02 0. -1.
</event>
<event>
 5   0  0.1175374E-03  0.1368043E+04  0.7818609E-02  0.8977281E-01
        1   -1    0    0  501    0  0.00000000000E+00  0.00000000000E+00  0.13287970982E+04  0.13287970982E+04  0.50400001928E-02 0.  1.
       -1   -1    0    0    0  501  0.00000000000E+00  0.00000000000E+00 -0.35211219338E+03  0.35211219341E+03  0.50400001928E-02 0. -1.
    10030    2    1    2    0    0  0.00000000000E+00  0.00000000000E+00  0.97668490480E+03  0.16809092916E+04  0.13680433631E+04 0.  0.
        3    1    3    3  502    0  0.23380897023E+03  0.18059514259E+03  0.12463636013E+04  0.12808994797E+04  0.10100000352E+00 0.  1.
       -3    1    3    3    0  502 -0.23380897023E+03 -0.18059514259E+03 -0.26967869652E+03  0.40000981194E+03  0.10100000352E+00 0. -1.
</event>
<event>
 5   0  0.2172901E-03  0.1398873E+04  0.7818609E-02  0.8954635E-01
       -2   -1    0    0    0  501  0.00000000000E+00  0.00000000000E+00  0.60105553508E+03  0.60105553509E+03  0.25500000920E-02 0. -1.
        2   -1    0    0  501    0  0.00000000000E+00  0.00000000000E+00 -0.81392022531E+03  0.81392022531E+03  0.25500000920E-02 0.  1.
    10030    2    1    2    0    0  0.00000000000E+00  0.00000000000E+00 -0.21286469023E+03  0.14149757604E+04  0.13988727698E+04 0.  0.
        2    1    3    3  502    0  0.61761764846E+02 -0.55654683121E+03 -0.53036589258E+03  0.77126316581E+03  0.25500000920E-02 0.  1.
       -2    1    3    3    0  502 -0.61761764846E+02  0.55654683121E+03  0.31750120235E+03  0.64371259458E+03  0.25500000920E-02 0. -1.
</event>
<event>
 5   0  0.1238683E-03  0.1486649E+04  0.7818609E-02  0.8893380E-01
       -1   -1    0    0    0  501  0.00000000000E+00  0.00000000000E+00  0.48743680325E+03  0.48743680328E+03  0.50400001928E-02 0. -1.
        1   -1    0    0  501    0  0.00000000000E+00  0.00000000000E+00 -0.11335447931E+04  0.11335447931E+04  0.50400001928E-02 0.  1.
    10030    2    1    2    0    0  0.00000000000E+00  0.00000000000E+00 -0.64610798989E+03  0.16209815964E+04  0.14866491857E+04 0.  0.
        2    1    3    3  502    0 -0.22607904658E+03  0.69488522676E+03 -0.17453187732E+03  0.75129128165E+03  0.25500000920E-02 0. -1.
       -2    1    3    3    0  502  0.22607904658E+03 -0.69488522676E+03 -0.47157611257E+03  0.86969031478E+03  0.25500000920E-02 0.  1.
</event>
<event>
 5   0  0.1225690E-03  0.1334477E+04  0.7818609E-02  0.9002663E-01
       -1   -1    0    0    0  501  0.00000000000E+00  0.00000000000E+00  0.60479080851E+03  0.60479080853E+03  0.50400001928E-02 0. -1.
        1   -1    0    0  501    0  0.00000000000E+00  0.00000000000E+00 -0.73613377805E+03  0.73613377807E+03  0.50400001928E-02 0.  1.
    10030    2    1    2    0    0  0.00000000000E+00  0.00000000000E+00 -0.13134296954E+03  0.13409245866E+04  0.13344765908E+04 0.  0.
        4    1    3    3  502    0  0.64736335225E+03 -0.15342502479E+03 -0.14565319266E+02  0.66545646702E+03  0.12699999809E+01 0.  1.
       -4    1    3    3    0  502 -0.64736335225E+03  0.15342502479E+03 -0.11677765028E+03  0.67546811958E+03  0.12699999809E+01 0. -1.
</event>
<event>
 5   0  0.1225690E-03  0.1360718E+04  0.7818609E-02  0.8982755E-01
        1   -1    0    0  501    0  0.00000000000E+00  0.00000000000E+00  0.92419546129E+03  0.92419546131E+03  0.50400001928E-02 0. -1.
       -1   -1    0    0    0  501  0.00000000000E+00  0.00000000000E+00 -0.50085512003E+03  0.50085512006E+03  0.50400001928E-02 0.  1.
    10030    2    1    2    0    0  0.00000000000E+00  0.00000000000E+00  0.42334034126E+03  0.14250505814E+04  0.13607175000E+04 0.  0.
        4    1    3    3  502    0 -0.24434297614E+03  0.53991998848E+03  0.56163892221E+03  0.81649064648E+03  0.12699999809E+01 0. -1.
       -4    1    3    3    0  502  0.24434297614E+03 -0.53991998848E+03 -0.13829858095E+03  0.60855993488E+03  0.12699999809E+01 0.  1.
</event>
<event>
 5   0  0.2172901E-03  0.1372091E+04  0.7818609E-02  0.8974272E-01
        2   -1    0    0  501    0  0.00000000000E+00  0.00000000000E+00  0.55868866542E+03  0.55868866543E+03  0.25500000920E-02 0.  1.
       -2   -1    0    0    0  501  0.00000000000E+00  0.00000000000E+00 -0.84243473560E+03  0.84243473560E+03  0.25500000920E-02 0. -1.
    10030    2    1    2    0    0  0.00000000000E+00  0.00000000000E+00 -0.28374607017E+03  0.14011234010E+04  0.13720914520E+04 0.  0.
        2    1    3    3  502    0 -0.23979263313E+03  0.10617533538E+03  0.50548455170E+03  0.56946320404E+03  0.25500000920E-02 0.  1.
       -2    1    3    3    0  502  0.23979263313E+03 -0.10617533538E+03 -0.78923062187E+03  0.83166019699E+03  0.25500000920E-02 0. -1.
</event>
<event>
 5   0  0.1210275E-03  0.1395239E+04  0.7818609E-02  0.8957272E-01
        1   -1    0    0  501    0  0.00000000000E+00  0.00000000000E+00  0.39224020414E+03  0.39224020417E+03  0.50400001928E-02 0. -1.
       -1   -1    0    0    0  501  0.00000000000E+00  0.00000000000E+00 -0.12407515604E+04  0.12407515604E+04  0.50400001928E-02 0.  1.
    10030    2    1    2    0    0  0.00000000000E+00  0.00000000000E+00 -0.84851135627E+03  0.16329917646E+04  0.13952385393E+04 0.  0.
        1    1    3    3  502    0 -0.14647987972E+02 -0.17440528032E+03 -0.12146383643E+04  0.12271830025E+04  0.50400001928E-02 0.  1.
       -1    1    3    3    0  502  0.14647987972E+02  0.17440528032E+03  0.36612700808E+03  0.40580876214E+03  0.50400001928E-02 0. -1.
</event>
<event>
 5   0  0.2172901E-03  0.1313073E+04  0.7818609E-02  0.9019262E-01
       -2   -1    0    0    0  501  0.00000000000E+00  0.00000000000E+00  0.27226616474E+03  0.27226616476E+03  0.25500000920E-02 0.  1.
        2   -1    0    0  501    0  0.00000000000E+00  0.00000000000E+00 -0.15831578630E+04  0.15831578630E+04  0.25500000920E-02 0. -1.
    10030    2    1    2    0    0  0.00000000000E+00  0.00000000000E+00 -0.13108916983E+04  0.18554240278E+04  0.13130732189E+04 0.  0.
        2    1    3    3  502    0  0.49226498412E+03  0.22527320490E+03 -0.11803048042E+04  0.12985346596E+04  0.25500000920E-02 0. -1.
       -2    1    3    3    0  502 -0.49226498412E+03 -0.22527320490E+03 -0.13058689407E+03  0.55688936814E+03  0.25500000920E-02 0.  1.
</event>
<event>
 5   0  0.2172901E-03  0.1402710E+04  0.7818609E-02  0.8951859E-01
        2   -1    0    0  501    0  0.00000000000E+00  0.00000000000E+00  0.16030976890E+04  0.16030976890E+04  0.25500000920E-02 0.  1.
       -2   -1    0    0    0  501  0.00000000000E+00  0.00000000000E+00 -0.30684280344E+03  0.30684280345E+03  0.25500000920E-02 0. -1.
    10030    2    1    2    0    0  0.00000000000E+00  0.00000000000E+00  0.12962548856E+04  0.19099404925E+04  0.14027102183E+04 0.  0.
        2    1    3    3  502    0 -0.11491040548E+03 -0.68379769345E+03  0.79168052247E+03  0.10523980884E+04  0.25500000920E-02 0.  1.
       -2    1    3    3    0  502  0.11491040548E+03  0.68379769345E+03  0.50457436313E+03  0.85754240407E+03  0.25500000920E-02 0. -1.
</event>
<event>
 5   0  0.2172901E-03  0.1396739E+04  0.7818609E-02  0.8956182E-01
        2   -1    0    0  501    0  0.00000000000E+00  0.00000000000E+00  0.55675426957E+03  0.55675426958E+03  0.25500000920E-02 0. -1.
       -2   -1    0    0    0  501  0.00000000000E+00  0.00000000000E+00 -0.87600605303E+03  0.87600605303E+03  0.25500000920E-02 0.  1.
    10030    2    1    2    0    0  0.00000000000E+00  0.00000000000E+00 -0.31925178345E+03  0.14327603226E+04  0.13967392172E+04 0.  0.
        2    1    3    3  502    0  0.41748462218E+03 -0.23109078475E+03 -0.68270181123E+03  0.83293344488E+03  0.25500000920E-02 0.  1.
       -2    1    3    3    0  502 -0.41748462218E+03  0.23109078475E+03  0.36345002777E+03  0.59982687773E+03  0.25500000920E-02 0. -1.
</event>
<event>
 5   0  0.2083966E-03  0.8744073E+03  0.7818609E-02  0.9458151E-01
        2   -1    0    0  501    0  0.00000000000E+00  0.00000000000E+00  0.20444152975E+04  0.20444152975E+04  0.25500000920E-02 0. -1.
       -2   -1    0    0    0  501  0.00000000000E+00  0.00000000000E+00 -0.93497158646E+02  0.93497158681E+02  0.25500000920E-02 0.  1.
    10030    2    1    2    0    0  0.00000000000E+00  0.00000000000E+00  0.19509181388E+04  0.21379124562E+04  0.87440727684E+03 0.  0.
        1    1    3    3  502    0  0.40552028456E+03 -0.68366651940E+01  0.57629271154E+03  0.70470329258E+03  0.50400001928E-02 0. -1.
       -1    1    3    3    0  502 -0.40552028456E+03  0.68366651940E+01  0.13746254273E+04  0.14332091636E+04  0.50400001928E-02 0.  1.
</event>
<event>
 5   0  0.1238683E-03  0.1446294E+04  0.7818609E-02  0.8920974E-01
       -1   -1    0    0    0  501  0.00000000000E+00  0.00000000000E+00  0.38538196804E+03  0.38538196807E+03  0.50400001928E-02 0. -1.
        1   -1    0    0  501    0  0.00000000000E+00  0.00000000000E+00 -0.13569440047E+04  0.13569440047E+04  0.50400001928E-02 0.  1.
    10030    2    1    2    0    0  0.00000000000E+00  0.00000000000E+00 -0.97156203664E+03  0.17423259728E+04  0.14462942316E+04 0.  0.
        2    1    3    3  502    0 -0.66283732674E+03 -0.17312131107E+03 -0.20683138303E+03  0.71561409368E+03  0.25500000920E-02 0.  1.
       -2    1    3    3    0  502  0.66283732674E+03  0.17312131107E+03 -0.76473065360E+03  0.10267118791E+04  0.25500000920E-02 0. -1.
</event>
<event>
 5   0  0.2195980E-03  0.1382267E+04  0.7818609E-02  0.8966756E-01
        2   -1    0    0  501    0  0.00000000000E+00  0.00000000000E+00  0.80062867231E+03  0.80062867232E+03  0.25500000920E-02 0.  1.
       -2   -1    0    0    0  501  0.00000000000E+00  0.00000000000E+00 -0.59661280737E+03  0.59661280737E+03  0.25500000920E-02 0. -1.
    10030    2    1    2    0    0  0.00000000000E+00  0.00000000000E+00  0.20401586494E+03  0.13972414797E+04  0.13822667179E+04 0.  0.
        4    1    3    3  502    0 -0.55519658874E+03  0.40334896662E+03  0.18493365770E+03  0.71072900016E+03  0.12699999809E+01 0.  1.
       -4    1    3    3    0  502  0.55519658874E+03 -0.40334896662E+03  0.19082207244E+02  0.68651247953E+03  0.12699999809E+01 0. -1.
</event>
<event>
 5   0  0.2190704E-03  0.1398737E+04  0.7818609E-02  0.8954733E-01
        2   -1    0    0  501    0  0.00000000000E+00  0.00000000000E+00  0.98590476959E+03  0.98590476960E+03  0.25500000920E-02 0.  1.
       -2   -1    0    0    0  501  0.00000000000E+00  0.00000000000E+00 -0.49610934579E+03  0.49610934579E+03  0.25500000920E-02 0. -1.
    10030    2    1    2    0    0  0.00000000000E+00  0.00000000000E+00  0.48979542381E+03  0.14820141154E+04  0.13987373882E+04 0.  0.
        5    1    3    3  502    0  0.56597950714E+03  0.13877873420E+03  0.65457308889E+03  0.87640193876E+03  0.46999998093E+01 0.  1.
       -5    1    3    3    0  502 -0.56597950714E+03 -0.13877873420E+03 -0.16477766508E+03  0.60561217663E+03  0.46999998093E+01 0. -1.
</event>
<event>
 5   0  0.1175374E-03  0.1387230E+04  0.7818609E-02  0.8963115E-01
        1   -1    0    0  501    0  0.00000000000E+00  0.00000000000E+00  0.21347118918E+04  0.21347118918E+04  0.50400001928E-02 0.  1.
       -1   -1    0    0    0  501  0.00000000000E+00  0.00000000000E+00 -0.22537066178E+03  0.22537066184E+03  0.50400001928E-02 0. -1.
    10030    2    1    2    0    0  0.00000000000E+00  0.00000000000E+00  0.19093412300E+04  0.23600825536E+04  0.13872295150E+04 0.  0.
        3    1    3    3  502    0 -0.27301889975E+03  0.59470896849E+03  0.13459061845E+04  0.14965565624E+04  0.10100000352E+00 0.  1.
       -3    1    3    3    0  502  0.27301889975E+03 -0.59470896849E+03  0.56343504555E+03  0.86352599126E+03  0.10100000352E+00 0. -1.
</event>
<event>
 5   0  0.2190704E-03  0.1478584E+04  0.7818609E-02  0.8898821E-01
       -2   -1    0    0    0  501  0.00000000000E+00  0.00000000000E+00  0.42229766357E+03  0.42229766358E+03  0.25500000920E-02 0. -1.
        2   -1    0    0  501    0  0.00000000000E+00  0.00000000000E+00 -0.12942356228E+04  0.12942356228E+04  0.25500000920E-02 0.  1.
    10030    2    1    2    0    0  0.00000000000E+00  0.00000000000E+00 -0.87193795925E+03  0.17165332864E+04  0.14785840249E+04 0.  0.
        5    1    3    3  502    0 -0.52277284078E+03  0.15247112600E+03  0.14448663562E+03  0.56341580134E+03  0.46999998093E+01 0.  1.
       -5    1    3    3    0  502  0.52277284078E+03 -0.15247112600E+03 -0.10164245949E+04  0.11531174851E+04  0.46999998093E+01 0. -1.
</event>
<event>
 5   0  0.1199720E-03  0.1306707E+04  0.7818609E-02  0.9024263E-01
       -1   -1    0    0    0  501  0.00000000000E+00  0.00000000000E+00  0.66906391614E+03  0.66906391615E+03  0.50400001928E-02 0. -1.
        1   -1    0    0  501    0  0.00000000000E+00  0.00000000000E+00 -0.63801197243E+03  0.63801197245E+03  0.50400001928E-02 0.  1.
    10030    2    1    2    0    0  0.00000000000E+00  0.00000000000E+00  0.31051943701E+02  0.13070758886E+04  0.13067069891E+04 0.  0.
        5    1    3    3  502    0 -0.53630223085E+03 -0.28206266147E+03 -0.22881593313E+03  0.64773316193E+03  0.46999998093E+01 0.  1.
       -5    1    3    3    0  502  0.53630223085E+03  0.28206266147E+03  0.25986787683E+03  0.65934272668E+03  0.46999998093E+01 0. -1.
</event>
<event>
 5   0  0.2190704E-03  0.1251036E+04  0.7818609E-02  0.9069322E-01
       -2   -1    0    0    0  501  0.00000000000E+00  0.00000000000E+00  0.33184104391E+03  0.33184104392E+03  0.25500000920E-02 0.  1.
        2   -1    0    0  501    0  0.00000000000E+00  0.00000000000E+00 -0.11790963609E+04  0.11790963609E+04  0.25500000920E-02 0. -1.
    10030    2    1    2    0    0  0.00000000000E+00  0.00000000000E+00 -0.84725531703E+03  0.15109374049E+04  0.12510356786E+04 0.  0.
        5    1    3    3  502    0  0.44746591249E+03 -0.41649498014E+03 -0.26359898684E+03  0.66573292481E+03  0.46999998093E+01 0.  1.
       -5    1    3    3    0  502 -0.44746591249E+03  0.41649498014E+03 -0.58365633019E+03  0.84520448005E+03  0.46999998093E+01 0. -1.
</event>
<event>
 5   0  0.2172901E-03  0.1376585E+04  0.7818609E-02  0.8970944E-01
       -2   -1    0    0    0  501  0.00000000000E+00  0.00000000000E+00  0.89873970707E+03  0.89873970708E+03  0.25500000920E-02 0. -1.
        2   -1    0    0  501    0  0.00000000000E+00  0.00000000000E+00 -0.52712285025E+03  0.52712285026E+03  0.25500000920E-02 0.  1.
    10030    2    1    2    0    0  0.00000000000E+00  0.00000000000E+00  0.37161685682E+03  0.14258625573E+04  0.13765845212E+04 0.  0.
        2    1    3    3  502    0 -0.47026962943E+03  0.22080738595E+03  0.65345320721E+03  0.83481166743E+03  0.25500000920E-02 0. -1.
       -2    1    3    3    0  502  0.47026962943E+03 -0.22080738595E+03 -0.28183635039E+03  0.59105088991E+03  0.25500000920E-02 0.  1.
</event>
<event>
 5   0  0.1210275E-03  0.1391063E+04  0.7818609E-02  0.8960313E-01
       -1   -1    0    0    0  501  0.00000000000E+00  0.00000000000E+00  0.44815986175E+03  0.44815986178E+03  0.50400001928E-02 0.  1.
        1   -1    0    0  501    0  0.00000000000E+00  0.00000000000E+00 -0.10794447013E+04  0.10794447013E+04  0.50400001928E-02 0. -1.
    10030    2    1    2    0    0  0.00000000000E+00  0.00000000000E+00 -0.63128483952E+03  0.15276045631E+04  0.13910625983E+04 0.  0.
        1    1    3    3  502    0 -0.55992607016E+03 -0.36560043701E+03 -0.52568307517E+03  0.85060189227E+03  0.50400001928E-02 0.  1.
       -1    1    3    3    0  502  0.55992607016E+03  0.36560043701E+03 -0.10560176435E+03  0.67700267079E+03  0.50400001928E-02 0. -1.
</event>
<event>
 5   0  0.1210275E-03  0.1399696E+04  0.7818609E-02  0.8954038E-01
        1   -1    0    0  501    0  0.00000000000E+00  0.00000000000E+00  0.18819781552E+04  0.18819781553E+04  0.50400001928E-02 0.  1.
       -1   -1    0    0    0  501  0.00000000000E+00  0.00000000000E+00 -0.26025139589E+03  0.26025139594E+03  0.50400001928E-02 0. -1.
    10030    2    1    2    0    0  0.00000000000E+00  0.00000000000E+00  0.16217267594E+04  0.21422295512E+04  0.13996963128E+04 0.  0.
        1    1    3    3  502    0 -0.12645991316E+03  0.36443138342E+03 -0.82853350415E+02  0.39454660125E+03  0.50400001928E-02 0. -1.
       -1    1    3    3    0  502  0.12645991316E+03 -0.36443138342E+03  0.17045801098E+04  0.17476829499E+04  0.50400001928E-02 0.  1.
</event>
<event>
 5   0  0.2195980E-03  0.1438396E+04  0.7818609E-02  0.8926485E-01
        2   -1    0    0  501    0  0.00000000000E+00  0.00000000000E+00  0.54768638117E+03  0.54768638118E+03  0.25500000920E-02 0. -1.
       -2   -1    0    0    0  501  0.00000000000E+00  0.00000000000E+00 -0.94441956579E+03  0.94441956580E+03  0.25500000920E-02 0.  1.
    10030    2    1    2    0    0  0.00000000000E+00  0.00000000000E+00 -0.39673318462E+03  0.14921059470E+04  0.14383959598E+04 0.  0.
        4    1    3    3  502    0  0.21153435113E+03 -0.67939481736E+03 -0.30676751038E+03  0.77487548541E+03  0.12699999809E+01 0.  1.
       -4    1    3    3    0  502 -0.21153435113E+03  0.67939481736E+03 -0.89965674241E+02  0.71723046157E+03  0.12699999809E+01 0. -1.
</event>
<event>
 5   0  0.2195980E-03  0.1398569E+04  0.7818609E-02  0.8954855E-01
       -2   -1    0    0    0  501  0.00000000000E+00  0.00000000000E+00  0.38922242351E+03  0.38922242352E+03  0.25500000920E-02 0.  1.
        2   -1    0    0  501    0  0.00000000000E+00  0.00000000000E+00 -0.12563471783E+04  0.12563471783E+04  0.25500000920E-02 0. -1.
    10030    2    1    2    0    0  0.00000000000E+00  0.00000000000E+00 -0.86712475477E+03  0.16455696018E+04  0.13985685446E+04 0.  0.
        4    1    3    3  502    0  0.20796168443E+02  0.68960027824E+02  0.38484480677E+03  0.39152918698E+03  0.12699999809E+01 0.  1.
       -4    1    3    3    0  502 -0.20796168443E+02 -0.68960027824E+02 -0.12519695615E+04  0.12540404148E+04  0.12699999809E+01 0. -1.
</event>
<event>
 5   0  0.2083966E-03  0.1402717E+04  0.7818609E-02  0.8951854E-01
        2   -1    0    0  501    0  0.00000000000E+00  0.00000000000E+00  0.93094507842E+03  0.93094507842E+03  0.25500000920E-02 0. -1.
       -2   -1    0    0    0  501  0.00000000000E+00  0.00000000000E+00 -0.52839192715E+03  0.52839192715E+03  0.25500000920E-02 0.  1.
    10030    2    1    2    0    0  0.00000000000E+00  0.00000000000E+00  0.40255315127E+03  0.14593370056E+04  0.14027171690E+04 0.  0.
        1    1    3    3  502    0 -0.58233725106E+03 -0.36284213513E+03  0.35251555837E+03  0.77138726196E+03  0.50400001928E-02 0.  1.
       -1    1    3    3    0  502  0.58233725106E+03  0.36284213513E+03  0.50037592900E+02  0.68794974361E+03  0.50400001928E-02 0. -1.
</event>
<event>
 5   0  0.2190704E-03  0.1385628E+04  0.7818609E-02  0.8964288E-01
        2   -1    0    0  501    0  0.00000000000E+00  0.00000000000E+00  0.10021585145E+04  0.10021585145E+04  0.25500000920E-02 0.  1.
       -2   -1    0    0    0  501  0.00000000000E+00  0.00000000000E+00 -0.47895731474E+03  0.47895731475E+03  0.25500000920E-02 0. -1.
    10030    2    1    2    0    0  0.00000000000E+00  0.00000000000E+00  0.52320119978E+03  0.14811158293E+04  0.13856278737E+04 0.  0.
        5    1    3    3  502    0  0.18840457192E+03  0.62076962716E+03  0.52149787241E+03  0.83236610553E+03  0.46999998093E+01 0. -1.
       -5    1    3    3    0  502 -0.18840457192E+03 -0.62076962716E+03  0.17033273705E+01  0.64874972373E+03  0.46999998093E+01 0.  1.
</event>
<event>
 5   0  0.1175374E-03  0.1432088E+04  0.7818609E-02  0.8930913E-01
        1   -1    0    0  501    0  0.00000000000E+00  0.00000000000E+00  0.10985808587E+04  0.10985808587E+04  0.50400001928E-02 0.  1.
       -1   -1    0    0    0  501  0.00000000000E+00  0.00000000000E+00 -0.46671062231E+03  0.46671062234E+03  0.50400001928E-02 0. -1.
    10030    2    1    2    0    0  0.00000000000E+00  0.00000000000E+00  0.63187023641E+03  0.15652914811E+04  0.14320884837E+04 0.  0.
        3    1    3    3  502    0 -0.46424782550E+03 -0.45533296836E+03  0.64359337695E+03  0.91491343886E+03  0.10100000352E+00 0.  1.
       -3    1    3    3    0  502  0.46424782550E+03  0.45533296836E+03 -0.11723140547E+02  0.65037804220E+03  0.10100000352E+00 0. -1.
</event>
<event>
 5   0  0.1210275E-03  0.1372414E+04  0.7818609E-02  0.8974032E-01
       -1   -1    0    0    0  501  0.00000000000E+00  0.00000000000E+00  0.46666661951E+03  0.46666661954E+03  0.50400001928E-02 0. -1.
        1   -1    0    0  501    0  0.00000000000E+00  0.00000000000E+00 -0.10090289736E+04  0.10090289736E+04  0.50400001928E-02 0.  1.
    10030    2    1    2    0    0  0.00000000000E+00  0.00000000000E+00 -0.54236235404E+03  0.14756955931E+04  0.13724141359E+04 0.  0.
        1    1    3    3  502    0 -0.96496701375E+02  0.48295496792E+03 -0.78497213044E+03  0.92668136920E+03  0.50400001928E-02 0.  1.
       -1    1    3    3    0  502  0.96496701375E+02 -0.48295496792E+03  0.24260977640E+03  0.54901422390E+03  0.50400001928E-02 0. -1.
</event>
<event>
 5   0  0.2172901E-03  0.1408674E+04  0.7818609E-02  0.8947563E-01
        2   -1    0    0  501    0  0.00000000000E+00  0.00000000000E+00  0.15854664840E+04  0.15854664840E+04  0.25500000920E-02 0. -1.
       -2   -1    0    0    0  501  0.00000000000E+00  0.00000000000E+00 -0.31289901312E+03  0.31289901313E+03  0.25500000920E-02 0.  1.
    10030    2    1    2    0    0  0.00000000000E+00  0.00000000000E+00  0.12725674709E+04  0.18983654971E+04  0.14086744098E+04 0.  0.
        2    1    3    3  502    0  0.67050818071E+03  0.74039408436E+02  0.36331773693E+03  0.76620025605E+03  0.25500000920E-02 0.  1.
       -2    1    3    3    0  502 -0.67050818071E+03 -0.74039408436E+02  0.90924973397E+03  0.11321652411E+04  0.25500000920E-02 0. -1.
</event>
<event>
 5   0  0.1199720E-03  0.1355641E+04  0.7818609E-02  0.8986569E-01
        1   -1    0    0  501    0  0.00000000000E+00  0.00000000000E+00  0.53002585531E+03  0.53002585533E+03  0.50400001928E-02 0.  1.
       -1   -1    0    0    0  501  0.00000000000E+00  0.00000000000E+00 -0.86682736314E+03  0.86682736316E+03  0.50400001928E-02 0. -1.
    10030    2    1    2    0    0  0.00000000000E+00  0.00000000000E+00 -0.33680150784E+03  0.13968532185E+04  0.13556414195E+04 0.  0.
        5    1    3    3  502    0 -0.55922769572E+03 -0.21605060761E+03  0.15744911228E+03  0.61985949510E+03  0.46999998093E+01 0.  1.
       -5    1    3    3    0  502  0.55922769572E+03  0.21605060761E+03 -0.49425062012E+03  0.77699372339E+03  0.46999998093E+01 0. -1.
</event>
<event>
 5   0  0.1210275E-03  0.1376381E+04  0.7818609E-02  0.8971095E-01
        1   -1    0    0  501    0  0.00000000000E+00  0.00000000000E+00  0.12475737664E+04  0.12475737664E+04  0.50400001928E-02 0.  1.
       -1   -1    0    0    0  501  0.00000000000E+00  0.00000000000E+00 -0.37962185560E+03  0.37962185563E+03  0.50400001928E-02 0. -1.
    10030    2    1    2    0    0  0.00000000000E+00  0.00000000000E+00  0.86795191081E+03  0.16271956221E+04  0.13763811510E+04 0.  0.
        1    1    3    3  502    0  0.63835429645E+03 -0.25365313727E+03  0.48371593916E+03  0.84012929462E+03  0.50400001928E-02 0.  1.
       -1    1    3    3    0  502 -0.63835429645E+03  0.25365313727E+03  0.38423597165E+03  0.78706632743E+03  0.50400001928E-02 0. -1.
</event>
<event>
 5   0  0.1238683E-03  0.1402960E+04  0.7818609E-02  0.8951679E-01
       -1   -1    0    0    0  501  0.00000000000E+00  0.00000000000E+00  0.75414622846E+03  0.75414622848E+03  0.50400001928E-02 0.  1.
        1   -1    0    0  501    0  0.00000000000E+00  0.00000000000E+00 -0.65249182845E+03  0.65249182847E+03  0.50400001928E-02 0. -1.
    10030    2    1    2    0    0  0.00000000000E+00  0.00000000000E+00  0.10165440001E+03  0.14066380570E+04  0.14029600872E+04 0.  0.
        2    1    3    3  502    0 -0.51916275300E+03  0.47145875508E+03  0.34324106818E+02  0.70212638903E+03  0.25500000920E-02 0.  1.
       -2    1    3    3    0  502  0.51916275300E+03 -0.47145875508E+03  0.67330293193E+02  0.70451166792E+03  0.25500000920E-02 0. -1.
</event>
<event>
 5   0  0.2172901E-03  0.1448397E+04  0.7818609E-02  0.8919513E-01
       -2   -1    0    0    0  501  0.00000000000E+00  0.00000000000E+00  0.58267922311E+03  0.58267922312E+03  0.25500000920E-02 0.  1.
        2   -1    0    0  501    0  0.00000000000E+00  0.00000000000E+00 -0.90008925329E+03  0.90008925329E+03  0.25500000920E-02 0. -1.
    10030    2    1    2    0    0  0.00000000000E+00  0.00000000000E+00 -0.31741003018E+03  0.14827684764E+04  0.14483967783E+04 0.  0.
        2    1    3    3  502    0  0.20458433376E+03 -0.87578358229E+02 -0.86421720638E+03  0.89241027463E+03  0.25500000920E-02 0. -1.
       -2    1    3    3    0  502 -0.20458433376E+03  0.87578358229E+02  0.54680717621E+03  0.59035820178E+03  0.25500000920E-02 0.  1.
</event>
<event>
 5   0  0.2236184E-03  0.1339165E+04  0.7818609E-02  0.8999071E-01
       -2   -1    0    0    0  501  0.00000000000E+00  0.00000000000E+00  0.47854510725E+03  0.47854510726E+03  0.25500000920E-02 0. -1.
        2   -1    0    0  501    0  0.00000000000E+00  0.00000000000E+00 -0.93688232502E+03  0.93688232502E+03  0.25500000920E-02 0.  1.
    10030    2    1    2    0    0  0.00000000000E+00  0.00000000000E+00 -0.45833721777E+03  0.14154274323E+04  0.13391645944E+04 0.  0.
        3    1    3    3  502    0 -0.19995412432E+03  0.29570326831E+03  0.36958885065E+03  0.51382682243E+03  0.10100000352E+00 0. -1.
       -3    1    3    3    0  502  0.19995412432E+03 -0.29570326831E+03 -0.82792606842E+03  0.90160060985E+03  0.10100000352E+00 0.  1.
</event>
<event>
 5   0  0.1199720E-03  0.1368367E+04  0.7818609E-02  0.8977040E-01
       -1   -1    0    0    0  501  0.00000000000E+00  0.00000000000E+00  0.40204267727E+03  0.40204267730E+03  0.50400001928E-02 0.  1.
        1   -1    0    0  501    0  0.00000000000E+00  0.00000000000E+00 -0.11643215093E+04  0.11643215093E+04  0.50400001928E-02 0. -1.
    10030    2    1    2    0    0  0.00000000000E+00  0.00000000000E+00 -0.76227883205E+03  0.15663641866E+04  0.13683668175E+04 0.  0.
        5    1    3    3  502    0  0.62318412996E+03 -0.28225816156E+03 -0.37251861271E+03  0.77898673700E+03  0.46999998093E+01 0.  1.
       -5    1    3    3    0  502 -0.62318412996E+03  0.28225816156E+03 -0.38976021933E+03  0.78737744962E+03  0.46999998093E+01 0. -1.
</event>
<event>
 5   0  0.1210275E-03  0.1395098E+04  0.7818609E-02  0.8957375E-01
        1   -1    0    0  501    0  0.00000000000E+00  0.00000000000E+00  0.20129733443E+04  0.20129733443E+04  0.50400001928E-02 0.  1.
       -1   -1    0    0    0  501  0.00000000000E+00  0.00000000000E+00 -0.24171924926E+03  0.24171924931E+03  0.50400001928E-02 0. -1.
    10030    2    1    2    0    0  0.00000000000E+00  0.00000000000E+00  0.17712540951E+04  0.22546925936E+04  0.13950977108E+04 0.  0.
        1    1    3    3  502    0  0.54171636469E+03 -0.38616287752E+03  0.12246190068E+04  0.13936535077E+04  0.50400001928E-02 0.  1.
       -1    1    3    3    0  502 -0.54171636469E+03  0.38616287752E+03  0.54663508829E+03  0.86103908595E+03  0.50400001928E-02 0. -1.
</event>
<event>
 5   0  0.1175374E-03  0.1406986E+04  0.7818609E-02  0.8948777E-01
       -1   -1    0    0    0  501  0.00000000000E+00  0.00000000000E+00  0.82671808822E+03  0.82671808823E+03  0.50400001928E-02 0.  1.
        1   -1    0    0  501    0  0.00000000000E+00  0.00000000000E+00 -0.59863472269E+03  0.59863472271E+03  0.50400001928E-02 0. -1.
    10030    2    1    2    0    0  0.00000000000E+00  0.00000000000E+00  0.22808336553E+03  0.14253528109E+04  0.14069856481E+04 0.  0.
        3    1    3    3  502    0  0.31880975880E+03  0.35479377292E+03  0.63788366740E+03  0.79650101503E+03  0.10100000352E+00 0.  1.
       -3    1    3    3    0  502 -0.31880975880E+03 -0.35479377292E+03 -0.40980030187E+03  0.62885179591E+03  0.10100000352E+00 0. -1.
</event>
<event>
 5   0  0.2190704E-03  0.1521271E+04  0.7818609E-02  0.8870430E-01
        2   -1    0    0  501    0  0.00000000000E+00  0.00000000000E+00  0.13342023666E+04  0.13342023666E+04  0.25500000920E-02 0.  1.
       -2   -1    0    0    0  501  0.00000000000E+00  0.00000000000E+00 -0.43364236836E+03  0.43364236837E+03  0.25500000920E-02 0. -1.
    10030    2    1    2    0    0  0.00000000000E+00  0.00000000000E+00  0.90055999826E+03  0.17678447350E+04  0.15212714079E+04 0.  0.
        5    1    3    3  502    0  0.22926042708E+03 -0.37570715969E+03 -0.27061324862E+03  0.51669123623E+03  0.46999998093E+01 0. -1.
       -5    1    3    3    0  502 -0.22926042708E+03  0.37570715969E+03  0.11711732469E+04  0.12511534988E+04  0.46999998093E+01 0.  1.
</event>
<event>
 5   0  0.8293000E-04  0.1393658E+04  0.7818609E-02  0.8958422E-01
        3   -1    0    0  501    0  0.00000000000E+00  0.00000000000E+00  0.76348101442E+03  0.76348102110E+03  0.10100000352E+00 0. -1.
       -3   -1    0    0    0  501  0.00000000000E+00  0.00000000000E+00 -0.63599553013E+03  0.63599553815E+03  0.10100000352E+00 0.  1.
    10030    2    1    2    0    0  0.00000000000E+00  0.00000000000E+00  0.12748548430E+03  0.13994765593E+04  0.13936578099E+04 0.  0.
        2    1    3    3  502    0  0.33802375374E+03  0.17328008079E+03 -0.52289195220E+03  0.64629872209E+03  0.25500000920E-02 0.  1.
       -2    1    3    3    0  502 -0.33802375374E+03 -0.17328008079E+03  0.65037743649E+03  0.75317783716E+03  0.25500000920E-02 0. -1.
</event>
<event>
 5   0  0.2172901E-03  0.1393372E+04  0.7818609E-02  0.8958631E-01
        2   -1    0    0  501    0  0.00000000000E+00  0.00000000000E+00  0.19304389927E+04  0.19304389927E+04  0.25500000920E-02 0.  1.
       -2   -1    0    0    0  501  0.00000000000E+00  0.00000000000E+00 -0.25143041207E+03  0.25143041208E+03  0.25500000920E-02 0. -1.
    10030    2    1    2    0    0  0.00000000000E+00  0.00000000000E+00  0.16790085806E+04  0.21818694048E+04  0.13933715534E+04 0.  0.
        2    1    3    3  502    0  0.29918122187E+03 -0.37102643003E+03  0.43819933786E+02  0.47863368238E+03  0.25500000920E-02 0. -1.
       -2    1    3    3    0  502 -0.29918122187E+03  0.37102643003E+03  0.16351886469E+04  0.17032357224E+04  0.25500000920E-02 0.  1.
</event>
<event>
 5   0  0.2172901E-03  0.1426771E+04  0.7818609E-02  0.8934665E-01
       -2   -1    0    0    0  501  0.00000000000E+00  0.00000000000E+00  0.52570130436E+03  0.52570130437E+03  0.25500000920E-02 0.  1.
        2   -1    0    0  501    0  0.00000000000E+00  0.00000000000E+00 -0.96807598733E+03  0.96807598733E+03  0.25500000920E-02 0. -1.
    10030    2    1    2    0    0  0.00000000000E+00  0.00000000000E+00 -0.44237468297E+03  0.14937772917E+04  0.14267709126E+04 0.  0.
        2    1    3    3  502    0 -0.60396382054E+03  0.37944666633E+03 -0.20766811949E+03  0.74288499579E+03  0.25500000920E-02 0.  1.
       -2    1    3    3    0  502  0.60396382054E+03 -0.37944666633E+03 -0.23470656349E+03  0.75089229591E+03  0.25500000920E-02 0. -1.
</event>
<event>
 5   0  0.2190704E-03  0.1379857E+04  0.7818609E-02  0.8968529E-01
       -2   -1    0    0    0  501  0.00000000000E+00  0.00000000000E+00  0.55964935867E+03  0.55964935868E+03  0.25500000920E-02 0.  1.
        2   -1    0    0  501    0  0.00000000000E+00  0.00000000000E+00 -0.85053519847E+03  0.85053519847E+03  0.25500000920E-02 0. -1.
    10030    2    1    2    0    0  0.00000000000E+00  0.00000000000E+00 -0.29088583980E+03  0.14101845571E+04  0.13798572076E+04 0.  0.
        5    1    3    3  502    0 -0.47267271124E+03 -0.24674172423E+03  0.30199049648E+03  0.61279794418E+03  0.46999998093E+01 0.  1.
       -5    1    3    3    0  502  0.47267271124E+03  0.24674172423E+03 -0.59287633628E+03  0.79738661297E+03  0.46999998093E+01 0. -1.
</event>
<event>
 5   0  0.2083966E-03  0.1427123E+04  0.7818609E-02  0.8934416E-01
       -2   -1    0    0    0  501  0.00000000000E+00  0.00000000000E+00  0.92737083506E+03  0.92737083506E+03  0.25500000920E-02 0. -1.
        2   -1    0    0  501    0  0.00000000000E+00  0.00000000000E+00 -0.54904674783E+03  0.54904674783E+03  0.25500000920E-02 0.  1.
    10030    2    1    2    0    0  0.00000000000E+00  0.00000000000E+00  0.37832408723E+03  0.14764175829E+04  0.14271228973E+04 0.  0.
        1    1    3    3  502    0 -0.66688037956E+03 -0.81428791154E+02 -0.59579751637E+02  0.67447004048E+03  0.50400001928E-02 0. -1.
       -1    1    3    3    0  502  0.66688037956E+03  0.81428791154E+02  0.43790383887E+03  0.80194754242E+03  0.50400001928E-02 0.  1.
</event>
<event>
 5   0  0.2172901E-03  0.1400367E+04  0.7818609E-02  0.8953553E-01
       -2   -1    0    0    0  501  0.00000000000E+00  0.00000000000E+00  0.60122848264E+03  0.60122848264E+03  0.25500000920E-02 0.  1.
        2   -1    0    0  501    0  0.00000000000E+00  0.00000000000E+00 -0.81542488339E+03  0.81542488340E+03  0.25500000920E-02 0. -1.
    10030    2    1    2    0    0  0.00000000000E+00  0.00000000000E+00 -0.21419640076E+03  0.14166533660E+04  0.14003666168E+04 0.  0.
        2    1    3    3  502    0  0.67521010204E+03 -0.12675497799E+03 -0.24387855075E+03  0.72900771865E+03  0.25500000920E-02 0. -1.
       -2    1    3    3    0  502 -0.67521010204E+03  0.12675497799E+03  0.29682149993E+02  0.68764564739E+03  0.25500000920E-02 0.  1.
</event>
<event>
 5   0  0.2083966E-03  0.1412261E+04  0.7818609E-02  0.8944991E-01
       -2   -1    0    0    0  501  0.00000000000E+00  0.00000000000E+00  0.35529914583E+03  0.35529914584E+03  0.25500000920E-02 0.  1.
        2   -1    0    0  501    0  0.00000000000E+00  0.00000000000E+00 -0.14033817549E+04  0.14033817549E+04  0.25500000920E-02 0. -1.
    10030    2    1    2    0    0  0.00000000000E+00  0.00000000000E+00 -0.10480826091E+04  0.17586809007E+04  0.14122610790E+04 0.  0.
        1    1    3    3  502    0  0.32866203528E+03  0.25063013525E+03  0.18892228316E+03  0.45445112744E+03  0.50400001928E-02 0.  1.
       -1    1    3    3    0  502 -0.32866203528E+03 -0.25063013525E+03 -0.12370048922E+04  0.13042297733E+04  0.50400001928E-02 0. -1.
</event>
<event>
 5   0  0.1225690E-03  0.1334734E+04  0.7818609E-02  0.9002465E-01
        1   -1    0    0  501    0  0.00000000000E+00  0.00000000000E+00  0.61114602749E+03  0.61114602751E+03  0.50400001928E-02 0.  1.
       -1   -1    0    0    0  501  0.00000000000E+00  0.00000000000E+00 -0.72875989327E+03  0.72875989329E+03  0.50400001928E-02 0. -1.
    10030    2    1    2    0    0  0.00000000000E+00  0.00000000000E+00 -0.11761386578E+03  0.13399059208E+04  0.13347340017E+04 0.  0.
        4    1    3    3  502    0 -0.37825694242E+03  0.51681488278E+03  0.12953979964E+03  0.65342031660E+03  0.12699999809E+01 0.  1.
       -4    1    3    3    0  502  0.37825694242E+03 -0.51681488278E+03 -0.24715366541E+03  0.68648560420E+03  0.12699999809E+01 0. -1.
</event>
<event>
 5   0  0.1225690E-03  0.1403896E+04  0.7818609E-02  0.8951003E-01
        1   -1    0    0  501    0  0.00000000000E+00  0.00000000000E+00  0.86965486810E+03  0.86965486811E+03  0.50400001928E-02 0.  1.
       -1   -1    0    0    0  501  0.00000000000E+00  0.00000000000E+00 -0.56658257775E+03  0.56658257777E+03  0.50400001928E-02 0. -1.
    10030    2    1    2    0    0  0.00000000000E+00  0.00000000000E+00  0.30307229035E+03  0.14362374459E+04  0.14038964306E+04 0.  0.
        4    1    3    3  502    0 -0.28588456333E+03 -0.19957165395E+03  0.77480885217E+03  0.84964062927E+03  0.12699999809E+01 0.  1.
       -4    1    3    3    0  502  0.28588456333E+03  0.19957165395E+03 -0.47173656182E+03  0.58659681662E+03  0.12699999809E+01 0. -1.
</event>
<event>
 5   0  0.1225690E-03  0.1399100E+04  0.7818609E-02  0.8954470E-01
        1   -1    0    0  501    0  0.00000000000E+00  0.00000000000E+00  0.91126262102E+03  0.91126262103E+03  0.50400001928E-02 0. -1.
       -1   -1    0    0    0  501  0.00000000000E+00  0.00000000000E+00 -0.53702471503E+03  0.53702471506E+03  0.50400001928E-02 0.  1.
    10030    2    1    2    0    0  0.00000000000E+00  0.00000000000E+00  0.37423790599E+03  0.14482873361E+04  0.13991004959E+04 0.  0.
        4    1    3    3  502    0  0.63470809058E+03  0.28241104836E+03  0.10201819581E+03  0.70215360546E+03  0.12699999809E+01 0.  1.
       -4    1    3    3    0  502 -0.63470809058E+03 -0.28241104836E+03  0.27221971017E+03  0.74613373063E+03  0.12699999809E+01 0. -1.
</event>
<event>
 5   0  0.2195980E-03  0.1390086E+04  0.7818609E-02  0.8961026E-01
        2   -1    0    0  501    0  0.00000000000E+00  0.00000000000E+00  0.10777172532E+04  0.10777172532E+04  0.25500000920E-02 0. -1.
       -2   -1    0    0    0  501  0.00000000000E+00  0.00000000000E+00 -0.44824791913E+03  0.44824791914E+03  0.25500000920E-02 0.  1.
    10030    2    1    2    0    0  0.00000000000E+00  0.00000000000E+00  0.62946933402E+03  0.15259651723E+04  0.13900856321E+04 0.  0.
        4    1    3    3  502    0  0.19959062186E+03 -0.21754861419E+02  0.10451901218E+04  0.10642996260E+04  0.12699999809E+01 0. -1.
       -4    1    3    3    0  502 -0.19959062186E+03  0.21754861419E+02 -0.41572078778E+03  0.46166554628E+03  0.12699999809E+01 0.  1.
</event>
<event>
 5   0  0.1199720E-03  0.1404941E+04  0.7818609E-02  0.8950250E-01
       -1   -1    0    0    0  501  0.00000000000E+00  0.00000000000E+00  0.47408108464E+03  0.47408108467E+03  0.50400001928E-02 0. -1.
        1   -1    0    0  501    0  0.00000000000E+00  0.00000000000E+00 -0.10408865717E+04  0.10408865717E+04  0.50400001928E-02 0.  1.
    10030    2    1    2    0    0  0.00000000000E+00  0.00000000000E+00 -0.56680548704E+03  0.15149676564E+04  0.14049407602E+04 0.  0.
        5    1    3    3  502    0 -0.53869154360E+02  0.56912702046E+03 -0.72358099769E+03  0.92217080925E+03  0.46999998093E+01 0.  1.
       -5    1    3    3    0  502  0.53869154360E+02 -0.56912702046E+03  0.15677551065E+03  0.59279684711E+03  0.46999998093E+01 0. -1.
</event>
<event>
 5   0  0.1238683E-03  0.1386618E+04  0.7818609E-02  0.8963563E-01
       -1   -1    0    0    0  501  0.00000000000E+00  0.00000000000E+00  0.35214581424E+03  0.35214581428E+03  0.50400001928E-02 0. -1.
        1   -1    0    0  501    0  0.00000000000E+00  0.00000000000E+00 -0.13649948417E+04  0.13649948417E+04  0.50400001928E-02 0.  1.
    10030    2    1    2    0    0  0.00000000000E+00  0.00000000000E+00 -0.10128490274E+04  0.17171406560E+04  0.13866177844E+04 0.  0.
        2    1    3    3  502    0 -0.78329027246E+02  0.69100813910E+02  0.34234601868E+03  0.35792618723E+03  0.25500000920E-02 0. -1.
       -2    1    3    3    0  502  0.78329027246E+02 -0.69100813910E+02 -0.13551950461E+04  0.13592144687E+04  0.25500000920E-02 0.  1.
</event>
<event>
 5   0  0.1225690E-03  0.1339573E+04  0.7818609E-02  0.8998759E-01
        1   -1    0    0  501    0  0.00000000000E+00  0.00000000000E+00  0.45633973545E+03  0.45633973548E+03  0.50400001928E-02 0.  1.
       -1   -1    0    0    0  501  0.00000000000E+00  0.00000000000E+00 -0.98307001219E+03  0.98307001220E+03  0.50400001928E-02 0. -1.
    10030    2    1    2    0    0  0.00000000000E+00  0.00000000000E+00 -0.52673027673E+03  0.14394097477E+04  0.13395729309E+04 0.  0.
        4    1    3    3  502    0  0.84367021361E+02 -0.58499390432E+02 -0.97456388800E+03  0.97995732441E+03  0.12699999809E+01 0. -1.
       -4    1    3    3    0  502 -0.84367021361E+02  0.58499390432E+02  0.44783361126E+03  0.45945242327E+03  0.12699999809E+01 0.  1.
</event>
<event>
 5   0  0.1225690E-03  0.1245244E+04  0.7818609E-02  0.9074151E-01
       -1   -1    0    0    0  501  0.00000000000E+00  0.00000000000E+00  0.20847232368E+03  0.20847232375E+03  0.50400001928E-02 0. -1.
        1   -1    0    0  501    0  0.00000000000E+00  0.00000000000E+00 -0.18595189348E+04  0.18595189348E+04  0.50400001928E-02 0.  1.
    10030    2    1    2    0    0  0.00000000000E+00  0.00000000000E+00 -0.16510466111E+04  0.20679912586E+04  0.12452441260E+04 0.  0.
        4    1    3    3  502    0  0.41998052777E+03 -0.27139412530E+03 -0.14415962577E+04  0.15258570700E+04  0.12699999809E+01 0.  1.
       -4    1    3    3    0  502 -0.41998052777E+03  0.27139412530E+03 -0.20945035340E+03  0.54213418854E+03  0.12699999809E+01 0. -1.
</event>
<event>
 5   0  0.2236184E-03  0.1306181E+04  0.7818609E-02  0.9024678E-01
        2   -1    0    0  501    0  0.00000000000E+00  0.00000000000E+00  0.82602429066E+03  0.82602429067E+03  0.25500000920E-02 0.  1.
       -2   -1    0    0    0  501  0.00000000000E+00  0.00000000000E+00 -0.51636177412E+03  0.51636177413E+03  0.25500000920E-02 0. -1.
    10030    2    1    2    0    0  0.00000000000E+00  0.00000000000E+00  0.30966251654E+03  0.13423860648E+04  0.13061812557E+04 0.  0.
        3    1    3    3  502    0 -0.26228202347E+03  0.32913652349E+03  0.66807806810E+03  0.78958915025E+03  0.10100000352E+00 0.  1.
       -3    1    3    3    0  502  0.26228202347E+03 -0.32913652349E+03 -0.35841555156E+03  0.55279691454E+03  0.10100000352E+00 0. -1.
</event>
<event>
 5   0  0.1238683E-03  0.1395101E+04  0.7818609E-02  0.8957372E-01
       -1   -1    0    0    0  501  0.00000000000E+00  0.00000000000E+00  0.50676906651E+03  0.50676906653E+03  0.50400001928E-02 0. -1.
        1   -1    0    0  501    0  0.00000000000E+00  0.00000000000E+00 -0.96015471408E+03  0.96015471409E+03  0.50400001928E-02 0.  1.
    10030    2    1    2    0    0  0.00000000000E+00  0.00000000000E+00 -0.45338564757E+03  0.14669237806E+04  0.13951010117E+04 0.  0.
        2    1    3    3  502    0 -0.28598772648E+03  0.24765239347E+03  0.38952954944E+03  0.54300456497E+03  0.25500000920E-02 0. -1.
       -2    1    3    3    0  502  0.28598772648E+03 -0.24765239347E+03 -0.84291519701E+03  0.92391921565E+03  0.25500000920E-02 0.  1.
</event>
<event>
 5   0  0.2236184E-03  0.1398108E+04  0.7818609E-02  0.8955189E-01
       -2   -1    0    0    0  501  0.00000000000E+00  0.00000000000E+00  0.96604994121E+03  0.96604994121E+03  0.25500000920E-02 0. -1.
        2   -1    0    0  501    0  0.00000000000E+00  0.00000000000E+00 -0.50584993765E+03  0.50584993766E+03  0.25500000920E-02 0.  1.
    10030    2    1    2    0    0  0.00000000000E+00  0.00000000000E+00  0.46020000356E+03  0.14718998789E+04  0.13981077248E+04 0.  0.
        3    1    3    3  502    0  0.12354662650E+03 -0.58306358456E+03  0.61468816557E+03  0.85619417403E+03  0.10100000352E+00 0. -1.
       -3    1    3    3    0  502 -0.12354662650E+03  0.58306358456E+03 -0.15448816201E+03  0.61570570483E+03  0.10100000352E+00 0.  1.
</event>
<event>
 5   0  0.1199720E-03  0.1431281E+04  0.7818609E-02  0.8931482E-01
        1   -1    0    0  501    0  0.00000000000E+00  0.00000000000E+00  0.67149117179E+03  0.67149117181E+03  0.50400001928E-02 0.  1.
       -1   -1    0    0    0  501  0.00000000000E+00  0.00000000000E+00 -0.76269249305E+03  0.76269249307E+03  0.50400001928E-02 0. -1.
    10030    2    1    2    0    0  0.00000000000E+00  0.00000000000E+00 -0.91201321267E+02  0.14341836649E+04  0.14312809311E+04 0.  0.
        5    1    3    3  502    0  0.67017754775E+03 -0.20818584514E+03 -0.18602728600E+03  0.72602171645E+03  0.46999998093E+01 0.  1.
       -5    1    3    3    0  502 -0.67017754775E+03  0.20818584514E+03  0.94825964730E+02  0.70816194843E+03  0.46999998093E+01 0. -1.
</event>
<event>
 5   0  0.2236184E-03  0.1410293E+04  0.7818609E-02  0.8946402E-01
        2   -1    0    0  501    0  0.00000000000E+00  0.00000000000E+00  0.19829437228E+04  0.19829437228E+04  0.25500000920E-02 0.  1.
       -2   -1    0    0    0  501  0.00000000000E+00  0.00000000000E+00 -0.25075412144E+03  0.25075412145E+03  0.25500000920E-02 0. -1.
    10030    2    1    2    0    0  0.00000000000E+00  0.00000000000E+00  0.17321896014E+04  0.22336978443E+04  0.14102926095E+04 0.  0.
        3    1    3    3  502    0 -0.69874745498E+03 -0.88858254913E+02  0.81386348782E+03  0.10763445463E+04  0.10100000352E+00 0. -1.
       -3    1    3    3    0  502  0.69874745498E+03  0.88858254913E+02  0.91832611354E+03  0.11573532980E+04  0.10100000352E+00 0.  1.
</event>
<event>
 5   0  0.1175374E-03  0.1393263E+04  0.7818609E-02  0.8958710E-01
        1   -1    0    0  501    0  0.00000000000E+00  0.00000000000E+00  0.22003304890E+03  0.22003304895E+03  0.50400001928E-02 0.  1.
       -1   -1    0    0    0  501  0.00000000000E+00  0.00000000000E+00 -0.22055557328E+04  0.22055557328E+04  0.50400001928E-02 0. -1.
    10030    2    1    2    0    0  0.00000000000E+00  0.00000000000E+00 -0.19855226839E+04  0.24255887818E+04  0.13932625775E+04 0.  0.
        3    1    3    3  502    0 -0.68761183813E+03  0.10910724230E+03 -0.95080818859E+03  0.11784526515E+04  0.10100000352E+00 0.  1.
       -3    1    3    3    0  502  0.68761183813E+03 -0.10910724230E+03 -0.10347144953E+04  0.12471361302E+04  0.10100000352E+00 0. -1.
</event>
<event>
 5   0  0.1199720E-03  0.1395671E+04  0.7818609E-02  0.8956958E-01
        1   -1    0    0  501    0  0.00000000000E+00  0.00000000000E+00  0.14959711200E+04  0.14959711200E+04  0.50400001928E-02 0.  1.
       -1   -1    0    0    0  501  0.00000000000E+00  0.00000000000E+00 -0.32552388109E+03  0.32552388113E+03  0.50400001928E-02 0. -1.
    10030    2    1    2    0    0  0.00000000000E+00  0.00000000000E+00  0.11704472389E+04  0.18214950011E+04  0.13956709140E+04 0.  0.
        5    1    3    3  502    0  0.55836448802E+03 -0.36114334970E+03  0.30911844852E+03  0.73332920693E+03  0.46999998093E+01 0. -1.
       -5    1    3    3    0  502 -0.55836448802E+03  0.36114334970E+03  0.86132879036E+03  0.10881657942E+04  0.46999998093E+01 0.  1.
</event>
<event>
 5   0  0.2190704E-03  0.1391875E+04  0.7818609E-02  0.8959721E-01
       -2   -1    0    0    0  501  0.00000000000E+00  0.00000000000E+00  0.48141149262E+03  0.48141149262E+03  0.25500000920E-02 0.  1.
        2   -1    0    0  501    0  0.00000000000E+00  0.00000000000E+00 -0.10060607902E+04  0.10060607902E+04  0.25500000920E-02 0. -1.
    10030    2    1    2    0    0  0.00000000000E+00  0.00000000000E+00 -0.52464929762E+03  0.14874722829E+04  0.13918753201E+04 0.  0.
        5    1    3    3  502    0 -0.37446399990E+03 -0.46267198083E+03 -0.64767086837E+03  0.87965237043E+03  0.46999998093E+01 0. -1.
       -5    1    3    3    0  502  0.37446399990E+03  0.46267198083E+03  0.12302157075E+03  0.60781991242E+03  0.46999998093E+01 0.  1.
</event>
<event>
 5   0  0.1210275E-03  0.1402007E+04  0.7818609E-02  0.8952367E-01
        1   -1    0    0  501    0  0.00000000000E+00  0.00000000000E+00  0.30225189989E+03  0.30225189993E+03  0.50400001928E-02 0. -1.
       -1   -1    0    0    0  501  0.00000000000E+00  0.00000000000E+00 -0.16258153156E+04  0.16258153156E+04  0.50400001928E-02 0.  1.
    10030    2    1    2    0    0  0.00000000000E+00  0.00000000000E+00 -0.13235634157E+04  0.19280672155E+04  0.14020068018E+04 0.  0.
        1    1    3    3  502    0  0.37410592581E+03  0.50163844590E+03 -0.22731374401E+03  0.66578368287E+03  0.50400001928E-02 0. -1.
       -1    1    3    3    0  502 -0.37410592581E+03 -0.50163844590E+03 -0.10962496717E+04  0.12622835327E+04  0.50400001928E-02 0.  1.
</event>
<event>
 5   0  0.1238683E-03  0.1399302E+04  0.7818609E-02  0.8954324E-01
       -1   -1    0    0    0  501  0.00000000000E+00  0.00000000000E+00  0.94549983661E+03  0.94549983663E+03  0.50400001928E-02 0.  1.
        1   -1    0    0  501    0  0.00000000000E+00  0.00000000000E+00 -0.51772780111E+03  0.51772780113E+03  0.50400001928E-02 0. -1.
    10030    2    1    2    0    0  0.00000000000E+00  0.00000000000E+00  0.42777203551E+03  0.14632276378E+04  0.13993020423E+04 0.  0.
        2    1    3    3  502    0 -0.32496441613E+03  0.20653464680E+03 -0.39696983952E+03  0.55303117957E+03  0.25500000920E-02 0. -1.
       -2    1    3    3    0  502  0.32496441613E+03 -0.20653464680E+03  0.82474187502E+03  0.91019645819E+03  0.25500000920E-02 0.  1.
</event>
<event>
 5   0  0.2172901E-03  0.1409738E+04  0.7818609E-02  0.8946800E-01
        2   -1    0    0  501    0  0.00000000000E+00  0.00000000000E+00  0.11635371720E+04  0.11635371720E+04  0.25500000920E-02 0.  1.
       -2   -1    0    0    0  501  0.00000000000E+00  0.00000000000E+00 -0.42700826374E+03  0.42700826375E+03  0.25500000920E-02 0. -1.
    10030    2    1    2    0    0  0.00000000000E+00  0.00000000000E+00  0.73652890827E+03  0.15905454358E+04  0.14097375467E+04 0.  0.
        2    1    3    3  502    0 -0.45275406982E+03 -0.23498314228E+03  0.91710833792E+03  0.10494241413E+04  0.25500000920E-02 0.  1.
       -2    1    3    3    0  502  0.45275406982E+03  0.23498314228E+03 -0.18057942965E+03  0.54112129445E+03  0.25500000920E-02 0. -1.
</event>
<event>
 5   0  0.2172901E-03  0.1404882E+04  0.7818609E-02  0.8950292E-01
        2   -1    0    0  501    0  0.00000000000E+00  0.00000000000E+00  0.11582373826E+04  0.11582373826E+04  0.25500000920E-02 0. -1.
       -2   -1    0    0    0  501  0.00000000000E+00  0.00000000000E+00 -0.42601215228E+03  0.42601215229E+03  0.25500000920E-02 0.  1.
    10030    2    1    2    0    0  0.00000000000E+00  0.00000000000E+00  0.73222523032E+03  0.15842495349E+04  0.14048817747E+04 0.  0.
        2    1    3    3  502    0 -0.60882844856E+03  0.35022700157E+03  0.35528648006E+03  0.78712102966E+03  0.25500000920E-02 0. -1.
       -2    1    3    3    0  502  0.60882844856E+03 -0.35022700157E+03  0.37693875026E+03  0.79712850524E+03  0.25500000920E-02 0.  1.
</event>
<event>
 5   0  0.2195980E-03  0.1423082E+04  0.7818609E-02  0.8937278E-01
       -2   -1    0    0    0  501  0.00000000000E+00  0.00000000000E+00  0.54566745630E+03  0.54566745631E+03  0.25500000920E-02 0. -1.
        2   -1    0    0  501    0  0.00000000000E+00  0.00000000000E+00 -0.92783709013E+03  0.92783709013E+03  0.25500000920E-02 0.  1.
    10030    2    1    2    0    0  0.00000000000E+00  0.00000000000E+00 -0.38216963383E+03  0.14735045464E+04  0.14230818737E+04 0.  0.
        4    1    3    3  502    0 -0.43236156247E+03 -0.47553997179E+03  0.12504278269E+03  0.65476109832E+03  0.12699999809E+01 0. -1.
       -4    1    3    3    0  502  0.43236156247E+03  0.47553997179E+03 -0.50721241652E+03  0.81874344812E+03  0.12699999809E+01 0.  1.
</event>
<event>
 5   0  0.2083966E-03  0.1317629E+04  0.7818609E-02  0.9015701E-01
        2   -1    0    0  501    0  0.00000000000E+00  0.00000000000E+00  0.16469136108E+04  0.16469136108E+04  0.25500000920E-02 0.  1.
       -2   -1    0    0    0  501  0.00000000000E+00  0.00000000000E+00 -0.26354528470E+03  0.26354528472E+03  0.25500000920E-02 0. -1.
    10030    2    1    2    0    0  0.00000000000E+00  0.00000000000E+00  0.13833683261E+04  0.19104588955E+04  0.13176286525E+04 0.  0.
        1    1    3    3  502    0  0.41106133940E+03 -0.49993708740E+03  0.51335081646E+03  0.82609780104E+03  0.50400001928E-02 0. -1.
       -1    1    3    3    0  502 -0.41106133940E+03  0.49993708740E+03  0.87001750965E+03  0.10843610945E+04  0.50400001928E-02 0.  1.
</event>
<event>
 5   0  0.2190704E-03  0.1387747E+04  0.7818609E-02  0.8962736E-01
       -2   -1    0    0    0  501  0.00000000000E+00  0.00000000000E+00  0.90517949827E+03  0.90517949828E+03  0.25500000920E-02 0.  1.
        2   -1    0    0  501    0  0.00000000000E+00  0.00000000000E+00 -0.53189501845E+03  0.53189501845E+03  0.25500000920E-02 0. -1.
    10030    2    1    2    0    0  0.00000000000E+00  0.00000000000E+00  0.37328447983E+03  0.14370745167E+04  0.13877470460E+04 0.  0.
        5    1    3    3  502    0 -0.14257836211E+00 -0.34790238962E+03 -0.43503181572E+03  0.55705553019E+03  0.46999998093E+01 0. -1.
       -5    1    3    3    0  502  0.14257836211E+00  0.34790238962E+03  0.80831629554E+03  0.88001898654E+03  0.46999998093E+01 0.  1.
</event>
<event>
 5   0  0.2172901E-03  0.1400378E+04  0.7818609E-02  0.8953545E-01
       -2   -1    0    0    0  501  0.00000000000E+00  0.00000000000E+00  0.10580293014E+04  0.10580293014E+04  0.25500000920E-02 0. -1.
        2   -1    0    0  501    0  0.00000000000E+00  0.00000000000E+00 -0.46337506628E+03  0.46337506628E+03  0.25500000920E-02 0.  1.
    10030    2    1    2    0    0  0.00000000000E+00  0.00000000000E+00  0.59465423516E+03  0.15214043677E+04  0.14003776600E+04 0.  0.
        2    1    3    3  502    0  0.16515660892E+03  0.31245329833E+03  0.95401704910E+03  0.10173752007E+04  0.25500000920E-02 0. -1.
       -2    1    3    3    0  502 -0.16515660892E+03 -0.31245329833E+03 -0.35936281394E+03  0.50402916697E+03  0.25500000920E-02 0.  1.
</event>
<event>
 5   0  0.2083966E-03  0.1402575E+04  0.7818609E-02  0.8951957E-01
        2   -1    0    0  501    0  0.00000000000E+00  0.00000000000E+00  0.18607728973E+04  0.18607728973E+04  0.25500000920E-02 0. -1.
       -2   -1    0    0    0  501  0.00000000000E+00  0.00000000000E+00 -0.26430104317E+03  0.26430104318E+03  0.25500000920E-02 0.  1.
    10030    2    1    2    0    0  0.00000000000E+00  0.00000000000E+00  0.15964718541E+04  0.21250739405E+04  0.14025750859E+04 0.  0.
        1    1    3    3  502    0 -0.27399931952E+03  0.58934566840E+02 -0.17576001046E+03  0.33081791300E+03  0.50400001928E-02 0.  1.
       -1    1    3    3    0  502  0.27399931952E+03 -0.58934566840E+02  0.17722318646E+04  0.17942560275E+04  0.50400001928E-02 0. -1.
</event>
<event>
 5   0  0.8293000E-04  0.1462737E+04  0.7818609E-02  0.8909618E-01
        3   -1    0    0  501    0  0.00000000000E+00  0.00000000000E+00  0.48957106947E+03  0.48957107989E+03  0.10100000352E+00 0.  1.
       -3   -1    0    0    0  501  0.00000000000E+00  0.00000000000E+00 -0.10925890238E+04  0.10925890284E+04  0.10100000352E+00 0. -1.
    10030    2    1    2    0    0  0.00000000000E+00  0.00000000000E+00 -0.60301795429E+03  0.15821601083E+04  0.14627371449E+04 0.  0.
        4    1    3    3  502    0 -0.51964335195E+03 -0.62753910141E+02 -0.85402779076E+03  0.10016647876E+04  0.12699999809E+01 0. -1.
       -4    1    3    3    0  502  0.51964335195E+03  0.62753910141E+02  0.25100983646E+03  0.58049532071E+03  0.12699999809E+01 0.  1.
</event>
<event>
 5   0  0.8293000E-04  0.1266118E+04  0.7818609E-02  0.9056874E-01
        3   -1    0    0  501    0  0.00000000000E+00  0.00000000000E+00  0.34210200035E+03  0.34210201526E+03  0.10100000352E+00 0. -1.
       -3   -1    0    0    0  501  0.00000000000E+00  0.00000000000E+00 -0.11714733911E+04  0.11714733955E+04  0.10100000352E+00 0.  1.
    10030    2    1    2    0    0  0.00000000000E+00  0.00000000000E+00 -0.82937139077E+03  0.15135754107E+04  0.12661175381E+04 0.  0.
        4    1    3    3  502    0 -0.18327422652E+03 -0.50337743646E+02  0.30718809996E+03  0.36123326563E+03  0.12699999809E+01 0. -1.
       -4    1    3    3    0  502  0.18327422652E+03  0.50337743646E+02 -0.11365594907E+04  0.11523421451E+04  0.12699999809E+01 0.  1.
</event>
<event>
 5   0  0.1175374E-03  0.1383543E+04  0.7818609E-02  0.8965818E-01
       -1   -1    0    0    0  501  0.00000000000E+00  0.00000000000E+00  0.64772812455E+03  0.64772812457E+03  0.50400001928E-02 0.  1.
        1   -1    0    0  501    0  0.00000000000E+00  0.00000000000E+00 -0.73880924500E+03  0.73880924502E+03  0.50400001928E-02 0. -1.
    10030    2    1    2    0    0  0.00000000000E+00  0.00000000000E+00 -0.91081120444E+02  0.13865373696E+04  0.13835425930E+04 0.  0.
        3    1    3    3  502    0  0.63915234787E+03 -0.26447727613E+03 -0.54701633506E+02  0.69387047227E+03  0.10100000352E+00 0. -1.
       -3    1    3    3    0  502 -0.63915234787E+03  0.26447727613E+03 -0.36379486938E+02  0.69266689732E+03  0.10100000352E+00 0.  1.
</event>
<event>
 5   0  0.2190704E-03  0.1426554E+04  0.7818609E-02  0.8934818E-01
       -2   -1    0    0    0  501  0.00000000000E+00  0.00000000000E+00  0.82842499678E+03  0.82842499679E+03  0.25500000920E-02 0. -1.
        2   -1    0    0  501    0  0.00000000000E+00  0.00000000000E+00 -0.61413430912E+03  0.61413430913E+03  0.25500000920E-02 0.  1.
    10030    2    1    2    0    0  0.00000000000E+00  0.00000000000E+00  0.21429068766E+03  0.14425593059E+04  0.14265541883E+04 0.  0.
        5    1    3    3  502    0 -0.15600783921E+03  0.68899711144E+01 -0.59661993678E+03  0.61673605096E+03  0.46999998093E+01 0.  1.
       -5    1    3    3    0  502  0.15600783921E+03 -0.68899711144E+01  0.81091062444E+03  0.82582325495E+03  0.46999998093E+01 0. -1.
</event>
<event>
 5   0  0.1225690E-03  0.1286825E+04  0.7818609E-02  0.9040079E-01
        1   -1    0    0  501    0  0.00000000000E+00  0.00000000000E+00  0.10208181074E+04  0.10208181074E+04  0.50400001928E-02 0. -1.
       -1   -1    0    0    0  501  0.00000000000E+00  0.00000000000E+00 -0.40553727720E+03  0.40553727724E+03  0.50400001928E-02 0.  1.
    10030    2    1    2    0    0  0.00000000000E+00  0.00000000000E+00  0.61528083022E+03  0.14263553847E+04  0.12868252342E+04 0.  0.
        4    1    3    3  502    0 -0.14555346831E+03  0.48740048619E+03 -0.12907688267E+03  0.52479281684E+03  0.12699999809E+01 0.  1.
       -4    1    3    3    0  502  0.14555346831E+03 -0.48740048619E+03  0.74435771289E+03  0.90156256783E+03  0.12699999809E+01 0. -1.
</event>
<event>
 5   0  0.2083966E-03  0.1396860E+04  0.7818609E-02  0.8956095E-01
       -2   -1    0    0    0  501  0.00000000000E+00  0.00000000000E+00  0.15533096982E+04  0.15533096982E+04  0.25500000920E-02 0.  1.
        2   -1    0    0  501    0  0.00000000000E+00  0.00000000000E+00 -0.31404179396E+03  0.31404179397E+03  0.25500000920E-02 0. -1.
    10030    2    1    2    0    0  0.00000000000E+00  0.00000000000E+00  0.12392679042E+04  0.18673514922E+04  0.13968595695E+04 0.  0.
        1    1    3    3  502    0  0.21516393371E+03  0.58893671459E+03  0.20833121076E+03  0.66071466274E+03  0.50400001928E-02 0. -1.
       -1    1    3    3    0  502 -0.21516393371E+03 -0.58893671459E+03  0.10309366935E+04  0.12066368294E+04  0.50400001928E-02 0.  1.
</event>
<event>
 5   0  0.8293000E-04  0.1343268E+04  0.7818609E-02  0.8995940E-01
        3   -1    0    0  501    0  0.00000000000E+00  0.00000000000E+00  0.11083936444E+04  0.11083936490E+04  0.10100000352E+00 0.  1.
       -3   -1    0    0    0  501  0.00000000000E+00  0.00000000000E+00 -0.40697813933E+03  0.40697815187E+03  0.10100000352E+00 0. -1.
    10030    2    1    2    0    0  0.00000000000E+00  0.00000000000E+00  0.70141550502E+03  0.15153718008E+04  0.13432676517E+04 0.  0.
        3    1    3    3  502    0 -0.59813651389E+02 -0.65974483861E+03  0.22584195553E+03  0.69988965133E+03  0.10100000352E+00 0. -1.
       -3    1    3    3    0  502  0.59813651389E+02  0.65974483861E+03  0.47557354950E+03  0.81548214949E+03  0.10100000352E+00 0.  1.
</event>
<event>
 5   0  0.2172901E-03  0.1395187E+04  0.7818609E-02  0.8957310E-01
       -2   -1    0    0    0  501  0.00000000000E+00  0.00000000000E+00  0.62753522639E+03  0.62753522639E+03  0.25500000920E-02 0.  1.
        2   -1    0    0  501    0  0.00000000000E+00  0.00000000000E+00 -0.77547322351E+03  0.77547322352E+03  0.25500000920E-02 0. -1.
    10030    2    1    2    0    0  0.00000000000E+00  0.00000000000E+00 -0.14793799713E+03  0.14030084499E+04  0.13951871056E+04 0.  0.
        2    1    3    3  502    0 -0.66808787750E+03 -0.15484975168E+03 -0.20242273896E+03  0.71504882554E+03  0.25500000920E-02 0. -1.
       -2    1    3    3    0  502  0.66808787750E+03  0.15484975168E+03  0.54484741834E+02  0.68795962436E+03  0.25500000920E-02 0.  1.
</event>
<event>
 5   0  0.1199720E-03  0.1403699E+04  0.7818609E-02  0.8951145E-01
       -1   -1    0    0    0  501  0.00000000000E+00  0.00000000000E+00  0.31332152057E+03  0.31332152061E+03  0.50400001928E-02 0.  1.
        1   -1    0    0  501    0  0.00000000000E+00  0.00000000000E+00 -0.15721646296E+04  0.15721646296E+04  0.50400001928E-02 0. -1.
    10030    2    1    2    0    0  0.00000000000E+00  0.00000000000E+00 -0.12588431090E+04  0.18854861502E+04  0.14036994156E+04 0.  0.
        5    1    3    3  502    0  0.40875209762E+03 -0.11279603928E+03 -0.13806319053E+04  0.14442879808E+04  0.46999998093E+01 0. -1.
       -5    1    3    3    0  502 -0.40875209762E+03  0.11279603928E+03  0.12178879621E+03  0.44119816939E+03  0.46999998093E+01 0.  1.
</event>
<event>
 5   0  0.2195980E-03  0.1414492E+04  0.7818609E-02  0.8943394E-01
        2   -1    0    0  501    0  0.00000000000E+00  0.00000000000E+00  0.76858006648E+03  0.76858006649E+03  0.25500000920E-02 0. -1.
       -2   -1    0    0    0  501  0.00000000000E+00  0.00000000000E+00 -0.65080693561E+03  0.65080693561E+03  0.25500000920E-02 0.  1.
    10030    2    1    2    0    0  0.00000000000E+00  0.00000000000E+00  0.11777313088E+03  0.14193870021E+04  0.14144924713E+04 0.  0.
        4    1    3    3  502    0  0.65226771568E+03  0.27338987670E+03  0.59542546609E+02  0.70974793085E+03  0.12699999809E+01 0.  1.
       -4    1    3    3    0  502 -0.65226771568E+03 -0.27338987670E+03  0.58230584266E+02  0.70963907124E+03  0.12699999809E+01 0. -1.
</event>
<event>
 5   0  0.2190704E-03  0.1460306E+04  0.7818609E-02  0.8911286E-01
       -2   -1    0    0    0  501  0.00000000000E+00  0.00000000000E+00  0.97132179210E+03  0.97132179210E+03  0.25500000920E-02 0.  1.
        2   -1    0    0  501    0  0.00000000000E+00  0.00000000000E+00 -0.54886404948E+03  0.54886404948E+03  0.25500000920E-02 0. -1.
    10030    2    1    2    0    0  0.00000000000E+00  0.00000000000E+00  0.42245774262E+03  0.15201858416E+04  0.14603062859E+04 0.  0.
        5    1    3    3  502    0  0.32504976027E+03 -0.56380995504E+03 -0.13334608953E+03  0.66433597046E+03  0.46999998093E+01 0. -1.
       -5    1    3    3    0  502 -0.32504976027E+03  0.56380995504E+03  0.55580383215E+03  0.85584987112E+03  0.46999998093E+01 0.  1.
</event>
<event>
 5   0  0.1225690E-03  0.1385531E+04  0.7818609E-02  0.8964359E-01
       -1   -1    0    0    0  501  0.00000000000E+00  0.00000000000E+00  0.64632300834E+03  0.64632300836E+03  0.50400001928E-02 0. -1.
        1   -1    0    0  501    0  0.00000000000E+00  0.00000000000E+00 -0.74254559430E+03  0.74254559432E+03  0.50400001928E-02 0.  1.
    10030    2    1    2    0    0  0.00000000000E+00  0.00000000000E+00 -0.96222585964E+02  0.13888686027E+04  0.13855313816E+04 0.  0.
        4    1    3    3  502    0  0.20883676859E+03  0.15517562728E+03 -0.69170947827E+03  0.73902360345E+03  0.12699999809E+01 0.  1.
       -4    1    3    3    0  502 -0.20883676859E+03 -0.15517562728E+03  0.59548689231E+03  0.64984499923E+03  0.12699999809E+01 0. -1.
</event>
<event>
 5   0  0.2083966E-03  0.1448100E+04  0.7818609E-02  0.8919719E-01
        2   -1    0    0  501    0  0.00000000000E+00  0.00000000000E+00  0.71804933700E+03  0.71804933701E+03  0.25500000920E-02 0. -1.
       -2   -1    0    0    0  501  0.00000000000E+00  0.00000000000E+00 -0.73010086925E+03  0.73010086925E+03  0.25500000920E-02 0.  1.
    10030    2    1    2    0    0  0.00000000000E+00  0.00000000000E+00 -0.12051532248E+02  0.14481502063E+04  0.14481000589E+04 0.  0.
        1    1    3    3  502    0 -0.22820202657E+03 -0.36638094991E+03  0.57531809555E+03  0.71923714898E+03  0.50400001928E-02 0. -1.
       -1    1    3    3    0  502  0.22820202657E+03  0.36638094991E+03 -0.58736962780E+03  0.72891305728E+03  0.50400001928E-02 0.  1.
</event>
<event>
 5   0  0.1199720E-03  0.1384633E+04  0.7818609E-02  0.8965018E-01
        1   -1    0    0  501    0  0.00000000000E+00  0.00000000000E+00  0.71015347017E+03  0.71015347019E+03  0.50400001928E-02 0. -1.
       -1   -1    0    0    0  501  0.00000000000E+00  0.00000000000E+00 -0.67492769686E+03  0.67492769688E+03  0.50400001928E-02 0.  1.
    10030    2    1    2    0    0  0.00000000000E+00  0.00000000000E+00  0.35225773308E+02  0.13850811671E+04  0.13846331587E+04 0.  0.
        5    1    3    3  502    0  0.42606168007E+03 -0.26343026451E+01  0.56344927923E+03  0.70642244800E+03  0.46999998093E+01 0. -1.
       -5    1    3    3    0  502 -0.42606168007E+03  0.26343026451E+01 -0.52822350592E+03  0.67865871908E+03  0.46999998093E+01 0.  1.
</event>
<event>
 5   0  0.1175374E-03  0.1360957E+04  0.7818609E-02  0.8982575E-01
       -1   -1    0    0    0  501  0.00000000000E+00  0.00000000000E+00  0.28686016625E+03  0.28686016629E+03  0.50400001928E-02 0. -1.
        1   -1    0    0  501    0  0.00000000000E+00  0.00000000000E+00 -0.16142045748E+04  0.16142045748E+04  0.50400001928E-02 0.  1.
    10030    2    1    2    0    0  0.00000000000E+00  0.00000000000E+00 -0.13273444085E+04  0.19010647411E+04  0.13609570055E+04 0.  0.
        3    1    3    3  502    0  0.27795460122E+03  0.61953797752E+03 -0.72559129384E+03  0.99376496307E+03  0.10100000352E+00 0.  1.
       -3    1    3    3    0  502 -0.27795460122E+03 -0.61953797752E+03 -0.60175311467E+03  0.90729977799E+03  0.10100000352E+00 0. -1.
</event>
<event>
 5   0  0.1175374E-03  0.1345040E+04  0.7818609E-02  0.8994591E-01
        1   -1    0    0  501    0  0.00000000000E+00  0.00000000000E+00  0.21064080467E+04  0.21064080467E+04  0.50400001928E-02 0.  1.
       -1   -1    0    0    0  501  0.00000000000E+00  0.00000000000E+00 -0.21471782180E+03  0.21471782186E+03  0.50400001928E-02 0. -1.
    10030    2    1    2    0    0  0.00000000000E+00  0.00000000000E+00  0.18916902249E+04  0.23211258686E+04  0.13450402933E+04 0.  0.
        3    1    3    3  502    0 -0.28349125737E+03  0.98265390377E+02 -0.92815261199E+02  0.31406697194E+03  0.10100000352E+00 0. -1.
       -3    1    3    3    0  502  0.28349125737E+03 -0.98265390377E+02  0.19845054861E+04  0.20070588966E+04  0.10100000352E+00 0.  1.
</event>
<event>
 5   0  0.1225690E-03  0.1364779E+04  0.7818609E-02  0.8979715E-01
       -1   -1    0    0    0  501  0.00000000000E+00  0.00000000000E+00  0.29474641027E+03  0.29474641031E+03  0.50400001928E-02 0. -1.
        1   -1    0    0  501    0  0.00000000000E+00  0.00000000000E+00 -0.15798519019E+04  0.15798519019E+04  0.50400001928E-02 0.  1.
    10030    2    1    2    0    0  0.00000000000E+00  0.00000000000E+00 -0.12851054917E+04  0.18745983123E+04  0.13647793622E+04 0.  0.
        4    1    3    3  502    0 -0.28188298405E+02  0.68121043373E+03 -0.60341660433E+03  0.91046990421E+03  0.12699999809E+01 0.  1.
       -4    1    3    3    0  502  0.28188298405E+02 -0.68121043373E+03 -0.68168888734E+03  0.96412840805E+03  0.12699999809E+01 0. -1.
</event>
<event>
 5   0  0.2236184E-03  0.1391111E+04  0.7818609E-02  0.8960278E-01
       -2   -1    0    0    0  501  0.00000000000E+00  0.00000000000E+00  0.65271551648E+03  0.65271551649E+03  0.25500000920E-02 0.  1.
        2   -1    0    0  501    0  0.00000000000E+00  0.00000000000E+00 -0.74120763185E+03  0.74120763185E+03  0.25500000920E-02 0. -1.
    10030    2    1    2    0    0  0.00000000000E+00  0.00000000000E+00 -0.88492115367E+02  0.13939231483E+04  0.13911113863E+04 0.  0.
        3    1    3    3  502    0  0.21858761250E+03  0.10816609940E+03  0.60846696147E+03  0.65552460122E+03  0.10100000352E+00 0.  1.
       -3    1    3    3    0  502 -0.21858761250E+03 -0.10816609940E+03 -0.69695907684E+03  0.73839854712E+03  0.10100000352E+00 0. -1.
</event>
<event>
 5   0  0.1199720E-03  0.1401991E+04  0.7818609E-02  0.8952379E-01
        1   -1    0    0  501    0  0.00000000000E+00  0.00000000000E+00  0.53159803314E+03  0.53159803317E+03  0.50400001928E-02 0. -1.
       -1   -1    0    0    0  501  0.00000000000E+00  0.00000000000E+00 -0.92437231561E+03  0.92437231563E+03  0.50400001928E-02 0.  1.
    10030    2    1    2    0    0  0.00000000000E+00  0.00000000000E+00 -0.39277428247E+03  0.14559703488E+04  0.14019907345E+04 0.  0.
        5    1    3    3  502    0  0.18320763474E+03 -0.32630745499E+02 -0.89823528016E+03  0.91732137853E+03  0.46999998093E+01 0.  1.
       -5    1    3    3    0  502 -0.18320763474E+03  0.32630745499E+02  0.50546099769E+03  0.53864897026E+03  0.46999998093E+01 0. -1.
</event>
<event>
 5   0  0.2236184E-03  0.1070118E+04  0.7818609E-02  0.9234817E-01
       -2   -1    0    0    0  501  0.00000000000E+00  0.00000000000E+00  0.24995074430E+03  0.24995074431E+03  0.25500000920E-02 0.  1.
        2   -1    0    0  501    0  0.00000000000E+00  0.00000000000E+00 -0.11453774483E+04  0.11453774483E+04  0.25500000920E-02 0. -1.
    10030    2    1    2    0    0  0.00000000000E+00  0.00000000000E+00 -0.89542670400E+03  0.13953281926E+04  0.10701176491E+04 0.  0.
        3    1    3    3  502    0  0.12003329502E+03  0.21931154662E+03 -0.10645324267E+04  0.10934966137E+04  0.10100000352E+00 0. -1.
       -3    1    3    3    0  502 -0.12003329502E+03 -0.21931154662E+03  0.16910572270E+03  0.30183157894E+03  0.10100000352E+00 0.  1.
</event>
<event>
 5   0  0.2190704E-03  0.1063900E+04  0.7818609E-02  0.9241110E-01
        2   -1    0    0  501    0  0.00000000000E+00  0.00000000000E+00  0.26169867970E+04  0.26169867970E+04  0.25500000920E-02 0.  1.
       -2   -1    0    0    0  501  0.00000000000E+00  0.00000000000E+00 -0.10812850606E+03  0.10812850609E+03  0.25500000920E-02 0. -1.
    10030    2    1    2    0    0  0.00000000000E+00  0.00000000000E+00  0.25088582909E+04  0.27251153031E+04  0.10639001321E+04 0.  0.
        5    1    3    3  502    0 -0.47294484462E+03  0.22571657478E+03  0.10207340200E+04  0.11474078733E+04  0.46999998093E+01 0. -1.
       -5    1    3    3    0  502  0.47294484462E+03 -0.22571657478E+03  0.14881242709E+04  0.15777074298E+04  0.46999998093E+01 0.  1.
</event>
<event>
 5   0  0.1238683E-03  0.1247187E+04  0.7818609E-02  0.9072528E-01
        1   -1    0    0  501    0  0.00000000000E+00  0.00000000000E+00  0.73038486193E+03  0.73038486195E+03  0.50400001928E-02 0.  1.
       -1   -1    0    0    0  501  0.00000000000E+00  0.00000000000E+00 -0.53241625074E+03  0.53241625076E+03  0.50400001928E-02 0. -1.
    10030    2    1    2    0    0  0.00000000000E+00  0.00000000000E+00  0.19796861120E+03  0.12628011127E+04  0.12471868662E+04 0.  0.
        2    1    3    3  502    0 -0.57058413268E+02  0.52467132189E+03 -0.23733853280E+03  0.57867541654E+03  0.25500000920E-02 0. -1.
       -2    1    3    3    0  502  0.57058413268E+02 -0.52467132189E+03  0.43530714400E+03  0.68412569618E+03  0.25500000920E-02 0.  1.
</event>
<event>
 5   0  0.1225690E-03  0.1438508E+04  0.7818609E-02  0.8926407E-01
        1   -1    0    0  501    0  0.00000000000E+00  0.00000000000E+00  0.22230061792E+04  0.22230061792E+04  0.50400001928E-02 0.  1.
       -1   -1    0    0    0  501  0.00000000000E+00  0.00000000000E+00 -0.23271472685E+03  0.23271472691E+03  0.50400001928E-02 0. -1.
    10030    2    1    2    0    0  0.00000000000E+00  0.00000000000E+00  0.19902914524E+04  0.24557209062E+04  0.14385079435E+04 0.  0.
        4    1    3    3  502    0  0.79713786418E+02 -0.40507282790E+03  0.20005954676E+04  0.20427486683E+04  0.12699999809E+01 0.  1.
       -4    1    3    3    0  502 -0.79713786418E+02  0.40507282790E+03 -0.10304015239E+02  0.41297223791E+03  0.12699999809E+01 0. -1.
</event>
<event>
 5   0  0.2172901E-03  0.1421836E+04  0.7818609E-02  0.8938162E-01
        2   -1    0    0  501    0  0.00000000000E+00  0.00000000000E+00  0.75987057630E+03  0.75987057630E+03  0.25500000920E-02 0.  1.
       -2   -1    0    0    0  501  0.00000000000E+00  0.00000000000E+00 -0.66511946745E+03  0.66511946746E+03  0.25500000920E-02 0. -1.
    10030    2    1    2    0    0  0.00000000000E+00  0.00000000000E+00  0.94751108841E+02  0.14249900438E+04  0.14218364365E+04 0.  0.
        2    1    3    3  502    0 -0.39747257092E+03  0.31819447876E+03 -0.44988269391E+03  0.67943109233E+03  0.25500000920E-02 0. -1.
       -2    1    3    3    0  502  0.39747257092E+03 -0.31819447876E+03  0.54463380275E+03  0.74555895142E+03  0.25500000920E-02 0.  1.
</event>
<event>
 5   0  0.2236184E-03  0.1398138E+04  0.7818609E-02  0.8955167E-01
        2   -1    0    0  501    0  0.00000000000E+00  0.00000000000E+00  0.12021885097E+04  0.12021885097E+04  0.25500000920E-02 0. -1.
       -2   -1    0    0    0  501  0.00000000000E+00  0.00000000000E+00 -0.40650680297E+03  0.40650680298E+03  0.25500000920E-02 0.  1.
    10030    2    1    2    0    0  0.00000000000E+00  0.00000000000E+00  0.79568170672E+03  0.16086953127E+04  0.13981384876E+04 0.  0.
        3    1    3    3  502    0  0.10664866685E+03 -0.45923000895E+03  0.99174522109E+03  0.10981005113E+04  0.10100000352E+00 0. -1.
       -3    1    3    3    0  502 -0.10664866685E+03  0.45923000895E+03 -0.19606351437E+03  0.51059480132E+03  0.10100000352E+00 0.  1.
</event>
<event>
 5   0  0.1210275E-03  0.1410945E+04  0.7818609E-02  0.8945934E-01
       -1   -1    0    0    0  501  0.00000000000E+00  0.00000000000E+00  0.23578014053E+03  0.23578014059E+03  0.50400001928E-02 0.  1.
        1   -1    0    0  501    0  0.00000000000E+00  0.00000000000E+00 -0.21108284990E+04  0.21108284990E+04  0.50400001928E-02 0. -1.
    10030    2    1    2    0    0  0.00000000000E+00  0.00000000000E+00 -0.18750483585E+04  0.23466086396E+04  0.14109449886E+04 0.  0.
        1    1    3    3  502    0  0.63180132656E+03 -0.75674691362E+02 -0.14441479182E+04  0.15781200160E+04  0.50400001928E-02 0. -1.
       -1    1    3    3    0  502 -0.63180132656E+03  0.75674691362E+02 -0.43090044024E+03  0.76848862359E+03  0.50400001928E-02 0.  1.
</event>
<event>
 5   0  0.2190704E-03  0.1332384E+04  0.7818609E-02  0.9004272E-01
       -2   -1    0    0    0  501  0.00000000000E+00  0.00000000000E+00  0.21216788741E+04  0.21216788741E+04  0.25500000920E-02 0. -1.
        2   -1    0    0  501    0  0.00000000000E+00  0.00000000000E+00 -0.20917942807E+03  0.20917942809E+03  0.25500000920E-02 0.  1.
    10030    2    1    2    0    0  0.00000000000E+00  0.00000000000E+00  0.19124994460E+04  0.23308583022E+04  0.13323836887E+04 0.  0.
        5    1    3    3  502    0 -0.58748827308E+03 -0.31268977118E+03  0.90458732603E+03  0.11230394848E+04  0.46999998093E+01 0.  1.
       -5    1    3    3    0  502  0.58748827308E+03  0.31268977118E+03  0.10079121200E+04  0.12078188174E+04  0.46999998093E+01 0. -1.
</event>
<event>
 5   0  0.1225690E-03  0.1398112E+04  0.7818609E-02  0.8955186E-01
       -1   -1    0    0    0  501  0.00000000000E+00  0.00000000000E+00  0.21149952092E+03  0.21149952098E+03  0.50400001928E-02 0. -1.
        1   -1    0    0  501    0  0.00000000000E+00  0.00000000000E+00 -0.23105465367E+04  0.23105465367E+04  0.50400001928E-02 0.  1.
    10030    2    1    2    0    0  0.00000000000E+00  0.00000000000E+00 -0.20990470158E+04  0.25220460577E+04  0.13981122783E+04 0.  0.
        4    1    3    3  502    0 -0.82245435173E+02 -0.69269483851E+03 -0.96710664547E+03  0.11924291709E+04  0.12699999809E+01 0. -1.
       -4    1    3    3    0  502  0.82245435173E+02  0.69269483851E+03 -0.11319403703E+04  0.13296168868E+04  0.12699999809E+01 0.  1.
</event>
<event>
 5   0  0.1199720E-03  0.1409225E+04  0.7818609E-02  0.8947168E-01
       -1   -1    0    0    0  501  0.00000000000E+00  0.00000000000E+00  0.31406450091E+03  0.31406450095E+03  0.50400001928E-02 0.  1.
        1   -1    0    0  501    0  0.00000000000E+00  0.00000000000E+00 -0.15808178625E+04  0.15808178625E+04  0.50400001928E-02 0. -1.
    10030    2    1    2    0    0  0.00000000000E+00  0.00000000000E+00 -0.12667533616E+04  0.18948823634E+04  0.14092249970E+04 0.  0.
        5    1    3    3  502    0  0.46113101329E+03 -0.46517520379E+03 -0.98253188254E+03  0.11808559488E+04  0.46999998093E+01 0. -1.
       -5    1    3    3    0  502 -0.46113101329E+03  0.46517520379E+03 -0.28422147903E+03  0.71402641462E+03  0.46999998093E+01 0.  1.
</event>
<event>
 5   0  0.2172901E-03  0.1399143E+04  0.7818609E-02  0.8954439E-01
        2   -1    0    0  501    0  0.00000000000E+00  0.00000000000E+00  0.61669117753E+03  0.61669117753E+03  0.25500000920E-02 0.  1.
       -2   -1    0    0    0  501  0.00000000000E+00  0.00000000000E+00 -0.79359047502E+03  0.79359047502E+03  0.25500000920E-02 0. -1.
    10030    2    1    2    0    0  0.00000000000E+00  0.00000000000E+00 -0.17689929749E+03  0.14102816526E+04  0.13991429441E+04 0.  0.
        2    1    3    3  502    0 -0.17432499170E+02  0.67253940302E+03  0.10487693139E+03  0.68089082193E+03  0.25500000920E-02 0.  1.
       -2    1    3    3    0  502  0.17432499170E+02 -0.67253940302E+03 -0.28177622889E+03  0.72939083063E+03  0.25500000920E-02 0. -1.
</event>
<event>
 5   0  0.1210275E-03  0.1427503E+04  0.7818609E-02  0.8934148E-01
       -1   -1    0    0    0  501  0.00000000000E+00  0.00000000000E+00  0.33785360022E+03  0.33785360025E+03  0.50400001928E-02 0. -1.
        1   -1    0    0  501    0  0.00000000000E+00  0.00000000000E+00 -0.15078755317E+04  0.15078755317E+04  0.50400001928E-02 0.  1.
    10030    2    1    2    0    0  0.00000000000E+00  0.00000000000E+00 -0.11700219315E+04  0.18457291320E+04  0.14275029627E+04 0.  0.
        1    1    3    3  502    0 -0.11378816138E+03 -0.26927448045E+03 -0.14269216747E+04  0.14565582575E+04  0.50400001928E-02 0.  1.
       -1    1    3    3    0  502  0.11378816138E+03  0.26927448045E+03  0.25689974323E+03  0.38917087454E+03  0.50400001928E-02 0. -1.
</event>
<event>
 5   0  0.1238683E-03  0.1403109E+04  0.7818609E-02  0.8951571E-01
        1   -1    0    0  501    0  0.00000000000E+00  0.00000000000E+00  0.81039179140E+03  0.81039179142E+03  0.50400001928E-02 0. -1.
       -1   -1    0    0    0  501  0.00000000000E+00  0.00000000000E+00 -0.60733440107E+03  0.60733440109E+03  0.50400001928E-02 0.  1.
    10030    2    1    2    0    0  0.00000000000E+00  0.00000000000E+00  0.20305739033E+03  0.14177261925E+04  0.14031091380E+04 0.  0.
        2    1    3    3  502    0 -0.28642960162E+03 -0.63702916178E+03  0.35034742729E+02  0.69933933312E+03  0.25500000920E-02 0.  1.
       -2    1    3    3    0  502  0.28642960162E+03  0.63702916178E+03  0.16802264760E+03  0.71838685940E+03  0.25500000920E-02 0. -1.
</event>
<event>
 5   0  0.2190704E-03  0.1409835E+04  0.7818609E-02  0.8946730E-01
        2   -1    0    0  501    0  0.00000000000E+00  0.00000000000E+00  0.64575228533E+03  0.64575228534E+03  0.25500000920E-02 0.  1.
       -2   -1    0    0    0  501  0.00000000000E+00  0.00000000000E+00 -0.76950402575E+03  0.76950402575E+03  0.25500000920E-02 0. -1.
    10030    2    1    2    0    0  0.00000000000E+00  0.00000000000E+00 -0.12375174041E+03  0.14152563111E+04  0.14098354276E+04 0.  0.
        5    1    3    3  502    0 -0.72420558260E+02  0.16814058998E+03  0.62145502650E+03  0.64787686733E+03  0.46999998093E+01 0.  1.
       -5    1    3    3    0  502  0.72420558260E+02 -0.16814058998E+03 -0.74520676691E+03  0.76737944376E+03  0.46999998093E+01 0. -1.
</event>
<event>
 5   0  0.2195980E-03  0.1412161E+04  0.7818609E-02  0.8945063E-01
       -2   -1    0    0    0  501  0.00000000000E+00  0.00000000000E+00  0.23055086820E+03  0.23055086821E+03  0.25500000920E-02 0. -1.
        2   -1    0    0  501    0  0.00000000000E+00  0.00000000000E+00 -0.21624267460E+04  0.21624267460E+04  0.25500000920E-02 0.  1.
    10030    2    1    2    0    0  0.00000000000E+00  0.00000000000E+00 -0.19318758778E+04  0.23929776142E+04  0.14121605627E+04 0.  0.
        4    1    3    3  502    0 -0.15536479688E+03 -0.28708808988E+03  0.95005004475E+02  0.33997846290E+03  0.12699999809E+01 0. -1.
       -4    1    3    3    0  502  0.15536479688E+03  0.28708808988E+03 -0.20268808822E+04  0.20529991513E+04  0.12699999809E+01 0.  1.
</event>
<event>
 5   0  0.1238683E-03  0.1393055E+04  0.7818609E-02  0.8958861E-01
       -1   -1    0    0    0  501  0.00000000000E+00  0.00000000000E+00  0.46799618193E+03  0.46799618196E+03  0.50400001928E-02 0.  1.
        1   -1    0    0  501    0  0.00000000000E+00  0.00000000000E+00 -0.10366544109E+04  0.10366544109E+04  0.50400001928E-02 0. -1.
    10030    2    1    2    0    0  0.00000000000E+00  0.00000000000E+00 -0.56865822895E+03  0.15046505929E+04  0.13930546383E+04 0.  0.
        2    1    3    3  502    0  0.31493811499E+03  0.45799657644E+02  0.38487363871E+03  0.49941099576E+03  0.25500000920E-02 0.  1.
       -2    1    3    3    0  502 -0.31493811499E+03 -0.45799657644E+02 -0.95353186766E+03  0.10052395971E+04  0.25500000920E-02 0. -1.
</event>
<event>
 5   0  0.1175374E-03  0.1407654E+04  0.7818609E-02  0.8948297E-01
        1   -1    0    0  501    0  0.00000000000E+00  0.00000000000E+00  0.14094412834E+04  0.14094412834E+04  0.50400001928E-02 0.  1.
       -1   -1    0    0    0  501  0.00000000000E+00  0.00000000000E+00 -0.35146716665E+03  0.35146716669E+03  0.50400001928E-02 0. -1.
    10030    2    1    2    0    0  0.00000000000E+00  0.00000000000E+00  0.10579741168E+04  0.17609084501E+04  0.14076538417E+04 0.  0.
        3    1    3    3  502    0  0.89878349962E+02 -0.68507686306E+03  0.36132252666E+03  0.77971943964E+03  0.10100000352E+00 0. -1.
       -3    1    3    3    0  502 -0.89878349962E+02  0.68507686306E+03  0.69665159011E+03  0.98118901048E+03  0.10100000352E+00 0.  1.
</event>
<event>
 5   0  0.1238683E-03  0.1415157E+04  0.7818609E-02  0.8942919E-01
        1   -1    0    0  501    0  0.00000000000E+00  0.00000000000E+00  0.94046313244E+03  0.94046313246E+03  0.50400001928E-02 0.  1.
       -1   -1    0    0    0  501  0.00000000000E+00  0.00000000000E+00 -0.53236285647E+03  0.53236285650E+03  0.50400001928E-02 0. -1.
    10030    2    1    2    0    0  0.00000000000E+00  0.00000000000E+00  0.40810027597E+03  0.14728259890E+04  0.14151574324E+04 0.  0.
        2    1    3    3  502    0 -0.68863220515E+03 -0.62063995705E+02  0.47586213439E+02  0.69305894501E+03  0.25500000920E-02 0.  1.
       -2    1    3    3    0  502  0.68863220515E+03  0.62063995705E+02  0.36051406253E+03  0.77976704395E+03  0.25500000920E-02 0. -1.
</event>
<event>
 5   0  0.2236184E-03  0.1544256E+04  0.7818609E-02  0.8855545E-01
        2   -1    0    0  501    0  0.00000000000E+00  0.00000000000E+00  0.15367154646E+04  0.15367154646E+04  0.25500000920E-02 0.  1.
       -2   -1    0    0    0  501  0.00000000000E+00  0.00000000000E+00 -0.38795834155E+03  0.38795834155E+03  0.25500000920E-02 0. -1.
    10030    2    1    2    0    0  0.00000000000E+00  0.00000000000E+00  0.11487571230E+04  0.19246738061E+04  0.15442559154E+04 0.  0.
        3    1    3    3  502    0 -0.18469050019E+03 -0.34344687082E+03  0.14049666525E+04  0.14580801209E+04  0.10100000352E+00 0.  1.
       -3    1    3    3    0  502  0.18469050019E+03  0.34344687082E+03 -0.25620952949E+03  0.46659368528E+03  0.10100000352E+00 0. -1.
</event>
<event>
 5   0  0.1199720E-03  0.1384757E+04  0.7818609E-02  0.8964927E-01
       -1   -1    0    0    0  501  0.00000000000E+00  0.00000000000E+00  0.10608099942E+04  0.10608099942E+04  0.50400001928E-02 0. -1.
        1   -1    0    0  501    0  0.00000000000E+00  0.00000000000E+00 -0.45190762516E+03  0.45190762519E+03  0.50400001928E-02 0.  1.
    10030    2    1    2    0    0  0.00000000000E+00  0.00000000000E+00  0.60890236902E+03  0.15127176194E+04  0.13847571993E+04 0.  0.
        5    1    3    3  502    0  0.57828840569E+03  0.15604926643E+02  0.72000384251E+03  0.92362796467E+03  0.46999998093E+01 0. -1.
       -5    1    3    3    0  502 -0.57828840569E+03 -0.15604926643E+02 -0.11110147349E+03  0.58908965472E+03  0.46999998093E+01 0.  1.
</event>
<event>
 5   0  0.1225690E-03  0.1403803E+04  0.7818609E-02  0.8951070E-01
        1   -1    0    0  501    0  0.00000000000E+00  0.00000000000E+00  0.54423003888E+03  0.54423003890E+03  0.50400001928E-02 0. -1.
       -1   -1    0    0    0  501  0.00000000000E+00  0.00000000000E+00 -0.90525309651E+03  0.90525309652E+03  0.50400001928E-02 0.  1.
    10030    2    1    2    0    0  0.00000000000E+00  0.00000000000E+00 -0.36102305763E+03  0.14494831354E+04  0.14038033024E+04 0.  0.
        4    1    3    3  502    0  0.41493630942E+03  0.55277508138E+02  0.40123712473E+03  0.57984531294E+03  0.12699999809E+01 0. -1.
       -4    1    3    3    0  502 -0.41493630942E+03 -0.55277508138E+02 -0.76226018236E+03  0.86963782248E+03  0.12699999809E+01 0.  1.
</event>
<event>
 5   0  0.1175374E-03  0.1391551E+04  0.7818609E-02  0.8959957E-01
        1   -1    0    0  501    0  0.00000000000E+00  0.00000000000E+00  0.43075064805E+03  0.43075064808E+03  0.50400001928E-02 0.  1.
       -1   -1    0    0    0  501  0.00000000000E+00  0.00000000000E+00 -0.11238602594E+04  0.11238602595E+04  0.50400001928E-02 0. -1.
    10030    2    1    2    0    0  0.00000000000E+00  0.00000000000E+00 -0.69310961140E+03  0.15546109075E+04  0.13915509838E+04 0.  0.
        3    1    3    3  502    0  0.62921378240E+03 -0.28995884198E+03 -0.27486874876E+03  0.74534485525E+03  0.10100000352E+00 0. -1.
       -3    1    3    3    0  502 -0.62921378240E+03  0.28995884198E+03 -0.41824086264E+03  0.80926605229E+03  0.10100000352E+00 0.  1.
</event>
<event>
 5   0  0.2083966E-03  0.1404126E+04  0.7818609E-02  0.8950838E-01
       -2   -1    0    0    0  501  0.00000000000E+00  0.00000000000E+00  0.10505696203E+04  0.10505696203E+04  0.25500000920E-02 0. -1.
        2   -1    0    0  501    0  0.00000000000E+00  0.00000000000E+00 -0.46916669599E+03  0.46916669599E+03  0.25500000920E-02 0.  1.
    10030    2    1    2    0    0  0.00000000000E+00  0.00000000000E+00  0.58140292430E+03  0.15197363163E+04  0.14041257460E+04 0.  0.
        1    1    3    3  502    0 -0.52209329695E+03 -0.19921744937E+03 -0.16928928418E+03  0.58389028474E+03  0.50400001928E-02 0.  1.
       -1    1    3    3    0  502  0.52209329695E+03  0.19921744937E+03  0.75069220847E+03  0.93584603154E+03  0.50400001928E-02 0. -1.
</event>
<event>
 5   0  0.1210275E-03  0.1409849E+04  0.7818609E-02  0.8946720E-01
       -1   -1    0    0    0  501  0.00000000000E+00  0.00000000000E+00  0.47277787958E+03  0.47277787961E+03  0.50400001928E-02 0.  1.
        1   -1    0    0  501    0  0.00000000000E+00  0.00000000000E+00 -0.10510612146E+04  0.10510612146E+04  0.50400001928E-02 0. -1.
    10030    2    1    2    0    0  0.00000000000E+00  0.00000000000E+00 -0.57828333504E+03  0.15238390942E+04  0.14098489173E+04 0.  0.
        1    1    3    3  502    0  0.16068124708E+03 -0.36321621220E+03 -0.91861570244E+03  0.10007993249E+04  0.50400001928E-02 0. -1.
       -1    1    3    3    0  502 -0.16068124708E+03  0.36321621220E+03  0.34033236740E+03  0.52303976932E+03  0.50400001928E-02 0.  1.
</event>
<event>
 5   0  0.2236184E-03  0.1390606E+04  0.7818609E-02  0.8960646E-01
        2   -1    0    0  501    0  0.00000000000E+00  0.00000000000E+00  0.27527276394E+04  0.27527276394E+04  0.25500000920E-02 0. -1.
       -2   -1    0    0    0  501  0.00000000000E+00  0.00000000000E+00 -0.17562456062E+03  0.17562456064E+03  0.25500000920E-02 0.  1.
    10030    2    1    2    0    0  0.00000000000E+00  0.00000000000E+00  0.25771030788E+04  0.29283522000E+04  0.13906064608E+04 0.  0.
        3    1    3    3  502    0  0.20160760486E+03  0.40219306035E+03  0.24049119813E+04  0.24466316707E+04  0.10100000352E+00 0. -1.
       -3    1    3    3    0  502 -0.20160760486E+03 -0.40219306035E+03  0.17219109748E+03  0.48172052933E+03  0.10100000352E+00 0.  1.
</event>
<event>
 5   0  0.2236184E-03  0.1367148E+04  0.7818609E-02  0.8977948E-01
        2   -1    0    0  501    0  0.00000000000E+00  0.00000000000E+00  0.61481388584E+03  0.61481388584E+03  0.25500000920E-02 0.  1.
       -2   -1    0    0    0  501  0.00000000000E+00  0.00000000000E+00 -0.76002453033E+03  0.76002453033E+03  0.25500000920E-02 0. -1.
    10030    2    1    2    0    0  0.00000000000E+00  0.00000000000E+00 -0.14521064449E+03  0.13748384162E+04  0.13671483238E+04 0.  0.
        3    1    3    3  502    0 -0.11472979269E+03 -0.26317688773E+02  0.60454554747E+03  0.61589842932E+03  0.10100000352E+00 0.  1.
       -3    1    3    3    0  502  0.11472979269E+03  0.26317688773E+02 -0.74975619196E+03  0.75893998686E+03  0.10100000352E+00 0. -1.
</event>
<event>
 5   0  0.2195980E-03  0.1422272E+04  0.7818609E-02  0.8937853E-01
        2   -1    0    0  501    0  0.00000000000E+00  0.00000000000E+00  0.40169716392E+03  0.40169716393E+03  0.25500000920E-02 0. -1.
       -2   -1    0    0    0  501  0.00000000000E+00  0.00000000000E+00 -0.12589439616E+04  0.12589439616E+04  0.25500000920E-02 0.  1.
    10030    2    1    2    0    0  0.00000000000E+00  0.00000000000E+00 -0.85724679769E+03  0.16606411255E+04  0.14222717306E+04 0.  0.
        4    1    3    3  502    0 -0.40373535891E+03 -0.16903246811E+03  0.22579231377E+03  0.49250177377E+03  0.12699999809E+01 0. -1.
       -4    1    3    3    0  502  0.40373535891E+03  0.16903246811E+03 -0.10830391115E+04  0.11681393518E+04  0.12699999809E+01 0.  1.
</event>
<event>
 5   0  0.1175374E-03  0.1420904E+04  0.7818609E-02  0.8938825E-01
        1   -1    0    0  501    0  0.00000000000E+00  0.00000000000E+00  0.97492060492E+03  0.97492060494E+03  0.50400001928E-02 0.  1.
       -1   -1    0    0    0  501  0.00000000000E+00  0.00000000000E+00 -0.51772617109E+03  0.51772617111E+03  0.50400001928E-02 0. -1.
    10030    2    1    2    0    0  0.00000000000E+00  0.00000000000E+00  0.45719443384E+03  0.14926467760E+04  0.14209038137E+04 0.  0.
        3    1    3    3  502    0  0.70582569503E+03 -0.22723521519E+02  0.31020916164E+03  0.77132094770E+03  0.10100000352E+00 0.  1.
       -3    1    3    3    0  502 -0.70582569503E+03  0.22723521519E+02  0.14698527219E+03  0.72132582835E+03  0.10100000352E+00 0. -1.
</event>
<event>
 5   0  0.2195980E-03  0.1385720E+04  0.7818609E-02  0.8964221E-01
       -2   -1    0    0    0  501  0.00000000000E+00  0.00000000000E+00  0.24712594643E+03  0.24712594644E+03  0.25500000920E-02 0.  1.
        2   -1    0    0  501    0  0.00000000000E+00  0.00000000000E+00 -0.19425512884E+04  0.19425512884E+04  0.25500000920E-02 0. -1.
    10030    2    1    2    0    0  0.00000000000E+00  0.00000000000E+00 -0.16954253419E+04  0.21896772348E+04  0.13857197778E+04 0.  0.
        4    1    3    3  502    0 -0.20012003494E+03 -0.53614108774E+03 -0.23051814604E+03  0.61695666209E+03  0.12699999809E+01 0.  1.
       -4    1    3    3    0  502  0.20012003494E+03  0.53614108774E+03 -0.14649071959E+04  0.15727205727E+04  0.12699999809E+01 0. -1.
</event>
<event>
 5   0  0.1199720E-03  0.1507849E+04  0.7818609E-02  0.8879250E-01
        1   -1    0    0  501    0  0.00000000000E+00  0.00000000000E+00  0.10916172536E+04  0.10916172536E+04  0.50400001928E-02 0.  1.
       -1   -1    0    0    0  501  0.00000000000E+00  0.00000000000E+00 -0.52069727113E+03  0.52069727116E+03  0.50400001928E-02 0. -1.
    10030    2    1    2    0    0  0.00000000000E+00  0.00000000000E+00  0.57091998246E+03  0.16123145248E+04  0.15078489647E+04 0.  0.
        5    1    3    3  502    0 -0.66291932191E+02 -0.74783593857E+03  0.21194487786E+03  0.78012558767E+03  0.46999998093E+01 0. -1.
       -5    1    3    3    0  502  0.66291932191E+02  0.74783593857E+03  0.35897510460E+03  0.83218893709E+03  0.46999998093E+01 0.  1.
</event>
<event>
 5   0  0.2083966E-03  0.1323789E+04  0.7818609E-02  0.9010910E-01
        2   -1    0    0  501    0  0.00000000000E+00  0.00000000000E+00  0.12607991894E+04  0.12607991894E+04  0.25500000920E-02 0.  1.
       -2   -1    0    0    0  501  0.00000000000E+00  0.00000000000E+00 -0.34748170248E+03  0.34748170249E+03  0.25500000920E-02 0. -1.
    10030    2    1    2    0    0  0.00000000000E+00  0.00000000000E+00  0.91331748695E+03  0.16082808919E+04  0.13237894830E+04 0.  0.
        1    1    3    3  502    0  0.46818963713E+03 -0.38222538394E+03  0.78447399205E+03  0.99030158269E+03  0.50400001928E-02 0.  1.
       -1    1    3    3    0  502 -0.46818963713E+03  0.38222538394E+03  0.12884349489E+03  0.61797930924E+03  0.50400001928E-02 0. -1.
</event>
<event>
 5   0  0.1238683E-03  0.1417450E+04  0.7818609E-02  0.8941284E-01
        1   -1    0    0  501    0  0.00000000000E+00  0.00000000000E+00  0.44513714041E+03  0.44513714044E+03  0.50400001928E-02 0.  1.
       -1   -1    0    0    0  501  0.00000000000E+00  0.00000000000E+00 -0.11283957966E+04  0.11283957967E+04  0.50400001928E-02 0. -1.
    10030    2    1    2    0    0  0.00000000000E+00  0.00000000000E+00 -0.68325865624E+03  0.15735329371E+04  0.14174496509E+04 0.  0.
        2    1    3    3  502    0 -0.19225612096E+03 -0.68097863224E+03 -0.29727240205E+03  0.76750582710E+03  0.25500000920E-02 0. -1.
       -2    1    3    3    0  502  0.19225612096E+03  0.68097863224E+03 -0.38598625419E+03  0.80602710999E+03  0.25500000920E-02 0.  1.
</event>
<event>
 5   0  0.2190704E-03  0.1384576E+04  0.7818609E-02  0.8965060E-01
       -2   -1    0    0    0  501  0.00000000000E+00  0.00000000000E+00  0.35881132616E+03  0.35881132617E+03  0.25500000920E-02 0.  1.
        2   -1    0    0  501    0  0.00000000000E+00  0.00000000000E+00 -0.13356948822E+04  0.13356948822E+04  0.25500000920E-02 0. -1.
    10030    2    1    2    0    0  0.00000000000E+00  0.00000000000E+00 -0.97688355606E+03  0.16945062084E+04  0.13845756780E+04 0.  0.
        5    1    3    3  502    0  0.59674369704E+03  0.22878155281E+03 -0.16280622327E+03  0.65952406718E+03  0.46999998093E+01 0.  1.
       -5    1    3    3    0  502 -0.59674369704E+03 -0.22878155281E+03 -0.81407733279E+03  0.10349821412E+04  0.46999998093E+01 0. -1.
</event>
<event>
 5   0  0.1175374E-03  0.1388136E+04  0.7818609E-02  0.8962451E-01
       -1   -1    0    0    0  501  0.00000000000E+00  0.00000000000E+00  0.11849066483E+04  0.11849066483E+04  0.50400001928E-02 0. -1.
        1   -1    0    0  501    0  0.00000000000E+00  0.00000000000E+00 -0.40655581976E+03  0.40655581979E+03  0.50400001928E-02 0.  1.
    10030    2    1    2    0    0  0.00000000000E+00  0.00000000000E+00  0.77835082852E+03  0.15914624681E+04  0.13881364396E+04 0.  0.
        3    1    3    3  502    0 -0.67386865300E+03  0.24250068156E+02  0.20063825914E+03  0.70352167595E+03  0.10100000352E+00 0.  1.
       -3    1    3    3    0  502  0.67386865300E+03 -0.24250068156E+02  0.57771256939E+03  0.88794079213E+03  0.10100000352E+00 0. -1.
</event>
<event>
 5   0  0.1175374E-03  0.1413159E+04  0.7818609E-02  0.8944348E-01
       -1   -1    0    0    0  501  0.00000000000E+00  0.00000000000E+00  0.61374143636E+03  0.61374143638E+03  0.50400001928E-02 0. -1.
        1   -1    0    0  501    0  0.00000000000E+00  0.00000000000E+00 -0.81346024668E+03  0.81346024670E+03  0.50400001928E-02 0.  1.
    10030    2    1    2    0    0  0.00000000000E+00  0.00000000000E+00 -0.19971881032E+03  0.14272016831E+04  0.14131585336E+04 0.  0.
        3    1    3    3  502    0  0.45586332093E+03 -0.35755783152E+03  0.30862910769E+03  0.65643804473E+03  0.10100000352E+00 0. -1.
       -3    1    3    3    0  502 -0.45586332093E+03  0.35755783152E+03 -0.50834791801E+03  0.77076363835E+03  0.10100000352E+00 0.  1.
</event>
<event>
 5   0  0.8293000E-04  0.1387223E+04  0.7818609E-02  0.8963120E-01
       -3   -1    0    0    0  501  0.00000000000E+00  0.00000000000E+00  0.86792857350E+03  0.86792857937E+03  0.10100000352E+00 0.  1.
        3   -1    0    0  501    0  0.00000000000E+00  0.00000000000E+00 -0.55430440996E+03  0.55430441916E+03  0.10100000352E+00 0. -1.
    10030    2    1    2    0    0  0.00000000000E+00  0.00000000000E+00  0.31362416354E+03  0.14222329985E+04  0.13872226159E+04 0.  0.
        2    1    3    3  502    0 -0.26074643718E+03  0.30382859552E+03  0.73749513045E+03  0.83916600705E+03  0.25500000920E-02 0.  1.
       -2    1    3    3    0  502  0.26074643718E+03 -0.30382859552E+03 -0.42387096691E+03  0.58306699148E+03  0.25500000920E-02 0. -1.
</event>
<event>
 5   0  0.1210275E-03  0.1399384E+04  0.7818609E-02  0.8954265E-01
       -1   -1    0    0    0  501  0.00000000000E+00  0.00000000000E+00  0.40019304616E+03  0.40019304619E+03  0.50400001928E-02 0.  1.
        1   -1    0    0  501    0  0.00000000000E+00  0.00000000000E+00 -0.12233312211E+04  0.12233312211E+04  0.50400001928E-02 0. -1.
    10030    2    1    2    0    0  0.00000000000E+00  0.00000000000E+00 -0.82313817494E+03  0.16235242673E+04  0.13993836470E+04 0.  0.
        1    1    3    3  502    0  0.61106208929E+03  0.33341286019E+03 -0.32946999694E+03  0.77013731971E+03  0.50400001928E-02 0.  1.
       -1    1    3    3    0  502 -0.61106208929E+03 -0.33341286019E+03 -0.49366817800E+03  0.85338694758E+03  0.50400001928E-02 0. -1.
</event>
<event>
 5   0  0.1238683E-03  0.1305288E+04  0.7818609E-02  0.9025382E-01
       -1   -1    0    0    0  501  0.00000000000E+00  0.00000000000E+00  0.46520527581E+03  0.46520527584E+03  0.50400001928E-02 0.  1.
        1   -1    0    0  501    0  0.00000000000E+00  0.00000000000E+00 -0.91560449172E+03  0.91560449173E+03  0.50400001928E-02 0. -1.
    10030    2    1    2    0    0  0.00000000000E+00  0.00000000000E+00 -0.45039921591E+03  0.13808097676E+04  0.13052877692E+04 0.  0.
        2    1    3    3  502    0  0.52438193456E+03 -0.20424676872E+03 -0.57485486510E+03  0.80445712860E+03  0.25500000920E-02 0. -1.
       -2    1    3    3    0  502 -0.52438193456E+03  0.20424676872E+03  0.12445564919E+03  0.57635263897E+03  0.25500000920E-02 0.  1.
</event>
<event>
 5   0  0.1199720E-03  0.1450151E+04  0.7818609E-02  0.8918296E-01
        1   -1    0    0  501    0  0.00000000000E+00  0.00000000000E+00  0.13185667216E+04  0.13185667216E+04  0.50400001928E-02 0. -1.
       -1   -1    0    0    0  501  0.00000000000E+00  0.00000000000E+00 -0.39871659292E+03  0.39871659295E+03  0.50400001928E-02 0.  1.
    10030    2    1    2    0    0  0.00000000000E+00  0.00000000000E+00  0.91985012869E+03  0.17172833146E+04  0.14501509312E+04 0.  0.
        5    1    3    3  502    0  0.54069919900E+02 -0.43194096396E+03  0.11465788143E+04  0.12264426689E+04  0.46999998093E+01 0. -1.
       -5    1    3    3    0  502 -0.54069919900E+02  0.43194096396E+03 -0.22672868562E+03  0.49084064570E+03  0.46999998093E+01 0.  1.
</event>
<event>
 5   0  0.2190704E-03  0.1373026E+04  0.7818609E-02  0.8973579E-01
        2   -1    0    0  501    0  0.00000000000E+00  0.00000000000E+00  0.64353267804E+03  0.64353267805E+03  0.25500000920E-02 0.  1.
       -2   -1    0    0    0  501  0.00000000000E+00  0.00000000000E+00 -0.73236373472E+03  0.73236373473E+03  0.25500000920E-02 0. -1.
    10030    2    1    2    0    0  0.00000000000E+00  0.00000000000E+00 -0.88831056682E+02  0.13758964128E+04  0.13730258490E+04 0.  0.
        5    1    3    3  502    0  0.28079715924E+03 -0.56438048677E+03  0.22800854611E+03  0.67035987766E+03  0.46999998093E+01 0.  1.
       -5    1    3    3    0  502 -0.28079715924E+03  0.56438048677E+03 -0.31683960279E+03  0.70553653511E+03  0.46999998093E+01 0. -1.
</event>
<event>
 5   0  0.1199720E-03  0.1429084E+04  0.7818609E-02  0.8933031E-01
        1   -1    0    0  501    0  0.00000000000E+00  0.00000000000E+00  0.21779871584E+04  0.21779871584E+04  0.50400001928E-02 0.  1.
       -1   -1    0    0    0  501  0.00000000000E+00  0.00000000000E+00 -0.23442294339E+03  0.23442294344E+03  0.50400001928E-02 0. -1.
    10030    2    1    2    0    0  0.00000000000E+00  0.00000000000E+00  0.19435642150E+04  0.24124101018E+04  0.14290838469E+04 0.  0.
        5    1    3    3  502    0 -0.15252125910E+03  0.19110084879E+03  0.21051447876E+04  0.21193015207E+04  0.46999998093E+01 0.  1.
       -5    1    3    3    0  502  0.15252125910E+03 -0.19110084879E+03 -0.16158057261E+03  0.29310858113E+03  0.46999998093E+01 0. -1.
</event>
<event>
 5   0  0.2083966E-03  0.1388289E+04  0.7818609E-02  0.8962339E-01
        2   -1    0    0  501    0  0.00000000000E+00  0.00000000000E+00  0.12074066090E+04  0.12074066090E+04  0.25500000920E-02 0.  1.
       -2   -1    0    0    0  501  0.00000000000E+00  0.00000000000E+00 -0.39906752345E+03  0.39906752346E+03  0.25500000920E-02 0. -1.
    10030    2    1    2    0    0  0.00000000000E+00  0.00000000000E+00  0.80833908555E+03  0.16064741325E+04  0.13882892570E+04 0.  0.
        1    1    3    3  502    0  0.13814457222E+03 -0.43950026313E+03  0.10049939479E+04  0.11055574338E+04  0.50400001928E-02 0.  1.
       -1    1    3    3    0  502 -0.13814457222E+03  0.43950026313E+03 -0.19665486231E+03  0.50091669868E+03  0.50400001928E-02 0. -1.
</event>
<event>
 5   0  0.1210275E-03  0.1243339E+04  0.7818609E-02  0.9075745E-01
        1   -1    0    0  501    0  0.00000000000E+00  0.00000000000E+00  0.37903289414E+03  0.37903289417E+03  0.50400001928E-02 0.  1.
       -1   -1    0    0    0  501  0.00000000000E+00  0.00000000000E+00 -0.10196298265E+04  0.10196298265E+04  0.50400001928E-02 0. -1.
    10030    2    1    2    0    0  0.00000000000E+00  0.00000000000E+00 -0.64059693232E+03  0.13986627206E+04  0.12433394454E+04 0.  0.
        1    1    3    3  502    0 -0.10765886504E+03 -0.47540939727E+03  0.11373679334E+03  0.50054029250E+03  0.50400001928E-02 0.  1.
       -1    1    3    3    0  502  0.10765886504E+03  0.47540939727E+03 -0.75433372566E+03  0.89812242814E+03  0.50400001928E-02 0. -1.
</event>
<event>
 5   0  0.2195980E-03  0.1392367E+04  0.7818609E-02  0.8959363E-01
       -2   -1    0    0    0  501  0.00000000000E+00  0.00000000000E+00  0.40493470306E+03  0.40493470306E+03  0.25500000920E-02 0. -1.
        2   -1    0    0  501    0  0.00000000000E+00  0.00000000000E+00 -0.11969117939E+04  0.11969117939E+04  0.25500000920E-02 0.  1.
    10030    2    1    2    0    0  0.00000000000E+00  0.00000000000E+00 -0.79197709085E+03  0.16018464970E+04  0.13923665061E+04 0.  0.
        4    1    3    3  502    0  0.59049971023E+03 -0.34062592837E+03 -0.55849765878E+03  0.88127020749E+03  0.12699999809E+01 0.  1.
       -4    1    3    3    0  502 -0.59049971023E+03  0.34062592837E+03 -0.23347943207E+03  0.72057628948E+03  0.12699999809E+01 0. -1.
</event>
<event>
 5   0  0.2236184E-03  0.1439705E+04  0.7818609E-02  0.8925569E-01
        2   -1    0    0  501    0  0.00000000000E+00  0.00000000000E+00  0.98348950465E+03  0.98348950465E+03  0.25500000920E-02 0. -1.
       -2   -1    0    0    0  501  0.00000000000E+00  0.00000000000E+00 -0.52688666054E+03  0.52688666054E+03  0.25500000920E-02 0.  1.
    10030    2    1    2    0    0  0.00000000000E+00  0.00000000000E+00  0.45660284411E+03  0.15103761652E+04  0.14397048320E+04 0.  0.
        3    1    3    3  502    0 -0.70840756636E+03 -0.99660200691E+02  0.14428232732E+03  0.72978821302E+03  0.10100000352E+00 0.  1.
       -3    1    3    3    0  502  0.70840756636E+03  0.99660200691E+02  0.31232051680E+03  0.78058795218E+03  0.10100000352E+00 0. -1.
</event>
<event>
 5   0  0.1175374E-03  0.1422019E+04  0.7818609E-02  0.8938032E-01
       -1   -1    0    0    0  501  0.00000000000E+00  0.00000000000E+00  0.37799931964E+03  0.37799931967E+03  0.50400001928E-02 0. -1.
        1   -1    0    0  501    0  0.00000000000E+00  0.00000000000E+00 -0.13373955622E+04  0.13373955622E+04  0.50400001928E-02 0.  1.
    10030    2    1    2    0    0  0.00000000000E+00  0.00000000000E+00 -0.95939624257E+03  0.17153948819E+04  0.14220191456E+04 0.  0.
        3    1    3    3  502    0  0.42242252923E+03  0.32413281010E+03  0.88717740313E+02  0.53979044029E+03  0.10100000352E+00 0. -1.
       -3    1    3    3    0  502 -0.42242252923E+03 -0.32413281010E+03 -0.10481139829E+04  0.11756044416E+04  0.10100000352E+00 0.  1.
</event>
<event>
 5   0  0.1199720E-03  0.1396073E+04  0.7818609E-02  0.8956666E-01
       -1   -1    0    0    0  501  0.00000000000E+00  0.00000000000E+00  0.47581499189E+03  0.47581499192E+03  0.50400001928E-02 0.  1.
        1   -1    0    0  501    0  0.00000000000E+00  0.00000000000E+00 -0.10240430260E+04  0.10240430260E+04  0.50400001928E-02 0. -1.
    10030    2    1    2    0    0  0.00000000000E+00  0.00000000000E+00 -0.54822803408E+03  0.14998580179E+04  0.13960730986E+04 0.  0.
        5    1    3    3  502    0  0.10187172212E+03  0.16942218124E+02  0.46754528984E+03  0.47883773303E+03  0.46999998093E+01 0.  1.
       -5    1    3    3    0  502 -0.10187172212E+03 -0.16942218124E+02 -0.10157733239E+04  0.10210202849E+04  0.46999998093E+01 0. -1.
</event>
<event>
 5   0  0.8293000E-04  0.9291093E+03  0.7818609E-02  0.9389907E-01
        3   -1    0    0  501    0  0.00000000000E+00  0.00000000000E+00  0.16062491045E+04  0.16062491077E+04  0.10100000352E+00 0. -1.
       -3   -1    0    0    0  501  0.00000000000E+00  0.00000000000E+00 -0.13435711676E+03  0.13435715473E+03  0.10100000352E+00 0.  1.
    10030    2    1    2    0    0  0.00000000000E+00  0.00000000000E+00  0.14718919877E+04  0.17406062624E+04  0.92910932465E+03 0.  0.
        4    1    3    3  502    0  0.14261716822E+03 -0.21553384487E+03  0.12762326467E+02  0.25876434227E+03  0.12699999809E+01 0.  1.
       -4    1    3    3    0  502 -0.14261716822E+03  0.21553384487E+03  0.14591296613E+04  0.14818419201E+04  0.12699999809E+01 0. -1.
</event>
<event>
 5   0  0.1238683E-03  0.1417709E+04  0.7818609E-02  0.8941099E-01
       -1   -1    0    0    0  501  0.00000000000E+00  0.00000000000E+00  0.46851422674E+03  0.46851422676E+03  0.50400001928E-02 0. -1.
        1   -1    0    0  501    0  0.00000000000E+00  0.00000000000E+00 -0.10724849828E+04  0.10724849828E+04  0.50400001928E-02 0.  1.
    10030    2    1    2    0    0  0.00000000000E+00  0.00000000000E+00 -0.60397075604E+03  0.15409992096E+04  0.14177086759E+04 0.  0.
        2    1    3    3  502    0  0.60222111127E+03 -0.26809491519E+03 -0.18687019055E+02  0.65946520386E+03  0.25500000920E-02 0. -1.
       -2    1    3    3    0  502 -0.60222111127E+03  0.26809491519E+03 -0.58528373699E+03  0.88153400570E+03  0.25500000920E-02 0.  1.
</event>
<event>
 5   0  0.2236184E-03  0.1418352E+04  0.7818609E-02  0.8940640E-01
       -2   -1    0    0    0  501  0.00000000000E+00  0.00000000000E+00  0.44919737026E+03  0.44919737027E+03  0.25500000920E-02 0. -1.
        2   -1    0    0  501    0  0.00000000000E+00  0.00000000000E+00 -0.11196207035E+04  0.11196207035E+04  0.25500000920E-02 0.  1.
    10030    2    1    2    0    0  0.00000000000E+00  0.00000000000E+00 -0.67042333322E+03  0.15688180737E+04  0.14183521082E+04 0.  0.
        3    1    3    3  502    0  0.42769495414E+03  0.50697570185E+03 -0.61280007885E+03  0.90303448600E+03  0.10100000352E+00 0.  1.
       -3    1    3    3    0  502 -0.42769495414E+03 -0.50697570185E+03 -0.57623254370E+02  0.66578358775E+03  0.10100000352E+00 0. -1.
</event>
<event>
 5   0  0.2172901E-03  0.1443274E+04  0.7818609E-02  0.8923077E-01
        2   -1    0    0  501    0  0.00000000000E+00  0.00000000000E+00  0.93482473702E+03  0.93482473702E+03  0.25500000920E-02 0. -1.
       -2   -1    0    0    0  501  0.00000000000E+00  0.00000000000E+00 -0.55706690953E+03  0.55706690954E+03  0.25500000920E-02 0.  1.
    10030    2    1    2    0    0  0.00000000000E+00  0.00000000000E+00  0.37775782749E+03  0.14918916466E+04  0.14432739549E+04 0.  0.
        2    1    3    3  502    0  0.14626450686E+03 -0.21795463351E+03 -0.50597196265E+03  0.57000452211E+03  0.25500000920E-02 0.  1.
       -2    1    3    3    0  502 -0.14626450686E+03  0.21795463351E+03  0.88372979014E+03  0.92188712444E+03  0.25500000920E-02 0. -1.
</event>
<event>
 5   0  0.2236184E-03  0.1269873E+04  0.7818609E-02  0.9053803E-01
        2   -1    0    0  501    0  0.00000000000E+00  0.00000000000E+00  0.54622279353E+03  0.54622279354E+03  0.25500000920E-02 0.  1.
       -2   -1    0    0    0  501  0.00000000000E+00  0.00000000000E+00 -0.73805850730E+03  0.73805850730E+03  0.25500000920E-02 0. -1.
    10030    2    1    2    0    0  0.00000000000E+00  0.00000000000E+00 -0.19183571377E+03  0.12842813008E+04  0.12698730325E+04 0.  0.
        3    1    3    3  502    0  0.11815803380E+03  0.34655839182E+03 -0.62053301432E+03  0.72050348504E+03  0.10100000352E+00 0. -1.
       -3    1    3    3    0  502 -0.11815803380E+03 -0.34655839182E+03  0.42869730055E+03  0.56377781580E+03  0.10100000352E+00 0.  1.
</event>
<event>
 5   0  0.2172901E-03  0.1379661E+04  0.7818609E-02  0.8968674E-01
        2   -1    0    0  501    0  0.00000000000E+00  0.00000000000E+00  0.23269538886E+04  0.23269538886E+04  0.25500000920E-02 0. -1.
       -2   -1    0    0    0  501  0.00000000000E+00  0.00000000000E+00 -0.20450180122E+03  0.20450180124E+03  0.25500000920E-02 0.  1.
    10030    2    1    2    0    0  0.00000000000E+00  0.00000000000E+00  0.21224520874E+04  0.25314556898E+04  0.13796612071E+04 0.  0.
        2    1    3    3  502    0 -0.22069575175E+03  0.62333128723E+03  0.14217975280E+04  0.15680423206E+04  0.25500000920E-02 0. -1.
       -2    1    3    3    0  502  0.22069575175E+03 -0.62333128723E+03  0.70065455934E+03  0.96341336923E+03  0.25500000920E-02 0.  1.
</event>
<event>
 5   0  0.2236184E-03  0.1295431E+04  0.7818609E-02  0.9033196E-01
        2   -1    0    0  501    0  0.00000000000E+00  0.00000000000E+00  0.43545406778E+03  0.43545406778E+03  0.25500000920E-02 0. -1.
       -2   -1    0    0    0  501  0.00000000000E+00  0.00000000000E+00 -0.96344403486E+03  0.96344403487E+03  0.25500000920E-02 0.  1.
    10030    2    1    2    0    0  0.00000000000E+00  0.00000000000E+00 -0.52798996709E+03  0.13988981026E+04  0.12954313939E+04 0.  0.
        3    1    3    3  502    0 -0.31043352923E+03 -0.55429001279E+03 -0.40028652769E+03  0.75088994453E+03  0.10100000352E+00 0.  1.
       -3    1    3    3    0  502  0.31043352923E+03  0.55429001279E+03 -0.12770343940E+03  0.64800815812E+03  0.10100000352E+00 0. -1.
</event>
<event>
 5   0  0.2190704E-03  0.1406399E+04  0.7818609E-02  0.8949200E-01
        2   -1    0    0  501    0  0.00000000000E+00  0.00000000000E+00  0.16226806750E+04  0.16226806750E+04  0.25500000920E-02 0. -1.
       -2   -1    0    0    0  501  0.00000000000E+00  0.00000000000E+00 -0.30473623594E+03  0.30473623595E+03  0.25500000920E-02 0.  1.
    10030    2    1    2    0    0  0.00000000000E+00  0.00000000000E+00  0.13179444391E+04  0.19274169110E+04  0.14063990914E+04 0.  0.
        5    1    3    3  502    0  0.28818145901E+03  0.49784520264E+03  0.10470686132E+03  0.58470848798E+03  0.46999998093E+01 0.  1.
       -5    1    3    3    0  502 -0.28818145901E+03 -0.49784520264E+03  0.12132375777E+04  0.13427084230E+04  0.46999998093E+01 0. -1.
</event>
<event>
 5   0  0.2195980E-03  0.1395903E+04  0.7818609E-02  0.8956790E-01
        2   -1    0    0  501    0  0.00000000000E+00  0.00000000000E+00  0.95333131541E+03  0.95333131542E+03  0.25500000920E-02 0.  1.
       -2   -1    0    0    0  501  0.00000000000E+00  0.00000000000E+00 -0.51098321519E+03  0.51098321519E+03  0.25500000920E-02 0. -1.
    10030    2    1    2    0    0  0.00000000000E+00  0.00000000000E+00  0.44234810023E+03  0.14643145306E+04  0.13959030062E+04 0.  0.
        4    1    3    3  502    0 -0.26814111379E+03 -0.93129581195E+02 -0.44769711571E+03  0.53010102444E+03  0.12699999809E+01 0. -1.
       -4    1    3    3    0  502  0.26814111379E+03  0.93129581195E+02  0.89004521594E+03  0.93421350617E+03  0.12699999809E+01 0.  1.
</event>
<event>
 5   0  0.2195980E-03  0.1402871E+04  0.7818609E-02  0.8951743E-01
        2   -1    0    0  501    0  0.00000000000E+00  0.00000000000E+00  0.58771366798E+03  0.58771366798E+03  0.25500000920E-02 0.  1.
       -2   -1    0    0    0  501  0.00000000000E+00  0.00000000000E+00 -0.83716275952E+03  0.83716275952E+03  0.25500000920E-02 0. -1.
    10030    2    1    2    0    0  0.00000000000E+00  0.00000000000E+00 -0.24944909154E+03  0.14248764275E+04  0.14028713356E+04 0.  0.
        4    1    3    3  502    0 -0.45937807023E+03  0.20889645202E+03 -0.61954642604E+03  0.79906528268E+03  0.12699999809E+01 0. -1.
       -4    1    3    3    0  502  0.45937807023E+03 -0.20889645202E+03  0.37009733450E+03  0.62581114482E+03  0.12699999809E+01 0.  1.
</event>
<event>
 5   0  0.1210275E-03  0.1393253E+04  0.7818609E-02  0.8958717E-01
       -1   -1    0    0    0  501  0.00000000000E+00  0.00000000000E+00  0.71759068021E+03  0.71759068023E+03  0.50400001928E-02 0.  1.
        1   -1    0    0  501    0  0.00000000000E+00  0.00000000000E+00 -0.67627454133E+03  0.67627454135E+03  0.50400001928E-02 0. -1.
    10030    2    1    2    0    0  0.00000000000E+00  0.00000000000E+00  0.41316138873E+02  0.13938652216E+04  0.13932527526E+04 0.  0.
        1    1    3    3  502    0 -0.13546226588E+03 -0.68317522575E+03  0.61639965675E+01  0.69650298595E+03  0.50400001928E-02 0. -1.
       -1    1    3    3    0  502  0.13546226588E+03  0.68317522575E+03  0.35152142306E+02  0.69736223563E+03  0.50400001928E-02 0.  1.
</event>
<event>
 5   0  0.2172901E-03  0.1397975E+04  0.7818609E-02  0.8955285E-01
       -2   -1    0    0    0  501  0.00000000000E+00  0.00000000000E+00  0.12240746365E+04  0.12240746365E+04  0.25500000920E-02 0.  1.
        2   -1    0    0  501    0  0.00000000000E+00  0.00000000000E+00 -0.39914539005E+03  0.39914539006E+03  0.25500000920E-02 0. -1.
    10030    2    1    2    0    0  0.00000000000E+00  0.00000000000E+00  0.82492924646E+03  0.16232200266E+04  0.13979753192E+04 0.  0.
        2    1    3    3  502    0  0.33724762246E+03 -0.18581357703E+03 -0.26489971578E+03  0.46736977191E+03  0.25500000920E-02 0. -1.
       -2    1    3    3    0  502 -0.33724762246E+03  0.18581357703E+03  0.10898289622E+04  0.11558502547E+04  0.25500000920E-02 0.  1.
</event>
<event>
 5   0  0.1199720E-03  0.1402562E+04  0.7818609E-02  0.8951966E-01
       -1   -1    0    0    0  501  0.00000000000E+00  0.00000000000E+00  0.12403130627E+04  0.12403130627E+04  0.50400001928E-02 0.  1.
        1   -1    0    0  501    0  0.00000000000E+00  0.00000000000E+00 -0.39650867751E+03  0.39650867754E+03  0.50400001928E-02 0. -1.
    10030    2    1    2    0    0  0.00000000000E+00  0.00000000000E+00  0.84380438522E+03  0.16368217403E+04  0.14025617879E+04 0.  0.
        5    1    3    3  502    0 -0.14204772874E+03 -0.64114430150E+03  0.70902120765E+03  0.96642471796E+03  0.46999998093E+01 0. -1.
       -5    1    3    3    0  502  0.14204772874E+03  0.64114430150E+03  0.13478317757E+03  0.67039702232E+03  0.46999998093E+01 0.  1.
</event>
<event>
 5   0  0.1225690E-03  0.1379348E+04  0.7818609E-02  0.8968905E-01
       -1   -1    0    0    0  501  0.00000000000E+00  0.00000000000E+00  0.85630989301E+03  0.85630989303E+03  0.50400001928E-02 0. -1.
        1   -1    0    0  501    0  0.00000000000E+00  0.00000000000E+00 -0.55546485729E+03  0.55546485731E+03  0.50400001928E-02 0.  1.
    10030    2    1    2    0    0  0.00000000000E+00  0.00000000000E+00  0.30084503573E+03  0.14117747503E+04  0.13793477481E+04 0.  0.
        4    1    3    3  502    0  0.28245109927E+03 -0.35639783922E+03 -0.38027490740E+03  0.59279731896E+03  0.12699999809E+01 0.  1.
       -4    1    3    3    0  502 -0.28245109927E+03  0.35639783922E+03  0.68111994312E+03  0.81897743137E+03  0.12699999809E+01 0. -1.
</event>
<event>
 5   0  0.1199720E-03  0.1392117E+04  0.7818609E-02  0.8959545E-01
       -1   -1    0    0    0  501  0.00000000000E+00  0.00000000000E+00  0.22678948791E+03  0.22678948796E+03  0.50400001928E-02 0.  1.
        1   -1    0    0  501    0  0.00000000000E+00  0.00000000000E+00 -0.21363297213E+04  0.21363297213E+04  0.50400001928E-02 0. -1.
    10030    2    1    2    0    0  0.00000000000E+00  0.00000000000E+00 -0.19095402333E+04  0.23631192092E+04  0.13921165520E+04 0.  0.
        5    1    3    3  502    0  0.27522582038E+03 -0.33645382996E+03 -0.31971672525E+02  0.43588382597E+03  0.46999998093E+01 0.  1.
       -5    1    3    3    0  502 -0.27522582038E+03  0.33645382996E+03 -0.18775685608E+04  0.19272353833E+04  0.46999998093E+01 0. -1.
</event>
<event>
 5   0  0.2083966E-03  0.1383732E+04  0.7818609E-02  0.8965679E-01
        2   -1    0    0  501    0  0.00000000000E+00  0.00000000000E+00  0.54758019949E+03  0.54758019949E+03  0.25500000920E-02 0.  1.
       -2   -1    0    0    0  501  0.00000000000E+00  0.00000000000E+00 -0.87417131340E+03  0.87417131340E+03  0.25500000920E-02 0. -1.
    10030    2    1    2    0    0  0.00000000000E+00  0.00000000000E+00 -0.32659111391E+03  0.14217515129E+04  0.13837324918E+04 0.  0.
        1    1    3    3  502    0 -0.49862442991E+03 -0.11226008851E+03 -0.64242352045E+03  0.82093643434E+03  0.50400001928E-02 0. -1.
       -1    1    3    3    0  502  0.49862442991E+03  0.11226008851E+03  0.31583240654E+03  0.60081507856E+03  0.50400001928E-02 0.  1.
</event>
<event>
 5   0  0.2236184E-03  0.1372363E+04  0.7818609E-02  0.8974070E-01
        2   -1    0    0  501    0  0.00000000000E+00  0.00000000000E+00  0.65494438203E+03  0.65494438204E+03  0.25500000920E-02 0.  1.
       -2   -1    0    0    0  501  0.00000000000E+00  0.00000000000E+00 -0.71890890002E+03  0.71890890002E+03  0.25500000920E-02 0. -1.
    10030    2    1    2    0    0  0.00000000000E+00  0.00000000000E+00 -0.63964517985E+02  0.13738532821E+04  0.13723634289E+04 0.  0.
        3    1    3    3  502    0  0.20176451222E+03 -0.45005648050E+02 -0.68699442444E+03  0.71742301061E+03  0.10100000352E+00 0. -1.
       -3    1    3    3    0  502 -0.20176451222E+03  0.45005648050E+02  0.62302990645E+03  0.65643027145E+03  0.10100000352E+00 0.  1.
</event>
<event>
 5   0  0.2190704E-03  0.1325718E+04  0.7818609E-02  0.9009415E-01
        2   -1    0    0  501    0  0.00000000000E+00  0.00000000000E+00  0.19443943950E+04  0.19443943950E+04  0.25500000920E-02 0. -1.
       -2   -1    0    0    0  501  0.00000000000E+00  0.00000000000E+00 -0.22597385776E+03  0.22597385777E+03  0.25500000920E-02 0.  1.
    10030    2    1    2    0    0  0.00000000000E+00  0.00000000000E+00  0.17184205372E+04  0.21703682527E+04  0.13257183750E+04 0.  0.
        5    1    3    3  502    0  0.25297241332E+03  0.30576998058E+02  0.18609792901E+04  0.18783492761E+04  0.46999998093E+01 0. -1.
       -5    1    3    3    0  502 -0.25297241332E+03 -0.30576998058E+02 -0.14255875289E+03  0.29201897667E+03  0.46999998093E+01 0.  1.
</event>
<event>
 5   0  0.1199720E-03  0.1382902E+04  0.7818609E-02  0.8966289E-01
        1   -1    0    0  501    0  0.00000000000E+00  0.00000000000E+00  0.20872636589E+04  0.20872636589E+04  0.50400001928E-02 0.  1.
       -1   -1    0    0    0  501  0.00000000000E+00  0.00000000000E+00 -0.22905803248E+03  0.22905803253E+03  0.50400001928E-02 0. -1.
    10030    2    1    2    0    0  0.00000000000E+00  0.00000000000E+00  0.18582056265E+04  0.23163216915E+04  0.13829020313E+04 0.  0.
        5    1    3    3  502    0  0.22086465126E+03 -0.44092517419E+03  0.11732678355E+03  0.50693576274E+03  0.46999998093E+01 0. -1.
       -5    1    3    3    0  502 -0.22086465126E+03  0.44092517419E+03  0.17408788429E+04  0.18093859287E+04  0.46999998093E+01 0.  1.
</event>
<event>
 5   0  0.2236184E-03  0.9438484E+03  0.7818609E-02  0.9372370E-01
        2   -1    0    0  501    0  0.00000000000E+00  0.00000000000E+00  0.88527295170E+03  0.88527295170E+03  0.25500000920E-02 0.  1.
       -2   -1    0    0    0  501  0.00000000000E+00  0.00000000000E+00 -0.25157487708E+03  0.25157487709E+03  0.25500000920E-02 0. -1.
    10030    2    1    2    0    0  0.00000000000E+00  0.00000000000E+00  0.63369807462E+03  0.11368478288E+04  0.94384836497E+03 0.  0.
        3    1    3    3  502    0  0.58914030116E+02 -0.19089730543E+03  0.83182616759E+03  0.85548081653E+03  0.10100000352E+00 0.  1.
       -3    1    3    3    0  502 -0.58914030116E+02  0.19089730543E+03 -0.19812809297E+03  0.28136701227E+03  0.10100000352E+00 0. -1.
</event>
<event>
 5   0  0.2195980E-03  0.1467027E+04  0.7818609E-02  0.8906681E-01
       -2   -1    0    0    0  501  0.00000000000E+00  0.00000000000E+00  0.72464978503E+03  0.72464978504E+03  0.25500000920E-02 0. -1.
        2   -1    0    0  501    0  0.00000000000E+00  0.00000000000E+00 -0.74248551882E+03  0.74248551883E+03  0.25500000920E-02 0.  1.
    10030    2    1    2    0    0  0.00000000000E+00  0.00000000000E+00 -0.17835733791E+02  0.14671353039E+04  0.14670268867E+04 0.  0.
        4    1    3    3  502    0 -0.19234673577E+03  0.55089556308E+03 -0.45342475277E+03  0.73897145243E+03  0.12699999809E+01 0.  1.
       -4    1    3    3    0  502  0.19234673577E+03 -0.55089556308E+03  0.43558901898E+03  0.72816385143E+03  0.12699999809E+01 0. -1.
</event>
<event>
 5   0  0.2190704E-03  0.1391252E+04  0.7818609E-02  0.8960175E-01
        2   -1    0    0  501    0  0.00000000000E+00  0.00000000000E+00  0.32586210169E+03  0.32586210170E+03  0.25500000920E-02 0.  1.
       -2   -1    0    0    0  501  0.00000000000E+00  0.00000000000E+00 -0.14849700745E+04  0.14849700745E+04  0.25500000920E-02 0. -1.
    10030    2    1    2    0    0  0.00000000000E+00  0.00000000000E+00 -0.11591079728E+04  0.18108321762E+04  0.13912519102E+04 0.  0.
        5    1    3    3  502    0  0.33428667139E+03  0.24337756974E+02 -0.13729160019E+04  0.14132446155E+04  0.46999998093E+01 0. -1.
       -5    1    3    3    0  502 -0.33428667139E+03 -0.24337756974E+02  0.21380802910E+03  0.39758756066E+03  0.46999998093E+01 0.  1.
</event>
<event>
 5   0  0.1199720E-03  0.1405105E+04  0.7818609E-02  0.8950132E-01
        1   -1    0    0  501    0  0.00000000000E+00  0.00000000000E+00  0.14274437426E+04  0.14274437426E+04  0.50400001928E-02 0.  1.
       -1   -1    0    0    0  501  0.00000000000E+00  0.00000000000E+00 -0.34577882047E+03  0.34577882051E+03  0.50400001928E-02 0. -1.
    10030    2    1    2    0    0  0.00000000000E+00  0.00000000000E+00  0.10816649222E+04  0.17732225632E+04  0.14051047130E+04 0.  0.
        5    1    3    3  502    0  0.13298030147E+03  0.53504573490E+03  0.10903401239E+04  0.12218106952E+04  0.46999998093E+01 0.  1.
       -5    1    3    3    0  502 -0.13298030147E+03 -0.53504573490E+03 -0.86752017604E+01  0.55141186797E+03  0.46999998093E+01 0. -1.
</event>
<event>
 5   0  0.2236184E-03  0.1379524E+04  0.7818609E-02  0.8968775E-01
       -2   -1    0    0    0  501  0.00000000000E+00  0.00000000000E+00  0.28859565377E+03  0.28859565378E+03  0.25500000920E-02 0. -1.
        2   -1    0    0  501    0  0.00000000000E+00  0.00000000000E+00 -0.16485758530E+04  0.16485758530E+04  0.25500000920E-02 0.  1.
    10030    2    1    2    0    0  0.00000000000E+00  0.00000000000E+00 -0.13599801993E+04  0.19371715068E+04  0.13795243037E+04 0.  0.
        3    1    3    3  502    0 -0.49720449310E+02 -0.23423809590E+03  0.22835581901E+03  0.33088668594E+03  0.10100000352E+00 0. -1.
       -3    1    3    3    0  502  0.49720449310E+02  0.23423809590E+03 -0.15883360183E+04  0.16062848209E+04  0.10100000352E+00 0.  1.
</event>
<event>
 5   0  0.2083966E-03  0.1397649E+04  0.7818609E-02  0.8955522E-01
        2   -1    0    0  501    0  0.00000000000E+00  0.00000000000E+00  0.81109716206E+03  0.81109716206E+03  0.25500000920E-02 0.  1.
       -2   -1    0    0    0  501  0.00000000000E+00  0.00000000000E+00 -0.60209238719E+03  0.60209238719E+03  0.25500000920E-02 0. -1.
    10030    2    1    2    0    0  0.00000000000E+00  0.00000000000E+00  0.20900477487E+03  0.14131895493E+04  0.13976486347E+04 0.  0.
        1    1    3    3  502    0  0.34935364236E+03 -0.53524322152E+03  0.39017205609E+03  0.74884411394E+03  0.50400001928E-02 0.  1.
       -1    1    3    3    0  502 -0.34935364236E+03  0.53524322152E+03 -0.18116728122E+03  0.66434543531E+03  0.50400001928E-02 0. -1.
</event>
<event>
 5   0  0.2195980E-03  0.1334423E+04  0.7818609E-02  0.9002704E-01
        2   -1    0    0  501    0  0.00000000000E+00  0.00000000000E+00  0.37250006294E+03  0.37250006295E+03  0.25500000920E-02 0. -1.
       -2   -1    0    0    0  501  0.00000000000E+00  0.00000000000E+00 -0.11950900837E+04  0.11950900837E+04  0.25500000920E-02 0.  1.
    10030    2    1    2    0    0  0.00000000000E+00  0.00000000000E+00 -0.82259002079E+03  0.15675901467E+04  0.13344229186E+04 0.  0.
        4    1    3    3  502    0 -0.65562457267E+03  0.28888964822E+02 -0.26988059114E+03  0.70958811923E+03  0.12699999809E+01 0. -1.
       -4    1    3    3    0  502  0.65562457267E+03 -0.28888964822E+02 -0.55270942965E+03  0.85800202745E+03  0.12699999809E+01 0.  1.
</event>
<event>
 5   0  0.2083966E-03  0.1293051E+04  0.7818609E-02  0.9035094E-01
        2   -1    0    0  501    0  0.00000000000E+00  0.00000000000E+00  0.19291512813E+04  0.19291512813E+04  0.25500000920E-02 0. -1.
       -2   -1    0    0    0  501  0.00000000000E+00  0.00000000000E+00 -0.21667324492E+03  0.21667324494E+03  0.25500000920E-02 0.  1.
    10030    2    1    2    0    0  0.00000000000E+00  0.00000000000E+00  0.17124780364E+04  0.21458245263E+04  0.12930513804E+04 0.  0.
        1    1    3    3  502    0  0.23979667192E+03 -0.57321833413E+03  0.11526999356E+04  0.13095032814E+04  0.50400001928E-02 0. -1.
       -1    1    3    3    0  502 -0.23979667192E+03  0.57321833413E+03  0.55977810083E+03  0.83632124488E+03  0.50400001928E-02 0.  1.
</event>
<event>
 5   0  0.2236184E-03  0.1455096E+04  0.7818609E-02  0.8914875E-01
       -2   -1    0    0    0  501  0.00000000000E+00  0.00000000000E+00  0.48807733971E+03  0.48807733971E+03  0.25500000920E-02 0. -1.
        2   -1    0    0  501    0  0.00000000000E+00  0.00000000000E+00 -0.10845132201E+04  0.10845132201E+04  0.25500000920E-02 0.  1.
    10030    2    1    2    0    0  0.00000000000E+00  0.00000000000E+00 -0.59643588044E+03  0.15725905599E+04  0.14550963231E+04 0.  0.
        3    1    3    3  502    0 -0.19011853039E+02  0.68526472091E+03 -0.56156805866E+03  0.88617598872E+03  0.10100000352E+00 0.  1.
       -3    1    3    3    0  502  0.19011853039E+02 -0.68526472091E+03 -0.34867821774E+02  0.68641457114E+03  0.10100000352E+00 0. -1.
</event>
<event>
 5   0  0.2172901E-03  0.1459843E+04  0.7818609E-02  0.8911605E-01
        2   -1    0    0  501    0  0.00000000000E+00  0.00000000000E+00  0.59944164691E+03  0.59944164691E+03  0.25500000920E-02 0. -1.
       -2   -1    0    0    0  501  0.00000000000E+00  0.00000000000E+00 -0.88880218970E+03  0.88880218970E+03  0.25500000920E-02 0.  1.
    10030    2    1    2    0    0  0.00000000000E+00  0.00000000000E+00 -0.28936054279E+03  0.14882438366E+04  0.14598425235E+04 0.  0.
        2    1    3    3  502    0 -0.10173982513E+03  0.37525808278E+03 -0.77444893144E+03  0.86656838630E+03  0.25500000920E-02 0.  1.
       -2    1    3    3    0  502  0.10173982513E+03 -0.37525808278E+03  0.48508838865E+03  0.62167545031E+03  0.25500000920E-02 0. -1.
</event>
<event>
 5   0  0.2083966E-03  0.1402785E+04  0.7818609E-02  0.8951805E-01
        2   -1    0    0  501    0  0.00000000000E+00  0.00000000000E+00  0.22088238925E+04  0.22088238925E+04  0.25500000920E-02 0. -1.
       -2   -1    0    0    0  501  0.00000000000E+00  0.00000000000E+00 -0.22272089288E+03  0.22272089289E+03  0.25500000920E-02 0.  1.
    10030    2    1    2    0    0  0.00000000000E+00  0.00000000000E+00  0.19861029996E+04  0.24315447854E+04  0.14027847013E+04 0.  0.
        1    1    3    3  502    0 -0.54255699640E+03  0.11404137619E+03  0.17377506647E+04  0.18240479441E+04  0.50400001928E-02 0. -1.
       -1    1    3    3    0  502  0.54255699640E+03 -0.11404137619E+03  0.24835233489E+03  0.60749684122E+03  0.50400001928E-02 0.  1.
</event>
<event>
 5   0  0.2172901E-03  0.1704776E+04  0.7818609E-02  0.8758645E-01
       -2   -1    0    0    0  501  0.00000000000E+00  0.00000000000E+00  0.90475081115E+03  0.90475081115E+03  0.25500000920E-02 0. -1.
        2   -1    0    0  501    0  0.00000000000E+00  0.00000000000E+00 -0.80305593954E+03  0.80305593955E+03  0.25500000920E-02 0.  1.
    10030    2    1    2    0    0  0.00000000000E+00  0.00000000000E+00  0.10169487161E+03  0.17078067507E+04  0.17047762466E+04 0.  0.
        2    1    3    3  502    0  0.46326495265E+03  0.32968772049E+03 -0.58530669779E+03  0.81602226678E+03  0.25500000920E-02 0.  1.
       -2    1    3    3    0  502 -0.46326495265E+03 -0.32968772049E+03  0.68700156940E+03  0.89178448392E+03  0.25500000920E-02 0. -1.
</event>
<event>
 5   0  0.1210275E-03  0.1431052E+04  0.7818609E-02  0.8931643E-01
       -1   -1    0    0    0  501  0.00000000000E+00  0.00000000000E+00  0.69767429463E+03  0.69767429465E+03  0.50400001928E-02 0. -1.
        1   -1    0    0  501    0  0.00000000000E+00  0.00000000000E+00 -0.73383441543E+03  0.73383441545E+03  0.50400001928E-02 0.  1.
    10030    2    1    2    0    0  0.00000000000E+00  0.00000000000E+00 -0.36160120804E+02  0.14315087101E+04  0.14310519322E+04 0.  0.
        1    1    3    3  502    0  0.53158084942E+03  0.29433202376E+03 -0.39604702095E+03  0.72530185613E+03  0.50400001928E-02 0.  1.
       -1    1    3    3    0  502 -0.53158084942E+03 -0.29433202376E+03  0.35988690014E+03  0.70620685397E+03  0.50400001928E-02 0. -1.
</event>
<event>
 5   0  0.1238683E-03  0.1395852E+04  0.7818609E-02  0.8956827E-01
        1   -1    0    0  501    0  0.00000000000E+00  0.00000000000E+00  0.61934569657E+03  0.61934569659E+03  0.50400001928E-02 0. -1.
       -1   -1    0    0    0  501  0.00000000000E+00  0.00000000000E+00 -0.78647614984E+03  0.78647614986E+03  0.50400001928E-02 0.  1.
    10030    2    1    2    0    0  0.00000000000E+00  0.00000000000E+00 -0.16713045328E+03  0.14058218464E+04  0.13958518817E+04 0.  0.
        2    1    3    3  502    0  0.35307082333E+03  0.50035608519E+03  0.25361762231E+03  0.66282510259E+03  0.25500000920E-02 0. -1.
       -2    1    3    3    0  502 -0.35307082333E+03 -0.50035608519E+03 -0.42074807559E+03  0.74299674386E+03  0.25500000920E-02 0.  1.
</event>
<event>
 5   0  0.1225690E-03  0.1422654E+04  0.7818609E-02  0.8937582E-01
       -1   -1    0    0    0  501  0.00000000000E+00  0.00000000000E+00  0.18954171549E+03  0.18954171556E+03  0.50400001928E-02 0. -1.
        1   -1    0    0  501    0  0.00000000000E+00  0.00000000000E+00 -0.26695232902E+04  0.26695232902E+04  0.50400001928E-02 0.  1.
    10030    2    1    2    0    0  0.00000000000E+00  0.00000000000E+00 -0.24799815747E+04  0.28590650057E+04  0.14226538919E+04 0.  0.
        4    1    3    3  502    0 -0.25960633828E+03  0.32866710575E+03 -0.23954495543E+04  0.24317889911E+04  0.12699999809E+01 0.  1.
       -4    1    3    3    0  502  0.25960633828E+03 -0.32866710575E+03 -0.84532020374E+02  0.42727601460E+03  0.12699999809E+01 0. -1.
</event>
<event>
 5   0  0.1199720E-03  0.1376478E+04  0.7818609E-02  0.8971023E-01
       -1   -1    0    0    0  501  0.00000000000E+00  0.00000000000E+00  0.35332142208E+03  0.35332142212E+03  0.50400001928E-02 0. -1.
        1   -1    0    0  501    0  0.00000000000E+00  0.00000000000E+00 -0.13406289194E+04  0.13406289194E+04  0.50400001928E-02 0.  1.
    10030    2    1    2    0    0  0.00000000000E+00  0.00000000000E+00 -0.98730749730E+03  0.16939503415E+04  0.13764779930E+04 0.  0.
        5    1    3    3  502    0  0.14870921313E+03 -0.14681921077E+03 -0.13006207772E+04  0.13173104444E+04  0.46999998093E+01 0.  1.
       -5    1    3    3    0  502 -0.14870921313E+03  0.14681921077E+03  0.31331327994E+03  0.37663989712E+03  0.46999998093E+01 0. -1.
</event>
<event>
 5   0  0.2236184E-03  0.1446013E+04  0.7818609E-02  0.8921169E-01
        2   -1    0    0  501    0  0.00000000000E+00  0.00000000000E+00  0.18451472893E+04  0.18451472893E+04  0.25500000920E-02 0.  1.
       -2   -1    0    0    0  501  0.00000000000E+00  0.00000000000E+00 -0.28330434881E+03  0.28330434882E+03  0.25500000920E-02 0. -1.
    10030    2    1    2    0    0  0.00000000000E+00  0.00000000000E+00  0.15618429405E+04  0.21284516381E+04  0.14460127956E+04 0.  0.
        3    1    3    3  502    0  0.19633359645E+03 -0.22572424949E+03 -0.18792706235E+03  0.35329153523E+03  0.10100000352E+00 0. -1.
       -3    1    3    3    0  502 -0.19633359645E+03  0.22572424949E+03  0.17497700029E+04  0.17751601029E+04  0.10100000352E+00 0.  1.
</event>
<event>
 5   0  0.8293000E-04  0.1388999E+04  0.7818609E-02  0.8961821E-01
       -3   -1    0    0    0  501  0.00000000000E+00  0.00000000000E+00  0.19117974922E+04  0.19117974949E+04  0.10100000352E+00 0. -1.
        3   -1    0    0  501    0  0.00000000000E+00  0.00000000000E+00 -0.25229096055E+03  0.25229098076E+03  0.10100000352E+00 0.  1.
    10030    2    1    2    0    0  0.00000000000E+00  0.00000000000E+00  0.16595065317E+04  0.21640884757E+04  0.13889985608E+04 0.  0.
        1    1    3    3  502    0 -0.32696142036E+03  0.54532143579E+03  0.39448229628E+03  0.74826166602E+03  0.50400001928E-02 0.  1.
       -1    1    3    3    0  502  0.32696142036E+03 -0.54532143579E+03  0.12650242354E+04  0.14158268096E+04  0.50400001928E-02 0. -1.
</event>
<event>
 5   0  0.2236184E-03  0.1409296E+04  0.7818609E-02  0.8947117E-01
        2   -1    0    0  501    0  0.00000000000E+00  0.00000000000E+00  0.22577580330E+04  0.22577580330E+04  0.25500000920E-02 0. -1.
       -2   -1    0    0    0  501  0.00000000000E+00  0.00000000000E+00 -0.21992132061E+03  0.21992132063E+03  0.25500000920E-02 0.  1.
    10030    2    1    2    0    0  0.00000000000E+00  0.00000000000E+00  0.20378367124E+04  0.24776793536E+04  0.14092964603E+04 0.  0.
        3    1    3    3  502    0 -0.52734025249E+03 -0.15763103087E+03  0.24536815843E+03  0.60261167194E+03  0.10100000352E+00 0.  1.
       -3    1    3    3    0  502  0.52734025249E+03  0.15763103087E+03  0.17924685539E+04  0.18750676817E+04  0.10100000352E+00 0. -1.
</event>
<event>
 5   0  0.1175374E-03  0.1392746E+04  0.7818609E-02  0.8959086E-01
        1   -1    0    0  501    0  0.00000000000E+00  0.00000000000E+00  0.79632292420E+03  0.79632292422E+03  0.50400001928E-02 0.  1.
       -1   -1    0    0    0  501  0.00000000000E+00  0.00000000000E+00 -0.60896857569E+03  0.60896857572E+03  0.50400001928E-02 0. -1.
    10030    2    1    2    0    0  0.00000000000E+00  0.00000000000E+00  0.18735434851E+03  0.14052914999E+04  0.13927464047E+04 0.  0.
        3    1    3    3  502    0 -0.33902048765E+03  0.17130596083E+02  0.70718961488E+03  0.78443961524E+03  0.10100000352E+00 0.  1.
       -3    1    3    3    0  502  0.33902048765E+03 -0.17130596083E+02 -0.51983526637E+03  0.62085188469E+03  0.10100000352E+00 0. -1.
</event>
<event>
 5   0  0.1225690E-03  0.1419797E+04  0.7818609E-02  0.8939612E-01
       -1   -1    0    0    0  501  0.00000000000E+00  0.00000000000E+00  0.52239533422E+03  0.52239533424E+03  0.50400001928E-02 0. -1.
        1   -1    0    0  501    0  0.00000000000E+00  0.00000000000E+00 -0.96470145864E+03  0.96470145866E+03  0.50400001928E-02 0.  1.
    10030    2    1    2    0    0  0.00000000000E+00  0.00000000000E+00 -0.44230612443E+03  0.14870967929E+04  0.14197965219E+04 0.  0.
        4    1    3    3  502    0 -0.54629619389E+03  0.21300242169E+03 -0.64030256936E+03  0.86821573145E+03  0.12699999809E+01 0.  1.
       -4    1    3    3    0  502  0.54629619389E+03 -0.21300242169E+03  0.19799644493E+03  0.61888106145E+03  0.12699999809E+01 0. -1.
</event>
<event>
 5   0  0.1199720E-03  0.1408946E+04  0.7818609E-02  0.8947368E-01
        1   -1    0    0  501    0  0.00000000000E+00  0.00000000000E+00  0.11819285532E+04  0.11819285532E+04  0.50400001928E-02 0. -1.
       -1   -1    0    0    0  501  0.00000000000E+00  0.00000000000E+00 -0.41989179326E+03  0.41989179329E+03  0.50400001928E-02 0.  1.
    10030    2    1    2    0    0  0.00000000000E+00  0.00000000000E+00  0.76203675991E+03  0.16018203465E+04  0.14089458467E+04 0.  0.
        5    1    3    3  502    0  0.47676981907E+03  0.36300527910E+03 -0.40058396485E+02  0.60059059114E+03  0.46999998093E+01 0.  1.
       -5    1    3    3    0  502 -0.47676981907E+03 -0.36300527910E+03  0.80209515639E+03  0.10012297553E+04  0.46999998093E+01 0. -1.
</event>
<event>
 5   0  0.2195980E-03  0.1367330E+04  0.7818609E-02  0.8977812E-01
        2   -1    0    0  501    0  0.00000000000E+00  0.00000000000E+00  0.12769588992E+04  0.12769588992E+04  0.25500000920E-02 0. -1.
       -2   -1    0    0    0  501  0.00000000000E+00  0.00000000000E+00 -0.36602402856E+03  0.36602402856E+03  0.25500000920E-02 0.  1.
    10030    2    1    2    0    0  0.00000000000E+00  0.00000000000E+00  0.91093487069E+03  0.16429829278E+04  0.13673297197E+04 0.  0.
        4    1    3    3  502    0 -0.65614272643E+03 -0.13947638998E+03  0.29687864368E+03  0.73356355061E+03  0.12699999809E+01 0.  1.
       -4    1    3    3    0  502  0.65614272643E+03  0.13947638998E+03  0.61405622701E+03  0.90941937720E+03  0.12699999809E+01 0. -1.
</event>
<event>
 5   0  0.2195980E-03  0.1400108E+04  0.7818609E-02  0.8953740E-01
       -2   -1    0    0    0  501  0.00000000000E+00  0.00000000000E+00  0.10120199623E+04  0.10120199623E+04  0.25500000920E-02 0.  1.
        2   -1    0    0  501    0  0.00000000000E+00  0.00000000000E+00 -0.48425476638E+03  0.48425476639E+03  0.25500000920E-02 0. -1.
    10030    2    1    2    0    0  0.00000000000E+00  0.00000000000E+00  0.52776519592E+03  0.14962747287E+04  0.14001078393E+04 0.  0.
        4    1    3    3  502    0 -0.37598525404E+03  0.56922157684E+03  0.43182527655E+03  0.80737401318E+03  0.12699999809E+01 0.  1.
       -4    1    3    3    0  502  0.37598525404E+03 -0.56922157684E+03  0.95939919365E+02  0.68890071550E+03  0.12699999809E+01 0. -1.
</event>
<event>
 5   0  0.2236184E-03  0.1401825E+04  0.7818609E-02  0.8952499E-01
        2   -1    0    0  501    0  0.00000000000E+00  0.00000000000E+00  0.79576087389E+03  0.79576087389E+03  0.25500000920E-02 0. -1.
       -2   -1    0    0    0  501  0.00000000000E+00  0.00000000000E+00 -0.61736889297E+03  0.61736889298E+03  0.25500000920E-02 0.  1.
    10030    2    1    2    0    0  0.00000000000E+00  0.00000000000E+00  0.17839198092E+03  0.14131297669E+04  0.14018245394E+04 0.  0.
        3    1    3    3  502    0  0.34465332443E+03 -0.60857911886E+03  0.13564952631E+03  0.71242912781E+03  0.10100000352E+00 0.  1.
       -3    1    3    3    0  502 -0.34465332443E+03  0.60857911886E+03  0.42742454610E+02  0.70070063906E+03  0.10100000352E+00 0. -1.
</event>
<event>
 5   0  0.1210275E-03  0.1384557E+04  0.7818609E-02  0.8965073E-01
       -1   -1    0    0    0  501  0.00000000000E+00  0.00000000000E+00  0.94727306185E+03  0.94727306187E+03  0.50400001928E-02 0.  1.
        1   -1    0    0  501    0  0.00000000000E+00  0.00000000000E+00 -0.50592564312E+03  0.50592564314E+03  0.50400001928E-02 0. -1.
    10030    2    1    2    0    0  0.00000000000E+00  0.00000000000E+00  0.44134741874E+03  0.14531987050E+04  0.13845573055E+04 0.  0.
        1    1    3    3  502    0 -0.28545519102E+03 -0.57057625776E+03  0.50271073531E+03  0.81225612673E+03  0.50400001928E-02 0.  1.
       -1    1    3    3    0  502  0.28545519102E+03  0.57057625776E+03 -0.61363316570E+02  0.64094257827E+03  0.50400001928E-02 0. -1.
</event>
<event>
 5   0  0.2195980E-03  0.1400450E+04  0.7818609E-02  0.8953493E-01
        2   -1    0    0  501    0  0.00000000000E+00  0.00000000000E+00  0.57394109848E+03  0.57394109849E+03  0.25500000920E-02 0. -1.
       -2   -1    0    0    0  501  0.00000000000E+00  0.00000000000E+00 -0.85429456782E+03  0.85429456783E+03  0.25500000920E-02 0.  1.
    10030    2    1    2    0    0  0.00000000000E+00  0.00000000000E+00 -0.28035346934E+03  0.14282356663E+04  0.14004495888E+04 0.  0.
        4    1    3    3  502    0  0.35784420304E+03  0.41415508900E+03  0.30522202217E+03  0.62668892372E+03  0.12699999809E+01 0. -1.
       -4    1    3    3    0  502 -0.35784420304E+03 -0.41415508900E+03 -0.58557549152E+03  0.80154674259E+03  0.12699999809E+01 0.  1.
</event>
<event>
 5   0  0.1225690E-03  0.1409584E+04  0.7818609E-02  0.8946910E-01
        1   -1    0    0  501    0  0.00000000000E+00  0.00000000000E+00  0.13083864802E+04  0.13083864802E+04  0.50400001928E-02 0.  1.
       -1   -1    0    0    0  501  0.00000000000E+00  0.00000000000E+00 -0.37965218446E+03  0.37965218450E+03  0.50400001928E-02 0. -1.
    10030    2    1    2    0    0  0.00000000000E+00  0.00000000000E+00  0.92873429569E+03  0.16880386647E+04  0.14095840313E+04 0.  0.
        4    1    3    3  502    0  0.78330933371E+02 -0.68947465355E+03  0.61210319231E+03  0.92530155298E+03  0.12699999809E+01 0.  1.
       -4    1    3    3    0  502 -0.78330933371E+02  0.68947465355E+03  0.31663110338E+03  0.76273711168E+03  0.12699999809E+01 0. -1.
</event>
<event>
 5   0  0.2083966E-03  0.1393148E+04  0.7818609E-02  0.8958793E-01
        2   -1    0    0  501    0  0.00000000000E+00  0.00000000000E+00  0.91228307482E+03  0.91228307482E+03  0.25500000920E-02 0.  1.
       -2   -1    0    0    0  501  0.00000000000E+00  0.00000000000E+00 -0.53186943046E+03  0.53186943047E+03  0.25500000920E-02 0. -1.
    10030    2    1    2    0    0  0.00000000000E+00  0.00000000000E+00  0.38041364435E+03  0.14441525053E+04  0.13931482038E+04 0.  0.
        1    1    3    3  502    0 -0.46759753929E+03 -0.21353415410E+03 -0.29707876001E+03  0.59371717458E+03  0.50400001928E-02 0. -1.
       -1    1    3    3    0  502  0.46759753929E+03  0.21353415410E+03  0.67749240436E+03  0.85043533071E+03  0.50400001928E-02 0.  1.
</event>
<event>
 5   0  0.2190704E-03  0.1415100E+04  0.7818609E-02  0.8942961E-01
       -2   -1    0    0    0  501  0.00000000000E+00  0.00000000000E+00  0.89450102189E+03  0.89450102190E+03  0.25500000920E-02 0. -1.
        2   -1    0    0  501    0  0.00000000000E+00  0.00000000000E+00 -0.55967147526E+03  0.55967147527E+03  0.25500000920E-02 0.  1.
    10030    2    1    2    0    0  0.00000000000E+00  0.00000000000E+00  0.33482954663E+03  0.14541724972E+04  0.14150995817E+04 0.  0.
        5    1    3    3  502    0 -0.12632863859E+03 -0.63519778411E+02 -0.54498823595E+03  0.56305235503E+03  0.46999998093E+01 0.  1.
       -5    1    3    3    0  502  0.12632863859E+03  0.63519778411E+02  0.87981778258E+03  0.89112014214E+03  0.46999998093E+01 0. -1.
</event>
<event>
 5   0  0.1225690E-03  0.1423177E+04  0.7818609E-02  0.8937211E-01
       -1   -1    0    0    0  501  0.00000000000E+00  0.00000000000E+00  0.12393392478E+04  0.12393392478E+04  0.50400001928E-02 0. -1.
        1   -1    0    0  501    0  0.00000000000E+00  0.00000000000E+00 -0.40857111729E+03  0.40857111732E+03  0.50400001928E-02 0.  1.
    10030    2    1    2    0    0  0.00000000000E+00  0.00000000000E+00  0.83076813050E+03  0.16479103651E+04  0.14231770392E+04 0.  0.
        4    1    3    3  502    0  0.48187658139E+02  0.11673901273E+03 -0.39548884706E+03  0.41516633840E+03  0.12699999809E+01 0.  1.
       -4    1    3    3    0  502 -0.48187658139E+02 -0.11673901273E+03  0.12262569776E+04  0.12327440267E+04  0.12699999809E+01 0. -1.
</event>
<event>
 5   0  0.1210275E-03  0.1382056E+04  0.7818609E-02  0.8966911E-01
        1   -1    0    0  501    0  0.00000000000E+00  0.00000000000E+00  0.10938918008E+04  0.10938918008E+04  0.50400001928E-02 0.  1.
       -1   -1    0    0    0  501  0.00000000000E+00  0.00000000000E+00 -0.43653298537E+03  0.43653298540E+03  0.50400001928E-02 0. -1.
    10030    2    1    2    0    0  0.00000000000E+00  0.00000000000E+00  0.65735881540E+03  0.15304247862E+04  0.13820562268E+04 0.  0.
        1    1    3    3  502    0 -0.34573437053E+03 -0.46190547013E+03  0.74981008223E+03  0.94609940161E+03  0.50400001928E-02 0.  1.
       -1    1    3    3    0  502  0.34573437053E+03  0.46190547013E+03 -0.92451266826E+02  0.58432538458E+03  0.50400001928E-02 0. -1.
</event>
<event>
 5   0  0.1225690E-03  0.1401333E+04  0.7818609E-02  0.8952854E-01
        1   -1    0    0  501    0  0.00000000000E+00  0.00000000000E+00  0.68712125424E+03  0.68712125426E+03  0.50400001928E-02 0. -1.
       -1   -1    0    0    0  501  0.00000000000E+00  0.00000000000E+00 -0.71447850214E+03  0.71447850216E+03  0.50400001928E-02 0.  1.
    10030    2    1    2    0    0  0.00000000000E+00  0.00000000000E+00 -0.27357247900E+02  0.14015997564E+04  0.14013327436E+04 0.  0.
        4    1    3    3  502    0  0.44801316639E+02 -0.63978822903E+03 -0.29585933058E+03  0.70630764711E+03  0.12699999809E+01 0.  1.
       -4    1    3    3    0  502 -0.44801316639E+02  0.63978822903E+03  0.26850208268E+03  0.69529210931E+03  0.12699999809E+01 0. -1.
</event>
<event>
 5   0  0.2195980E-03  0.1368584E+04  0.7818609E-02  0.8976879E-01
       -2   -1    0    0    0  501  0.00000000000E+00  0.00000000000E+00  0.11565314136E+04  0.11565314136E+04  0.25500000920E-02 0.  1.
        2   -1    0    0  501    0  0.00000000000E+00  0.00000000000E+00 -0.40487903989E+03  0.40487903990E+03  0.25500000920E-02 0. -1.
    10030    2    1    2    0    0  0.00000000000E+00  0.00000000000E+00  0.75165237375E+03  0.15614104535E+04  0.13685836889E+04 0.  0.
        4    1    3    3  502    0 -0.41243078079E+03  0.25112956408E+03 -0.17734738503E+03  0.51441123119E+03  0.12699999809E+01 0. -1.
       -4    1    3    3    0  502  0.41243078079E+03 -0.25112956408E+03  0.92899975878E+03  0.10469992224E+04  0.12699999809E+01 0.  1.
</event>
<event>
 5   0  0.1210275E-03  0.1381909E+04  0.7818609E-02  0.8967019E-01
       -1   -1    0    0    0  501  0.00000000000E+00  0.00000000000E+00  0.18011565868E+03  0.18011565875E+03  0.50400001928E-02 0.  1.
        1   -1    0    0  501    0  0.00000000000E+00  0.00000000000E+00 -0.26506197890E+04  0.26506197890E+04  0.50400001928E-02 0. -1.
    10030    2    1    2    0    0  0.00000000000E+00  0.00000000000E+00 -0.24705041303E+04  0.28307354477E+04  0.13819090119E+04 0.  0.
        1    1    3    3  502    0 -0.50211677312E+03 -0.27926277425E+03 -0.44904899052E+03  0.72921460959E+03  0.50400001928E-02 0.  1.
       -1    1    3    3    0  502  0.50211677312E+03  0.27926277425E+03 -0.20214551398E+04  0.21015208381E+04  0.50400001928E-02 0. -1.
</event>
<event>
 5   0  0.2083966E-03  0.1402018E+04  0.7818609E-02  0.8952359E-01
        2   -1    0    0  501    0  0.00000000000E+00  0.00000000000E+00  0.14621561853E+04  0.14621561853E+04  0.25500000920E-02 0.  1.
       -2   -1    0    0    0  501  0.00000000000E+00  0.00000000000E+00 -0.33608817739E+03  0.33608817740E+03  0.25500000920E-02 0. -1.
    10030    2    1    2    0    0  0.00000000000E+00  0.00000000000E+00  0.11260680079E+04  0.17982443627E+04  0.14020176994E+04 0.  0.
        1    1    3    3  502    0  0.59210558398E+02 -0.23607157972E+03  0.14062258564E+04  0.14271323835E+04  0.50400001928E-02 0.  1.
       -1    1    3    3    0  502 -0.59210558398E+02  0.23607157972E+03 -0.28015784848E+03  0.37111197915E+03  0.50400001928E-02 0. -1.
</event>
<event>
 5   0  0.8293000E-04  0.1334997E+04  0.7818609E-02  0.9002264E-01
       -3   -1    0    0    0  501  0.00000000000E+00  0.00000000000E+00  0.58552042252E+03  0.58552043123E+03  0.10100000352E+00 0.  1.
        3   -1    0    0  501    0  0.00000000000E+00  0.00000000000E+00 -0.76095404805E+03  0.76095405475E+03  0.10100000352E+00 0. -1.
    10030    2    1    2    0    0  0.00000000000E+00  0.00000000000E+00 -0.17543362553E+03  0.13464744860E+04  0.13349968481E+04 0.  0.
        4    1    3    3  502    0 -0.24216645843E+03 -0.34140348366E+03 -0.61214057399E+03  0.74156498533E+03  0.12699999809E+01 0. -1.
       -4    1    3    3    0  502  0.24216645843E+03  0.34140348366E+03  0.43670694846E+03  0.60490950065E+03  0.12699999809E+01 0.  1.
</event>
<event>
 5   0  0.1199720E-03  0.1408387E+04  0.7818609E-02  0.8947770E-01
       -1   -1    0    0    0  501  0.00000000000E+00  0.00000000000E+00  0.24222596763E+03  0.24222596769E+03  0.50400001928E-02 0. -1.
        1   -1    0    0  501    0  0.00000000000E+00  0.00000000000E+00 -0.20472151540E+04  0.20472151540E+04  0.50400001928E-02 0.  1.
    10030    2    1    2    0    0  0.00000000000E+00  0.00000000000E+00 -0.18049891864E+04  0.22894411217E+04  0.14083872645E+04 0.  0.
        5    1    3    3  502    0 -0.38028872302E+03 -0.29239469874E+03 -0.17404984065E+04  0.18054005001E+04  0.46999998093E+01 0.  1.
       -5    1    3    3    0  502  0.38028872302E+03  0.29239469874E+03 -0.64490779919E+02  0.48404062165E+03  0.46999998093E+01 0. -1.
</event>
<event>
 5   0  0.2236184E-03  0.1407524E+04  0.7818609E-02  0.8948391E-01
       -2   -1    0    0    0  501  0.00000000000E+00  0.00000000000E+00  0.54536551457E+03  0.54536551458E+03  0.25500000920E-02 0.  1.
        2   -1    0    0  501    0  0.00000000000E+00  0.00000000000E+00 -0.90816272139E+03  0.90816272139E+03  0.25500000920E-02 0. -1.
    10030    2    1    2    0    0  0.00000000000E+00  0.00000000000E+00 -0.36279720682E+03  0.14535282360E+04  0.14075235414E+04 0.  0.
        3    1    3    3  502    0  0.41256592173E+02  0.68138507748E+03 -0.35814432578E+03  0.77087943189E+03  0.10100000352E+00 0.  1.
       -3    1    3    3    0  502 -0.41256592173E+02 -0.68138507748E+03 -0.46528810379E+01  0.68264880408E+03  0.10100000352E+00 0. -1.
</event>
<event>
 5   0  0.1210275E-03  0.1365907E+04  0.7818609E-02  0.8978874E-01
        1   -1    0    0  501    0  0.00000000000E+00  0.00000000000E+00  0.95940727940E+03  0.95940727941E+03  0.50400001928E-02 0.  1.
       -1   -1    0    0    0  501  0.00000000000E+00  0.00000000000E+00 -0.48615976316E+03  0.48615976319E+03  0.50400001928E-02 0. -1.
    10030    2    1    2    0    0  0.00000000000E+00  0.00000000000E+00  0.47324751623E+03  0.14455670426E+04  0.13659066085E+04 0.  0.
        1    1    3    3  502    0  0.25311009027E+03  0.31171257023E+03 -0.34804042307E+03  0.53137706043E+03  0.50400001928E-02 0. -1.
       -1    1    3    3    0  502 -0.25311009027E+03 -0.31171257023E+03  0.82128793930E+03  0.91418998217E+03  0.50400001928E-02 0.  1.
</event>
<event>
 5   0  0.1199720E-03  0.1386042E+04  0.7818609E-02  0.8963985E-01
        1   -1    0    0  501    0  0.00000000000E+00  0.00000000000E+00  0.93373880668E+03  0.93373880669E+03  0.50400001928E-02 0. -1.
       -1   -1    0    0    0  501  0.00000000000E+00  0.00000000000E+00 -0.51436005944E+03  0.51436005947E+03  0.50400001928E-02 0.  1.
    10030    2    1    2    0    0  0.00000000000E+00  0.00000000000E+00  0.41937874724E+03  0.14480988662E+04  0.13860417716E+04 0.  0.
        5    1    3    3  502    0  0.53332865398E+02 -0.56440591197E+03 -0.20672495106E+03  0.60345316586E+03  0.46999998093E+01 0.  1.
       -5    1    3    3    0  502 -0.53332865398E+02  0.56440591197E+03  0.62610369830E+03  0.84464570029E+03  0.46999998093E+01 0. -1.
</event>
<event>
 5   0  0.8293000E-04  0.1357262E+04  0.7818609E-02  0.8985349E-01
       -3   -1    0    0    0  501  0.00000000000E+00  0.00000000000E+00  0.57303713228E+03  0.57303714118E+03  0.10100000352E+00 0.  1.
        3   -1    0    0  501    0  0.00000000000E+00  0.00000000000E+00 -0.80368219287E+03  0.80368219922E+03  0.10100000352E+00 0. -1.
    10030    2    1    2    0    0  0.00000000000E+00  0.00000000000E+00 -0.23064506059E+03  0.13767193404E+04  0.13572615806E+04 0.  0.
        3    1    3    3  502    0 -0.17854548056E+03 -0.53948530402E+03 -0.49160819710E+03  0.75139970158E+03  0.10100000352E+00 0. -1.
       -3    1    3    3    0  502  0.17854548056E+03  0.53948530402E+03  0.26096313651E+03  0.62531963882E+03  0.10100000352E+00 0.  1.
</event>
<event>
 5   0  0.2190704E-03  0.1276833E+04  0.7818609E-02  0.9048141E-01
        2   -1    0    0  501    0  0.00000000000E+00  0.00000000000E+00  0.64300314075E+03  0.64300314075E+03  0.25500000920E-02 0. -1.
       -2   -1    0    0    0  501  0.00000000000E+00  0.00000000000E+00 -0.63386254081E+03  0.63386254081E+03  0.25500000920E-02 0.  1.
    10030    2    1    2    0    0  0.00000000000E+00  0.00000000000E+00  0.91405999365E+01  0.12768656816E+04  0.12768329641E+04 0.  0.
        5    1    3    3  502    0 -0.35865125439E+02 -0.56054999905E+03 -0.29883639634E+03  0.63626086665E+03  0.46999998093E+01 0.  1.
       -5    1    3    3    0  502  0.35865125439E+02  0.56054999905E+03  0.30797699627E+03  0.64060481491E+03  0.46999998093E+01 0. -1.
</event>
<event>
 5   0  0.1210275E-03  0.1333372E+04  0.7818609E-02  0.9003512E-01
        1   -1    0    0  501    0  0.00000000000E+00  0.00000000000E+00  0.90950395568E+03  0.90950395569E+03  0.50400001928E-02 0.  1.
       -1   -1    0    0    0  501  0.00000000000E+00  0.00000000000E+00 -0.48869520860E+03  0.48869520862E+03  0.50400001928E-02 0. -1.
    10030    2    1    2    0    0  0.00000000000E+00  0.00000000000E+00  0.42080874708E+03  0.13981991643E+04  0.13333720042E+04 0.  0.
        1    1    3    3  502    0  0.23524652628E+03 -0.51295891677E+03  0.58263079358E+03  0.81112663628E+03  0.50400001928E-02 0.  1.
       -1    1    3    3    0  502 -0.23524652628E+03  0.51295891677E+03 -0.16182204649E+03  0.58707252804E+03  0.50400001928E-02 0. -1.
</event>
<event>
 5   0  0.1199720E-03  0.1389865E+04  0.7818609E-02  0.8961188E-01
        1   -1    0    0  501    0  0.00000000000E+00  0.00000000000E+00  0.81696818008E+03  0.81696818010E+03  0.50400001928E-02 0.  1.
       -1   -1    0    0    0  501  0.00000000000E+00  0.00000000000E+00 -0.59112570678E+03  0.59112570680E+03  0.50400001928E-02 0. -1.
    10030    2    1    2    0    0  0.00000000000E+00  0.00000000000E+00  0.22584247330E+03  0.14080938869E+04  0.13898645875E+04 0.  0.
        5    1    3    3  502    0  0.21327807951E+03 -0.59497241711E+03  0.40555057666E+03  0.75098140892E+03  0.46999998093E+01 0. -1.
       -5    1    3    3    0  502 -0.21327807951E+03  0.59497241711E+03 -0.17970810336E+03  0.65711247799E+03  0.46999998093E+01 0.  1.
</event>
<event>
 5   0  0.1175374E-03  0.1403282E+04  0.7818609E-02  0.8951447E-01
       -1   -1    0    0    0  501  0.00000000000E+00  0.00000000000E+00  0.51938973084E+03  0.51938973086E+03  0.50400001928E-02 0.  1.
        1   -1    0    0  501    0  0.00000000000E+00  0.00000000000E+00 -0.94784268917E+03  0.94784268918E+03  0.50400001928E-02 0. -1.
    10030    2    1    2    0    0  0.00000000000E+00  0.00000000000E+00 -0.42845295833E+03  0.14672324200E+04  0.14032815245E+04 0.  0.
        3    1    3    3  502    0 -0.11791358588E+03 -0.52413775811E+03 -0.68609799786E+03  0.87140947670E+03  0.10100000352E+00 0. -1.
       -3    1    3    3    0  502  0.11791358588E+03  0.52413775811E+03  0.25764503953E+03  0.59582294334E+03  0.10100000352E+00 0.  1.
</event>
<event>
 5   0  0.2195980E-03  0.1456147E+04  0.7818609E-02  0.8914150E-01
        2   -1    0    0  501    0  0.00000000000E+00  0.00000000000E+00  0.98654926304E+03  0.98654926304E+03  0.25500000920E-02 0.  1.
       -2   -1    0    0    0  501  0.00000000000E+00  0.00000000000E+00 -0.53731831161E+03  0.53731831161E+03  0.25500000920E-02 0. -1.
    10030    2    1    2    0    0  0.00000000000E+00  0.00000000000E+00  0.44923095143E+03  0.15238675747E+04  0.14561469491E+04 0.  0.
        4    1    3    3  502    0 -0.62603129954E+03  0.27116887303E+03  0.49068685361E+03  0.84037071992E+03  0.12699999809E+01 0.  1.
       -4    1    3    3    0  502  0.62603129954E+03 -0.27116887303E+03 -0.41455902177E+02  0.68349685473E+03  0.12699999809E+01 0. -1.
</event>
<event>
 5   0  0.1238683E-03  0.8912080E+03  0.7818609E-02  0.9436639E-01
        1   -1    0    0  501    0  0.00000000000E+00  0.00000000000E+00  0.42921766055E+03  0.42921766058E+03  0.50400001928E-02 0.  1.
       -1   -1    0    0    0  501  0.00000000000E+00  0.00000000000E+00 -0.46261591900E+03  0.46261591903E+03  0.50400001928E-02 0. -1.
    10030    2    1    2    0    0  0.00000000000E+00  0.00000000000E+00 -0.33398258453E+02  0.89183357961E+03  0.89120799483E+03 0.  0.
        2    1    3    3  502    0 -0.19662817456E+03 -0.90644761783E+02 -0.40643857389E+03  0.46051213472E+03  0.25500000920E-02 0. -1.
       -2    1    3    3    0  502  0.19662817456E+03  0.90644761783E+02  0.37304031544E+03  0.43132144489E+03  0.25500000920E-02 0.  1.
</event>
<event>
 5   0  0.8293000E-04  0.1390306E+04  0.7818609E-02  0.8960866E-01
       -3   -1    0    0    0  501  0.00000000000E+00  0.00000000000E+00  0.38157361872E+03  0.38157363209E+03  0.10100000352E+00 0. -1.
        3   -1    0    0  501    0  0.00000000000E+00  0.00000000000E+00 -0.12664334917E+04  0.12664334957E+04  0.10100000352E+00 0.  1.
    10030    2    1    2    0    0  0.00000000000E+00  0.00000000000E+00 -0.88485987294E+03  0.16480071278E+04  0.13903059010E+04 0.  0.
        2    1    3    3  502    0 -0.66421878186E+03  0.18328897682E+03 -0.55143231329E+03  0.88252990621E+03  0.25500000920E-02 0.  1.
       -2    1    3    3    0  502  0.66421878186E+03 -0.18328897682E+03 -0.33342755965E+03  0.76547722157E+03  0.25500000920E-02 0. -1.
</event>
<event>
 5   0  0.2083966E-03  0.1378268E+04  0.7818609E-02  0.8969701E-01
        2   -1    0    0  501    0  0.00000000000E+00  0.00000000000E+00  0.93444409707E+03  0.93444409707E+03  0.25500000920E-02 0.  1.
       -2   -1    0    0    0  501  0.00000000000E+00  0.00000000000E+00 -0.50822248968E+03  0.50822248969E+03  0.25500000920E-02 0. -1.
    10030    2    1    2    0    0  0.00000000000E+00  0.00000000000E+00  0.42622160738E+03  0.14426665868E+04  0.13782677613E+04 0.  0.
        1    1    3    3  502    0 -0.39482543720E+03  0.29588514226E+03  0.71670425172E+03  0.87011500834E+03  0.50400001928E-02 0.  1.
       -1    1    3    3    0  502  0.39482543720E+03 -0.29588514226E+03 -0.29048264434E+03  0.57255157842E+03  0.50400001928E-02 0. -1.
</event>
<event>
 5   0  0.2195980E-03  0.1726924E+04  0.7818609E-02  0.8746156E-01
       -2   -1    0    0    0  501  0.00000000000E+00  0.00000000000E+00  0.47849280394E+03  0.47849280395E+03  0.25500000920E-02 0. -1.
        2   -1    0    0  501    0  0.00000000000E+00  0.00000000000E+00 -0.15581567724E+04  0.15581567724E+04  0.25500000920E-02 0.  1.
    10030    2    1    2    0    0  0.00000000000E+00  0.00000000000E+00 -0.10796639685E+04  0.20366495764E+04  0.17269242057E+04 0.  0.
        4    1    3    3  502    0  0.37266071826E+03  0.68146736716E+03 -0.94962751680E+02  0.78249173833E+03  0.12699999809E+01 0. -1.
       -4    1    3    3    0  502 -0.37266071826E+03 -0.68146736716E+03 -0.98470121678E+03  0.12541578380E+04  0.12699999809E+01 0.  1.
</event>
<event>
 5   0  0.2195980E-03  0.1437614E+04  0.7818609E-02  0.8927033E-01
       -2   -1    0    0    0  501  0.00000000000E+00  0.00000000000E+00  0.60972306271E+03  0.60972306272E+03  0.25500000920E-02 0.  1.
        2   -1    0    0  501    0  0.00000000000E+00  0.00000000000E+00 -0.84740669429E+03  0.84740669430E+03  0.25500000920E-02 0. -1.
    10030    2    1    2    0    0  0.00000000000E+00  0.00000000000E+00 -0.23768363158E+03  0.14571297570E+04  0.14376138633E+04 0.  0.
        4    1    3    3  502    0 -0.45728669062E+03 -0.52254405281E+03  0.69471584574E+02  0.69784763273E+03  0.12699999809E+01 0.  1.
       -4    1    3    3    0  502  0.45728669062E+03  0.52254405281E+03 -0.30715521615E+03  0.75928212428E+03  0.12699999809E+01 0. -1.
</event>
<event>
 5   0  0.2172901E-03  0.1399923E+04  0.7818609E-02  0.8953874E-01
       -2   -1    0    0    0  501  0.00000000000E+00  0.00000000000E+00  0.10643525985E+04  0.10643525985E+04  0.25500000920E-02 0. -1.
        2   -1    0    0  501    0  0.00000000000E+00  0.00000000000E+00 -0.46032338406E+03  0.46032338407E+03  0.25500000920E-02 0.  1.
    10030    2    1    2    0    0  0.00000000000E+00  0.00000000000E+00  0.60402921441E+03  0.15246759825E+04  0.13999234122E+04 0.  0.
        2    1    3    3  502    0  0.28138803550E+02  0.15653779437E+03  0.10444120968E+04  0.10564527917E+04  0.25500000920E-02 0. -1.
       -2    1    3    3    0  502 -0.28138803550E+02 -0.15653779437E+03 -0.44038288235E+03  0.46822319080E+03  0.25500000920E-02 0.  1.
</event>
<event>
 5   0  0.2236184E-03  0.1357817E+04  0.7818609E-02  0.8984932E-01
        2   -1    0    0  501    0  0.00000000000E+00  0.00000000000E+00  0.77086216390E+03  0.77086216391E+03  0.25500000920E-02 0. -1.
       -2   -1    0    0    0  501  0.00000000000E+00  0.00000000000E+00 -0.59792326432E+03  0.59792326433E+03  0.25500000920E-02 0.  1.
    10030    2    1    2    0    0  0.00000000000E+00  0.00000000000E+00  0.17293889958E+03  0.13687854282E+04  0.13578165139E+04 0.  0.
        3    1    3    3  502    0  0.24596922244E+03  0.52532051658E+03 -0.26916068593E+03  0.63946070135E+03  0.10100000352E+00 0.  1.
       -3    1    3    3    0  502 -0.24596922244E+03 -0.52532051658E+03  0.44209958551E+03  0.72932472688E+03  0.10100000352E+00 0. -1.
</event>
<event>
 5   0  0.1175374E-03  0.1203442E+04  0.7818609E-02  0.9109849E-01
       -1   -1    0    0    0  501  0.00000000000E+00  0.00000000000E+00  0.53596419469E+03  0.53596419471E+03  0.50400001928E-02 0. -1.
        1   -1    0    0  501    0  0.00000000000E+00  0.00000000000E+00 -0.67554586836E+03  0.67554586837E+03  0.50400001928E-02 0.  1.
    10030    2    1    2    0    0  0.00000000000E+00  0.00000000000E+00 -0.13958167367E+03  0.12115100631E+04  0.12034423914E+04 0.  0.
        3    1    3    3  502    0 -0.11873082622E+03  0.29284948411E+03  0.44570695283E+03  0.54636299969E+03  0.10100000352E+00 0. -1.
       -3    1    3    3    0  502  0.11873082622E+03 -0.29284948411E+03 -0.58528862649E+03  0.66514706339E+03  0.10100000352E+00 0.  1.
</event>
<event>
 5   0  0.1225690E-03  0.1412127E+04  0.7818609E-02  0.8945087E-01
        1   -1    0    0  501    0  0.00000000000E+00  0.00000000000E+00  0.10762941122E+04  0.10762941122E+04  0.50400001928E-02 0.  1.
       -1   -1    0    0    0  501  0.00000000000E+00  0.00000000000E+00 -0.46318722876E+03  0.46318722879E+03  0.50400001928E-02 0. -1.
    10030    2    1    2    0    0  0.00000000000E+00  0.00000000000E+00  0.61310688343E+03  0.15394813410E+04  0.14121270300E+04 0.  0.
        4    1    3    3  502    0  0.29924872351E+03  0.56268780063E+03  0.63786371412E+03  0.90168680271E+03  0.12699999809E+01 0.  1.
       -4    1    3    3    0  502 -0.29924872351E+03 -0.56268780063E+03 -0.24756830684E+02  0.63779453828E+03  0.12699999809E+01 0. -1.
</event>
<event>
 5   0  0.2236184E-03  0.1404963E+04  0.7818609E-02  0.8950234E-01
       -2   -1    0    0    0  501  0.00000000000E+00  0.00000000000E+00  0.76800129264E+03  0.76800129265E+03  0.25500000920E-02 0. -1.
        2   -1    0    0  501    0  0.00000000000E+00  0.00000000000E+00 -0.64255141185E+03  0.64255141186E+03  0.25500000920E-02 0.  1.
    10030    2    1    2    0    0  0.00000000000E+00  0.00000000000E+00  0.12544988079E+03  0.14105527045E+04  0.14049630812E+04 0.  0.
        3    1    3    3  502    0  0.21927976144E+03 -0.14848336561E+03  0.71596659517E+03  0.76337349918E+03  0.10100000352E+00 0. -1.
       -3    1    3    3    0  502 -0.21927976144E+03  0.14848336561E+03 -0.59051671438E+03  0.64717920533E+03  0.10100000352E+00 0.  1.
</event>
<event>
 5   0  0.2172901E-03  0.1421440E+04  0.7818609E-02  0.8938444E-01
       -2   -1    0    0    0  501  0.00000000000E+00  0.00000000000E+00  0.34774778438E+03  0.34774778439E+03  0.25500000920E-02 0. -1.
        2   -1    0    0  501    0  0.00000000000E+00  0.00000000000E+00 -0.14525559952E+04  0.14525559952E+04  0.25500000920E-02 0.  1.
    10030    2    1    2    0    0  0.00000000000E+00  0.00000000000E+00 -0.11048082108E+04  0.18003037796E+04  0.14214402964E+04 0.  0.
        2    1    3    3  502    0 -0.32078963847E+03 -0.45656774244E+03  0.51058572776E+01  0.55801986109E+03  0.25500000920E-02 0. -1.
       -2    1    3    3    0  502  0.32078963847E+03  0.45656774244E+03 -0.11099140681E+04  0.12422839185E+04  0.25500000920E-02 0.  1.
</event>
<event>
 5   0  0.1210275E-03  0.1374474E+04  0.7818609E-02  0.8972505E-01
        1   -1    0    0  501    0  0.00000000000E+00  0.00000000000E+00  0.91621355554E+03  0.91621355555E+03  0.50400001928E-02 0. -1.
       -1   -1    0    0    0  501  0.00000000000E+00  0.00000000000E+00 -0.51548564636E+03  0.51548564639E+03  0.50400001928E-02 0.  1.
    10030    2    1    2    0    0  0.00000000000E+00  0.00000000000E+00  0.40072790917E+03  0.14316992019E+04  0.13744743532E+04 0.  0.
        1    1    3    3  502    0  0.22799436676E+03 -0.14993651031E+03  0.85736384662E+03  0.89974171511E+03  0.50400001928E-02 0. -1.
       -1    1    3    3    0  502 -0.22799436676E+03  0.14993651031E+03 -0.45663593745E+03  0.53195748683E+03  0.50400001928E-02 0.  1.
</event>
<event>
 5   0  0.2083966E-03  0.1413157E+04  0.7818609E-02  0.8944349E-01
       -2   -1    0    0    0  501  0.00000000000E+00  0.00000000000E+00  0.34190629862E+03  0.34190629863E+03  0.25500000920E-02 0.  1.
        2   -1    0    0  501    0  0.00000000000E+00  0.00000000000E+00 -0.14602052689E+04  0.14602052689E+04  0.25500000920E-02 0. -1.
    10030    2    1    2    0    0  0.00000000000E+00  0.00000000000E+00 -0.11182989703E+04  0.18021115676E+04  0.14131572860E+04 0.  0.
        1    1    3    3  502    0 -0.42313458987E+03 -0.54172682639E+02  0.15915678695E+03  0.45531136989E+03  0.50400001928E-02 0.  1.
       -1    1    3    3    0  502  0.42313458987E+03  0.54172682639E+02 -0.12774557573E+04  0.13468001977E+04  0.50400001928E-02 0. -1.
</event>
<event>
 5   0  0.1238683E-03  0.1412532E+04  0.7818609E-02  0.8944797E-01
       -1   -1    0    0    0  501  0.00000000000E+00  0.00000000000E+00  0.26699332507E+03  0.26699332512E+03  0.50400001928E-02 0.  1.
        1   -1    0    0  501    0  0.00000000000E+00  0.00000000000E+00 -0.18682542532E+04  0.18682542532E+04  0.50400001928E-02 0. -1.
    10030    2    1    2    0    0  0.00000000000E+00  0.00000000000E+00 -0.16012609281E+04  0.21352475783E+04  0.14125316495E+04 0.  0.
        2    1    3    3  502    0 -0.32736309753E+03  0.54138284179E+03 -0.12751751588E+04  0.14234934719E+04  0.25500000920E-02 0. -1.
       -2    1    3    3    0  502  0.32736309753E+03 -0.54138284179E+03 -0.32608576933E+03  0.71175410640E+03  0.25500000920E-02 0.  1.
</event>
<event>
 5   0  0.2190704E-03  0.1373107E+04  0.7818609E-02  0.8973518E-01
       -2   -1    0    0    0  501  0.00000000000E+00  0.00000000000E+00  0.71207232647E+03  0.71207232647E+03  0.25500000920E-02 0. -1.
        2   -1    0    0  501    0  0.00000000000E+00  0.00000000000E+00 -0.66194916020E+03  0.66194916021E+03  0.25500000920E-02 0.  1.
    10030    2    1    2    0    0  0.00000000000E+00  0.00000000000E+00  0.50123166266E+02  0.13740214867E+04  0.13731069565E+04 0.  0.
        5    1    3    3  502    0  0.14628873748E+03 -0.33538898439E+03  0.60635073039E+03  0.70821569017E+03  0.46999998093E+01 0. -1.
       -5    1    3    3    0  502 -0.14628873748E+03  0.33538898439E+03 -0.55622756413E+03  0.66580579650E+03  0.46999998093E+01 0.  1.
</event>
<event>
 5   0  0.1238683E-03  0.1391605E+04  0.7818609E-02  0.8959917E-01
       -1   -1    0    0    0  501  0.00000000000E+00  0.00000000000E+00  0.72104131685E+03  0.72104131687E+03  0.50400001928E-02 0.  1.
        1   -1    0    0  501    0  0.00000000000E+00  0.00000000000E+00 -0.67144749629E+03  0.67144749631E+03  0.50400001928E-02 0. -1.
    10030    2    1    2    0    0  0.00000000000E+00  0.00000000000E+00  0.49593820567E+02  0.13924888132E+04  0.13916053851E+04 0.  0.
        2    1    3    3  502    0 -0.34695596945E+03 -0.46847192451E+03  0.40490250540E+03  0.70978195784E+03  0.25500000920E-02 0.  1.
       -2    1    3    3    0  502  0.34695596945E+03  0.46847192451E+03 -0.35530868484E+03  0.68270685533E+03  0.25500000920E-02 0. -1.
</event>
<event>
 5   0  0.1175374E-03  0.1376359E+04  0.7818609E-02  0.8971111E-01
       -1   -1    0    0    0  501  0.00000000000E+00  0.00000000000E+00  0.11310312523E+04  0.11310312523E+04  0.50400001928E-02 0. -1.
        1   -1    0    0  501    0  0.00000000000E+00  0.00000000000E+00 -0.41872520344E+03  0.41872520347E+03  0.50400001928E-02 0.  1.
    10030    2    1    2    0    0  0.00000000000E+00  0.00000000000E+00  0.71230604883E+03  0.15497564558E+04  0.13763593880E+04 0.  0.
        3    1    3    3  502    0 -0.57565107702E+03 -0.35594263364E+03  0.21587007564E+03  0.71040074654E+03  0.10100000352E+00 0.  1.
       -3    1    3    3    0  502  0.57565107702E+03  0.35594263364E+03  0.49643597319E+03  0.83935570922E+03  0.10100000352E+00 0. -1.
</event>
<event>
 5   0  0.1199720E-03  0.1383730E+04  0.7818609E-02  0.8965681E-01
       -1   -1    0    0    0  501  0.00000000000E+00  0.00000000000E+00  0.29585954253E+03  0.29585954257E+03  0.50400001928E-02 0.  1.
        1   -1    0    0  501    0  0.00000000000E+00  0.00000000000E+00 -0.16179199405E+04  0.16179199405E+04  0.50400001928E-02 0. -1.
    10030    2    1    2    0    0  0.00000000000E+00  0.00000000000E+00 -0.13220603980E+04  0.19137794831E+04  0.13837298197E+04 0.  0.
        5    1    3    3  502    0 -0.30855326715E+03  0.32734930399E+03  0.65953993595E+02  0.45468088233E+03  0.46999998093E+01 0. -1.
       -5    1    3    3    0  502  0.30855326715E+03 -0.32734930399E+03 -0.13880143916E+04  0.14590986007E+04  0.46999998093E+01 0.  1.
</event>
<event>
 5   0  0.2083966E-03  0.1393476E+04  0.7818609E-02  0.8958555E-01
       -2   -1    0    0    0  501  0.00000000000E+00  0.00000000000E+00  0.25375325868E+03  0.25375325869E+03  0.25500000920E-02 0. -1.
        2   -1    0    0  501    0  0.00000000000E+00  0.00000000000E+00 -0.19130542843E+04  0.19130542843E+04  0.25500000920E-02 0.  1.
    10030    2    1    2    0    0  0.00000000000E+00  0.00000000000E+00 -0.16593010256E+04  0.21668075430E+04  0.13934758824E+04 0.  0.
        1    1    3    3  502    0  0.17632804315E+02  0.30219374336E+03  0.14615942357E+03  0.33614662193E+03  0.50400001928E-02 0. -1.
       -1    1    3    3    0  502 -0.17632804315E+02 -0.30219374336E+03 -0.18054604492E+04  0.18306609211E+04  0.50400001928E-02 0.  1.
</event>
<event>
 5   0  0.1175374E-03  0.1372425E+04  0.7818609E-02  0.8974024E-01
        1   -1    0    0  501    0  0.00000000000E+00  0.00000000000E+00  0.10083862561E+04  0.10083862561E+04  0.50400001928E-02 0. -1.
       -1   -1    0    0    0  501  0.00000000000E+00  0.00000000000E+00 -0.46697165294E+03  0.46697165297E+03  0.50400001928E-02 0.  1.
    10030    2    1    2    0    0  0.00000000000E+00  0.00000000000E+00  0.54141460311E+03  0.14753579090E+04  0.13724252939E+04 0.  0.
        3    1    3    3  502    0  0.62122816305E+03 -0.25419753659E+03  0.42404838640E+03  0.79395079342E+03  0.10100000352E+00 0. -1.
       -3    1    3    3    0  502 -0.62122816305E+03  0.25419753659E+03  0.11736621671E+03  0.68140711561E+03  0.10100000352E+00 0.  1.
</event>
<event>
 5   0  0.2172901E-03  0.1398062E+04  0.7818609E-02  0.8955223E-01
       -2   -1    0    0    0  501  0.00000000000E+00  0.00000000000E+00  0.24267803349E+03  0.24267803350E+03  0.25500000920E-02 0. -1.
        2   -1    0    0  501    0  0.00000000000E+00  0.00000000000E+00 -0.20135498656E+04  0.20135498656E+04  0.25500000920E-02 0.  1.
    10030    2    1    2    0    0  0.00000000000E+00  0.00000000000E+00 -0.17708718321E+04  0.22562278991E+04  0.13980619753E+04 0.  0.
        2    1    3    3  502    0  0.21229264331E+03 -0.63180692919E+03 -0.12254753174E+04  0.13950046293E+04  0.25500000920E-02 0. -1.
       -2    1    3    3    0  502 -0.21229264331E+03  0.63180692919E+03 -0.54539651468E+03  0.86122326977E+03  0.25500000920E-02 0.  1.
</event>
<event>
 5   0  0.1225690E-03  0.1391971E+04  0.7818609E-02  0.8959651E-01
       -1   -1    0    0    0  501  0.00000000000E+00  0.00000000000E+00  0.15708370106E+03  0.15708370114E+03  0.50400001928E-02 0.  1.
        1   -1    0    0  501    0  0.00000000000E+00  0.00000000000E+00 -0.30836815310E+04  0.30836815310E+04  0.50400001928E-02 0. -1.
    10030    2    1    2    0    0  0.00000000000E+00  0.00000000000E+00 -0.29265978300E+04  0.32407652322E+04  0.13919714191E+04 0.  0.
        4    1    3    3  502    0 -0.41102543276E+03  0.14360713844E+02 -0.27704996764E+04  0.28008602618E+04  0.12699999809E+01 0. -1.
       -4    1    3    3    0  502  0.41102543276E+03 -0.14360713844E+02 -0.15609815356E+03  0.43990497033E+03  0.12699999809E+01 0.  1.
</event>
<event>
 5   0  0.1199720E-03  0.1434913E+04  0.7818609E-02  0.8928928E-01
       -1   -1    0    0    0  501  0.00000000000E+00  0.00000000000E+00  0.10866891560E+04  0.10866891560E+04  0.50400001928E-02 0.  1.
        1   -1    0    0  501    0  0.00000000000E+00  0.00000000000E+00 -0.47368063911E+03  0.47368063914E+03  0.50400001928E-02 0. -1.
    10030    2    1    2    0    0  0.00000000000E+00  0.00000000000E+00  0.61300851687E+03  0.15603697951E+04  0.14349126997E+04 0.  0.
        5    1    3    3  502    0 -0.55099467398E+03 -0.43812252733E+03  0.45708528127E+03  0.83934231638E+03  0.46999998093E+01 0.  1.
       -5    1    3    3    0  502  0.55099467398E+03  0.43812252733E+03  0.15592323560E+03  0.72102747875E+03  0.46999998093E+01 0. -1.
</event>
<event>
 5   0  0.2190704E-03  0.1258165E+04  0.7818609E-02  0.9063415E-01
       -2   -1    0    0    0  501  0.00000000000E+00  0.00000000000E+00  0.59757879336E+03  0.59757879337E+03  0.25500000920E-02 0.  1.
        2   -1    0    0  501    0  0.00000000000E+00  0.00000000000E+00 -0.66224734573E+03  0.66224734574E+03  0.25500000920E-02 0. -1.
    10030    2    1    2    0    0  0.00000000000E+00  0.00000000000E+00 -0.64668552368E+02  0.12598261391E+04  0.12581652829E+04 0.  0.
        5    1    3    3  502    0 -0.61259638751E+02 -0.37702061380E+03 -0.53281963970E+03  0.65560364933E+03  0.46999998093E+01 0. -1.
       -5    1    3    3    0  502  0.61259638751E+02  0.37702061380E+03  0.46815108733E+03  0.60422248977E+03  0.46999998093E+01 0.  1.
</event>
<event>
 5   0  0.1199720E-03  0.1293004E+04  0.7818609E-02  0.9035132E-01
        1   -1    0    0  501    0  0.00000000000E+00  0.00000000000E+00  0.12230275255E+04  0.12230275255E+04  0.50400001928E-02 0. -1.
       -1   -1    0    0    0  501  0.00000000000E+00  0.00000000000E+00 -0.34174582422E+03  0.34174582426E+03  0.50400001928E-02 0.  1.
    10030    2    1    2    0    0  0.00000000000E+00  0.00000000000E+00  0.88128170129E+03  0.15647733498E+04  0.12930035573E+04 0.  0.
        5    1    3    3  502    0  0.49734227181E+03 -0.12100893240E+03 -0.37267213554E+02  0.51322844061E+03  0.46999998093E+01 0.  1.
       -5    1    3    3    0  502 -0.49734227181E+03  0.12100893240E+03  0.91854891484E+03  0.10515449092E+04  0.46999998093E+01 0. -1.
</event>
<event>
 5   0  0.1238683E-03  0.1401144E+04  0.7818609E-02  0.8952991E-01
        1   -1    0    0  501    0  0.00000000000E+00  0.00000000000E+00  0.65662320584E+03  0.65662320586E+03  0.50400001928E-02 0.  1.
       -1   -1    0    0    0  501  0.00000000000E+00  0.00000000000E+00 -0.74746193873E+03  0.74746193874E+03  0.50400001928E-02 0. -1.
    10030    2    1    2    0    0  0.00000000000E+00  0.00000000000E+00 -0.90838732881E+02  0.14040851446E+04  0.14011436107E+04 0.  0.
        2    1    3    3  502    0  0.39574252419E+03 -0.21114948903E+03  0.49385965163E+03  0.66715336145E+03  0.25500000920E-02 0.  1.
       -2    1    3    3    0  502 -0.39574252419E+03  0.21114948903E+03 -0.58469838451E+03  0.73693178316E+03  0.25500000920E-02 0. -1.
</event>
<event>
 5   0  0.2083966E-03  0.1421620E+04  0.7818609E-02  0.8938316E-01
        2   -1    0    0  501    0  0.00000000000E+00  0.00000000000E+00  0.16444591579E+04  0.16444591580E+04  0.25500000920E-02 0.  1.
       -2   -1    0    0    0  501  0.00000000000E+00  0.00000000000E+00 -0.30724431423E+03  0.30724431425E+03  0.25500000920E-02 0. -1.
    10030    2    1    2    0    0  0.00000000000E+00  0.00000000000E+00  0.13372148437E+04  0.19517034722E+04  0.14216198174E+04 0.  0.
        1    1    3    3  502    0  0.16581118396E+03  0.68353145562E+03  0.80956696442E+03  0.10724305430E+04  0.50400001928E-02 0.  1.
       -1    1    3    3    0  502 -0.16581118396E+03 -0.68353145562E+03  0.52764787929E+03  0.87927292924E+03  0.50400001928E-02 0. -1.
</event>
<event>
 5   0  0.1225690E-03  0.1438076E+04  0.7818609E-02  0.8926709E-01
       -1   -1    0    0    0  501  0.00000000000E+00  0.00000000000E+00  0.72542745205E+03  0.72542745207E+03  0.50400001928E-02 0. -1.
        1   -1    0    0  501    0  0.00000000000E+00  0.00000000000E+00 -0.71270497303E+03  0.71270497305E+03  0.50400001928E-02 0.  1.
    10030    2    1    2    0    0  0.00000000000E+00  0.00000000000E+00  0.12722479021E+02  0.14381324251E+04  0.14380761491E+04 0.  0.
        4    1    3    3  502    0 -0.50487008505E+03 -0.41847988780E+03  0.30132179509E+03  0.72167558942E+03  0.12699999809E+01 0. -1.
       -4    1    3    3    0  502  0.50487008505E+03  0.41847988780E+03 -0.28859931607E+03  0.71645683569E+03  0.12699999809E+01 0.  1.
</event>
<event>
 5   0  0.2083966E-03  0.1398354E+04  0.7818609E-02  0.8955011E-01
        2   -1    0    0  501    0  0.00000000000E+00  0.00000000000E+00  0.15890161527E+04  0.15890161527E+04  0.25500000920E-02 0.  1.
       -2   -1    0    0    0  501  0.00000000000E+00  0.00000000000E+00 -0.30764209313E+03  0.30764209314E+03  0.25500000920E-02 0. -1.
    10030    2    1    2    0    0  0.00000000000E+00  0.00000000000E+00  0.12813740596E+04  0.18966582458E+04  0.13983536824E+04 0.  0.
        1    1    3    3  502    0  0.31151025356E+02 -0.25553992612E+03 -0.24102159973E+03  0.35265060865E+03  0.50400001928E-02 0. -1.
       -1    1    3    3    0  502 -0.31151025356E+02  0.25553992612E+03  0.15223956593E+04  0.15440076372E+04  0.50400001928E-02 0.  1.
</event>
<event>
 5   0  0.2083966E-03  0.1407262E+04  0.7818609E-02  0.8948579E-01
       -2   -1    0    0    0  501  0.00000000000E+00  0.00000000000E+00  0.81830698193E+03  0.81830698193E+03  0.25500000920E-02 0. -1.
        2   -1    0    0  501    0  0.00000000000E+00  0.00000000000E+00 -0.60502550030E+03  0.60502550030E+03  0.25500000920E-02 0.  1.
    10030    2    1    2    0    0  0.00000000000E+00  0.00000000000E+00  0.21328148163E+03  0.14233324822E+04  0.14072620099E+04 0.  0.
        1    1    3    3  502    0 -0.41021492454E+02  0.26510207479E+03 -0.55127568184E+03  0.61307972590E+03  0.50400001928E-02 0.  1.
       -1    1    3    3    0  502  0.41021492454E+02 -0.26510207479E+03  0.76455716347E+03  0.81025275633E+03  0.50400001928E-02 0. -1.
</event>
<event>
 5   0  0.1225690E-03  0.1399470E+04  0.7818609E-02  0.8954202E-01
        1   -1    0    0  501    0  0.00000000000E+00  0.00000000000E+00  0.17708883227E+04  0.17708883227E+04  0.50400001928E-02 0.  1.
       -1   -1    0    0    0  501  0.00000000000E+00  0.00000000000E+00 -0.27648776421E+03  0.27648776425E+03  0.50400001928E-02 0. -1.
    10030    2    1    2    0    0  0.00000000000E+00  0.00000000000E+00  0.14944005585E+04  0.20473760870E+04  0.13994698326E+04 0.  0.
        4    1    3    3  502    0 -0.18490871311E+02  0.68294993012E+03  0.96841701833E+03  0.11851563836E+04  0.12699999809E+01 0. -1.
       -4    1    3    3    0  502  0.18490871311E+02 -0.68294993012E+03  0.52598354016E+03  0.86221970332E+03  0.12699999809E+01 0.  1.
</event>
<event>
 5   0  0.1175374E-03  0.1394887E+04  0.7818609E-02  0.8957528E-01
        1   -1    0    0  501    0  0.00000000000E+00  0.00000000000E+00  0.12565880550E+04  0.12565880550E+04  0.50400001928E-02 0. -1.
       -1   -1    0    0    0  501  0.00000000000E+00  0.00000000000E+00 -0.38710151201E+03  0.38710151205E+03  0.50400001928E-02 0.  1.
    10030    2    1    2    0    0  0.00000000000E+00  0.00000000000E+00  0.86948654295E+03  0.16436895670E+04  0.13948865704E+04 0.  0.
        3    1    3    3  502    0 -0.43760708046E+03  0.25764626778E+03 -0.12859247344E+03  0.52384882418E+03  0.10100000352E+00 0.  1.
       -3    1    3    3    0  502  0.43760708046E+03 -0.25764626778E+03  0.99807901638E+03  0.11198407428E+04  0.10100000352E+00 0. -1.
</event>
<event>
 5   0  0.2195980E-03  0.1476276E+04  0.7818609E-02  0.8900384E-01
       -2   -1    0    0    0  501  0.00000000000E+00  0.00000000000E+00  0.28767880388E+03  0.28767880390E+03  0.25500000920E-02 0. -1.
        2   -1    0    0  501    0  0.00000000000E+00  0.00000000000E+00 -0.18939445702E+04  0.18939445702E+04  0.25500000920E-02 0.  1.
    10030    2    1    2    0    0  0.00000000000E+00  0.00000000000E+00 -0.16062657663E+04  0.21816233741E+04  0.14762760021E+04 0.  0.
        4    1    3    3  502    0 -0.68854291868E+03  0.43444624911E+02 -0.41532308649E+03  0.80527862592E+03  0.12699999809E+01 0.  1.
       -4    1    3    3    0  502  0.68854291868E+03 -0.43444624911E+02 -0.11909426798E+04  0.13763447482E+04  0.12699999809E+01 0. -1.
</event>
<event>
 5   0  0.1225690E-03  0.1401992E+04  0.7818609E-02  0.8952378E-01
        1   -1    0    0  501    0  0.00000000000E+00  0.00000000000E+00  0.19909450356E+04  0.19909450356E+04  0.50400001928E-02 0.  1.
       -1   -1    0    0    0  501  0.00000000000E+00  0.00000000000E+00 -0.24681529683E+03  0.24681529688E+03  0.50400001928E-02 0. -1.
    10030    2    1    2    0    0  0.00000000000E+00  0.00000000000E+00  0.17441297388E+04  0.22377603325E+04  0.14019924251E+04 0.  0.
        4    1    3    3  502    0  0.18539685024E+03 -0.18742037649E+03 -0.16467654381E+03  0.31083495071E+03  0.12699999809E+01 0. -1.
       -4    1    3    3    0  502 -0.18539685024E+03  0.18742037649E+03  0.19088062826E+04  0.19269253818E+04  0.12699999809E+01 0.  1.
</event>
<event>
 5   0  0.1210275E-03  0.1295914E+04  0.7818609E-02  0.9032812E-01
        1   -1    0    0  501    0  0.00000000000E+00  0.00000000000E+00  0.16894597318E+04  0.16894597318E+04  0.50400001928E-02 0.  1.
       -1   -1    0    0    0  501  0.00000000000E+00  0.00000000000E+00 -0.24851043027E+03  0.24851043032E+03  0.50400001928E-02 0. -1.
    10030    2    1    2    0    0  0.00000000000E+00  0.00000000000E+00  0.14409493015E+04  0.19379701621E+04  0.12959141405E+04 0.  0.
        1    1    3    3  502    0 -0.14051857570E+03 -0.21017555027E+03 -0.17170564144E+03  0.30561750502E+03  0.50400001928E-02 0. -1.
       -1    1    3    3    0  502  0.14051857570E+03  0.21017555027E+03  0.16126549429E+04  0.16323526571E+04  0.50400001928E-02 0.  1.
</event>
<event>
 5   0  0.1199720E-03  0.1392827E+04  0.7818609E-02  0.8959027E-01
       -1   -1    0    0    0  501  0.00000000000E+00  0.00000000000E+00  0.43457285273E+03  0.43457285276E+03  0.50400001928E-02 0. -1.
        1   -1    0    0  501    0  0.00000000000E+00  0.00000000000E+00 -0.11160187666E+04  0.11160187666E+04  0.50400001928E-02 0.  1.
    10030    2    1    2    0    0  0.00000000000E+00  0.00000000000E+00 -0.68144591388E+03  0.15505916194E+04  0.13928265637E+04 0.  0.
        5    1    3    3  502    0 -0.21308741895E+03 -0.52849101239E+03 -0.78639302086E+03  0.97115656387E+03  0.46999998093E+01 0.  1.
       -5    1    3    3    0  502  0.21308741895E+03  0.52849101239E+03  0.10494710698E+03  0.57943505551E+03  0.46999998093E+01 0. -1.
</event>
<event>
 5   0  0.2195980E-03  0.1397914E+04  0.7818609E-02  0.8955330E-01
        2   -1    0    0  501    0  0.00000000000E+00  0.00000000000E+00  0.10210720866E+04  0.10210720866E+04  0.25500000920E-02 0. -1.
       -2   -1    0    0    0  501  0.00000000000E+00  0.00000000000E+00 -0.47845896096E+03  0.47845896097E+03  0.25500000920E-02 0.  1.
    10030    2    1    2    0    0  0.00000000000E+00  0.00000000000E+00  0.54261312567E+03  0.14995310476E+04  0.13979142887E+04 0.  0.
        4    1    3    3  502    0  0.59139248125E+03 -0.37129039850E+03  0.23845609384E+03  0.73787841036E+03  0.12699999809E+01 0.  1.
       -4    1    3    3    0  502 -0.59139248125E+03  0.37129039850E+03  0.30415703184E+03  0.76165263724E+03  0.12699999809E+01 0. -1.
</event>
<event>
 5   0  0.2172901E-03  0.1467070E+04  0.7818609E-02  0.8906651E-01
        2   -1    0    0  501    0  0.00000000000E+00  0.00000000000E+00  0.64594923434E+03  0.64594923434E+03  0.25500000920E-02 0.  1.
       -2   -1    0    0    0  501  0.00000000000E+00  0.00000000000E+00 -0.83299710232E+03  0.83299710232E+03  0.25500000920E-02 0. -1.
    10030    2    1    2    0    0  0.00000000000E+00  0.00000000000E+00 -0.18704786798E+03  0.14789463367E+04  0.14670703329E+04 0.  0.
        2    1    3    3  502    0 -0.37581239099E+03 -0.37950870026E+03  0.41335045982E+03  0.67536687026E+03  0.25500000920E-02 0.  1.
       -2    1    3    3    0  502  0.37581239099E+03  0.37950870026E+03 -0.60039832780E+03  0.80357946641E+03  0.25500000920E-02 0. -1.
</event>
<event>
 5   0  0.1199720E-03  0.1293539E+04  0.7818609E-02  0.9034705E-01
       -1   -1    0    0    0  501  0.00000000000E+00  0.00000000000E+00  0.53457223141E+03  0.53457223144E+03  0.50400001928E-02 0.  1.
        1   -1    0    0  501    0  0.00000000000E+00  0.00000000000E+00 -0.78251487025E+03  0.78251487027E+03  0.50400001928E-02 0. -1.
    10030    2    1    2    0    0  0.00000000000E+00  0.00000000000E+00 -0.24794263884E+03  0.13170871017E+04  0.12935388983E+04 0.  0.
        5    1    3    3  502    0 -0.39977247413E+03  0.28653005837E+03  0.30363956000E+03  0.57804548075E+03  0.46999998093E+01 0.  1.
       -5    1    3    3    0  502  0.39977247413E+03 -0.28653005837E+03 -0.55158219884E+03  0.73904162095E+03  0.46999998093E+01 0. -1.
</event>
<event>
 5   0  0.1210275E-03  0.1390215E+04  0.7818609E-02  0.8960932E-01
       -1   -1    0    0    0  501  0.00000000000E+00  0.00000000000E+00  0.40352534510E+03  0.40352534513E+03  0.50400001928E-02 0. -1.
        1   -1    0    0  501    0  0.00000000000E+00  0.00000000000E+00 -0.11973825660E+04  0.11973825660E+04  0.50400001928E-02 0.  1.
    10030    2    1    2    0    0  0.00000000000E+00  0.00000000000E+00 -0.79385722092E+03  0.16009079112E+04  0.13902146787E+04 0.  0.
        1    1    3    3  502    0 -0.22475743626E+03 -0.25209710476E+03  0.30268726484E+03  0.45352886976E+03  0.50400001928E-02 0. -1.
       -1    1    3    3    0  502  0.22475743626E+03  0.25209710476E+03 -0.10965444858E+04  0.11473790414E+04  0.50400001928E-02 0.  1.
</event>
<event>
 5   0  0.2236184E-03  0.1372728E+04  0.7818609E-02  0.8973800E-01
        2   -1    0    0  501    0  0.00000000000E+00  0.00000000000E+00  0.12801476623E+04  0.12801476623E+04  0.25500000920E-02 0.  1.
       -2   -1    0    0    0  501  0.00000000000E+00  0.00000000000E+00 -0.36800086987E+03  0.36800086988E+03  0.25500000920E-02 0. -1.
    10030    2    1    2    0    0  0.00000000000E+00  0.00000000000E+00  0.91214679245E+03  0.16481485322E+04  0.13727278730E+04 0.  0.
        3    1    3    3  502    0  0.13085065924E+03  0.50863685784E+03 -0.74469945102E+02  0.53045181789E+03  0.10100000352E+00 0. -1.
       -3    1    3    3    0  502 -0.13085065924E+03 -0.50863685784E+03  0.98661673755E+03  0.11176967143E+04  0.10100000352E+00 0.  1.
</event>
<event>
 5   0  0.2195980E-03  0.1387388E+04  0.7818609E-02  0.8962998E-01
       -2   -1    0    0    0  501  0.00000000000E+00  0.00000000000E+00  0.32788455749E+03  0.32788455750E+03  0.25500000920E-02 0.  1.
        2   -1    0    0  501    0  0.00000000000E+00  0.00000000000E+00 -0.14676250597E+04  0.14676250597E+04  0.25500000920E-02 0. -1.
    10030    2    1    2    0    0  0.00000000000E+00  0.00000000000E+00 -0.11397405022E+04  0.17955096172E+04  0.13873883281E+04 0.  0.
        4    1    3    3  502    0 -0.62624878524E+03  0.90163322904E+02 -0.20178771787E+03  0.66410606216E+03  0.12699999809E+01 0.  1.
       -4    1    3    3    0  502  0.62624878524E+03 -0.90163322904E+02 -0.93795278432E+03  0.11314035550E+04  0.12699999809E+01 0. -1.
</event>
<event>
 5   0  0.2195980E-03  0.1340407E+04  0.7818609E-02  0.8998121E-01
       -2   -1    0    0    0  501  0.00000000000E+00  0.00000000000E+00  0.38168065084E+03  0.38168065085E+03  0.25500000920E-02 0. -1.
        2   -1    0    0  501    0  0.00000000000E+00  0.00000000000E+00 -0.11768294066E+04  0.11768294066E+04  0.25500000920E-02 0.  1.
    10030    2    1    2    0    0  0.00000000000E+00  0.00000000000E+00 -0.79514875571E+03  0.15585100574E+04  0.13404074214E+04 0.  0.
        4    1    3    3  502    0  0.47155092958E+03 -0.62066996537E+02  0.15144175206E+03  0.49914808266E+03  0.12699999809E+01 0. -1.
       -4    1    3    3    0  502 -0.47155092958E+03  0.62066996537E+02 -0.94659050778E+03  0.10593619748E+04  0.12699999809E+01 0.  1.
</event>
<event>
 5   0  0.1175374E-03  0.1328525E+04  0.7818609E-02  0.9007246E-01
        1   -1    0    0  501    0  0.00000000000E+00  0.00000000000E+00  0.54838445913E+03  0.54838445916E+03  0.50400001928E-02 0.  1.
       -1   -1    0    0    0  501  0.00000000000E+00  0.00000000000E+00 -0.80462641247E+03  0.80462641249E+03  0.50400001928E-02 0. -1.
    10030    2    1    2    0    0  0.00000000000E+00  0.00000000000E+00 -0.25624195334E+03  0.13530108716E+04  0.13285249264E+04 0.  0.
        3    1    3    3  502    0 -0.27668632427E+03 -0.56127787671E+03 -0.35506530747E+03  0.71948562160E+03  0.10100000352E+00 0. -1.
       -3    1    3    3    0  502  0.27668632427E+03  0.56127787671E+03  0.98823354128E+02  0.63352525005E+03  0.10100000352E+00 0.  1.
</event>
<event>
 5   0  0.1175374E-03  0.1441316E+04  0.7818609E-02  0.8924443E-01
       -1   -1    0    0    0  501  0.00000000000E+00  0.00000000000E+00  0.58322556928E+03  0.58322556931E+03  0.50400001928E-02 0. -1.
        1   -1    0    0  501    0  0.00000000000E+00  0.00000000000E+00 -0.89047567907E+03  0.89047567908E+03  0.50400001928E-02 0.  1.
    10030    2    1    2    0    0  0.00000000000E+00  0.00000000000E+00 -0.30725010978E+03  0.14737012484E+04  0.14413163218E+04 0.  0.
        3    1    3    3  502    0  0.92510859791E+02  0.41664973211E+03 -0.74735556669E+03  0.86063674783E+03  0.10100000352E+00 0.  1.
       -3    1    3    3    0  502 -0.92510859791E+02 -0.41664973211E+03  0.44010545691E+03  0.61306450056E+03  0.10100000352E+00 0. -1.
</event>
<event>
 5   0  0.1210275E-03  0.1406535E+04  0.7818609E-02  0.8949102E-01
       -1   -1    0    0    0  501  0.00000000000E+00  0.00000000000E+00  0.45752216697E+03  0.45752216700E+03  0.50400001928E-02 0.  1.
        1   -1    0    0  501    0  0.00000000000E+00  0.00000000000E+00 -0.10810083651E+04  0.10810083651E+04  0.50400001928E-02 0. -1.
    10030    2    1    2    0    0  0.00000000000E+00  0.00000000000E+00 -0.62348619815E+03  0.15385305321E+04  0.14065351610E+04 0.  0.
        1    1    3    3  502    0  0.35246055364E+03 -0.41569397176E+03  0.17444009816E+03  0.57224056820E+03  0.50400001928E-02 0.  1.
       -1    1    3    3    0  502 -0.35246055364E+03  0.41569397176E+03 -0.79792629631E+03  0.96628996393E+03  0.50400001928E-02 0. -1.
</event>
<event>
 5   0  0.8293000E-04  0.1416367E+04  0.7818609E-02  0.8942056E-01
       -4   -1    0    0    0  501  0.00000000000E+00  0.00000000000E+00  0.53933315572E+03  0.53933465099E+03  0.12699999809E+01 0. -1.
        4   -1    0    0  501    0  0.00000000000E+00  0.00000000000E+00 -0.92989266239E+03  0.92989352964E+03  0.12699999809E+01 0.  1.
    10030    2    1    2    0    0  0.00000000000E+00  0.00000000000E+00 -0.39055950668E+03  0.14692281806E+04  0.14163667316E+04 0.  0.
        5    1    3    3  502    0 -0.65897521005E+03 -0.25838809237E+03 -0.17234447793E+03  0.72851729067E+03  0.46999998093E+01 0.  1.
       -5    1    3    3    0  502  0.65897521005E+03  0.25838809237E+03 -0.21821502875E+03  0.74071088996E+03  0.46999998093E+01 0. -1.
</event>
<event>
 5   0  0.2236184E-03  0.1451485E+04  0.7818609E-02  0.8917371E-01
        2   -1    0    0  501    0  0.00000000000E+00  0.00000000000E+00  0.50327153296E+03  0.50327153297E+03  0.25500000920E-02 0.  1.
       -2   -1    0    0    0  501  0.00000000000E+00  0.00000000000E+00 -0.10465570012E+04  0.10465570012E+04  0.25500000920E-02 0. -1.
    10030    2    1    2    0    0  0.00000000000E+00  0.00000000000E+00 -0.54328546823E+03  0.15498285342E+04  0.14514852343E+04 0.  0.
        3    1    3    3  502    0 -0.11442740564E+03  0.68788044463E+02 -0.10333312418E+04  0.10419207703E+04  0.10100000352E+00 0. -1.
       -3    1    3    3    0  502  0.11442740564E+03 -0.68788044463E+02  0.49004577353E+03  0.50790776385E+03  0.10100000352E+00 0.  1.
</event>
<event>
 5   0  0.2236184E-03  0.1408882E+04  0.7818609E-02  0.8947414E-01
       -2   -1    0    0    0  501  0.00000000000E+00  0.00000000000E+00  0.44968336226E+03  0.44968336227E+03  0.25500000920E-02 0.  1.
        2   -1    0    0  501    0  0.00000000000E+00  0.00000000000E+00 -0.11035252703E+04  0.11035252703E+04  0.25500000920E-02 0. -1.
    10030    2    1    2    0    0  0.00000000000E+00  0.00000000000E+00 -0.65384190803E+03  0.15532086326E+04  0.14088817607E+04 0.  0.
        3    1    3    3  502    0  0.34278969305E+03 -0.28027579302E+03  0.27708945841E+03  0.52233884785E+03  0.10100000352E+00 0.  1.
       -3    1    3    3    0  502 -0.34278969305E+03  0.28027579302E+03 -0.93093136644E+03  0.10308697847E+04  0.10100000352E+00 0. -1.
</event>
<event>
 5   0  0.1175374E-03  0.1388850E+04  0.7818609E-02  0.8961929E-01
        1   -1    0    0  501    0  0.00000000000E+00  0.00000000000E+00  0.13654020122E+04  0.13654020122E+04  0.50400001928E-02 0.  1.
       -1   -1    0    0    0  501  0.00000000000E+00  0.00000000000E+00 -0.35317514722E+03  0.35317514725E+03  0.50400001928E-02 0. -1.
    10030    2    1    2    0    0  0.00000000000E+00  0.00000000000E+00  0.10122268650E+04  0.17185771595E+04  0.13888499656E+04 0.  0.
        3    1    3    3  502    0 -0.39861017373E+03 -0.46535484618E+03  0.10176070598E+03  0.62112837235E+03  0.10100000352E+00 0.  1.
       -3    1    3    3    0  502  0.39861017373E+03  0.46535484618E+03  0.91046615904E+03  0.10974487871E+04  0.10100000352E+00 0. -1.
</event>
<event>
 5   0  0.2172901E-03  0.1349103E+04  0.7818609E-02  0.8991508E-01
       -2   -1    0    0    0  501  0.00000000000E+00  0.00000000000E+00  0.29173071365E+03  0.29173071366E+03  0.25500000920E-02 0.  1.
        2   -1    0    0  501    0  0.00000000000E+00  0.00000000000E+00 -0.15597246337E+04  0.15597246337E+04  0.25500000920E-02 0. -1.
    10030    2    1    2    0    0  0.00000000000E+00  0.00000000000E+00 -0.12679939200E+04  0.18514553474E+04  0.13491027841E+04 0.  0.
        2    1    3    3  502    0  0.32077461666E+03  0.12724535392E+03 -0.14294119879E+04  0.14704782779E+04  0.25500000920E-02 0. -1.
       -2    1    3    3    0  502 -0.32077461666E+03 -0.12724535392E+03  0.16141806784E+03  0.38097706941E+03  0.25500000920E-02 0.  1.
</event>
<event>
 5   0  0.2083966E-03  0.1364705E+04  0.7818609E-02  0.8979771E-01
       -2   -1    0    0    0  501  0.00000000000E+00  0.00000000000E+00  0.22784578800E+03  0.22784578801E+03  0.25500000920E-02 0.  1.
        2   -1    0    0  501    0  0.00000000000E+00  0.00000000000E+00 -0.20435077939E+04  0.20435077939E+04  0.25500000920E-02 0. -1.
    10030    2    1    2    0    0  0.00000000000E+00  0.00000000000E+00 -0.18156620059E+04  0.22713535819E+04  0.13647045740E+04 0.  0.
        1    1    3    3  502    0  0.25331719651E+03  0.33881784430E+03 -0.16759386533E+02  0.42337691332E+03  0.50400001928E-02 0.  1.
       -1    1    3    3    0  502 -0.25331719651E+03 -0.33881784430E+03 -0.17989026193E+04  0.18479766686E+04  0.50400001928E-02 0. -1.
</event>
<event>
 5   0  0.2195980E-03  0.1399886E+04  0.7818609E-02  0.8953901E-01
       -2   -1    0    0    0  501  0.00000000000E+00  0.00000000000E+00  0.30864790309E+03  0.30864790310E+03  0.25500000920E-02 0.  1.
        2   -1    0    0  501    0  0.00000000000E+00  0.00000000000E+00 -0.15873102191E+04  0.15873102191E+04  0.25500000920E-02 0. -1.
    10030    2    1    2    0    0  0.00000000000E+00  0.00000000000E+00 -0.12786623160E+04  0.18959581222E+04  0.13998856678E+04 0.  0.
        4    1    3    3  502    0 -0.25142106175E+02 -0.33793672880E+02 -0.15855906499E+04  0.15861505161E+04  0.12699999809E+01 0. -1.
       -4    1    3    3    0  502  0.25142106175E+02  0.33793672880E+02  0.30692833382E+03  0.30980760616E+03  0.12699999809E+01 0.  1.
</event>
<event>
 5   0  0.1199720E-03  0.1402963E+04  0.7818609E-02  0.8951677E-01
       -1   -1    0    0    0  501  0.00000000000E+00  0.00000000000E+00  0.33842599782E+03  0.33842599786E+03  0.50400001928E-02 0. -1.
        1   -1    0    0  501    0  0.00000000000E+00  0.00000000000E+00 -0.14540137820E+04  0.14540137820E+04  0.50400001928E-02 0.  1.
    10030    2    1    2    0    0  0.00000000000E+00  0.00000000000E+00 -0.11155877841E+04  0.17924397798E+04  0.14029626724E+04 0.  0.
        5    1    3    3  502    0  0.60250495853E+03  0.86780433332E+02 -0.10031486410E+04  0.11734020430E+04  0.46999998093E+01 0.  1.
       -5    1    3    3    0  502 -0.60250495853E+03 -0.86780433332E+02 -0.11243914315E+03  0.61903773679E+03  0.46999998093E+01 0. -1.
</event>
<event>
 5   0  0.2083966E-03  0.1439039E+04  0.7818609E-02  0.8926035E-01
       -2   -1    0    0    0  501  0.00000000000E+00  0.00000000000E+00  0.44414364180E+03  0.44414364181E+03  0.25500000920E-02 0.  1.
        2   -1    0    0  501    0  0.00000000000E+00  0.00000000000E+00 -0.11656329716E+04  0.11656329716E+04  0.25500000920E-02 0. -1.
    10030    2    1    2    0    0  0.00000000000E+00  0.00000000000E+00 -0.72148932977E+03  0.16097766134E+04  0.14390392253E+04 0.  0.
        1    1    3    3  502    0  0.24385047054E+02 -0.50493620665E+03  0.21201261913E+03  0.54818295668E+03  0.50400001928E-02 0.  1.
       -1    1    3    3    0  502 -0.24385047054E+02  0.50493620665E+03 -0.93350194890E+03  0.10615936567E+04  0.50400001928E-02 0. -1.
</event>
<event>
 5   0  0.2236184E-03  0.1611053E+04  0.7818609E-02  0.8813786E-01
       -2   -1    0    0    0  501  0.00000000000E+00  0.00000000000E+00  0.13690492474E+04  0.13690492474E+04  0.25500000920E-02 0.  1.
        2   -1    0    0  501    0  0.00000000000E+00  0.00000000000E+00 -0.47395881063E+03  0.47395881063E+03  0.25500000920E-02 0. -1.
    10030    2    1    2    0    0  0.00000000000E+00  0.00000000000E+00  0.89509043681E+03  0.18430080581E+04  0.16110530134E+04 0.  0.
        3    1    3    3  502    0 -0.88662145837E+02 -0.79881417112E+03  0.50923399320E+03  0.95146430628E+03  0.10100000352E+00 0.  1.
       -3    1    3    3    0  502  0.88662145837E+02  0.79881417112E+03  0.38585644362E+03  0.89154375180E+03  0.10100000352E+00 0. -1.
</event>
<event>
 5   0  0.1225690E-03  0.1390569E+04  0.7818609E-02  0.8960673E-01
       -1   -1    0    0    0  501  0.00000000000E+00  0.00000000000E+00  0.12511432303E+04  0.12511432303E+04  0.50400001928E-02 0. -1.
        1   -1    0    0  501    0  0.00000000000E+00  0.00000000000E+00 -0.38638322170E+03  0.38638322173E+03  0.50400001928E-02 0.  1.
    10030    2    1    2    0    0  0.00000000000E+00  0.00000000000E+00  0.86476000861E+03  0.16375264520E+04  0.13905693110E+04 0.  0.
        4    1    3    3  502    0  0.68411065672E+03  0.11874947842E+03  0.47500680233E+03  0.84127397703E+03  0.12699999809E+01 0. -1.
       -4    1    3    3    0  502 -0.68411065672E+03 -0.11874947842E+03  0.38975320627E+03  0.79625247501E+03  0.12699999809E+01 0.  1.
</event>
<event>
 5   0  0.2190704E-03  0.1360115E+04  0.7818609E-02  0.8983207E-01
        2   -1    0    0  501    0  0.00000000000E+00  0.00000000000E+00  0.75991340510E+03  0.75991340510E+03  0.25500000920E-02 0. -1.
       -2   -1    0    0    0  501  0.00000000000E+00  0.00000000000E+00 -0.60859305547E+03  0.60859305547E+03  0.25500000920E-02 0.  1.
    10030    2    1    2    0    0  0.00000000000E+00  0.00000000000E+00  0.15132034963E+03  0.13685064606E+04  0.13601147321E+04 0.  0.
        5    1    3    3  502    0  0.40433927501E+03 -0.33779900376E+03  0.50826350910E+03  0.73208763201E+03  0.46999998093E+01 0. -1.
       -5    1    3    3    0  502 -0.40433927501E+03  0.33779900376E+03 -0.35694315947E+03  0.63641882856E+03  0.46999998093E+01 0.  1.
</event>
<event>
 5   0  0.2172901E-03  0.1376179E+04  0.7818609E-02  0.8971244E-01
       -2   -1    0    0    0  501  0.00000000000E+00  0.00000000000E+00  0.22565099295E+03  0.22565099296E+03  0.25500000920E-02 0. -1.
        2   -1    0    0  501    0  0.00000000000E+00  0.00000000000E+00 -0.20982271438E+04  0.20982271438E+04  0.25500000920E-02 0.  1.
    10030    2    1    2    0    0  0.00000000000E+00  0.00000000000E+00 -0.18725761509E+04  0.23238781368E+04  0.13761788233E+04 0.  0.
        2    1    3    3  502    0  0.40121832502E+03 -0.45224034245E+03 -0.14911554107E+04  0.16090500087E+04  0.25500000920E-02 0.  1.
       -2    1    3    3    0  502 -0.40121832502E+03  0.45224034245E+03 -0.38142074022E+03  0.71482812812E+03  0.25500000920E-02 0. -1.
</event>
<event>
 5   0  0.2172901E-03  0.1402447E+04  0.7818609E-02  0.8952049E-01
        2   -1    0    0  501    0  0.00000000000E+00  0.00000000000E+00  0.92420339177E+03  0.92420339178E+03  0.25500000920E-02 0. -1.
       -2   -1    0    0    0  501  0.00000000000E+00  0.00000000000E+00 -0.53204125254E+03  0.53204125255E+03  0.25500000920E-02 0.  1.
    10030    2    1    2    0    0  0.00000000000E+00  0.00000000000E+00  0.39216213923E+03  0.14562446443E+04  0.14024469048E+04 0.  0.
        2    1    3    3  502    0  0.55847197660E+03  0.14246474249E+03 -0.21864874264E+03  0.61643687768E+03  0.25500000920E-02 0.  1.
       -2    1    3    3    0  502 -0.55847197660E+03 -0.14246474249E+03  0.61081088187E+03  0.83980776665E+03  0.25500000920E-02 0. -1.
</event>
<event>
 5   0  0.1175374E-03  0.1453086E+04  0.7818609E-02  0.8916264E-01
       -1   -1    0    0    0  501  0.00000000000E+00  0.00000000000E+00  0.46510943695E+03  0.46510943698E+03  0.50400001928E-02 0.  1.
        1   -1    0    0  501    0  0.00000000000E+00  0.00000000000E+00 -0.11349264164E+04  0.11349264164E+04  0.50400001928E-02 0. -1.
    10030    2    1    2    0    0  0.00000000000E+00  0.00000000000E+00 -0.66981697946E+03  0.16000358534E+04  0.14530863519E+04 0.  0.
        3    1    3    3  502    0 -0.32646157426E+03 -0.56168104860E+03  0.23258596413E+02  0.65007978920E+03  0.10100000352E+00 0.  1.
       -3    1    3    3    0  502  0.32646157426E+03  0.56168104860E+03 -0.69307557587E+03  0.94995606419E+03  0.10100000352E+00 0. -1.
</event>
<event>
 5   0  0.1238683E-03  0.1408199E+04  0.7818609E-02  0.8947905E-01
       -1   -1    0    0    0  501  0.00000000000E+00  0.00000000000E+00  0.35537836990E+03  0.35537836993E+03  0.50400001928E-02 0. -1.
        1   -1    0    0  501    0  0.00000000000E+00  0.00000000000E+00 -0.13950097140E+04  0.13950097140E+04  0.50400001928E-02 0.  1.
    10030    2    1    2    0    0  0.00000000000E+00  0.00000000000E+00 -0.10396313441E+04  0.17503880839E+04  0.14081992447E+04 0.  0.
        2    1    3    3  502    0 -0.36140456981E+03 -0.29791852389E+03 -0.11732914485E+04  0.12633216270E+04  0.25500000920E-02 0.  1.
       -2    1    3    3    0  502  0.36140456981E+03  0.29791852389E+03  0.13366010446E+03  0.48706645695E+03  0.25500000920E-02 0. -1.
</event>
<event>
 5   0  0.2083966E-03  0.1396349E+04  0.7818609E-02  0.8956465E-01
       -2   -1    0    0    0  501  0.00000000000E+00  0.00000000000E+00  0.10714671026E+04  0.10714671026E+04  0.25500000920E-02 0.  1.
        2   -1    0    0  501    0  0.00000000000E+00  0.00000000000E+00 -0.45493496934E+03  0.45493496934E+03  0.25500000920E-02 0. -1.
    10030    2    1    2    0    0  0.00000000000E+00  0.00000000000E+00  0.61653213322E+03  0.15264020719E+04  0.13963493165E+04 0.  0.
        1    1    3    3  502    0  0.34695006620E+03  0.43174352347E+03 -0.15637665253E+03  0.57552626002E+03  0.50400001928E-02 0. -1.
       -1    1    3    3    0  502 -0.34695006620E+03 -0.43174352347E+03  0.77290878575E+03  0.95087581188E+03  0.50400001928E-02 0.  1.
</event>
<event>
 5   0  0.8293000E-04  0.1016028E+04  0.7818609E-02  0.9291138E-01
       -4   -1    0    0    0  501  0.00000000000E+00  0.00000000000E+00  0.72593310398E+03  0.72593421490E+03  0.12699999809E+01 0. -1.
        4   -1    0    0  501    0  0.00000000000E+00  0.00000000000E+00 -0.35551016274E+03  0.35551243116E+03  0.12699999809E+01 0.  1.
    10030    2    1    2    0    0  0.00000000000E+00  0.00000000000E+00  0.37042294124E+03  0.10814466461E+04  0.10160283918E+04 0.  0.
        1    1    3    3  502    0 -0.49621381579E+03  0.76726278023E+02  0.10301665585E+03  0.51256951151E+03  0.50400001928E-02 0.  1.
       -1    1    3    3    0  502  0.49621381579E+03 -0.76726278023E+02  0.26740628539E+03  0.56887713455E+03  0.50400001928E-02 0. -1.
</event>
<event>
 5   0  0.1199720E-03  0.1478582E+04  0.7818609E-02  0.8898822E-01
       -1   -1    0    0    0  501  0.00000000000E+00  0.00000000000E+00  0.69525281850E+03  0.69525281852E+03  0.50400001928E-02 0.  1.
        1   -1    0    0  501    0  0.00000000000E+00  0.00000000000E+00 -0.78611912999E+03  0.78611913001E+03  0.50400001928E-02 0. -1.
    10030    2    1    2    0    0  0.00000000000E+00  0.00000000000E+00 -0.90866311486E+02  0.14813719485E+04  0.14785824845E+04 0.  0.
        5    1    3    3  502    0 -0.11695293634E+02  0.43885293235E+03  0.55050054934E+03  0.70413182071E+03  0.46999998093E+01 0.  1.
       -5    1    3    3    0  502  0.11695293634E+02 -0.43885293235E+03 -0.64136686082E+03  0.77724012781E+03  0.46999998093E+01 0. -1.
</event>
<event>
 5   0  0.2190704E-03  0.1425681E+04  0.7818609E-02  0.8935436E-01
        2   -1    0    0  501    0  0.00000000000E+00  0.00000000000E+00  0.27930595489E+03  0.27930595491E+03  0.25500000920E-02 0.  1.
       -2   -1    0    0    0  501  0.00000000000E+00  0.00000000000E+00 -0.18193007401E+04  0.18193007401E+04  0.25500000920E-02 0. -1.
    10030    2    1    2    0    0  0.00000000000E+00  0.00000000000E+00 -0.15399947852E+04  0.20986066950E+04  0.14256809327E+04 0.  0.
        5    1    3    3  502    0 -0.32294655493E+03  0.26857477146E+03  0.77769738996E+02  0.42719680185E+03  0.46999998093E+01 0.  1.
       -5    1    3    3    0  502  0.32294655493E+03 -0.26857477146E+03 -0.16177645242E+04  0.16714098932E+04  0.46999998093E+01 0. -1.
</event>
<event>
 5   0  0.8293000E-04  0.1396964E+04  0.7818609E-02  0.8956019E-01
       -4   -1    0    0    0  501  0.00000000000E+00  0.00000000000E+00  0.14144975925E+04  0.14144981626E+04  0.12699999809E+01 0.  1.
        4   -1    0    0  501    0  0.00000000000E+00  0.00000000000E+00 -0.34490988919E+03  0.34491222733E+03  0.12699999809E+01 0. -1.
    10030    2    1    2    0    0  0.00000000000E+00  0.00000000000E+00  0.10695877033E+04  0.17594103899E+04  0.13969635161E+04 0.  0.
        5    1    3    3  502    0 -0.26014356619E+03  0.55912741647E+03  0.12174588694E+03  0.62860344722E+03  0.46999998093E+01 0. -1.
       -5    1    3    3    0  502  0.26014356619E+03 -0.55912741647E+03  0.94784181632E+03  0.11308069427E+04  0.46999998093E+01 0.  1.
</event>
<event>
 5   0  0.1175374E-03  0.1398209E+04  0.7818609E-02  0.8955116E-01
       -1   -1    0    0    0  501  0.00000000000E+00  0.00000000000E+00  0.42784989248E+03  0.42784989251E+03  0.50400001928E-02 0.  1.
        1   -1    0    0  501    0  0.00000000000E+00  0.00000000000E+00 -0.11423328739E+04  0.11423328739E+04  0.50400001928E-02 0. -1.
    10030    2    1    2    0    0  0.00000000000E+00  0.00000000000E+00 -0.71448298144E+03  0.15701827664E+04  0.13982088504E+04 0.  0.
        3    1    3    3  502    0  0.46931703698E+03 -0.14823155680E+03 -0.91481308170E+03  0.10388041492E+04  0.10100000352E+00 0. -1.
       -3    1    3    3    0  502 -0.46931703698E+03  0.14823155680E+03  0.20033010027E+03  0.53137861729E+03  0.10100000352E+00 0.  1.
</event>
<event>
 5   0  0.1175374E-03  0.1425614E+04  0.7818609E-02  0.8935484E-01
       -1   -1    0    0    0  501  0.00000000000E+00  0.00000000000E+00  0.35129369328E+03  0.35129369331E+03  0.50400001928E-02 0. -1.
        1   -1    0    0  501    0  0.00000000000E+00  0.00000000000E+00 -0.14463503098E+04  0.14463503098E+04  0.50400001928E-02 0.  1.
    10030    2    1    2    0    0  0.00000000000E+00  0.00000000000E+00 -0.10950566166E+04  0.17976440032E+04  0.14256138918E+04 0.  0.
        3    1    3    3  502    0 -0.64029849943E+03  0.55964809187E+02 -0.15891584967E+03  0.66209401577E+03  0.10100000352E+00 0. -1.
       -3    1    3    3    0  502  0.64029849943E+03 -0.55964809187E+02 -0.93614076688E+03  0.11355499874E+04  0.10100000352E+00 0.  1.
</event>
<event>
 5   0  0.2172901E-03  0.1402237E+04  0.7818609E-02  0.8952201E-01
        2   -1    0    0  501    0  0.00000000000E+00  0.00000000000E+00  0.88275364884E+03  0.88275364884E+03  0.25500000920E-02 0.  1.
       -2   -1    0    0    0  501  0.00000000000E+00  0.00000000000E+00 -0.55685630122E+03  0.55685630123E+03  0.25500000920E-02 0. -1.
    10030    2    1    2    0    0  0.00000000000E+00  0.00000000000E+00  0.32589734761E+03  0.14396099501E+04  0.14022366873E+04 0.  0.
        2    1    3    3  502    0  0.64026052842E+03  0.26635094187E+03  0.56797742491E+02  0.69577464171E+03  0.25500000920E-02 0. -1.
       -2    1    3    3    0  502 -0.64026052842E+03 -0.26635094187E+03  0.26909960512E+03  0.74383530836E+03  0.25500000920E-02 0.  1.
</event>
<event>
 5   0  0.2083966E-03  0.1390801E+04  0.7818609E-02  0.8960504E-01
        2   -1    0    0  501    0  0.00000000000E+00  0.00000000000E+00  0.13888305325E+04  0.13888305325E+04  0.25500000920E-02 0. -1.
       -2   -1    0    0    0  501  0.00000000000E+00  0.00000000000E+00 -0.34819379495E+03  0.34819379496E+03  0.25500000920E-02 0.  1.
    10030    2    1    2    0    0  0.00000000000E+00  0.00000000000E+00  0.10406367375E+04  0.17370243275E+04  0.13908014577E+04 0.  0.
        1    1    3    3  502    0  0.36714340051E+03  0.48670561999E+03  0.93811655540E+03  0.11188115608E+04  0.50400001928E-02 0. -1.
       -1    1    3    3    0  502 -0.36714340051E+03 -0.48670561999E+03  0.10252018214E+03  0.61821276664E+03  0.50400001928E-02 0.  1.
</event>
<event>
 5   0  0.1175374E-03  0.1407383E+04  0.7818609E-02  0.8948491E-01
       -1   -1    0    0    0  501  0.00000000000E+00  0.00000000000E+00  0.72148268207E+03  0.72148268208E+03  0.50400001928E-02 0. -1.
        1   -1    0    0  501    0  0.00000000000E+00  0.00000000000E+00 -0.68633943557E+03  0.68633943559E+03  0.50400001928E-02 0.  1.
    10030    2    1    2    0    0  0.00000000000E+00  0.00000000000E+00  0.35143246493E+02  0.14078221177E+04  0.14073834116E+04 0.  0.
        3    1    3    3  502    0  0.82548092804E+02  0.65615323922E+03 -0.22298357827E+03  0.69790611643E+03  0.10100000352E+00 0. -1.
       -3    1    3    3    0  502 -0.82548092804E+02 -0.65615323922E+03  0.25812682476E+03  0.70991600125E+03  0.10100000352E+00 0.  1.
</event>
<event>
 5   0  0.2083966E-03  0.1238346E+04  0.7818609E-02  0.9079939E-01
       -2   -1    0    0    0  501  0.00000000000E+00  0.00000000000E+00  0.25860201702E+03  0.25860201703E+03  0.25500000920E-02 0. -1.
        2   -1    0    0  501    0  0.00000000000E+00  0.00000000000E+00 -0.14824908935E+04  0.14824908935E+04  0.25500000920E-02 0.  1.
    10030    2    1    2    0    0  0.00000000000E+00  0.00000000000E+00 -0.12238888765E+04  0.17410929106E+04  0.12383458891E+04 0.  0.
        1    1    3    3  502    0  0.45526727233E+02  0.14692034319E+03 -0.14552022641E+04  0.14633085456E+04  0.50400001928E-02 0.  1.
       -1    1    3    3    0  502 -0.45526727233E+02 -0.14692034319E+03  0.23131338757E+03  0.27778436499E+03  0.50400001928E-02 0. -1.
</event>
<event>
 5   0  0.2083966E-03  0.1368425E+04  0.7818609E-02  0.8976997E-01
        2   -1    0    0  501    0  0.00000000000E+00  0.00000000000E+00  0.89137799502E+03  0.89137799502E+03  0.25500000920E-02 0. -1.
       -2   -1    0    0    0  501  0.00000000000E+00  0.00000000000E+00 -0.52519452481E+03  0.52519452482E+03  0.25500000920E-02 0.  1.
    10030    2    1    2    0    0  0.00000000000E+00  0.00000000000E+00  0.36618347020E+03  0.14165725198E+04  0.13684251423E+04 0.  0.
        1    1    3    3  502    0  0.11153346627E+02  0.26376348689E+03 -0.47034775096E+03  0.53937239549E+03  0.50400001928E-02 0.  1.
       -1    1    3    3    0  502 -0.11153346627E+02 -0.26376348689E+03  0.83653122116E+03  0.87720012435E+03  0.50400001928E-02 0. -1.
</event>
<event>
 5   0  0.2190704E-03  0.1379523E+04  0.7818609E-02  0.8968775E-01
        2   -1    0    0  501    0  0.00000000000E+00  0.00000000000E+00  0.77584962651E+03  0.77584962652E+03  0.25500000920E-02 0.  1.
       -2   -1    0    0    0  501  0.00000000000E+00  0.00000000000E+00 -0.61322590449E+03  0.61322590450E+03  0.25500000920E-02 0. -1.
    10030    2    1    2    0    0  0.00000000000E+00  0.00000000000E+00  0.16262372202E+03  0.13890755310E+04  0.13795232350E+04 0.  0.
        5    1    3    3  502    0  0.54041203741E+02  0.99567352515E+02 -0.60377780493E+03  0.61433202514E+03  0.46999998093E+01 0. -1.
       -5    1    3    3    0  502 -0.54041203741E+02 -0.99567352515E+02  0.76640152695E+03  0.77474350588E+03  0.46999998093E+01 0.  1.
</event>
<event>
 5   0  0.2083966E-03  0.1261822E+04  0.7818609E-02  0.9060401E-01
       -2   -1    0    0    0  501  0.00000000000E+00  0.00000000000E+00  0.59103493726E+03  0.59103493726E+03  0.25500000920E-02 0. -1.
        2   -1    0    0  501    0  0.00000000000E+00  0.00000000000E+00 -0.67347762222E+03  0.67347762222E+03  0.25500000920E-02 0.  1.
    10030    2    1    2    0    0  0.00000000000E+00  0.00000000000E+00 -0.82442684959E+02  0.12645125595E+04  0.12618221811E+04 0.  0.
        1    1    3    3  502    0 -0.58411868024E+03  0.19592715185E+03  0.94960718997E+02  0.62337758992E+03  0.50400001928E-02 0.  1.
       -1    1    3    3    0  502  0.58411868024E+03 -0.19592715185E+03 -0.17740340396E+03  0.64113496956E+03  0.50400001928E-02 0. -1.
</event>
<event>
 5   0  0.1210275E-03  0.1385620E+04  0.7818609E-02  0.8964294E-01
       -1   -1    0    0    0  501  0.00000000000E+00  0.00000000000E+00  0.28947013513E+03  0.28947013518E+03  0.50400001928E-02 0. -1.
        1   -1    0    0  501    0  0.00000000000E+00  0.00000000000E+00 -0.16581516402E+04  0.16581516402E+04  0.50400001928E-02 0.  1.
    10030    2    1    2    0    0  0.00000000000E+00  0.00000000000E+00 -0.13686815051E+04  0.19476217754E+04  0.13856195429E+04 0.  0.
        1    1    3    3  502    0 -0.66081297150E+03 -0.52576000820E+02 -0.96737690650E+03  0.11727131356E+04  0.50400001928E-02 0.  1.
       -1    1    3    3    0  502  0.66081297150E+03  0.52576000820E+02 -0.40130459860E+03  0.77490863981E+03  0.50400001928E-02 0. -1.
</event>
<event>
 5   0  0.1210275E-03  0.1422935E+04  0.7818609E-02  0.8937382E-01
       -1   -1    0    0    0  501  0.00000000000E+00  0.00000000000E+00  0.83171940041E+03  0.83171940042E+03  0.50400001928E-02 0. -1.
        1   -1    0    0  501    0  0.00000000000E+00  0.00000000000E+00 -0.60860225946E+03  0.60860225948E+03  0.50400001928E-02 0.  1.
    10030    2    1    2    0    0  0.00000000000E+00  0.00000000000E+00  0.22311714095E+03  0.14403216599E+04  0.14229354256E+04 0.  0.
        1    1    3    3  502    0  0.40669599000E+02 -0.36311879735E+03  0.72949046565E+03  0.81588333527E+03  0.50400001928E-02 0. -1.
       -1    1    3    3    0  502 -0.40669599000E+02  0.36311879735E+03 -0.50637332470E+03  0.62443832463E+03  0.50400001928E-02 0.  1.
</event>
<event>
 5   0  0.1210275E-03  0.1385503E+04  0.7818609E-02  0.8964379E-01
       -1   -1    0    0    0  501  0.00000000000E+00  0.00000000000E+00  0.49901896860E+03  0.49901896863E+03  0.50400001928E-02 0.  1.
        1   -1    0    0  501    0  0.00000000000E+00  0.00000000000E+00 -0.96169660922E+03  0.96169660924E+03  0.50400001928E-02 0. -1.
    10030    2    1    2    0    0  0.00000000000E+00  0.00000000000E+00 -0.46267764062E+03  0.14607155779E+04  0.13855033022E+04 0.  0.
        1    1    3    3  502    0  0.60352348788E+03  0.33877995923E+03 -0.26283335254E+03  0.74033359537E+03  0.50400001928E-02 0.  1.
       -1    1    3    3    0  502 -0.60352348788E+03 -0.33877995923E+03 -0.19984428808E+03  0.72038198249E+03  0.50400001928E-02 0. -1.
</event>
<event>
 5   0  0.2190704E-03  0.1403542E+04  0.7818609E-02  0.8951259E-01
        2   -1    0    0  501    0  0.00000000000E+00  0.00000000000E+00  0.23915622281E+04  0.23915622281E+04  0.25500000920E-02 0.  1.
       -2   -1    0    0    0  501  0.00000000000E+00  0.00000000000E+00 -0.20592496203E+03  0.20592496205E+03  0.25500000920E-02 0. -1.
    10030    2    1    2    0    0  0.00000000000E+00  0.00000000000E+00  0.21856372661E+04  0.25974871902E+04  0.14035417501E+04 0.  0.
        5    1    3    3  502    0 -0.68660238261E+02  0.55675702027E+03  0.31253147325E+03  0.64217647085E+03  0.46999998093E+01 0. -1.
       -5    1    3    3    0  502  0.68660238261E+02 -0.55675702027E+03  0.18731057928E+04  0.19553107193E+04  0.46999998093E+01 0.  1.
</event>
<event>
 5   0  0.2083966E-03  0.1374445E+04  0.7818609E-02  0.8972527E-01
       -2   -1    0    0    0  501  0.00000000000E+00  0.00000000000E+00  0.10272006172E+04  0.10272006172E+04  0.25500000920E-02 0.  1.
        2   -1    0    0  501    0  0.00000000000E+00  0.00000000000E+00 -0.45976908730E+03  0.45976908730E+03  0.25500000920E-02 0. -1.
    10030    2    1    2    0    0  0.00000000000E+00  0.00000000000E+00  0.56743152987E+03  0.14869697045E+04  0.13744454740E+04 0.  0.
        1    1    3    3  502    0  0.44285993771E+03 -0.41623781140E+03 -0.63320115093E+02  0.61105505240E+03  0.50400001928E-02 0. -1.
       -1    1    3    3    0  502 -0.44285993771E+03  0.41623781140E+03  0.63075164497E+03  0.87591465207E+03  0.50400001928E-02 0.  1.
</event>
<event>
 5   0  0.1199720E-03  0.1370963E+04  0.7818609E-02  0.8975109E-01
       -1   -1    0    0    0  501  0.00000000000E+00  0.00000000000E+00  0.94748612215E+03  0.94748612217E+03  0.50400001928E-02 0. -1.
        1   -1    0    0  501    0  0.00000000000E+00  0.00000000000E+00 -0.49592806152E+03  0.49592806155E+03  0.50400001928E-02 0.  1.
    10030    2    1    2    0    0  0.00000000000E+00  0.00000000000E+00  0.45155806063E+03  0.14434141837E+04  0.13709631008E+04 0.  0.
        5    1    3    3  502    0  0.62595825829E+03  0.21842915551E+03  0.42426941218E+02  0.66434717764E+03  0.46999998093E+01 0. -1.
       -5    1    3    3    0  502 -0.62595825829E+03 -0.21842915551E+03  0.40913111941E+03  0.77906700608E+03  0.46999998093E+01 0.  1.
</event>
<event>
 5   0  0.1175374E-03  0.1294457E+04  0.7818609E-02  0.9033972E-01
        1   -1    0    0  501    0  0.00000000000E+00  0.00000000000E+00  0.73186778611E+03  0.73186778612E+03  0.50400001928E-02 0.  1.
       -1   -1    0    0    0  501  0.00000000000E+00  0.00000000000E+00 -0.57237783928E+03  0.57237783930E+03  0.50400001928E-02 0. -1.
    10030    2    1    2    0    0  0.00000000000E+00  0.00000000000E+00  0.15948994683E+03  0.13042456254E+04  0.12944572640E+04 0.  0.
        3    1    3    3  502    0 -0.28305297990E+03  0.55504594778E+03  0.25631251121E+03  0.67371441069E+03  0.10100000352E+00 0.  1.
       -3    1    3    3    0  502  0.28305297990E+03 -0.55504594778E+03 -0.96822564377E+02  0.63053121473E+03  0.10100000352E+00 0. -1.
</event>
<event>
 5   0  0.2083966E-03  0.1016834E+04  0.7818609E-02  0.9290271E-01
       -2   -1    0    0    0  501  0.00000000000E+00  0.00000000000E+00  0.33007189400E+03  0.33007189401E+03  0.25500000920E-02 0. -1.
        2   -1    0    0  501    0  0.00000000000E+00  0.00000000000E+00 -0.78312644477E+03  0.78312644477E+03  0.25500000920E-02 0.  1.
    10030    2    1    2    0    0  0.00000000000E+00  0.00000000000E+00 -0.45305455076E+03  0.11131983388E+04  0.10168343599E+04 0.  0.
        1    1    3    3  502    0  0.19031734385E+03  0.29217759594E+03 -0.63159105438E+03  0.72145387859E+03  0.50400001928E-02 0.  1.
       -1    1    3    3    0  502 -0.19031734385E+03 -0.29217759594E+03  0.17853650362E+03  0.39174446019E+03  0.50400001928E-02 0. -1.
</event>
<event>
 5   0  0.1210275E-03  0.1382920E+04  0.7818609E-02  0.8966276E-01
       -1   -1    0    0    0  501  0.00000000000E+00  0.00000000000E+00  0.47426193581E+03  0.47426193584E+03  0.50400001928E-02 0. -1.
        1   -1    0    0  501    0  0.00000000000E+00  0.00000000000E+00 -0.10081282802E+04  0.10081282802E+04  0.50400001928E-02 0.  1.
    10030    2    1    2    0    0  0.00000000000E+00  0.00000000000E+00 -0.53386634441E+03  0.14823902161E+04  0.13829199106E+04 0.  0.
        1    1    3    3  502    0  0.38610079988E+03  0.32881986715E+03  0.23689628502E+03  0.55974653423E+03  0.50400001928E-02 0. -1.
       -1    1    3    3    0  502 -0.38610079988E+03 -0.32881986715E+03 -0.77076262943E+03  0.92264368185E+03  0.50400001928E-02 0.  1.
</event>
<event>
 5   0  0.1238683E-03  0.1393701E+04  0.7818609E-02  0.8958391E-01
        1   -1    0    0  501    0  0.00000000000E+00  0.00000000000E+00  0.11297062399E+04  0.11297062399E+04  0.50400001928E-02 0. -1.
       -1   -1    0    0    0  501  0.00000000000E+00  0.00000000000E+00 -0.42984652434E+03  0.42984652437E+03  0.50400001928E-02 0.  1.
    10030    2    1    2    0    0  0.00000000000E+00  0.00000000000E+00  0.69985971552E+03  0.15595527642E+04  0.13937005428E+04 0.  0.
        2    1    3    3  502    0  0.64915418476E+03 -0.22741612698E+03  0.22491657164E+03  0.72367583531E+03  0.25500000920E-02 0.  1.
       -2    1    3    3    0  502 -0.64915418476E+03  0.22741612698E+03  0.47494314389E+03  0.83587692894E+03  0.25500000920E-02 0. -1.
</event>
<event>
 5   0  0.1225690E-03  0.1329300E+04  0.7818609E-02  0.9006647E-01
        1   -1    0    0  501    0  0.00000000000E+00  0.00000000000E+00  0.70587006664E+03  0.70587006666E+03  0.50400001928E-02 0. -1.
       -1   -1    0    0    0  501  0.00000000000E+00  0.00000000000E+00 -0.62583685816E+03  0.62583685818E+03  0.50400001928E-02 0.  1.
    10030    2    1    2    0    0  0.00000000000E+00  0.00000000000E+00  0.80033208473E+02  0.13317069248E+04  0.13292998229E+04 0.  0.
        4    1    3    3  502    0 -0.23665634609E+03  0.59383007747E+03  0.22232829361E+03  0.67681006944E+03  0.12699999809E+01 0.  1.
       -4    1    3    3    0  502  0.23665634609E+03 -0.59383007747E+03 -0.14229508514E+03  0.65489685540E+03  0.12699999809E+01 0. -1.
</event>
<event>
 5   0  0.1238683E-03  0.1457278E+04  0.7818609E-02  0.8913370E-01
       -1   -1    0    0    0  501  0.00000000000E+00  0.00000000000E+00  0.64722874733E+03  0.64722874734E+03  0.50400001928E-02 0. -1.
        1   -1    0    0  501    0  0.00000000000E+00  0.00000000000E+00 -0.82028937759E+03  0.82028937761E+03  0.50400001928E-02 0.  1.
    10030    2    1    2    0    0  0.00000000000E+00  0.00000000000E+00 -0.17306063027E+03  0.14675181250E+04  0.14572781016E+04 0.  0.
        2    1    3    3  502    0 -0.78285478353E+01  0.39386551304E+03 -0.70380040921E+03  0.80655213379E+03  0.25500000920E-02 0.  1.
       -2    1    3    3    0  502  0.78285478353E+01 -0.39386551304E+03  0.53073977894E+03  0.66096599116E+03  0.25500000920E-02 0. -1.
</event>
<event>
 5   0  0.1210275E-03  0.1371293E+04  0.7818609E-02  0.8974865E-01
        1   -1    0    0  501    0  0.00000000000E+00  0.00000000000E+00  0.12047048651E+04  0.12047048651E+04  0.50400001928E-02 0.  1.
       -1   -1    0    0    0  501  0.00000000000E+00  0.00000000000E+00 -0.39022912839E+03  0.39022912843E+03  0.50400001928E-02 0. -1.
    10030    2    1    2    0    0  0.00000000000E+00  0.00000000000E+00  0.81447573666E+03  0.15949339935E+04  0.13712927178E+04 0.  0.
        1    1    3    3  502    0  0.25945542388E+03 -0.51701274790E+03  0.83536108526E+03  0.10160942088E+04  0.50400001928E-02 0.  1.
       -1    1    3    3    0  502 -0.25945542388E+03  0.51701274790E+03 -0.20885348598E+02  0.57883978464E+03  0.50400001928E-02 0. -1.
</event>
<event>
 5   0  0.1175374E-03  0.1383048E+04  0.7818609E-02  0.8966182E-01
       -1   -1    0    0    0  501  0.00000000000E+00  0.00000000000E+00  0.23333421612E+03  0.23333421617E+03  0.50400001928E-02 0. -1.
        1   -1    0    0  501    0  0.00000000000E+00  0.00000000000E+00 -0.20494430373E+04  0.20494430373E+04  0.50400001928E-02 0.  1.
    10030    2    1    2    0    0  0.00000000000E+00  0.00000000000E+00 -0.18161088212E+04  0.22827772535E+04  0.13830476270E+04 0.  0.
        3    1    3    3  502    0 -0.22099265945E+03  0.36323914613E+02 -0.19879272863E+04  0.20005029588E+04  0.10100000352E+00 0.  1.
       -3    1    3    3    0  502  0.22099265945E+03 -0.36323914613E+02  0.17181846509E+03  0.28227429471E+03  0.10100000352E+00 0. -1.
</event>
<event>
 5   0  0.1225690E-03  0.1398315E+04  0.7818609E-02  0.8955039E-01
       -1   -1    0    0    0  501  0.00000000000E+00  0.00000000000E+00  0.78561465178E+03  0.78561465179E+03  0.50400001928E-02 0. -1.
        1   -1    0    0  501    0  0.00000000000E+00  0.00000000000E+00 -0.62221526792E+03  0.62221526794E+03  0.50400001928E-02 0.  1.
    10030    2    1    2    0    0  0.00000000000E+00  0.00000000000E+00  0.16339938385E+03  0.14078299197E+04  0.13983153165E+04 0.  0.
        4    1    3    3  502    0 -0.43014671413E+03 -0.12436208735E+03  0.62231489552E+03  0.76666131149E+03  0.12699999809E+01 0. -1.
       -4    1    3    3    0  502  0.43014671413E+03  0.12436208735E+03 -0.45891551167E+03  0.64116860824E+03  0.12699999809E+01 0.  1.
</event>
<event>
 5   0  0.2236184E-03  0.1398166E+04  0.7818609E-02  0.8955147E-01
       -2   -1    0    0    0  501  0.00000000000E+00  0.00000000000E+00  0.38762430683E+03  0.38762430684E+03  0.25500000920E-02 0.  1.
        2   -1    0    0  501    0  0.00000000000E+00  0.00000000000E+00 -0.12608001453E+04  0.12608001453E+04  0.25500000920E-02 0. -1.
    10030    2    1    2    0    0  0.00000000000E+00  0.00000000000E+00 -0.87317583851E+03  0.16484244522E+04  0.13981656303E+04 0.  0.
        3    1    3    3  502    0  0.42923517304E+03  0.13283674502E+03  0.19483661695E+03  0.48974457844E+03  0.10100000352E+00 0.  1.
       -3    1    3    3    0  502 -0.42923517304E+03 -0.13283674502E+03 -0.10680124555E+04  0.11586798738E+04  0.10100000352E+00 0. -1.
</event>
<event>
 5   0  0.1238683E-03  0.1414703E+04  0.7818609E-02  0.8943244E-01
       -1   -1    0    0    0  501  0.00000000000E+00  0.00000000000E+00  0.24691207727E+03  0.24691207732E+03  0.50400001928E-02 0. -1.
        1   -1    0    0  501    0  0.00000000000E+00  0.00000000000E+00 -0.20264152133E+04  0.20264152133E+04  0.50400001928E-02 0.  1.
    10030    2    1    2    0    0  0.00000000000E+00  0.00000000000E+00 -0.17795031361E+04  0.22733272906E+04  0.14147033467E+04 0.  0.
        2    1    3    3  502    0 -0.46554963743E+03  0.45179050509E+03 -0.43667957826E+03  0.78201034487E+03  0.25500000920E-02 0. -1.
       -2    1    3    3    0  502  0.46554963743E+03 -0.45179050509E+03 -0.13428235578E+04  0.14913169458E+04  0.25500000920E-02 0.  1.
</event>
<event>
 5   0  0.1175374E-03  0.1388090E+04  0.7818609E-02  0.8962485E-01
        1   -1    0    0  501    0  0.00000000000E+00  0.00000000000E+00  0.23105292747E+04  0.23105292747E+04  0.50400001928E-02 0.  1.
       -1   -1    0    0    0  501  0.00000000000E+00  0.00000000000E+00 -0.20847962471E+03  0.20847962478E+03  0.50400001928E-02 0. -1.
    10030    2    1    2    0    0  0.00000000000E+00  0.00000000000E+00  0.21020496500E+04  0.25190088995E+04  0.13880897322E+04 0.  0.
        3    1    3    3  502    0 -0.35992357097E+02  0.66219944351E+03  0.14224674766E+04  0.15694640120E+04  0.10100000352E+00 0.  1.
       -3    1    3    3    0  502  0.35992357097E+02 -0.66219944351E+03  0.67958217336E+03  0.94954488746E+03  0.10100000352E+00 0. -1.
</event>
<event>
 5   0  0.8293000E-04  0.1417394E+04  0.7818609E-02  0.8941323E-01
       -4   -1    0    0    0  501  0.00000000000E+00  0.00000000000E+00  0.81426039352E+03  0.81426138392E+03  0.12699999809E+01 0.  1.
        4   -1    0    0  501    0  0.00000000000E+00  0.00000000000E+00 -0.61681692277E+03  0.61681823020E+03  0.12699999809E+01 0. -1.
    10030    2    1    2    0    0  0.00000000000E+00  0.00000000000E+00  0.19744347075E+03  0.14310796141E+04  0.14173937131E+04 0.  0.
        5    1    3    3  502    0  0.29157386699E+03  0.59580061457E+03  0.35060088472E+03  0.75029111857E+03  0.46999998093E+01 0.  1.
       -5    1    3    3    0  502 -0.29157386699E+03 -0.59580061457E+03 -0.15315741397E+03  0.68078849556E+03  0.46999998093E+01 0. -1.
</event>
<event>
 5   0  0.2083966E-03  0.1387216E+04  0.7818609E-02  0.8963125E-01
        2   -1    0    0  501    0  0.00000000000E+00  0.00000000000E+00  0.50551769670E+03  0.50551769671E+03  0.25500000920E-02 0. -1.
       -2   -1    0    0    0  501  0.00000000000E+00  0.00000000000E+00 -0.95168141662E+03  0.95168141662E+03  0.25500000920E-02 0.  1.
    10030    2    1    2    0    0  0.00000000000E+00  0.00000000000E+00 -0.44616371992E+03  0.14571991133E+04  0.13872156252E+04 0.  0.
        1    1    3    3  502    0  0.34877687552E+02  0.41862973047E+03 -0.80285399211E+03  0.90611358945E+03  0.50400001928E-02 0.  1.
       -1    1    3    3    0  502 -0.34877687552E+02 -0.41862973047E+03  0.35669027219E+03  0.55108552387E+03  0.50400001928E-02 0. -1.
</event>
<event>
 5   0  0.1210275E-03  0.1385942E+04  0.7818609E-02  0.8964058E-01
       -1   -1    0    0    0  501  0.00000000000E+00  0.00000000000E+00  0.63247011249E+03  0.63247011251E+03  0.50400001928E-02 0.  1.
        1   -1    0    0  501    0  0.00000000000E+00  0.00000000000E+00 -0.75925926360E+03  0.75925926362E+03  0.50400001928E-02 0. -1.
    10030    2    1    2    0    0  0.00000000000E+00  0.00000000000E+00 -0.12678915111E+03  0.13917293761E+04  0.13859419784E+04 0.  0.
        1    1    3    3  502    0  0.43945503992E+03 -0.52835578032E+03 -0.15280699403E+03  0.70401032674E+03  0.50400001928E-02 0.  1.
       -1    1    3    3    0  502 -0.43945503992E+03  0.52835578032E+03  0.26017842916E+02  0.68771904939E+03  0.50400001928E-02 0. -1.
</event>
<event>
 5   0  0.2172901E-03  0.1400171E+04  0.7818609E-02  0.8953695E-01
       -2   -1    0    0    0  501  0.00000000000E+00  0.00000000000E+00  0.36578598280E+03  0.36578598281E+03  0.25500000920E-02 0. -1.
        2   -1    0    0  501    0  0.00000000000E+00  0.00000000000E+00 -0.13399080789E+04  0.13399080789E+04  0.25500000920E-02 0.  1.
    10030    2    1    2    0    0  0.00000000000E+00  0.00000000000E+00 -0.97412209610E+03  0.17056940617E+04  0.14001708374E+04 0.  0.
        2    1    3    3  502    0  0.28156450273E+03  0.58504876866E+03 -0.16808929284E+03  0.67068222079E+03  0.25500000920E-02 0.  1.
       -2    1    3    3    0  502 -0.28156450273E+03 -0.58504876866E+03 -0.80603280326E+03  0.10350118409E+04  0.25500000920E-02 0. -1.
</event>
<event>
 5   0  0.1199720E-03  0.1545457E+04  0.7818609E-02  0.8854775E-01
       -1   -1    0    0    0  501  0.00000000000E+00  0.00000000000E+00  0.86378094958E+03  0.86378094959E+03  0.50400001928E-02 0. -1.
        1   -1    0    0  501    0  0.00000000000E+00  0.00000000000E+00 -0.69127386491E+03  0.69127386493E+03  0.50400001928E-02 0.  1.
    10030    2    1    2    0    0  0.00000000000E+00  0.00000000000E+00  0.17250708467E+03  0.15550548145E+04  0.15454568198E+04 0.  0.
        5    1    3    3  502    0 -0.53526218889E+03  0.52635047561E+03  0.27052106832E+03  0.79796877911E+03  0.46999998093E+01 0. -1.
       -5    1    3    3    0  502  0.53526218889E+03 -0.52635047561E+03 -0.98013983654E+02  0.75708603541E+03  0.46999998093E+01 0.  1.
</event>
<event>
 5   0  0.1225690E-03  0.1378615E+04  0.7818609E-02  0.8969445E-01
        1   -1    0    0  501    0  0.00000000000E+00  0.00000000000E+00  0.10180577596E+04  0.10180577596E+04  0.50400001928E-02 0. -1.
       -1   -1    0    0    0  501  0.00000000000E+00  0.00000000000E+00 -0.46671708990E+03  0.46671708992E+03  0.50400001928E-02 0.  1.
    10030    2    1    2    0    0  0.00000000000E+00  0.00000000000E+00  0.55134066972E+03  0.14847748495E+04  0.13786151819E+04 0.  0.
        4    1    3    3  502    0  0.67765173142E+03 -0.87136128864E+02  0.37401900484E+03  0.77890718505E+03  0.12699999809E+01 0.  1.
       -4    1    3    3    0  502 -0.67765173142E+03  0.87136128864E+02  0.17732166488E+03  0.70586766449E+03  0.12699999809E+01 0. -1.
</event>
<event>
 5   0  0.1175374E-03  0.1374647E+04  0.7818609E-02  0.8972377E-01
       -1   -1    0    0    0  501  0.00000000000E+00  0.00000000000E+00  0.55149097582E+03  0.55149097584E+03  0.50400001928E-02 0. -1.
        1   -1    0    0  501    0  0.00000000000E+00  0.00000000000E+00 -0.85661199562E+03  0.85661199563E+03  0.50400001928E-02 0.  1.
    10030    2    1    2    0    0  0.00000000000E+00  0.00000000000E+00 -0.30512101980E+03  0.14081029715E+04  0.13746472790E+04 0.  0.
        3    1    3    3  502    0 -0.35627169577E+03  0.24492478090E+03 -0.69988292233E+03  0.82265046324E+03  0.10100000352E+00 0.  1.
       -3    1    3    3    0  502  0.35627169577E+03 -0.24492478090E+03  0.39476190253E+03  0.58545250823E+03  0.10100000352E+00 0. -1.
</event>
<event>
 5   0  0.8293000E-04  0.1376833E+04  0.7818609E-02  0.8970761E-01
       -3   -1    0    0    0  501  0.00000000000E+00  0.00000000000E+00  0.45140565042E+03  0.45140566172E+03  0.10100000352E+00 0. -1.
        3   -1    0    0  501    0  0.00000000000E+00  0.00000000000E+00 -0.10498700781E+04  0.10498700830E+04  0.10100000352E+00 0.  1.
    10030    2    1    2    0    0  0.00000000000E+00  0.00000000000E+00 -0.59846442772E+03  0.15012757447E+04  0.13768330293E+04 0.  0.
        3    1    3    3  502    0 -0.55953353273E+03 -0.26313011499E+03  0.30781359223E+02  0.61908217059E+03  0.10100000352E+00 0.  1.
       -3    1    3    3    0  502  0.55953353273E+03  0.26313011499E+03 -0.62924578694E+03  0.88219357413E+03  0.10100000352E+00 0. -1.
</event>
<event>
 5   0  0.2236184E-03  0.1403344E+04  0.7818609E-02  0.8951401E-01
       -2   -1    0    0    0  501  0.00000000000E+00  0.00000000000E+00  0.44508629767E+03  0.44508629768E+03  0.25500000920E-02 0. -1.
        2   -1    0    0  501    0  0.00000000000E+00  0.00000000000E+00 -0.11061758839E+04  0.11061758839E+04  0.25500000920E-02 0.  1.
    10030    2    1    2    0    0  0.00000000000E+00  0.00000000000E+00 -0.66108958624E+03  0.15512621816E+04  0.14033441898E+04 0.  0.
        3    1    3    3  502    0  0.10285342572E+03 -0.65560237003E+03 -0.58249548269E+03  0.88300299678E+03  0.10100000352E+00 0. -1.
       -3    1    3    3    0  502 -0.10285342572E+03  0.65560237003E+03 -0.78594103552E+02  0.66825918481E+03  0.10100000352E+00 0.  1.
</event>
<event>
 5   0  0.2195980E-03  0.1331655E+04  0.7818609E-02  0.9004832E-01
       -2   -1    0    0    0  501  0.00000000000E+00  0.00000000000E+00  0.55493050075E+03  0.55493050076E+03  0.25500000920E-02 0.  1.
        2   -1    0    0  501    0  0.00000000000E+00  0.00000000000E+00 -0.79888607771E+03  0.79888607771E+03  0.25500000920E-02 0. -1.
    10030    2    1    2    0    0  0.00000000000E+00  0.00000000000E+00 -0.24395557696E+03  0.13538165785E+04  0.13316549871E+04 0.  0.
        4    1    3    3  502    0  0.44223811698E+03 -0.47769494652E+03  0.20198167422E+02  0.65128840993E+03  0.12699999809E+01 0. -1.
       -4    1    3    3    0  502 -0.44223811698E+03  0.47769494652E+03 -0.26415374438E+03  0.70252816855E+03  0.12699999809E+01 0.  1.
</event>
<event>
 5   0  0.1225690E-03  0.1351451E+04  0.7818609E-02  0.8989730E-01
       -1   -1    0    0    0  501  0.00000000000E+00  0.00000000000E+00  0.12194409918E+04  0.12194409918E+04  0.50400001928E-02 0. -1.
        1   -1    0    0  501    0  0.00000000000E+00  0.00000000000E+00 -0.37443814069E+03  0.37443814072E+03  0.50400001928E-02 0.  1.
    10030    2    1    2    0    0  0.00000000000E+00  0.00000000000E+00  0.84500285111E+03  0.15938791325E+04  0.13514513941E+04 0.  0.
        4    1    3    3  502    0  0.44666227826E+03 -0.26113921396E+03 -0.90093220149E+02  0.52518499702E+03  0.12699999809E+01 0.  1.
       -4    1    3    3    0  502 -0.44666227826E+03  0.26113921396E+03  0.93509607126E+03  0.10686941355E+04  0.12699999809E+01 0. -1.
</event>
<event>
 5   0  0.1199720E-03  0.1384870E+04  0.7818609E-02  0.8964844E-01
       -1   -1    0    0    0  501  0.00000000000E+00  0.00000000000E+00  0.52597721740E+03  0.52597721743E+03  0.50400001928E-02 0.  1.
        1   -1    0    0  501    0  0.00000000000E+00  0.00000000000E+00 -0.91157168532E+03  0.91157168533E+03  0.50400001928E-02 0. -1.
    10030    2    1    2    0    0  0.00000000000E+00  0.00000000000E+00 -0.38559446791E+03  0.14375489028E+04  0.13848695802E+04 0.  0.
        5    1    3    3  502    0  0.23885312902E+03 -0.51989885185E+02  0.47968080387E+03  0.53839532780E+03  0.46999998093E+01 0.  1.
       -5    1    3    3    0  502 -0.23885312902E+03  0.51989885185E+02 -0.86527527178E+03  0.89915357496E+03  0.46999998093E+01 0. -1.
</event>
<event>
 5   0  0.2236184E-03  0.1327857E+04  0.7818609E-02  0.9007761E-01
        2   -1    0    0  501    0  0.00000000000E+00  0.00000000000E+00  0.16488723476E+04  0.16488723476E+04  0.25500000920E-02 0. -1.
       -2   -1    0    0    0  501  0.00000000000E+00  0.00000000000E+00 -0.26733501827E+03  0.26733501828E+03  0.25500000920E-02 0.  1.
    10030    2    1    2    0    0  0.00000000000E+00  0.00000000000E+00  0.13815373293E+04  0.19162073658E+04  0.13278574007E+04 0.  0.
        3    1    3    3  502    0 -0.54982216013E+02 -0.11593829888E+03 -0.24927126330E+03  0.28035853141E+03  0.10100000352E+00 0.  1.
       -3    1    3    3    0  502  0.54982216013E+02  0.11593829888E+03  0.16308085926E+04  0.16358488344E+04  0.10100000352E+00 0. -1.
</event>
<event>
 5   0  0.1225690E-03  0.1389713E+04  0.7818609E-02  0.8961299E-01
       -1   -1    0    0    0  501  0.00000000000E+00  0.00000000000E+00  0.49158505028E+03  0.49158505031E+03  0.50400001928E-02 0. -1.
        1   -1    0    0  501    0  0.00000000000E+00  0.00000000000E+00 -0.98218094918E+03  0.98218094919E+03  0.50400001928E-02 0.  1.
    10030    2    1    2    0    0  0.00000000000E+00  0.00000000000E+00 -0.49059589889E+03  0.14737659995E+04  0.13897128787E+04 0.  0.
        4    1    3    3  502    0 -0.53276350622E+02  0.52316575567E+03 -0.72695204260E+03  0.89721884877E+03  0.12699999809E+01 0.  1.
       -4    1    3    3    0  502  0.53276350622E+02 -0.52316575567E+03  0.23635614370E+03  0.57654715073E+03  0.12699999809E+01 0. -1.
</event>
<event>
 5   0  0.2236184E-03  0.1222010E+04  0.7818609E-02  0.9093806E-01
       -2   -1    0    0    0  501  0.00000000000E+00  0.00000000000E+00  0.79610604557E+03  0.79610604557E+03  0.25500000920E-02 0. -1.
        2   -1    0    0  501    0  0.00000000000E+00  0.00000000000E+00 -0.46894155475E+03  0.46894155475E+03  0.25500000920E-02 0.  1.
    10030    2    1    2    0    0  0.00000000000E+00  0.00000000000E+00  0.32716449082E+03  0.12650476003E+04  0.12220101583E+04 0.  0.
        3    1    3    3  502    0  0.34958556260E+03 -0.13465849347E+03  0.66326608693E+03  0.76175119804E+03  0.10100000352E+00 0. -1.
       -3    1    3    3    0  502 -0.34958556260E+03  0.13465849347E+03 -0.33610159611E+03  0.50329640228E+03  0.10100000352E+00 0.  1.
</event>
<event>
 5   0  0.1199720E-03  0.1359335E+04  0.7818609E-02  0.8983791E-01
       -1   -1    0    0    0  501  0.00000000000E+00  0.00000000000E+00  0.45779770773E+03  0.45779770776E+03  0.50400001928E-02 0.  1.
        1   -1    0    0  501    0  0.00000000000E+00  0.00000000000E+00 -0.10090661515E+04  0.10090661515E+04  0.50400001928E-02 0. -1.
    10030    2    1    2    0    0  0.00000000000E+00  0.00000000000E+00 -0.55126844376E+03  0.14668638593E+04  0.13593353834E+04 0.  0.
        5    1    3    3  502    0 -0.27696468195E+03 -0.55756904729E+03 -0.56984270862E+03  0.84399969201E+03  0.46999998093E+01 0. -1.
       -5    1    3    3    0  502  0.27696468195E+03  0.55756904729E+03  0.18574264863E+02  0.62286416726E+03  0.46999998093E+01 0.  1.
</event>
<event>
 5   0  0.1238683E-03  0.1430546E+04  0.7818609E-02  0.8931999E-01
       -1   -1    0    0    0  501  0.00000000000E+00  0.00000000000E+00  0.31909713671E+03  0.31909713675E+03  0.50400001928E-02 0.  1.
        1   -1    0    0  501    0  0.00000000000E+00  0.00000000000E+00 -0.16033231355E+04  0.16033231355E+04  0.50400001928E-02 0. -1.
    10030    2    1    2    0    0  0.00000000000E+00  0.00000000000E+00 -0.12842259988E+04  0.19224202723E+04  0.14305464995E+04 0.  0.
        2    1    3    3  502    0 -0.54259712440E+03  0.16796588593E+02 -0.12680032917E+04  0.13793208881E+04  0.25500000920E-02 0. -1.
       -2    1    3    3    0  502  0.54259712440E+03 -0.16796588593E+02 -0.16222707137E+02  0.54309938412E+03  0.25500000920E-02 0.  1.
</event>
<event>
 5   0  0.2190704E-03  0.1383913E+04  0.7818609E-02  0.8965546E-01
        2   -1    0    0  501    0  0.00000000000E+00  0.00000000000E+00  0.57014804055E+03  0.57014804055E+03  0.25500000920E-02 0. -1.
       -2   -1    0    0    0  501  0.00000000000E+00  0.00000000000E+00 -0.83978882296E+03  0.83978882296E+03  0.25500000920E-02 0.  1.
    10030    2    1    2    0    0  0.00000000000E+00  0.00000000000E+00 -0.26964078241E+03  0.14099368635E+04  0.13839132226E+04 0.  0.
        5    1    3    3  502    0  0.48267499570E+03  0.34627151619E+03  0.22667969942E+03  0.63583401177E+03  0.46999998093E+01 0. -1.
       -5    1    3    3    0  502 -0.48267499570E+03 -0.34627151619E+03 -0.49632048183E+03  0.77410285175E+03  0.46999998093E+01 0.  1.
</event>
<event>
 5   0  0.1210275E-03  0.1407786E+04  0.7818609E-02  0.8948202E-01
       -1   -1    0    0    0  501  0.00000000000E+00  0.00000000000E+00  0.64330074998E+03  0.64330075000E+03  0.50400001928E-02 0. -1.
        1   -1    0    0  501    0  0.00000000000E+00  0.00000000000E+00 -0.77019269019E+03  0.77019269021E+03  0.50400001928E-02 0.  1.
    10030    2    1    2    0    0  0.00000000000E+00  0.00000000000E+00 -0.12689194021E+03  0.14134934402E+04  0.14077862555E+04 0.  0.
        1    1    3    3  502    0 -0.99093778282E+02  0.61617866346E+03 -0.39029572274E+03  0.73608863149E+03  0.50400001928E-02 0.  1.
       -1    1    3    3    0  502  0.99093778282E+02 -0.61617866346E+03  0.26340378253E+03  0.67740480872E+03  0.50400001928E-02 0. -1.
</event>
<event>
 5   0  0.1210275E-03  0.1385023E+04  0.7818609E-02  0.8964732E-01
       -1   -1    0    0    0  501  0.00000000000E+00  0.00000000000E+00  0.44584451645E+03  0.44584451648E+03  0.50400001928E-02 0.  1.
        1   -1    0    0  501    0  0.00000000000E+00  0.00000000000E+00 -0.10756489268E+04  0.10756489268E+04  0.50400001928E-02 0. -1.
    10030    2    1    2    0    0  0.00000000000E+00  0.00000000000E+00 -0.62980441034E+03  0.15214934433E+04  0.13850229971E+04 0.  0.
        1    1    3    3  502    0  0.11564926170E+03  0.68076556988E+03 -0.37256904261E+03  0.78461723433E+03  0.50400001928E-02 0.  1.
       -1    1    3    3    0  502 -0.11564926170E+03 -0.68076556988E+03 -0.25723536772E+03  0.73687620894E+03  0.50400001928E-02 0. -1.
</event>
<event>
 5   0  0.2236184E-03  0.1399761E+04  0.7818609E-02  0.8953992E-01
       -2   -1    0    0    0  501  0.00000000000E+00  0.00000000000E+00  0.23761944713E+03  0.23761944714E+03  0.25500000920E-02 0.  1.
        2   -1    0    0  501    0  0.00000000000E+00  0.00000000000E+00 -0.20614154922E+04  0.20614154922E+04  0.25500000920E-02 0. -1.
    10030    2    1    2    0    0  0.00000000000E+00  0.00000000000E+00 -0.18237960450E+04  0.22990349393E+04  0.13997605646E+04 0.  0.
        3    1    3    3  502    0 -0.42635834168E+03  0.33127426175E+03 -0.16433103793E+04  0.17297378659E+04  0.10100000352E+00 0. -1.
       -3    1    3    3    0  502  0.42635834168E+03 -0.33127426175E+03 -0.18048566577E+03  0.56929707339E+03  0.10100000352E+00 0.  1.
</event>
<event>
 5   0  0.1225690E-03  0.1398659E+04  0.7818609E-02  0.8954790E-01
        1   -1    0    0  501    0  0.00000000000E+00  0.00000000000E+00  0.51752235460E+03  0.51752235463E+03  0.50400001928E-02 0.  1.
       -1   -1    0    0    0  501  0.00000000000E+00  0.00000000000E+00 -0.94500580757E+03  0.94500580758E+03  0.50400001928E-02 0. -1.
    10030    2    1    2    0    0  0.00000000000E+00  0.00000000000E+00 -0.42748345297E+03  0.14625281622E+04  0.13986588300E+04 0.  0.
        4    1    3    3  502    0 -0.28134789120E+03 -0.40160061871E+03 -0.73512940174E+03  0.88366087558E+03  0.12699999809E+01 0. -1.
       -4    1    3    3    0  502  0.28134789120E+03  0.40160061871E+03  0.30764594877E+03  0.57886728663E+03  0.12699999809E+01 0.  1.
</event>
<event>
 5   0  0.1210275E-03  0.1376372E+04  0.7818609E-02  0.8971102E-01
        1   -1    0    0  501    0  0.00000000000E+00  0.00000000000E+00  0.66984347637E+03  0.66984347639E+03  0.50400001928E-02 0. -1.
       -1   -1    0    0    0  501  0.00000000000E+00  0.00000000000E+00 -0.70703065464E+03  0.70703065466E+03  0.50400001928E-02 0.  1.
    10030    2    1    2    0    0  0.00000000000E+00  0.00000000000E+00 -0.37187178266E+02  0.13768741310E+04  0.13763718562E+04 0.  0.
        1    1    3    3  502    0 -0.18759508976E+03 -0.72100736389E+02  0.63983307709E+03  0.67065400950E+03  0.50400001928E-02 0. -1.
       -1    1    3    3    0  502  0.18759508976E+03  0.72100736389E+02 -0.67702025536E+03  0.70622012155E+03  0.50400001928E-02 0.  1.
</event>
<event>
 5   0  0.2190704E-03  0.1379809E+04  0.7818609E-02  0.8968565E-01
        2   -1    0    0  501    0  0.00000000000E+00  0.00000000000E+00  0.10542300059E+04  0.10542300059E+04  0.25500000920E-02 0. -1.
       -2   -1    0    0    0  501  0.00000000000E+00  0.00000000000E+00 -0.45148443354E+03  0.45148443355E+03  0.25500000920E-02 0.  1.
    10030    2    1    2    0    0  0.00000000000E+00  0.00000000000E+00  0.60274557240E+03  0.15057144395E+04  0.13798093159E+04 0.  0.
        5    1    3    3  502    0 -0.22460436960E+03  0.40763782679E+03  0.85708564600E+03  0.97531206044E+03  0.46999998093E+01 0. -1.
       -5    1    3    3    0  502  0.22460436960E+03 -0.40763782679E+03 -0.25434007360E+03  0.53040237906E+03  0.46999998093E+01 0.  1.
</event>
<event>
 5   0  0.1199720E-03  0.8630152E+03  0.7818609E-02  0.9473033E-01
       -1   -1    0    0    0  501  0.00000000000E+00  0.00000000000E+00  0.21615750575E+03  0.21615750581E+03  0.50400001928E-02 0.  1.
        1   -1    0    0  501    0  0.00000000000E+00  0.00000000000E+00 -0.86140341860E+03  0.86140341861E+03  0.50400001928E-02 0. -1.
    10030    2    1    2    0    0  0.00000000000E+00  0.00000000000E+00 -0.64524591285E+03  0.10775609244E+04  0.86301521295E+03 0.  0.
        5    1    3    3  502    0 -0.10391427309E+03 -0.10414356261E+03  0.18384205863E+03  0.23550806845E+03  0.46999998093E+01 0.  1.
       -5    1    3    3    0  502  0.10391427309E+03  0.10414356261E+03 -0.82908797149E+03  0.84205285597E+03  0.46999998093E+01 0. -1.
</event>
<event>
 5   0  0.2236184E-03  0.1428601E+04  0.7818609E-02  0.8933372E-01
        2   -1    0    0  501    0  0.00000000000E+00  0.00000000000E+00  0.14917573606E+04  0.14917573606E+04  0.25500000920E-02 0.  1.
       -2   -1    0    0    0  501  0.00000000000E+00  0.00000000000E+00 -0.34202941912E+03  0.34202941913E+03  0.25500000920E-02 0. -1.
    10030    2    1    2    0    0  0.00000000000E+00  0.00000000000E+00  0.11497279414E+04  0.18337867797E+04  0.14286005789E+04 0.  0.
        3    1    3    3  502    0 -0.26642980070E+03  0.66248099762E+03  0.59918458824E+03  0.93214166943E+03  0.10100000352E+00 0. -1.
       -3    1    3    3    0  502  0.26642980070E+03 -0.66248099762E+03  0.55054335321E+03  0.90164511027E+03  0.10100000352E+00 0.  1.
</event>
<event>
 5   0  0.1238683E-03  0.1397922E+04  0.7818609E-02  0.8955324E-01
        1   -1    0    0  501    0  0.00000000000E+00  0.00000000000E+00  0.76652392117E+03  0.76652392118E+03  0.50400001928E-02 0.  1.
       -1   -1    0    0    0  501  0.00000000000E+00  0.00000000000E+00 -0.63735276166E+03  0.63735276168E+03  0.50400001928E-02 0. -1.
    10030    2    1    2    0    0  0.00000000000E+00  0.00000000000E+00  0.12917115951E+03  0.14038766829E+04  0.13979215115E+04 0.  0.
        2    1    3    3  502    0 -0.20222600247E+03 -0.20248883714E+03  0.70499255777E+03  0.76086240002E+03  0.25500000920E-02 0.  1.
       -2    1    3    3    0  502  0.20222600247E+03  0.20248883714E+03 -0.57582139826E+03  0.64301428285E+03  0.25500000920E-02 0. -1.
</event>
<event>
 5   0  0.1225690E-03  0.1412375E+04  0.7818609E-02  0.8944909E-01
       -1   -1    0    0    0  501  0.00000000000E+00  0.00000000000E+00  0.27922852915E+03  0.27922852920E+03  0.50400001928E-02 0. -1.
        1   -1    0    0  501    0  0.00000000000E+00  0.00000000000E+00 -0.17859948779E+04  0.17859948780E+04  0.50400001928E-02 0.  1.
    10030    2    1    2    0    0  0.00000000000E+00  0.00000000000E+00 -0.15067663488E+04  0.20652234071E+04  0.14123749118E+04 0.  0.
        4    1    3    3  502    0 -0.19080402317E+03 -0.55819820222E+03 -0.18572778210E+03  0.61845600503E+03  0.12699999809E+01 0. -1.
       -4    1    3    3    0  502  0.19080402317E+03  0.55819820222E+03 -0.13210385667E+04  0.14467674021E+04  0.12699999809E+01 0.  1.
</event>
<event>
 5   0  0.1210275E-03  0.1387340E+04  0.7818609E-02  0.8963034E-01
       -1   -1    0    0    0  501  0.00000000000E+00  0.00000000000E+00  0.28744889028E+03  0.28744889032E+03  0.50400001928E-02 0.  1.
        1   -1    0    0  501    0  0.00000000000E+00  0.00000000000E+00 -0.16739604692E+04  0.16739604692E+04  0.50400001928E-02 0. -1.
    10030    2    1    2    0    0  0.00000000000E+00  0.00000000000E+00 -0.13865115789E+04  0.19614093595E+04  0.13873400150E+04 0.  0.
        1    1    3    3  502    0 -0.27490499330E+03 -0.26077437192E+03  0.12820694909E+03  0.40001631243E+03  0.50400001928E-02 0.  1.
       -1    1    3    3    0  502  0.27490499330E+03  0.26077437192E+03 -0.15147185280E+04  0.15613930471E+04  0.50400001928E-02 0. -1.
</event>
<event>
 5   0  0.1225690E-03  0.1359404E+04  0.7818609E-02  0.8983740E-01
        1   -1    0    0  501    0  0.00000000000E+00  0.00000000000E+00  0.37027456413E+03  0.37027456416E+03  0.50400001928E-02 0.  1.
       -1   -1    0    0    0  501  0.00000000000E+00  0.00000000000E+00 -0.12477091454E+04  0.12477091454E+04  0.50400001928E-02 0. -1.
    10030    2    1    2    0    0  0.00000000000E+00  0.00000000000E+00 -0.87743458127E+03  0.16179837096E+04  0.13594042224E+04 0.  0.
        4    1    3    3  502    0 -0.39029349310E+03  0.27188310588E+03  0.13917350081E+03  0.49560095868E+03  0.12699999809E+01 0.  1.
       -4    1    3    3    0  502  0.39029349310E+03 -0.27188310588E+03 -0.10166080821E+04  0.11223827509E+04  0.12699999809E+01 0. -1.
</event>
<event>
 5   0  0.2172901E-03  0.1366601E+04  0.7818609E-02  0.8978356E-01
       -2   -1    0    0    0  501  0.00000000000E+00  0.00000000000E+00  0.28100385923E+03  0.28100385925E+03  0.25500000920E-02 0. -1.
        2   -1    0    0  501    0  0.00000000000E+00  0.00000000000E+00 -0.16615405017E+04  0.16615405017E+04  0.25500000920E-02 0.  1.
    10030    2    1    2    0    0  0.00000000000E+00  0.00000000000E+00 -0.13805366425E+04  0.19425443609E+04  0.13666005902E+04 0.  0.
        2    1    3    3  502    0  0.61236293341E+03 -0.23754227540E+03 -0.95803053433E+03  0.11615667004E+04  0.25500000920E-02 0.  1.
       -2    1    3    3    0  502 -0.61236293341E+03  0.23754227540E+03 -0.42250610813E+03  0.78097766052E+03  0.25500000920E-02 0. -1.
</event>
<event>
 5   0  0.2083966E-03  0.1386479E+04  0.7818609E-02  0.8963664E-01
       -2   -1    0    0    0  501  0.00000000000E+00  0.00000000000E+00  0.33470198383E+03  0.33470198384E+03  0.25500000920E-02 0. -1.
        2   -1    0    0  501    0  0.00000000000E+00  0.00000000000E+00 -0.14358482693E+04  0.14358482693E+04  0.25500000920E-02 0.  1.
    10030    2    1    2    0    0  0.00000000000E+00  0.00000000000E+00 -0.11011462854E+04  0.17705502531E+04  0.13864793748E+04 0.  0.
        1    1    3    3  502    0 -0.21625551693E+03 -0.34344657752E+03  0.16712472151E+03  0.43892217166E+03  0.50400001928E-02 0. -1.
       -1    1    3    3    0  502  0.21625551693E+03  0.34344657752E+03 -0.12682710070E+04  0.13316280814E+04  0.50400001928E-02 0.  1.
</event>
<event>
 5   0  0.2236184E-03  0.1334977E+04  0.7818609E-02  0.9002279E-01
       -2   -1    0    0    0  501  0.00000000000E+00  0.00000000000E+00  0.28793601953E+03  0.28793601955E+03  0.25500000920E-02 0.  1.
        2   -1    0    0  501    0  0.00000000000E+00  0.00000000000E+00 -0.15473608381E+04  0.15473608381E+04  0.25500000920E-02 0. -1.
    10030    2    1    2    0    0  0.00000000000E+00  0.00000000000E+00 -0.12594248185E+04  0.18352968576E+04  0.13349770343E+04 0.  0.
        3    1    3    3  502    0  0.16969298120E+03 -0.22395458452E+02  0.25725228881E+03  0.30899193311E+03  0.10100000352E+00 0.  1.
       -3    1    3    3    0  502 -0.16969298120E+03  0.22395458452E+02 -0.15166771074E+04  0.15263049245E+04  0.10100000352E+00 0. -1.
</event>
<event>
 5   0  0.2083966E-03  0.1412477E+04  0.7818609E-02  0.8944836E-01
        2   -1    0    0  501    0  0.00000000000E+00  0.00000000000E+00  0.11722735329E+04  0.11722735329E+04  0.25500000920E-02 0.  1.
       -2   -1    0    0    0  501  0.00000000000E+00  0.00000000000E+00 -0.42547481221E+03  0.42547481222E+03  0.25500000920E-02 0. -1.
    10030    2    1    2    0    0  0.00000000000E+00  0.00000000000E+00  0.74679872074E+03  0.15977483452E+04  0.14124770601E+04 0.  0.
        1    1    3    3  502    0  0.44162171072E+03  0.53649051313E+03  0.23067013869E+03  0.73216153884E+03  0.50400001928E-02 0. -1.
       -1    1    3    3    0  502 -0.44162171072E+03 -0.53649051313E+03  0.51612858204E+03  0.86558680632E+03  0.50400001928E-02 0.  1.
</event>
<event>
 5   0  0.2195980E-03  0.1179448E+04  0.7818609E-02  0.9131038E-01
       -2   -1    0    0    0  501  0.00000000000E+00  0.00000000000E+00  0.36972009308E+03  0.36972009309E+03  0.25500000920E-02 0.  1.
        2   -1    0    0  501    0  0.00000000000E+00  0.00000000000E+00 -0.94064276820E+03  0.94064276820E+03  0.25500000920E-02 0. -1.
    10030    2    1    2    0    0  0.00000000000E+00  0.00000000000E+00 -0.57092267512E+03  0.13103628613E+04  0.11794482300E+04 0.  0.
        4    1    3    3  502    0  0.11309779937E+03  0.30253304221E+03  0.26271785381E+03  0.41634077084E+03  0.12699999809E+01 0.  1.
       -4    1    3    3    0  502 -0.11309779937E+03 -0.30253304221E+03 -0.83364052893E+03  0.89402209045E+03  0.12699999809E+01 0. -1.
</event>
<event>
 5   0  0.1175374E-03  0.1397124E+04  0.7818609E-02  0.8955903E-01
        1   -1    0    0  501    0  0.00000000000E+00  0.00000000000E+00  0.12089988957E+04  0.12089988957E+04  0.50400001928E-02 0. -1.
       -1   -1    0    0    0  501  0.00000000000E+00  0.00000000000E+00 -0.40363045021E+03  0.40363045024E+03  0.50400001928E-02 0.  1.
    10030    2    1    2    0    0  0.00000000000E+00  0.00000000000E+00  0.80536844550E+03  0.16126293460E+04  0.13971238579E+04 0.  0.
        3    1    3    3  502    0  0.55176211195E+03 -0.14656957225E+03  0.86735338563E+03  0.10383766048E+04  0.10100000352E+00 0. -1.
       -3    1    3    3    0  502 -0.55176211195E+03  0.14656957225E+03 -0.61984940137E+02  0.57425274113E+03  0.10100000352E+00 0.  1.
</event>
<event>
 5   0  0.1210275E-03  0.1606459E+04  0.7818609E-02  0.8816590E-01
        1   -1    0    0  501    0  0.00000000000E+00  0.00000000000E+00  0.59753195419E+03  0.59753195421E+03  0.50400001928E-02 0.  1.
       -1   -1    0    0    0  501  0.00000000000E+00  0.00000000000E+00 -0.10797380623E+04  0.10797380623E+04  0.50400001928E-02 0. -1.
    10030    2    1    2    0    0  0.00000000000E+00  0.00000000000E+00 -0.48220610806E+03  0.16772700165E+04  0.16064594541E+04 0.  0.
        1    1    3    3  502    0 -0.26691317208E+03  0.68153656300E+03  0.10430124409E+03  0.73933313038E+03  0.50400001928E-02 0. -1.
       -1    1    3    3    0  502  0.26691317208E+03 -0.68153656300E+03 -0.58650735216E+03  0.93793688610E+03  0.50400001928E-02 0.  1.
</event>
<event>
 5   0  0.1199720E-03  0.1501443E+04  0.7818609E-02  0.8883494E-01
        1   -1    0    0  501    0  0.00000000000E+00  0.00000000000E+00  0.59329783655E+03  0.59329783658E+03  0.50400001928E-02 0. -1.
       -1   -1    0    0    0  501  0.00000000000E+00  0.00000000000E+00 -0.94991546428E+03  0.94991546429E+03  0.50400001928E-02 0.  1.
    10030    2    1    2    0    0  0.00000000000E+00  0.00000000000E+00 -0.35661762772E+03  0.15432133009E+04  0.15014430257E+04 0.  0.
        5    1    3    3  502    0  0.57108631209E+03 -0.45358387928E+03 -0.36125729147E+03  0.81388379517E+03  0.46999998093E+01 0.  1.
       -5    1    3    3    0  502 -0.57108631209E+03  0.45358387928E+03  0.46396637475E+01  0.72932950570E+03  0.46999998093E+01 0. -1.
</event>
<event>
 5   0  0.1210275E-03  0.1405965E+04  0.7818609E-02  0.8949512E-01
       -1   -1    0    0    0  501  0.00000000000E+00  0.00000000000E+00  0.26070194151E+03  0.26070194156E+03  0.50400001928E-02 0.  1.
        1   -1    0    0  501    0  0.00000000000E+00  0.00000000000E+00 -0.18955902971E+04  0.18955902971E+04  0.50400001928E-02 0. -1.
    10030    2    1    2    0    0  0.00000000000E+00  0.00000000000E+00 -0.16348883556E+04  0.21562922387E+04  0.14059645384E+04 0.  0.
        1    1    3    3  502    0 -0.33149968037E+03  0.30814089896E+03  0.75262980742E+01  0.45265825618E+03  0.50400001928E-02 0.  1.
       -1    1    3    3    0  502  0.33149968037E+03 -0.30814089896E+03 -0.16424146537E+04  0.17036339825E+04  0.50400001928E-02 0. -1.
</event>
<event>
 5   0  0.1225690E-03  0.1346713E+04  0.7818609E-02  0.8993320E-01
       -1   -1    0    0    0  501  0.00000000000E+00  0.00000000000E+00  0.35373927737E+03  0.35373927741E+03  0.50400001928E-02 0. -1.
        1   -1    0    0  501    0  0.00000000000E+00  0.00000000000E+00 -0.12817607062E+04  0.12817607062E+04  0.50400001928E-02 0.  1.
    10030    2    1    2    0    0  0.00000000000E+00  0.00000000000E+00 -0.92802142885E+03  0.16354999836E+04  0.13467131930E+04 0.  0.
        4    1    3    3  502    0 -0.35572702113E+03 -0.12349523830E+02 -0.11581694860E+04  0.12116321205E+04  0.12699999809E+01 0.  1.
       -4    1    3    3    0  502  0.35572702113E+03  0.12349523830E+02  0.23014805712E+03  0.42386786313E+03  0.12699999809E+01 0. -1.
</event>
<event>
 5   0  0.1175374E-03  0.1408249E+04  0.7818609E-02  0.8947869E-01
        1   -1    0    0  501    0  0.00000000000E+00  0.00000000000E+00  0.58843000355E+03  0.58843000357E+03  0.50400001928E-02 0.  1.
       -1   -1    0    0    0  501  0.00000000000E+00  0.00000000000E+00 -0.84256685875E+03  0.84256685877E+03  0.50400001928E-02 0. -1.
    10030    2    1    2    0    0  0.00000000000E+00  0.00000000000E+00 -0.25413685520E+03  0.14309968623E+04  0.14082494377E+04 0.  0.
        3    1    3    3  502    0  0.94348144872E+02 -0.39211948983E+03  0.45943086754E+03  0.61133951205E+03  0.10100000352E+00 0.  1.
       -3    1    3    3    0  502 -0.94348144872E+02  0.39211948983E+03 -0.71356772274E+03  0.81965735029E+03  0.10100000352E+00 0. -1.
</event>
<event>
 5   0  0.2195980E-03  0.9819289E+03  0.7818609E-02  0.9328590E-01
        2   -1    0    0  501    0  0.00000000000E+00  0.00000000000E+00  0.12866323059E+04  0.12866323059E+04  0.25500000920E-02 0. -1.
       -2   -1    0    0    0  501  0.00000000000E+00  0.00000000000E+00 -0.18734650692E+03  0.18734650694E+03  0.25500000920E-02 0.  1.
    10030    2    1    2    0    0  0.00000000000E+00  0.00000000000E+00  0.10992857990E+04  0.14739788129E+04  0.98192885328E+03 0.  0.
        4    1    3    3  502    0 -0.16632655683E+03  0.24974460975E+03 -0.33682069873E+02  0.30194865182E+03  0.12699999809E+01 0.  1.
       -4    1    3    3    0  502  0.16632655683E+03 -0.24974460975E+03  0.11329678689E+04  0.11720301611E+04  0.12699999809E+01 0. -1.
</event>
<event>
 5   0  0.1238683E-03  0.1368735E+04  0.7818609E-02  0.8976766E-01
       -1   -1    0    0    0  501  0.00000000000E+00  0.00000000000E+00  0.42336324501E+03  0.42336324504E+03  0.50400001928E-02 0.  1.
        1   -1    0    0  501    0  0.00000000000E+00  0.00000000000E+00 -0.11062805886E+04  0.11062805886E+04  0.50400001928E-02 0. -1.
    10030    2    1    2    0    0  0.00000000000E+00  0.00000000000E+00 -0.68291734358E+03  0.15296438336E+04  0.13687345103E+04 0.  0.
        2    1    3    3  502    0 -0.35463737292E+03 -0.90952941057E+02 -0.98763533037E+03  0.10533108039E+04  0.25500000920E-02 0. -1.
       -2    1    3    3    0  502  0.35463737292E+03  0.90952941057E+02  0.30471798679E+03  0.47633302976E+03  0.25500000920E-02 0.  1.
</event>
<event>
 5   0  0.1175374E-03  0.1421585E+04  0.7818609E-02  0.8938340E-01
        1   -1    0    0  501    0  0.00000000000E+00  0.00000000000E+00  0.13886654463E+04  0.13886654463E+04  0.50400001928E-02 0. -1.
       -1   -1    0    0    0  501  0.00000000000E+00  0.00000000000E+00 -0.36382148947E+03  0.36382148950E+03  0.50400001928E-02 0.  1.
    10030    2    1    2    0    0  0.00000000000E+00  0.00000000000E+00  0.10248439568E+04  0.17524869358E+04  0.14215854966E+04 0.  0.
        3    1    3    3  502    0  0.13176154910E+02  0.27836246409E+03 -0.29366873701E+03  0.40484640269E+03  0.10100000352E+00 0.  1.
       -3    1    3    3    0  502 -0.13176154910E+02 -0.27836246409E+03  0.13185126938E+04  0.13476405331E+04  0.10100000352E+00 0. -1.
</event>
<event>
 5   0  0.2190704E-03  0.1285760E+04  0.7818609E-02  0.9040935E-01
        2   -1    0    0  501    0  0.00000000000E+00  0.00000000000E+00  0.39849114869E+03  0.39849114870E+03  0.25500000920E-02 0. -1.
       -2   -1    0    0    0  501  0.00000000000E+00  0.00000000000E+00 -0.10371485398E+04  0.10371485398E+04  0.25500000920E-02 0.  1.
    10030    2    1    2    0    0  0.00000000000E+00  0.00000000000E+00 -0.63865739107E+03  0.14356396885E+04  0.12857597178E+04 0.  0.
        5    1    3    3  502    0  0.43755268825E+03  0.19498408652E+03  0.15936741544E+03  0.50486751935E+03  0.46999998093E+01 0. -1.
       -5    1    3    3    0  502 -0.43755268825E+03 -0.19498408652E+03 -0.79802480651E+03  0.93077216911E+03  0.46999998093E+01 0.  1.
</event>
<event>
 5   0  0.1238683E-03  0.1365411E+04  0.7818609E-02  0.8979243E-01
        1   -1    0    0  501    0  0.00000000000E+00  0.00000000000E+00  0.95759795333E+03  0.95759795334E+03  0.50400001928E-02 0.  1.
       -1   -1    0    0    0  501  0.00000000000E+00  0.00000000000E+00 -0.48672509566E+03  0.48672509569E+03  0.50400001928E-02 0. -1.
    10030    2    1    2    0    0  0.00000000000E+00  0.00000000000E+00  0.47087285767E+03  0.14443230490E+04  0.13654112281E+04 0.  0.
        2    1    3    3  502    0  0.82436145882E+02 -0.67746393184E+03  0.21610864717E+03  0.71586035264E+03  0.25500000920E-02 0.  1.
       -2    1    3    3    0  502 -0.82436145882E+02  0.67746393184E+03  0.25476421049E+03  0.72846269640E+03  0.25500000920E-02 0. -1.
</event>
<event>
 5   0  0.1175374E-03  0.1381751E+04  0.7818609E-02  0.8967135E-01
       -1   -1    0    0    0  501  0.00000000000E+00  0.00000000000E+00  0.53438461400E+03  0.53438461403E+03  0.50400001928E-02 0.  1.
        1   -1    0    0  501    0  0.00000000000E+00  0.00000000000E+00 -0.89319403647E+03  0.89319403649E+03  0.50400001928E-02 0. -1.
    10030    2    1    2    0    0  0.00000000000E+00  0.00000000000E+00 -0.35880942247E+03  0.14275786505E+04  0.13817512807E+04 0.  0.
        3    1    3    3  502    0 -0.20618005664E+03  0.64771531769E+03 -0.51760423538E+02  0.68170704865E+03  0.10100000352E+00 0.  1.
       -3    1    3    3    0  502  0.20618005664E+03 -0.64771531769E+03 -0.30704899893E+03  0.74587160187E+03  0.10100000352E+00 0. -1.
</event>
<event>
 5   0  0.1199720E-03  0.1387350E+04  0.7818609E-02  0.8963026E-01
        1   -1    0    0  501    0  0.00000000000E+00  0.00000000000E+00  0.14013806601E+04  0.14013806601E+04  0.50400001928E-02 0. -1.
       -1   -1    0    0    0  501  0.00000000000E+00  0.00000000000E+00 -0.34336505347E+03  0.34336505351E+03  0.50400001928E-02 0.  1.
    10030    2    1    2    0    0  0.00000000000E+00  0.00000000000E+00  0.10580156067E+04  0.17447457136E+04  0.13873502014E+04 0.  0.
        5    1    3    3  502    0  0.54611269833E+03 -0.20299468476E+03  0.10024393779E+04  0.11594622537E+04  0.46999998093E+01 0. -1.
       -5    1    3    3    0  502 -0.54611269833E+03  0.20299468476E+03  0.55576228754E+02  0.58528345998E+03  0.46999998093E+01 0.  1.
</event>
<event>
 5   0  0.2172901E-03  0.1343285E+04  0.7818609E-02  0.8995927E-01
        2   -1    0    0  501    0  0.00000000000E+00  0.00000000000E+00  0.61421807155E+03  0.61421807155E+03  0.25500000920E-02 0.  1.
       -2   -1    0    0    0  501  0.00000000000E+00  0.00000000000E+00 -0.73443605984E+03  0.73443605984E+03  0.25500000920E-02 0. -1.
    10030    2    1    2    0    0  0.00000000000E+00  0.00000000000E+00 -0.12021798829E+03  0.13486541314E+04  0.13432853760E+04 0.  0.
        2    1    3    3  502    0  0.26616654709E+03  0.39144357626E+03  0.41827326899E+03  0.63168444001E+03  0.25500000920E-02 0.  1.
       -2    1    3    3    0  502 -0.26616654709E+03 -0.39144357626E+03 -0.53849125728E+03  0.71696969139E+03  0.25500000920E-02 0. -1.
</event>
<event>
 5   0  0.2172901E-03  0.1411808E+04  0.7818609E-02  0.8945316E-01
       -2   -1    0    0    0  501  0.00000000000E+00  0.00000000000E+00  0.49892570108E+03  0.49892570108E+03  0.25500000920E-02 0. -1.
        2   -1    0    0  501    0  0.00000000000E+00  0.00000000000E+00 -0.99874646009E+03  0.99874646009E+03  0.25500000920E-02 0.  1.
    10030    2    1    2    0    0  0.00000000000E+00  0.00000000000E+00 -0.49982075901E+03  0.14976721612E+04  0.14118077458E+04 0.  0.
        2    1    3    3  502    0 -0.25269147039E+03 -0.53944250436E+03  0.15187125867E+03  0.61474878929E+03  0.25500000920E-02 0. -1.
       -2    1    3    3    0  502  0.25269147039E+03  0.53944250436E+03 -0.65169201768E+03  0.88292337189E+03  0.25500000920E-02 0.  1.
</event>
<event>
 5   0  0.2236184E-03  0.1395715E+04  0.7818609E-02  0.8956926E-01
        2   -1    0    0  501    0  0.00000000000E+00  0.00000000000E+00  0.61715325570E+03  0.61715325571E+03  0.25500000920E-02 0. -1.
       -2   -1    0    0    0  501  0.00000000000E+00  0.00000000000E+00 -0.78911571736E+03  0.78911571737E+03  0.25500000920E-02 0.  1.
    10030    2    1    2    0    0  0.00000000000E+00  0.00000000000E+00 -0.17196246166E+03  0.14062689731E+04  0.13957153494E+04 0.  0.
        3    1    3    3  502    0  0.12814596087E+03  0.56099354625E+03 -0.48377049278E+03  0.75177725831E+03  0.10100000352E+00 0.  1.
       -3    1    3    3    0  502 -0.12814596087E+03 -0.56099354625E+03  0.31180803112E+03  0.65449171477E+03  0.10100000352E+00 0. -1.
</event>
<event>
 5   0  0.2195980E-03  0.1385554E+04  0.7818609E-02  0.8964342E-01
       -2   -1    0    0    0  501  0.00000000000E+00  0.00000000000E+00  0.53349392574E+03  0.53349392575E+03  0.25500000920E-02 0. -1.
        2   -1    0    0  501    0  0.00000000000E+00  0.00000000000E+00 -0.89961695206E+03  0.89961695206E+03  0.25500000920E-02 0.  1.
    10030    2    1    2    0    0  0.00000000000E+00  0.00000000000E+00 -0.36612302632E+03  0.14331108778E+04  0.13855542998E+04 0.  0.
        4    1    3    3  502    0 -0.50487955693E+03 -0.23261876036E+03  0.24455788683E+03  0.60730966367E+03  0.12699999809E+01 0. -1.
       -4    1    3    3    0  502  0.50487955693E+03  0.23261876036E+03 -0.61068091314E+03  0.82580121413E+03  0.12699999809E+01 0.  1.
</event>
<event>
 5   0  0.1210275E-03  0.1381609E+04  0.7818609E-02  0.8967239E-01
       -1   -1    0    0    0  501  0.00000000000E+00  0.00000000000E+00  0.78587591550E+03  0.78587591551E+03  0.50400001928E-02 0. -1.
        1   -1    0    0  501    0  0.00000000000E+00  0.00000000000E+00 -0.60723472239E+03  0.60723472241E+03  0.50400001928E-02 0.  1.
    10030    2    1    2    0    0  0.00000000000E+00  0.00000000000E+00  0.17864119311E+03  0.13931106379E+04  0.13816094143E+04 0.  0.
        1    1    3    3  502    0  0.61222092699E+03 -0.26987780040E+02  0.41082963776E+03  0.73778302705E+03  0.50400001928E-02 0. -1.
       -1    1    3    3    0  502 -0.61222092699E+03  0.26987780040E+02 -0.23218844466E+03  0.65532761087E+03  0.50400001928E-02 0.  1.
</event>
<event>
 5   0  0.2195980E-03  0.1411384E+04  0.7818609E-02  0.8945619E-01
       -2   -1    0    0    0  501  0.00000000000E+00  0.00000000000E+00  0.54713222812E+03  0.54713222813E+03  0.25500000920E-02 0. -1.
        2   -1    0    0  501    0  0.00000000000E+00  0.00000000000E+00 -0.91020255410E+03  0.91020255411E+03  0.25500000920E-02 0.  1.
    10030    2    1    2    0    0  0.00000000000E+00  0.00000000000E+00 -0.36307032598E+03  0.14573347822E+04  0.14113839328E+04 0.  0.
        4    1    3    3  502    0 -0.22005792580E+03  0.33584085233E+03  0.41769064803E+03  0.57938040971E+03  0.12699999809E+01 0. -1.
       -4    1    3    3    0  502  0.22005792580E+03 -0.33584085233E+03 -0.78076097401E+03  0.87795437253E+03  0.12699999809E+01 0.  1.
</event>
<event>
 5   0  0.1225690E-03  0.1400972E+04  0.7818609E-02  0.8953115E-01
       -1   -1    0    0    0  501  0.00000000000E+00  0.00000000000E+00  0.22107831617E+03  0.22107831623E+03  0.50400001928E-02 0. -1.
        1   -1    0    0  501    0  0.00000000000E+00  0.00000000000E+00 -0.22194887214E+04  0.22194887214E+04  0.50400001928E-02 0.  1.
    10030    2    1    2    0    0  0.00000000000E+00  0.00000000000E+00 -0.19984104052E+04  0.24405670376E+04  0.14009722758E+04 0.  0.
        4    1    3    3  502    0  0.51180886267E+03  0.31943638503E+03 -0.16192664612E+04  0.17280085073E+04  0.12699999809E+01 0.  1.
       -4    1    3    3    0  502 -0.51180886267E+03 -0.31943638503E+03 -0.37914394404E+03  0.71255853036E+03  0.12699999809E+01 0. -1.
</event>
<event>
 5   0  0.2083966E-03  0.1398082E+04  0.7818609E-02  0.8955208E-01
        2   -1    0    0  501    0  0.00000000000E+00  0.00000000000E+00  0.16984923361E+04  0.16984923361E+04  0.25500000920E-02 0. -1.
       -2   -1    0    0    0  501  0.00000000000E+00  0.00000000000E+00 -0.28770129698E+03  0.28770129699E+03  0.25500000920E-02 0.  1.
    10030    2    1    2    0    0  0.00000000000E+00  0.00000000000E+00  0.14107910391E+04  0.19861936331E+04  0.13980821836E+04 0.  0.
        1    1    3    3  502    0  0.33498199408E+03  0.11772271033E+03 -0.15005505789E+03  0.38547126133E+03  0.50400001928E-02 0.  1.
       -1    1    3    3    0  502 -0.33498199408E+03 -0.11772271033E+03  0.15608460970E+04  0.16007223718E+04  0.50400001928E-02 0. -1.
</event>
<event>
 5   0  0.1175374E-03  0.1413611E+04  0.7818609E-02  0.8944025E-01
        1   -1    0    0  501    0  0.00000000000E+00  0.00000000000E+00  0.14377054924E+04  0.14377054924E+04  0.50400001928E-02 0. -1.
       -1   -1    0    0    0  501  0.00000000000E+00  0.00000000000E+00 -0.34748000852E+03  0.34748000856E+03  0.50400001928E-02 0.  1.
    10030    2    1    2    0    0  0.00000000000E+00  0.00000000000E+00  0.10902254839E+04  0.17851855010E+04  0.14136108613E+04 0.  0.
        3    1    3    3  502    0  0.16134706850E+03 -0.63680709429E+03  0.21575746704E+03  0.69145314132E+03  0.10100000352E+00 0. -1.
       -3    1    3    3    0  502 -0.16134706850E+03  0.63680709429E+03  0.87446801683E+03  0.10937323596E+04  0.10100000352E+00 0.  1.
</event>
<event>
 5   0  0.2236184E-03  0.1572352E+04  0.7818609E-02  0.8837716E-01
        2   -1    0    0  501    0  0.00000000000E+00  0.00000000000E+00  0.10348960786E+04  0.10348960786E+04  0.25500000920E-02 0. -1.
       -2   -1    0    0    0  501  0.00000000000E+00  0.00000000000E+00 -0.59723156662E+03  0.59723156663E+03  0.25500000920E-02 0.  1.
    10030    2    1    2    0    0  0.00000000000E+00  0.00000000000E+00  0.43766451200E+03  0.16321276452E+04  0.15723518771E+04 0.  0.
        3    1    3    3  502    0  0.53806627509E+03  0.79750028175E+02  0.80803568696E+03  0.97406214636E+03  0.10100000352E+00 0. -1.
       -3    1    3    3    0  502 -0.53806627509E+03 -0.79750028175E+02 -0.37037117496E+03  0.65806549889E+03  0.10100000352E+00 0.  1.
</event>
<event>
 5   0  0.1199720E-03  0.1380022E+04  0.7818609E-02  0.8968408E-01
        1   -1    0    0  501    0  0.00000000000E+00  0.00000000000E+00  0.10677998064E+04  0.10677998064E+04  0.50400001928E-02 0. -1.
       -1   -1    0    0    0  501  0.00000000000E+00  0.00000000000E+00 -0.44588407499E+03  0.44588407502E+03  0.50400001928E-02 0.  1.
    10030    2    1    2    0    0  0.00000000000E+00  0.00000000000E+00  0.62191573144E+03  0.15136838815E+04  0.13800216360E+04 0.  0.
        5    1    3    3  502    0 -0.20669204216E+03 -0.55336123107E+03 -0.80179194883E+02  0.59613844503E+03  0.46999998093E+01 0.  1.
       -5    1    3    3    0  502  0.20669204216E+03  0.55336123107E+03  0.70209492632E+03  0.91754543643E+03  0.46999998093E+01 0. -1.
</event>
<event>
 5   0  0.2083966E-03  0.1383617E+04  0.7818609E-02  0.8965764E-01
        2   -1    0    0  501    0  0.00000000000E+00  0.00000000000E+00  0.12533558940E+04  0.12533558940E+04  0.25500000920E-02 0. -1.
       -2   -1    0    0    0  501  0.00000000000E+00  0.00000000000E+00 -0.38185382386E+03  0.38185382387E+03  0.25500000920E-02 0.  1.
    10030    2    1    2    0    0  0.00000000000E+00  0.00000000000E+00  0.87150207018E+03  0.16352097179E+04  0.13836166244E+04 0.  0.
        1    1    3    3  502    0 -0.29775283454E+03  0.42299130787E+03 -0.10714897664E+03  0.52826063665E+03  0.50400001928E-02 0.  1.
       -1    1    3    3    0  502  0.29775283454E+03 -0.42299130787E+03  0.97865104682E+03  0.11069490813E+04  0.50400001928E-02 0. -1.
</event>
<event>
 5   0  0.2236184E-03  0.1398432E+04  0.7818609E-02  0.8954954E-01
       -2   -1    0    0    0  501  0.00000000000E+00  0.00000000000E+00  0.30838764529E+03  0.30838764530E+03  0.25500000920E-02 0. -1.
        2   -1    0    0  501    0  0.00000000000E+00  0.00000000000E+00 -0.15853524362E+04  0.15853524362E+04  0.25500000920E-02 0.  1.
    10030    2    1    2    0    0  0.00000000000E+00  0.00000000000E+00 -0.12769647909E+04  0.18937400815E+04  0.13984321289E+04 0.  0.
        3    1    3    3  502    0 -0.36557562725E+03 -0.58834496251E+03 -0.50924601770E+03  0.85972486930E+03  0.10100000352E+00 0. -1.
       -3    1    3    3    0  502  0.36557562725E+03  0.58834496251E+03 -0.76771877321E+03  0.10340152122E+04  0.10100000352E+00 0.  1.
</event>
<event>
 5   0  0.1199720E-03  0.1369923E+04  0.7818609E-02  0.8975882E-01
        1   -1    0    0  501    0  0.00000000000E+00  0.00000000000E+00  0.44256223702E+03  0.44256223705E+03  0.50400001928E-02 0. -1.
       -1   -1    0    0    0  501  0.00000000000E+00  0.00000000000E+00 -0.10601273303E+04  0.10601273303E+04  0.50400001928E-02 0.  1.
    10030    2    1    2    0    0  0.00000000000E+00  0.00000000000E+00 -0.61756509331E+03  0.15026895674E+04  0.13699230969E+04 0.  0.
        5    1    3    3  502    0  0.95064061070E+02 -0.66902542399E+03 -0.18605523043E+03  0.70090714964E+03  0.46999998093E+01 0.  1.
       -5    1    3    3    0  502 -0.95064061070E+02  0.66902542399E+03 -0.43150986288E+03  0.80178241775E+03  0.46999998093E+01 0. -1.
</event>
<event>
 5   0  0.1225690E-03  0.1301990E+04  0.7818609E-02  0.9027989E-01
        1   -1    0    0  501    0  0.00000000000E+00  0.00000000000E+00  0.43066402440E+03  0.43066402442E+03  0.50400001928E-02 0. -1.
       -1   -1    0    0    0  501  0.00000000000E+00  0.00000000000E+00 -0.98404856215E+03  0.98404856216E+03  0.50400001928E-02 0.  1.
    10030    2    1    2    0    0  0.00000000000E+00  0.00000000000E+00 -0.55338453775E+03  0.14147125866E+04  0.13019897296E+04 0.  0.
        4    1    3    3  502    0  0.19428649468E+02  0.62972233950E+03 -0.98596290645E+02  0.63769157021E+03  0.12699999809E+01 0.  1.
       -4    1    3    3    0  502 -0.19428649468E+02 -0.62972233950E+03 -0.45478824711E+03  0.77702101638E+03  0.12699999809E+01 0. -1.
</event>
<event>
 5   0  0.1238683E-03  0.1363744E+04  0.7818609E-02  0.8980489E-01
       -1   -1    0    0    0  501  0.00000000000E+00  0.00000000000E+00  0.40089785125E+03  0.40089785128E+03  0.50400001928E-02 0. -1.
        1   -1    0    0  501    0  0.00000000000E+00  0.00000000000E+00 -0.11597698768E+04  0.11597698768E+04  0.50400001928E-02 0.  1.
    10030    2    1    2    0    0  0.00000000000E+00  0.00000000000E+00 -0.75887202553E+03  0.15606677281E+04  0.13637437466E+04 0.  0.
        2    1    3    3  502    0 -0.62421836319E+03  0.17719227609E+02 -0.69281497921E+03  0.93271385290E+03  0.25500000920E-02 0.  1.
       -2    1    3    3    0  502  0.62421836319E+03 -0.17719227609E+02 -0.66057046324E+02  0.62795387517E+03  0.25500000920E-02 0. -1.
</event>
<event>
 5   0  0.2195980E-03  0.1435204E+04  0.7818609E-02  0.8928723E-01
        2   -1    0    0  501    0  0.00000000000E+00  0.00000000000E+00  0.12194214094E+04  0.12194214094E+04  0.25500000920E-02 0.  1.
       -2   -1    0    0    0  501  0.00000000000E+00  0.00000000000E+00 -0.42229282005E+03  0.42229282005E+03  0.25500000920E-02 0. -1.
    10030    2    1    2    0    0  0.00000000000E+00  0.00000000000E+00  0.79712858935E+03  0.16417142295E+04  0.14352043838E+04 0.  0.
        4    1    3    3  502    0 -0.24584476681E+03 -0.53266145387E+03  0.87128721744E+03  0.10503860728E+04  0.12699999809E+01 0.  1.
       -4    1    3    3    0  502  0.24584476681E+03  0.53266145387E+03 -0.74158628087E+02  0.59132815663E+03  0.12699999809E+01 0. -1.
</event>
<event>
 5   0  0.2083966E-03  0.1413329E+04  0.7818609E-02  0.8944226E-01
       -2   -1    0    0    0  501  0.00000000000E+00  0.00000000000E+00  0.51564636365E+03  0.51564636366E+03  0.25500000920E-02 0. -1.
        2   -1    0    0  501    0  0.00000000000E+00  0.00000000000E+00 -0.96844439221E+03  0.96844439222E+03  0.25500000920E-02 0.  1.
    10030    2    1    2    0    0  0.00000000000E+00  0.00000000000E+00 -0.45279802856E+03  0.14840907559E+04  0.14133291609E+04 0.  0.
        1    1    3    3  502    0 -0.53289457565E+03  0.44209319316E+03 -0.78076089798E+02  0.69679185990E+03  0.50400001928E-02 0.  1.
       -1    1    3    3    0  502  0.53289457565E+03 -0.44209319316E+03 -0.37472193876E+03  0.78729889598E+03  0.50400001928E-02 0. -1.
</event>
<event>
 5   0  0.1210275E-03  0.1405166E+04  0.7818609E-02  0.8950088E-01
        1   -1    0    0  501    0  0.00000000000E+00  0.00000000000E+00  0.68461507185E+03  0.68461507187E+03  0.50400001928E-02 0. -1.
       -1   -1    0    0    0  501  0.00000000000E+00  0.00000000000E+00 -0.72102257253E+03  0.72102257255E+03  0.50400001928E-02 0.  1.
    10030    2    1    2    0    0  0.00000000000E+00  0.00000000000E+00 -0.36407500685E+02  0.14056376444E+04  0.14051660689E+04 0.  0.
        1    1    3    3  502    0 -0.21115541602E+03 -0.17937844912E+03  0.62765964604E+03  0.68609027759E+03  0.50400001928E-02 0. -1.
       -1    1    3    3    0  502  0.21115541602E+03  0.17937844912E+03 -0.66406714672E+03  0.71954736682E+03  0.50400001928E-02 0.  1.
</event>
<event>
 5   0  0.2190704E-03  0.1470915E+04  0.7818609E-02  0.8904028E-01
       -2   -1    0    0    0  501  0.00000000000E+00  0.00000000000E+00  0.37948122153E+03  0.37948122153E+03  0.25500000920E-02 0.  1.
        2   -1    0    0  501    0  0.00000000000E+00  0.00000000000E+00 -0.14253611393E+04  0.14253611393E+04  0.25500000920E-02 0. -1.
    10030    2    1    2    0    0  0.00000000000E+00  0.00000000000E+00 -0.10458799177E+04  0.18048423608E+04  0.14709150706E+04 0.  0.
        5    1    3    3  502    0  0.42232072144E+02  0.66310150317E+03 -0.90976968828E+03  0.11265833867E+04  0.46999998093E+01 0. -1.
       -5    1    3    3    0  502 -0.42232072144E+02 -0.66310150317E+03 -0.13611022947E+03  0.67825897413E+03  0.46999998093E+01 0.  1.
</event>
<event>
 5   0  0.1225690E-03  0.1410831E+04  0.7818609E-02  0.8946016E-01
       -1   -1    0    0    0  501  0.00000000000E+00  0.00000000000E+00  0.67831202040E+03  0.67831202042E+03  0.50400001928E-02 0. -1.
        1   -1    0    0  501    0  0.00000000000E+00  0.00000000000E+00 -0.73360155628E+03  0.73360155630E+03  0.50400001928E-02 0.  1.
    10030    2    1    2    0    0  0.00000000000E+00  0.00000000000E+00 -0.55289535885E+02  0.14119135767E+04  0.14108306119E+04 0.  0.
        4    1    3    3  502    0 -0.31736083956E+01  0.18512396562E+03  0.65355987704E+03  0.67928129683E+03  0.12699999809E+01 0. -1.
       -4    1    3    3    0  502  0.31736083956E+01 -0.18512396562E+03 -0.70884941293E+03  0.73263227989E+03  0.12699999809E+01 0.  1.
</event>
<event>
 5   0  0.1175374E-03  0.1579164E+04  0.7818609E-02  0.8833452E-01
        1   -1    0    0  501    0  0.00000000000E+00  0.00000000000E+00  0.10212922658E+04  0.10212922658E+04  0.50400001928E-02 0. -1.
       -1   -1    0    0    0  501  0.00000000000E+00  0.00000000000E+00 -0.61044186657E+03  0.61044186659E+03  0.50400001928E-02 0.  1.
    10030    2    1    2    0    0  0.00000000000E+00  0.00000000000E+00  0.41085039920E+03  0.16317341324E+04  0.15791637750E+04 0.  0.
        3    1    3    3  502    0 -0.12812338666E+03 -0.45682237949E+03  0.85757548704E+03  0.98007041317E+03  0.10100000352E+00 0. -1.
       -3    1    3    3    0  502  0.12812338666E+03  0.45682237949E+03 -0.44672508784E+03  0.65166371920E+03  0.10100000352E+00 0.  1.
</event>
<event>
 5   0  0.8293000E-04  0.1364617E+04  0.7818609E-02  0.8979837E-01
        3   -1    0    0  501    0  0.00000000000E+00  0.00000000000E+00  0.47533120067E+03  0.47533121140E+03  0.10100000352E+00 0. -1.
       -3   -1    0    0    0  501  0.00000000000E+00  0.00000000000E+00 -0.97941130204E+03  0.97941130725E+03  0.10100000352E+00 0.  1.
    10030    2    1    2    0    0  0.00000000000E+00  0.00000000000E+00 -0.50408010137E+03  0.14547425187E+04  0.13646168132E+04 0.  0.
        3    1    3    3  502    0 -0.22625571583E+03  0.61357975743E+03 -0.44577278880E+02  0.65548372342E+03  0.10100000352E+00 0. -1.
       -3    1    3    3    0  502  0.22625571583E+03 -0.61357975743E+03 -0.45950282248E+03  0.79925879523E+03  0.10100000352E+00 0.  1.
</event>
<event>
 5   0  0.1238683E-03  0.1394365E+04  0.7818609E-02  0.8957908E-01
       -1   -1    0    0    0  501  0.00000000000E+00  0.00000000000E+00  0.82406942809E+03  0.82406942810E+03  0.50400001928E-02 0. -1.
        1   -1    0    0  501    0  0.00000000000E+00  0.00000000000E+00 -0.58983313017E+03  0.58983313019E+03  0.50400001928E-02 0.  1.
    10030    2    1    2    0    0  0.00000000000E+00  0.00000000000E+00  0.23423629792E+03  0.14139025583E+04  0.13943650172E+04 0.  0.
        2    1    3    3  502    0 -0.99166460203E+02 -0.25971658316E+03  0.76543319443E+03  0.81435536810E+03  0.25500000920E-02 0. -1.
       -2    1    3    3    0  502  0.99166460203E+02  0.25971658316E+03 -0.53119689652E+03  0.59954719020E+03  0.25500000920E-02 0.  1.
</event>
<event>
 5   0  0.2195980E-03  0.1416008E+04  0.7818609E-02  0.8942312E-01
       -2   -1    0    0    0  501  0.00000000000E+00  0.00000000000E+00  0.25895275044E+03  0.25895275046E+03  0.25500000920E-02 0.  1.
        2   -1    0    0  501    0  0.00000000000E+00  0.00000000000E+00 -0.19357559078E+04  0.19357559078E+04  0.25500000920E-02 0. -1.
    10030    2    1    2    0    0  0.00000000000E+00  0.00000000000E+00 -0.16768031573E+04  0.21947086582E+04  0.14160075092E+04 0.  0.
        4    1    3    3  502    0 -0.50803352360E+03  0.18388618899E+02 -0.16021737542E+04  0.16808921899E+04  0.12699999809E+01 0. -1.
       -4    1    3    3    0  502  0.50803352360E+03 -0.18388618899E+02 -0.74629403084E+02  0.51381646832E+03  0.12699999809E+01 0.  1.
</event>
<event>
 5   0  0.1210275E-03  0.1357284E+04  0.7818609E-02  0.8985332E-01
        1   -1    0    0  501    0  0.00000000000E+00  0.00000000000E+00  0.57581183514E+03  0.57581183517E+03  0.50400001928E-02 0.  1.
       -1   -1    0    0    0  501  0.00000000000E+00  0.00000000000E+00 -0.79983590435E+03  0.79983590437E+03  0.50400001928E-02 0. -1.
    10030    2    1    2    0    0  0.00000000000E+00  0.00000000000E+00 -0.22402406920E+03  0.13756477395E+04  0.13572840232E+04 0.  0.
        1    1    3    3  502    0 -0.27327486672E+03  0.31301690740E+03 -0.65583118927E+03  0.77638475381E+03  0.50400001928E-02 0. -1.
       -1    1    3    3    0  502  0.27327486672E+03 -0.31301690740E+03  0.43180712007E+03  0.59926298573E+03  0.50400001928E-02 0.  1.
</event>
<event>
 5   0  0.1175374E-03  0.1053850E+04  0.7818609E-02  0.9251378E-01
        1   -1    0    0  501    0  0.00000000000E+00  0.00000000000E+00  0.52110799141E+03  0.52110799143E+03  0.50400001928E-02 0. -1.
       -1   -1    0    0    0  501  0.00000000000E+00  0.00000000000E+00 -0.53280738599E+03  0.53280738601E+03  0.50400001928E-02 0.  1.
    10030    2    1    2    0    0  0.00000000000E+00  0.00000000000E+00 -0.11699394580E+02  0.10539153774E+04  0.10538504386E+04 0.  0.
        3    1    3    3  502    0 -0.48039778722E+03  0.18657374560E+03  0.10396772466E+03  0.52573861803E+03  0.10100000352E+00 0. -1.
       -3    1    3    3    0  502  0.48039778722E+03 -0.18657374560E+03 -0.11566711924E+03  0.52817675942E+03  0.10100000352E+00 0.  1.
</event>
<event>
 5   0  0.2172901E-03  0.1416557E+04  0.7818609E-02  0.8941920E-01
        2   -1    0    0  501    0  0.00000000000E+00  0.00000000000E+00  0.45022500395E+03  0.45022500396E+03  0.25500000920E-02 0.  1.
       -2   -1    0    0    0  501  0.00000000000E+00  0.00000000000E+00 -0.11142396491E+04  0.11142396491E+04  0.25500000920E-02 0. -1.
    10030    2    1    2    0    0  0.00000000000E+00  0.00000000000E+00 -0.66401464514E+03  0.15644646531E+04  0.14165571650E+04 0.  0.
        2    1    3    3  502    0  0.27011767284E+03  0.49488037168E+03 -0.80547540945E+03  0.98318908389E+03  0.25500000920E-02 0. -1.
       -2    1    3    3    0  502 -0.27011767284E+03 -0.49488037168E+03  0.14146076431E+03  0.58127556916E+03  0.25500000920E-02 0.  1.
</event>
<event>
 5   0  0.2195980E-03  0.1460288E+04  0.7818609E-02  0.8911299E-01
        2   -1    0    0  501    0  0.00000000000E+00  0.00000000000E+00  0.15081680269E+04  0.15081680269E+04  0.25500000920E-02 0.  1.
       -2   -1    0    0    0  501  0.00000000000E+00  0.00000000000E+00 -0.35348209053E+03  0.35348209054E+03  0.25500000920E-02 0. -1.
    10030    2    1    2    0    0  0.00000000000E+00  0.00000000000E+00  0.11546859364E+04  0.18616501175E+04  0.14602881730E+04 0.  0.
        4    1    3    3  502    0 -0.70279733537E+03  0.12173693678E+03  0.77633738868E+03  0.10542510756E+04  0.12699999809E+01 0. -1.
       -4    1    3    3    0  502  0.70279733537E+03 -0.12173693678E+03  0.37834854770E+03  0.80739904188E+03  0.12699999809E+01 0.  1.
</event>
<event>
 5   0  0.1199720E-03  0.1373810E+04  0.7818609E-02  0.8972998E-01
       -1   -1    0    0    0  501  0.00000000000E+00  0.00000000000E+00  0.17536483084E+04  0.17536483084E+04  0.50400001928E-02 0. -1.
        1   -1    0    0  501    0  0.00000000000E+00  0.00000000000E+00 -0.26906095372E+03  0.26906095377E+03  0.50400001928E-02 0.  1.
    10030    2    1    2    0    0  0.00000000000E+00  0.00000000000E+00  0.14845873546E+04  0.20227092621E+04  0.13738097196E+04 0.  0.
        5    1    3    3  502    0 -0.34561312883E+03  0.73065412655E+02  0.16096347094E+04  0.16479481112E+04  0.46999998093E+01 0. -1.
       -5    1    3    3    0  502  0.34561312883E+03 -0.73065412655E+02 -0.12504735477E+03  0.37476115098E+03  0.46999998093E+01 0.  1.
</event>
<event>
 5   0  0.2195980E-03  0.1425878E+04  0.7818609E-02  0.8935297E-01
        2   -1    0    0  501    0  0.00000000000E+00  0.00000000000E+00  0.15623849034E+04  0.15623849034E+04  0.25500000920E-02 0. -1.
       -2   -1    0    0    0  501  0.00000000000E+00  0.00000000000E+00 -0.32532425508E+03  0.32532425509E+03  0.25500000920E-02 0.  1.
    10030    2    1    2    0    0  0.00000000000E+00  0.00000000000E+00  0.12370606483E+04  0.18877091585E+04  0.14258775612E+04 0.  0.
        4    1    3    3  502    0  0.15871054683E+03 -0.89286947717E+02 -0.29401406563E+03  0.34584256591E+03  0.12699999809E+01 0.  1.
       -4    1    3    3    0  502 -0.15871054683E+03  0.89286947717E+02  0.15310747139E+04  0.15418665925E+04  0.12699999809E+01 0. -1.
</event>
<event>
 5   0  0.1238683E-03  0.1237549E+04  0.7818609E-02  0.9080610E-01
       -1   -1    0    0    0  501  0.00000000000E+00  0.00000000000E+00  0.81988430679E+03  0.81988430680E+03  0.50400001928E-02 0.  1.
        1   -1    0    0  501    0  0.00000000000E+00  0.00000000000E+00 -0.46699524727E+03  0.46699524730E+03  0.50400001928E-02 0. -1.
    10030    2    1    2    0    0  0.00000000000E+00  0.00000000000E+00  0.35288905952E+03  0.12868795541E+04  0.12375493115E+04 0.  0.
        2    1    3    3  502    0 -0.37590083507E+03 -0.49150765555E+03  0.17547945265E+03  0.64317513289E+03  0.25500000920E-02 0. -1.
       -2    1    3    3    0  502  0.37590083507E+03  0.49150765555E+03  0.17740960687E+03  0.64370442120E+03  0.25500000920E-02 0.  1.
</event>
<event>
 5   0  0.2190704E-03  0.1368330E+04  0.7818609E-02  0.8977067E-01
       -2   -1    0    0    0  501  0.00000000000E+00  0.00000000000E+00  0.33868891632E+03  0.33868891633E+03  0.25500000920E-02 0. -1.
        2   -1    0    0  501    0  0.00000000000E+00  0.00000000000E+00 -0.13820403446E+04  0.13820403446E+04  0.25500000920E-02 0.  1.
    10030    2    1    2    0    0  0.00000000000E+00  0.00000000000E+00 -0.10433514282E+04  0.17207292609E+04  0.13683299991E+04 0.  0.
        5    1    3    3  502    0 -0.14412110472E+03 -0.12988920346E+03 -0.13466999097E+04  0.13606119339E+04  0.46999998093E+01 0.  1.
       -5    1    3    3    0  502  0.14412110472E+03  0.12988920346E+03  0.30334848143E+03  0.36011732698E+03  0.46999998093E+01 0. -1.
</event>
<event>
 5   0  0.1238683E-03  0.1394087E+04  0.7818609E-02  0.8958110E-01
        1   -1    0    0  501    0  0.00000000000E+00  0.00000000000E+00  0.64544593701E+03  0.64544593703E+03  0.50400001928E-02 0. -1.
       -1   -1    0    0    0  501  0.00000000000E+00  0.00000000000E+00 -0.75276614326E+03  0.75276614328E+03  0.50400001928E-02 0.  1.
    10030    2    1    2    0    0  0.00000000000E+00  0.00000000000E+00 -0.10732020625E+03  0.13982120803E+04  0.13940872981E+04 0.  0.
        2    1    3    3  502    0 -0.38522883345E+03 -0.35384093107E+03 -0.51574573979E+03  0.73457356795E+03  0.25500000920E-02 0.  1.
       -2    1    3    3    0  502  0.38522883345E+03  0.35384093107E+03  0.40842553354E+03  0.66363851235E+03  0.25500000920E-02 0. -1.
</event>
<event>
 5   0  0.2236184E-03  0.1427407E+04  0.7818609E-02  0.8934216E-01
       -2   -1    0    0    0  501  0.00000000000E+00  0.00000000000E+00  0.50252761573E+03  0.50252761573E+03  0.25500000920E-02 0. -1.
        2   -1    0    0  501    0  0.00000000000E+00  0.00000000000E+00 -0.10136207244E+04  0.10136207244E+04  0.25500000920E-02 0.  1.
    10030    2    1    2    0    0  0.00000000000E+00  0.00000000000E+00 -0.51109310866E+03  0.15161483401E+04  0.14274066076E+04 0.  0.
        3    1    3    3  502    0 -0.40584816929E+02 -0.10315308426E+03 -0.10044213156E+04  0.10105196067E+04  0.10100000352E+00 0.  1.
       -3    1    3    3    0  502  0.40584816929E+02  0.10315308426E+03  0.49332820689E+03  0.50562873344E+03  0.10100000352E+00 0. -1.
</event>
<event>
 5   0  0.8293000E-04  0.1422032E+04  0.7818609E-02  0.8938024E-01
        4   -1    0    0  501    0  0.00000000000E+00  0.00000000000E+00  0.41625268451E+03  0.41625462191E+03  0.12699999809E+01 0. -1.
       -4   -1    0    0    0  501  0.00000000000E+00  0.00000000000E+00 -0.12145057949E+04  0.12145064589E+04  0.12699999809E+01 0.  1.
    10030    2    1    2    0    0  0.00000000000E+00  0.00000000000E+00 -0.79825311039E+03  0.16307610808E+04  0.14220315308E+04 0.  0.
        2    1    3    3  502    0  0.65518260943E+03 -0.11601854399E+03 -0.68655262240E+03  0.95607481798E+03  0.25500000920E-02 0.  1.
       -2    1    3    3    0  502 -0.65518260943E+03  0.11601854399E+03 -0.11170048799E+03  0.67468626284E+03  0.25500000920E-02 0. -1.
</event>
<event>
 5   0  0.2172901E-03  0.1443531E+04  0.7818609E-02  0.8922898E-01
        2   -1    0    0  501    0  0.00000000000E+00  0.00000000000E+00  0.11077577303E+04  0.11077577303E+04  0.25500000920E-02 0.  1.
       -2   -1    0    0    0  501  0.00000000000E+00  0.00000000000E+00 -0.47027025389E+03  0.47027025389E+03  0.25500000920E-02 0. -1.
    10030    2    1    2    0    0  0.00000000000E+00  0.00000000000E+00  0.63748747640E+03  0.15780279842E+04  0.14435310999E+04 0.  0.
        2    1    3    3  502    0  0.53447603120E+03  0.42013629288E+03  0.58374809404E+03  0.89606973491E+03  0.25500000920E-02 0. -1.
       -2    1    3    3    0  502 -0.53447603120E+03 -0.42013629288E+03  0.53739382359E+02  0.68195824927E+03  0.25500000920E-02 0.  1.
</event>
<event>
 5   0  0.8293000E-04  0.9012461E+03  0.7818609E-02  0.9424025E-01
        3   -1    0    0  501    0  0.00000000000E+00  0.00000000000E+00  0.42835908923E+03  0.42835910114E+03  0.10100000352E+00 0. -1.
       -3   -1    0    0    0  501  0.00000000000E+00  0.00000000000E+00 -0.47404416581E+03  0.47404417657E+03  0.10100000352E+00 0.  1.
    10030    2    1    2    0    0  0.00000000000E+00  0.00000000000E+00 -0.45685076579E+02  0.90240327771E+03  0.90124610923E+03 0.  0.
        2    1    3    3  502    0 -0.15788016468E+03 -0.13365992566E+03 -0.42369393422E+03  0.47149514529E+03  0.25500000920E-02 0.  1.
       -2    1    3    3    0  502  0.15788016468E+03  0.13365992566E+03  0.37800885764E+03  0.43090813242E+03  0.25500000920E-02 0. -1.
</event>
<event>
 5   0  0.2195980E-03  0.1381898E+04  0.7818609E-02  0.8967027E-01
        2   -1    0    0  501    0  0.00000000000E+00  0.00000000000E+00  0.14136425526E+04  0.14136425526E+04  0.25500000920E-02 0. -1.
       -2   -1    0    0    0  501  0.00000000000E+00  0.00000000000E+00 -0.33771658919E+03  0.33771658920E+03  0.25500000920E-02 0.  1.
    10030    2    1    2    0    0  0.00000000000E+00  0.00000000000E+00  0.10759259634E+04  0.17513591418E+04  0.13818980298E+04 0.  0.
        4    1    3    3  502    0  0.46166175222E+03  0.32965409714E+03  0.10378958966E+04  0.11828072127E+04  0.12699999809E+01 0. -1.
       -4    1    3    3    0  502 -0.46166175222E+03 -0.32965409714E+03  0.38030066773E+02  0.56855192911E+03  0.12699999809E+01 0.  1.
</event>
<event>
 5   0  0.2190704E-03  0.1371218E+04  0.7818609E-02  0.8974920E-01
       -2   -1    0    0    0  501  0.00000000000E+00  0.00000000000E+00  0.53659296607E+03  0.53659296608E+03  0.25500000920E-02 0.  1.
        2   -1    0    0  501    0  0.00000000000E+00  0.00000000000E+00 -0.87600855450E+03  0.87600855450E+03  0.25500000920E-02 0. -1.
    10030    2    1    2    0    0  0.00000000000E+00  0.00000000000E+00 -0.33941558842E+03  0.14126015206E+04  0.13712184780E+04 0.  0.
        5    1    3    3  502    0 -0.22269195224E+03 -0.52925682675E+03  0.21620893446E+03  0.61357386482E+03  0.46999998093E+01 0.  1.
       -5    1    3    3    0  502  0.22269195224E+03  0.52925682675E+03 -0.55562452288E+03  0.79902765576E+03  0.46999998093E+01 0. -1.
</event>
<event>
 5   0  0.1225690E-03  0.1381541E+04  0.7818609E-02  0.8967289E-01
       -1   -1    0    0    0  501  0.00000000000E+00  0.00000000000E+00  0.45921931497E+03  0.45921931499E+03  0.50400001928E-02 0. -1.
        1   -1    0    0  501    0  0.00000000000E+00  0.00000000000E+00 -0.10390765607E+04  0.10390765607E+04  0.50400001928E-02 0.  1.
    10030    2    1    2    0    0  0.00000000000E+00  0.00000000000E+00 -0.57985724571E+03  0.14982958757E+04  0.13815412067E+04 0.  0.
        4    1    3    3  502    0  0.93929489483E+02  0.23679418957E+03 -0.98627231707E+03  0.10186407284E+04  0.12699999809E+01 0.  1.
       -4    1    3    3    0  502 -0.93929489483E+02 -0.23679418957E+03  0.40641507136E+03  0.47965514730E+03  0.12699999809E+01 0. -1.
</event>
<event>
 5   0  0.8293000E-04  0.1379250E+04  0.7818609E-02  0.8968977E-01
       -4   -1    0    0    0  501  0.00000000000E+00  0.00000000000E+00  0.91763579308E+03  0.91763667191E+03  0.12699999809E+01 0. -1.
        4   -1    0    0  501    0  0.00000000000E+00  0.00000000000E+00 -0.51826795209E+03  0.51826950813E+03  0.12699999809E+01 0.  1.
    10030    2    1    2    0    0  0.00000000000E+00  0.00000000000E+00  0.39936784099E+03  0.14359061800E+04  0.13792504796E+04 0.  0.
        1    1    3    3  502    0 -0.14942227757E+03  0.25374995832E+03  0.84889125437E+03  0.89851678902E+03  0.50400001928E-02 0. -1.
       -1    1    3    3    0  502  0.14942227757E+03 -0.25374995832E+03 -0.44952341338E+03  0.53738939102E+03  0.50400001928E-02 0.  1.
</event>
<event>
 5   0  0.2190704E-03  0.1388336E+04  0.7818609E-02  0.8962305E-01
       -2   -1    0    0    0  501  0.00000000000E+00  0.00000000000E+00  0.41561255135E+03  0.41561255135E+03  0.25500000920E-02 0. -1.
        2   -1    0    0  501    0  0.00000000000E+00  0.00000000000E+00 -0.11594191792E+04  0.11594191792E+04  0.25500000920E-02 0.  1.
    10030    2    1    2    0    0  0.00000000000E+00  0.00000000000E+00 -0.74380662790E+03  0.15750317306E+04  0.13883359293E+04 0.  0.
        5    1    3    3  502    0 -0.54568371235E+03  0.42815138838E+03 -0.40323510709E+03  0.80231226270E+03  0.46999998093E+01 0.  1.
       -5    1    3    3    0  502  0.54568371235E+03 -0.42815138838E+03 -0.34057152081E+03  0.77271946790E+03  0.46999998093E+01 0. -1.
</event>
<event>
 5   0  0.1175374E-03  0.1433382E+04  0.7818609E-02  0.8930003E-01
       -1   -1    0    0    0  501  0.00000000000E+00  0.00000000000E+00  0.61209694628E+03  0.61209694630E+03  0.50400001928E-02 0.  1.
        1   -1    0    0  501    0  0.00000000000E+00  0.00000000000E+00 -0.83915836745E+03  0.83915836746E+03  0.50400001928E-02 0. -1.
    10030    2    1    2    0    0  0.00000000000E+00  0.00000000000E+00 -0.22706142117E+03  0.14512553138E+04  0.14333823972E+04 0.  0.
        3    1    3    3  502    0  0.30456370108E+03  0.25428860350E+03  0.49075686128E+03  0.63108165001E+03  0.10100000352E+00 0.  1.
       -3    1    3    3    0  502 -0.30456370108E+03 -0.25428860350E+03 -0.71781828245E+03  0.82017366375E+03  0.10100000352E+00 0. -1.
</event>
<event>
 5   0  0.2083966E-03  0.1405842E+04  0.7818609E-02  0.8949601E-01
        2   -1    0    0  501    0  0.00000000000E+00  0.00000000000E+00  0.54687637164E+03  0.54687637165E+03  0.25500000920E-02 0.  1.
       -2   -1    0    0    0  501  0.00000000000E+00  0.00000000000E+00 -0.90349104637E+03  0.90349104637E+03  0.25500000920E-02 0. -1.
    10030    2    1    2    0    0  0.00000000000E+00  0.00000000000E+00 -0.35661467473E+03  0.14503674180E+04  0.14058419616E+04 0.  0.
        1    1    3    3  502    0  0.41295987336E+03 -0.22697508679E+03 -0.71640535832E+03  0.85749063230E+03  0.50400001928E-02 0. -1.
       -1    1    3    3    0  502 -0.41295987336E+03  0.22697508679E+03  0.35979068359E+03  0.59287678572E+03  0.50400001928E-02 0.  1.
</event>
<event>
 5   0  0.1210275E-03  0.1343474E+04  0.7818609E-02  0.8995783E-01
        1   -1    0    0  501    0  0.00000000000E+00  0.00000000000E+00  0.11483681632E+04  0.11483681632E+04  0.50400001928E-02 0.  1.
       -1   -1    0    0    0  501  0.00000000000E+00  0.00000000000E+00 -0.39293181006E+03  0.39293181009E+03  0.50400001928E-02 0. -1.
    10030    2    1    2    0    0  0.00000000000E+00  0.00000000000E+00  0.75543635316E+03  0.15412999733E+04  0.13434736782E+04 0.  0.
        1    1    3    3  502    0 -0.19846298554E+03 -0.97031184694E+02  0.11055013022E+04  0.11273578566E+04  0.50400001928E-02 0.  1.
       -1    1    3    3    0  502  0.19846298554E+03  0.97031184694E+02 -0.35006494909E+03  0.41394211677E+03  0.50400001928E-02 0. -1.
</event>
<event>
 5   0  0.2083966E-03  0.1393959E+04  0.7818609E-02  0.8958203E-01
        2   -1    0    0  501    0  0.00000000000E+00  0.00000000000E+00  0.17314268563E+04  0.17314268563E+04  0.25500000920E-02 0. -1.
       -2   -1    0    0    0  501  0.00000000000E+00  0.00000000000E+00 -0.28056645538E+03  0.28056645540E+03  0.25500000920E-02 0.  1.
    10030    2    1    2    0    0  0.00000000000E+00  0.00000000000E+00  0.14508604009E+04  0.20119933117E+04  0.13939588169E+04 0.  0.
        1    1    3    3  502    0  0.48933067685E+03 -0.14692489834E+03  0.41163608202E+02  0.51256792693E+03  0.50400001928E-02 0.  1.
       -1    1    3    3    0  502 -0.48933067685E+03  0.14692489834E+03  0.14096967927E+04  0.14994253847E+04  0.50400001928E-02 0. -1.
</event>
<event>
 5   0  0.2083966E-03  0.1353272E+04  0.7818609E-02  0.8988355E-01
       -2   -1    0    0    0  501  0.00000000000E+00  0.00000000000E+00  0.62426521508E+03  0.62426521508E+03  0.25500000920E-02 0.  1.
        2   -1    0    0  501    0  0.00000000000E+00  0.00000000000E+00 -0.73339976841E+03  0.73339976841E+03  0.25500000920E-02 0. -1.
    10030    2    1    2    0    0  0.00000000000E+00  0.00000000000E+00 -0.10913455333E+03  0.13576649835E+04  0.13532715384E+04 0.  0.
        1    1    3    3  502    0 -0.52265423449E+03  0.20732516851E+03 -0.43219970744E+03  0.70918810021E+03  0.50400001928E-02 0. -1.
       -1    1    3    3    0  502  0.52265423449E+03 -0.20732516851E+03  0.32306515411E+03  0.64847688329E+03  0.50400001928E-02 0.  1.
</event>
<event>
 5   0  0.2190704E-03  0.1412281E+04  0.7818609E-02  0.8944977E-01
        2   -1    0    0  501    0  0.00000000000E+00  0.00000000000E+00  0.42157143171E+03  0.42157143172E+03  0.25500000920E-02 0.  1.
       -2   -1    0    0    0  501  0.00000000000E+00  0.00000000000E+00 -0.11827994961E+04  0.11827994961E+04  0.25500000920E-02 0. -1.
    10030    2    1    2    0    0  0.00000000000E+00  0.00000000000E+00 -0.76122806444E+03  0.16043709279E+04  0.14122811009E+04 0.  0.
        5    1    3    3  502    0 -0.32970617237E+03  0.89268860789E+02  0.32145476493E+03  0.46907392328E+03  0.46999998093E+01 0.  1.
       -5    1    3    3    0  502  0.32970617237E+03 -0.89268860789E+02 -0.10826828294E+04  0.11352970046E+04  0.46999998093E+01 0. -1.
</event>
<event>
 5   0  0.2236184E-03  0.1267630E+04  0.7818609E-02  0.9055636E-01
        2   -1    0    0  501    0  0.00000000000E+00  0.00000000000E+00  0.88051525228E+03  0.88051525229E+03  0.25500000920E-02 0. -1.
       -2   -1    0    0    0  501  0.00000000000E+00  0.00000000000E+00 -0.45623473035E+03  0.45623473036E+03  0.25500000920E-02 0.  1.
    10030    2    1    2    0    0  0.00000000000E+00  0.00000000000E+00  0.42428052193E+03  0.13367499826E+04  0.12676302911E+04 0.  0.
        3    1    3    3  502    0  0.97374890862E+02 -0.14839570269E+03 -0.42949263563E+03  0.46472259275E+03  0.10100000352E+00 0.  1.
       -3    1    3    3    0  502 -0.97374890862E+02  0.14839570269E+03  0.85377315756E+03  0.87202738989E+03  0.10100000352E+00 0. -1.
</event>
<event>
 5   0  0.1238683E-03  0.1402372E+04  0.7818609E-02  0.8952104E-01
        1   -1    0    0  501    0  0.00000000000E+00  0.00000000000E+00  0.10606942713E+04  0.10606942713E+04  0.50400001928E-02 0.  1.
       -1   -1    0    0    0  501  0.00000000000E+00  0.00000000000E+00 -0.46352801549E+03  0.46352801552E+03  0.50400001928E-02 0. -1.
    10030    2    1    2    0    0  0.00000000000E+00  0.00000000000E+00  0.59716625580E+03  0.15242222868E+04  0.14023715779E+04 0.  0.
        2    1    3    3  502    0  0.51999366437E+03  0.46790091662E+03  0.24604205456E+03  0.74152637942E+03  0.25500000920E-02 0. -1.
       -2    1    3    3    0  502 -0.51999366437E+03 -0.46790091662E+03  0.35112420124E+03  0.78269590740E+03  0.25500000920E-02 0.  1.
</event>
<event>
 5   0  0.1175374E-03  0.1397832E+04  0.7818609E-02  0.8955390E-01
        1   -1    0    0  501    0  0.00000000000E+00  0.00000000000E+00  0.95597404887E+03  0.95597404889E+03  0.50400001928E-02 0. -1.
       -1   -1    0    0    0  501  0.00000000000E+00  0.00000000000E+00 -0.51097968553E+03  0.51097968555E+03  0.50400001928E-02 0.  1.
    10030    2    1    2    0    0  0.00000000000E+00  0.00000000000E+00  0.44499436335E+03  0.14669537344E+04  0.13978316335E+04 0.  0.
        3    1    3    3  502    0  0.31403317547E+03  0.49231632577E+03 -0.18053940562E+03  0.61121738121E+03  0.10100000352E+00 0.  1.
       -3    1    3    3    0  502 -0.31403317547E+03 -0.49231632577E+03  0.62553376897E+03  0.85573635323E+03  0.10100000352E+00 0. -1.
</event>
<event>
 5   0  0.8293000E-04  0.1366664E+04  0.7818609E-02  0.8978309E-01
        3   -1    0    0  501    0  0.00000000000E+00  0.00000000000E+00  0.42369090926E+03  0.42369092130E+03  0.10100000352E+00 0.  1.
       -3   -1    0    0    0  501  0.00000000000E+00  0.00000000000E+00 -0.11020826820E+04  0.11020826866E+04  0.10100000352E+00 0. -1.
    10030    2    1    2    0    0  0.00000000000E+00  0.00000000000E+00 -0.67839177274E+03  0.15257736079E+04  0.13666637133E+04 0.  0.
        4    1    3    3  502    0 -0.16097291400E+03 -0.65248753066E+03 -0.20115374764E+03  0.70151029914E+03  0.12699999809E+01 0.  1.
       -4    1    3    3    0  502  0.16097291400E+03  0.65248753066E+03 -0.47723802511E+03  0.82426330879E+03  0.12699999809E+01 0. -1.
</event>
<event>
 5   0  0.1238683E-03  0.1393466E+04  0.7818609E-02  0.8958562E-01
        1   -1    0    0  501    0  0.00000000000E+00  0.00000000000E+00  0.12223027026E+04  0.12223027027E+04  0.50400001928E-02 0.  1.
       -1   -1    0    0    0  501  0.00000000000E+00  0.00000000000E+00 -0.39714932653E+03  0.39714932656E+03  0.50400001928E-02 0. -1.
    10030    2    1    2    0    0  0.00000000000E+00  0.00000000000E+00  0.82515337612E+03  0.16194520292E+04  0.13934657444E+04 0.  0.
        2    1    3    3  502    0  0.33742639203E+03  0.40489696874E+03 -0.11699627643E+03  0.53989466939E+03  0.25500000920E-02 0. -1.
       -2    1    3    3    0  502 -0.33742639203E+03 -0.40489696874E+03  0.94214965255E+03  0.10795573598E+04  0.25500000920E-02 0.  1.
</event>
<event>
 5   0  0.1210275E-03  0.1434336E+04  0.7818609E-02  0.8929333E-01
       -1   -1    0    0    0  501  0.00000000000E+00  0.00000000000E+00  0.45678873878E+03  0.45678873881E+03  0.50400001928E-02 0.  1.
        1   -1    0    0  501    0  0.00000000000E+00  0.00000000000E+00 -0.11259691471E+04  0.11259691471E+04  0.50400001928E-02 0. -1.
    10030    2    1    2    0    0  0.00000000000E+00  0.00000000000E+00 -0.66918040835E+03  0.15827578859E+04  0.14343361205E+04 0.  0.
        1    1    3    3  502    0 -0.31780244328E+03  0.47364709680E+03  0.14512450347E+03  0.58855848205E+03  0.50400001928E-02 0.  1.
       -1    1    3    3    0  502  0.31780244328E+03 -0.47364709680E+03 -0.81430491182E+03  0.99419940389E+03  0.50400001928E-02 0. -1.
</event>
<event>
 5   0  0.2083966E-03  0.1250246E+04  0.7818609E-02  0.9069979E-01
        2   -1    0    0  501    0  0.00000000000E+00  0.00000000000E+00  0.11908150985E+04  0.11908150985E+04  0.25500000920E-02 0. -1.
       -2   -1    0    0    0  501  0.00000000000E+00  0.00000000000E+00 -0.32816051345E+03  0.32816051346E+03  0.25500000920E-02 0.  1.
    10030    2    1    2    0    0  0.00000000000E+00  0.00000000000E+00  0.86265458505E+03  0.15189756120E+04  0.12502455665E+04 0.  0.
        1    1    3    3  502    0  0.49411351177E+03 -0.20814460822E+03  0.40829508280E+02  0.53771682996E+03  0.50400001928E-02 0.  1.
       -1    1    3    3    0  502 -0.49411351177E+03  0.20814460822E+03  0.82182507677E+03  0.98125878201E+03  0.50400001928E-02 0. -1.
</event>
<event>
 5   0  0.1175374E-03  0.1394630E+04  0.7818609E-02  0.8957715E-01
       -1   -1    0    0    0  501  0.00000000000E+00  0.00000000000E+00  0.33143423313E+03  0.33143423317E+03  0.50400001928E-02 0. -1.
        1   -1    0    0  501    0  0.00000000000E+00  0.00000000000E+00 -0.14671036890E+04  0.14671036891E+04  0.50400001928E-02 0.  1.
    10030    2    1    2    0    0  0.00000000000E+00  0.00000000000E+00 -0.11356694559E+04  0.17985379222E+04  0.13946302537E+04 0.  0.
        3    1    3    3  502    0  0.50867499390E+03 -0.14112829312E+03 -0.11553974652E+04  0.12702797949E+04  0.10100000352E+00 0.  1.
       -3    1    3    3    0  502 -0.50867499390E+03  0.14112829312E+03  0.19728009285E+02  0.52825812733E+03  0.10100000352E+00 0. -1.
</event>
<event>
 5   0  0.2172901E-03  0.1339032E+04  0.7818609E-02  0.8999172E-01
        2   -1    0    0  501    0  0.00000000000E+00  0.00000000000E+00  0.40444539933E+03  0.40444539933E+03  0.25500000920E-02 0. -1.
       -2   -1    0    0    0  501  0.00000000000E+00  0.00000000000E+00 -0.11083124246E+04  0.11083124246E+04  0.25500000920E-02 0.  1.
    10030    2    1    2    0    0  0.00000000000E+00  0.00000000000E+00 -0.70386702526E+03  0.15127578239E+04  0.13390322791E+04 0.  0.
        2    1    3    3  502    0 -0.27532653701E+02 -0.65458960684E+03 -0.19618399767E+03  0.68391063842E+03  0.25500000920E-02 0. -1.
       -2    1    3    3    0  502  0.27532653701E+02  0.65458960684E+03 -0.50768302759E+03  0.82884718550E+03  0.25500000920E-02 0.  1.
</event>
<event>
 5   0  0.1199720E-03  0.1418474E+04  0.7818609E-02  0.8940554E-01
       -1   -1    0    0    0  501  0.00000000000E+00  0.00000000000E+00  0.78427673895E+03  0.78427673896E+03  0.50400001928E-02 0. -1.
        1   -1    0    0  501    0  0.00000000000E+00  0.00000000000E+00 -0.64137685127E+03  0.64137685129E+03  0.50400001928E-02 0.  1.
    10030    2    1    2    0    0  0.00000000000E+00  0.00000000000E+00  0.14289988768E+03  0.14256535903E+04  0.14184737507E+04 0.  0.
        5    1    3    3  502    0  0.50853662840E+02 -0.28053339606E+03 -0.58122890981E+03  0.64740575911E+03  0.46999998093E+01 0.  1.
       -5    1    3    3    0  502 -0.50853662840E+02  0.28053339606E+03  0.72412879749E+03  0.77824783114E+03  0.46999998093E+01 0. -1.
</event>
<event>
 5   0  0.2195980E-03  0.1397908E+04  0.7818609E-02  0.8955335E-01
        2   -1    0    0  501    0  0.00000000000E+00  0.00000000000E+00  0.49944290534E+03  0.49944290534E+03  0.25500000920E-02 0. -1.
       -2   -1    0    0    0  501  0.00000000000E+00  0.00000000000E+00 -0.97816269418E+03  0.97816269418E+03  0.25500000920E-02 0.  1.
    10030    2    1    2    0    0  0.00000000000E+00  0.00000000000E+00 -0.47871978884E+03  0.14776055995E+04  0.13979076048E+04 0.  0.
        4    1    3    3  502    0 -0.16660605363E+03  0.48525095664E+03 -0.74108874793E+03  0.90135465452E+03  0.12699999809E+01 0.  1.
       -4    1    3    3    0  502  0.16660605363E+03 -0.48525095664E+03  0.26236895909E+03  0.57625094500E+03  0.12699999809E+01 0. -1.
</event>
<event>
 5   0  0.2083966E-03  0.1367603E+04  0.7818609E-02  0.8977609E-01
       -2   -1    0    0    0  501  0.00000000000E+00  0.00000000000E+00  0.28611877842E+03  0.28611877843E+03  0.25500000920E-02 0. -1.
        2   -1    0    0  501    0  0.00000000000E+00  0.00000000000E+00 -0.16342322980E+04  0.16342322980E+04  0.25500000920E-02 0.  1.
    10030    2    1    2    0    0  0.00000000000E+00  0.00000000000E+00 -0.13481135196E+04  0.19203510764E+04  0.13676030839E+04 0.  0.
        1    1    3    3  502    0  0.65168516848E+03 -0.20583811602E+03 -0.70612789253E+03  0.98268992538E+03  0.50400001928E-02 0. -1.
       -1    1    3    3    0  502 -0.65168516848E+03  0.20583811602E+03 -0.64198562703E+03  0.93766115103E+03  0.50400001928E-02 0.  1.
</event>
<event>
 5   0  0.2083966E-03  0.1357702E+04  0.7818609E-02  0.8985018E-01
       -2   -1    0    0    0  501  0.00000000000E+00  0.00000000000E+00  0.26426879361E+03  0.26426879362E+03  0.25500000920E-02 0.  1.
        2   -1    0    0  501    0  0.00000000000E+00  0.00000000000E+00 -0.17438253243E+04  0.17438253243E+04  0.25500000920E-02 0. -1.
    10030    2    1    2    0    0  0.00000000000E+00  0.00000000000E+00 -0.14795565307E+04  0.20080941179E+04  0.13577019036E+04 0.  0.
        1    1    3    3  502    0  0.24566699420E+03 -0.17709858703E+03  0.15881851269E+03  0.34196418170E+03  0.50400001928E-02 0.  1.
       -1    1    3    3    0  502 -0.24566699420E+03  0.17709858703E+03 -0.16383750434E+04  0.16661299362E+04  0.50400001928E-02 0. -1.
</event>
<event>
 5   0  0.1225690E-03  0.1401961E+04  0.7818609E-02  0.8952400E-01
       -1   -1    0    0    0  501  0.00000000000E+00  0.00000000000E+00  0.11721334540E+04  0.11721334540E+04  0.50400001928E-02 0. -1.
        1   -1    0    0  501    0  0.00000000000E+00  0.00000000000E+00 -0.41921331332E+03  0.41921331335E+03  0.50400001928E-02 0.  1.
    10030    2    1    2    0    0  0.00000000000E+00  0.00000000000E+00  0.75292014070E+03  0.15913467674E+04  0.14019614102E+04 0.  0.
        4    1    3    3  502    0  0.37808167795E+03  0.58925914144E+03  0.33713552306E+03  0.77706760632E+03  0.12699999809E+01 0. -1.
       -4    1    3    3    0  502 -0.37808167795E+03 -0.58925914144E+03  0.41578461764E+03  0.81427916106E+03  0.12699999809E+01 0.  1.
</event>
<event>
 5   0  0.2195980E-03  0.1394492E+04  0.7818609E-02  0.8957815E-01
       -2   -1    0    0    0  501  0.00000000000E+00  0.00000000000E+00  0.36595455084E+03  0.36595455085E+03  0.25500000920E-02 0. -1.
        2   -1    0    0  501    0  0.00000000000E+00  0.00000000000E+00 -0.13284493574E+04  0.13284493574E+04  0.25500000920E-02 0.  1.
    10030    2    1    2    0    0  0.00000000000E+00  0.00000000000E+00 -0.96249480655E+03  0.16944039083E+04  0.13944921483E+04 0.  0.
        4    1    3    3  502    0 -0.17879012566E+03  0.60995507533E+03 -0.82948572439E+03  0.10450164031E+04  0.12699999809E+01 0.  1.
       -4    1    3    3    0  502  0.17879012566E+03 -0.60995507533E+03 -0.13300908216E+03  0.64938750511E+03  0.12699999809E+01 0. -1.
</event>
<event>
 5   0  0.2195980E-03  0.1433955E+04  0.7818609E-02  0.8929601E-01
        2   -1    0    0  501    0  0.00000000000E+00  0.00000000000E+00  0.21260428899E+04  0.21260428899E+04  0.25500000920E-02 0.  1.
       -2   -1    0    0    0  501  0.00000000000E+00  0.00000000000E+00 -0.24179025018E+03  0.24179025019E+03  0.25500000920E-02 0. -1.
    10030    2    1    2    0    0  0.00000000000E+00  0.00000000000E+00  0.18842526397E+04  0.23678331401E+04  0.14339545910E+04 0.  0.
        4    1    3    3  502    0 -0.60370892069E+03  0.20690972258E+02  0.15798685289E+04  0.16914132431E+04  0.12699999809E+01 0.  1.
       -4    1    3    3    0  502  0.60370892069E+03 -0.20690972258E+02  0.30438411077E+03  0.67641989699E+03  0.12699999809E+01 0. -1.
</event>
<event>
 5   0  0.8293000E-04  0.1324015E+04  0.7818609E-02  0.9010735E-01
       -4   -1    0    0    0  501  0.00000000000E+00  0.00000000000E+00  0.50660169734E+03  0.50660328922E+03  0.12699999809E+01 0. -1.
        4   -1    0    0  501    0  0.00000000000E+00  0.00000000000E+00 -0.86508268511E+03  0.86508361734E+03  0.12699999809E+01 0.  1.
    10030    2    1    2    0    0  0.00000000000E+00  0.00000000000E+00 -0.35848098777E+03  0.13716869066E+04  0.13240152382E+04 0.  0.
        1    1    3    3  502    0  0.42998979466E+02 -0.49153230838E+03 -0.63649477982E+03  0.80534373232E+03  0.50400001928E-02 0.  1.
       -1    1    3    3    0  502 -0.42998979466E+02  0.49153230838E+03  0.27801379205E+03  0.56634317424E+03  0.50400001928E-02 0. -1.
</event>
<event>
 5   0  0.2083966E-03  0.1390609E+04  0.7818609E-02  0.8960644E-01
        2   -1    0    0  501    0  0.00000000000E+00  0.00000000000E+00  0.68139474627E+03  0.68139474627E+03  0.25500000920E-02 0.  1.
       -2   -1    0    0    0  501  0.00000000000E+00  0.00000000000E+00 -0.70949817241E+03  0.70949817242E+03  0.25500000920E-02 0. -1.
    10030    2    1    2    0    0  0.00000000000E+00  0.00000000000E+00 -0.28103426148E+02  0.13908929187E+04  0.13906089705E+04 0.  0.
        1    1    3    3  502    0 -0.44289487140E+03  0.53564127702E+03  0.54684802835E+01  0.69505204774E+03  0.50400001928E-02 0. -1.
       -1    1    3    3    0  502  0.44289487140E+03 -0.53564127702E+03 -0.33571906432E+02  0.69584087095E+03  0.50400001928E-02 0.  1.
</event>
<event>
 5   0  0.1175374E-03  0.1352889E+04  0.7818609E-02  0.8988644E-01
        1   -1    0    0  501    0  0.00000000000E+00  0.00000000000E+00  0.30176750120E+03  0.30176750124E+03  0.50400001928E-02 0. -1.
       -1   -1    0    0    0  501  0.00000000000E+00  0.00000000000E+00 -0.15163227678E+04  0.15163227678E+04  0.50400001928E-02 0.  1.
    10030    2    1    2    0    0  0.00000000000E+00  0.00000000000E+00 -0.12145552666E+04  0.18180902690E+04  0.13528886616E+04 0.  0.
        3    1    3    3  502    0  0.65595699318E+02  0.59248981937E+03 -0.17760030431E+03  0.62200390684E+03  0.10100000352E+00 0. -1.
       -3    1    3    3    0  502 -0.65595699318E+02 -0.59248981937E+03 -0.10369549623E+04  0.11960863622E+04  0.10100000352E+00 0.  1.
</event>
<event>
 5   0  0.1199720E-03  0.1421090E+04  0.7818609E-02  0.8938693E-01
        1   -1    0    0  501    0  0.00000000000E+00  0.00000000000E+00  0.17028403640E+04  0.17028403640E+04  0.50400001928E-02 0. -1.
       -1   -1    0    0    0  501  0.00000000000E+00  0.00000000000E+00 -0.29648931579E+03  0.29648931584E+03  0.50400001928E-02 0.  1.
    10030    2    1    2    0    0  0.00000000000E+00  0.00000000000E+00  0.14063510482E+04  0.19993296798E+04  0.14210896868E+04 0.  0.
        5    1    3    3  502    0 -0.67554370646E+03  0.17777510938E+03  0.52034037345E+03  0.87105653266E+03  0.46999998093E+01 0.  1.
       -5    1    3    3    0  502  0.67554370646E+03 -0.17777510938E+03  0.88601067474E+03  0.11282731472E+04  0.46999998093E+01 0. -1.
</event>
<event>
 5   0  0.1199720E-03  0.1387449E+04  0.7818609E-02  0.8962954E-01
        1   -1    0    0  501    0  0.00000000000E+00  0.00000000000E+00  0.14352841935E+04  0.14352841936E+04  0.50400001928E-02 0. -1.
       -1   -1    0    0    0  501  0.00000000000E+00  0.00000000000E+00 -0.33530194345E+03  0.33530194349E+03  0.50400001928E-02 0.  1.
    10030    2    1    2    0    0  0.00000000000E+00  0.00000000000E+00  0.10999822501E+04  0.17705861370E+04  0.13874488524E+04 0.  0.
        5    1    3    3  502    0 -0.40317112327E+03 -0.40219606451E+03  0.44465487353E+02  0.57123366367E+03  0.46999998093E+01 0.  1.
       -5    1    3    3    0  502  0.40317112327E+03  0.40219606451E+03  0.10555167627E+04  0.11993524734E+04  0.46999998093E+01 0. -1.
</event>
<event>
 5   0  0.1238683E-03  0.1401053E+04  0.7818609E-02  0.8953057E-01
       -1   -1    0    0    0  501  0.00000000000E+00  0.00000000000E+00  0.97590056668E+03  0.97590056669E+03  0.50400001928E-02 0. -1.
        1   -1    0    0  501    0  0.00000000000E+00  0.00000000000E+00 -0.50285596855E+03  0.50285596857E+03  0.50400001928E-02 0.  1.
    10030    2    1    2    0    0  0.00000000000E+00  0.00000000000E+00  0.47304459813E+03  0.14787565353E+04  0.14010530678E+04 0.  0.
        2    1    3    3  502    0 -0.15748876851E+03 -0.16520706285E+03  0.93555399913E+03  0.96299396214E+03  0.25500000920E-02 0. -1.
       -2    1    3    3    0  502  0.15748876851E+03  0.16520706285E+03 -0.46250940099E+03  0.51576257313E+03  0.25500000920E-02 0.  1.
</event>
<event>
 5   0  0.2236184E-03  0.1402860E+04  0.7818609E-02  0.8951751E-01
       -2   -1    0    0    0  501  0.00000000000E+00  0.00000000000E+00  0.64881250078E+03  0.64881250078E+03  0.25500000920E-02 0.  1.
        2   -1    0    0  501    0  0.00000000000E+00  0.00000000000E+00 -0.75831430239E+03  0.75831430240E+03  0.25500000920E-02 0. -1.
    10030    2    1    2    0    0  0.00000000000E+00  0.00000000000E+00 -0.10950180162E+03  0.14071268032E+04  0.14028596493E+04 0.  0.
        3    1    3    3  502    0  0.14083951562E+03  0.50315714548E+03 -0.52414969341E+03  0.74009174669E+03  0.10100000352E+00 0. -1.
       -3    1    3    3    0  502 -0.14083951562E+03 -0.50315714548E+03  0.41464789180E+03  0.66703505649E+03  0.10100000352E+00 0.  1.
</event>
<event>
 5   0  0.2190704E-03  0.1208688E+04  0.7818609E-02  0.9105286E-01
       -2   -1    0    0    0  501  0.00000000000E+00  0.00000000000E+00  0.33639689553E+03  0.33639689554E+03  0.25500000920E-02 0. -1.
        2   -1    0    0  501    0  0.00000000000E+00  0.00000000000E+00 -0.10857164760E+04  0.10857164760E+04  0.25500000920E-02 0.  1.
    10030    2    1    2    0    0  0.00000000000E+00  0.00000000000E+00 -0.74931958045E+03  0.14221133715E+04  0.12086879696E+04 0.  0.
        5    1    3    3  502    0 -0.23342889453E+03  0.14431539011E+03 -0.10081491434E+04  0.10448458096E+04  0.46999998093E+01 0.  1.
       -5    1    3    3    0  502  0.23342889453E+03 -0.14431539011E+03  0.25882956291E+03  0.37726756190E+03  0.46999998093E+01 0. -1.
</event>
<event>
 5   0  0.2172901E-03  0.1412667E+04  0.7818609E-02  0.8944700E-01
       -2   -1    0    0    0  501  0.00000000000E+00  0.00000000000E+00  0.96306503716E+03  0.96306503716E+03  0.25500000920E-02 0.  1.
        2   -1    0    0  501    0  0.00000000000E+00  0.00000000000E+00 -0.51804118184E+03  0.51804118185E+03  0.25500000920E-02 0. -1.
    10030    2    1    2    0    0  0.00000000000E+00  0.00000000000E+00  0.44502385532E+03  0.14811062190E+04  0.14126674769E+04 0.  0.
        2    1    3    3  502    0 -0.40799951434E+03  0.25717820622E+03  0.76355816772E+03  0.90311976446E+03  0.25500000920E-02 0.  1.
       -2    1    3    3    0  502  0.40799951434E+03 -0.25717820622E+03 -0.31853431241E+03  0.57798645455E+03  0.25500000920E-02 0. -1.
</event>
<event>
 5   0  0.1238683E-03  0.1399301E+04  0.7818609E-02  0.8954325E-01
        1   -1    0    0  501    0  0.00000000000E+00  0.00000000000E+00  0.21177250934E+04  0.21177250934E+04  0.50400001928E-02 0. -1.
       -1   -1    0    0    0  501  0.00000000000E+00  0.00000000000E+00 -0.23114924628E+03  0.23114924634E+03  0.50400001928E-02 0.  1.
    10030    2    1    2    0    0  0.00000000000E+00  0.00000000000E+00  0.18865758471E+04  0.23488743397E+04  0.13993006242E+04 0.  0.
        2    1    3    3  502    0  0.29365321105E+03 -0.63504102668E+03  0.94141470851E+03  0.11729326355E+04  0.25500000920E-02 0.  1.
       -2    1    3    3    0  502 -0.29365321105E+03  0.63504102668E+03  0.94516113858E+03  0.11759417043E+04  0.25500000920E-02 0. -1.
</event>
<event>
 5   0  0.2083966E-03  0.1417078E+04  0.7818609E-02  0.8941548E-01
        2   -1    0    0  501    0  0.00000000000E+00  0.00000000000E+00  0.12807843792E+04  0.12807843792E+04  0.25500000920E-02 0.  1.
       -2   -1    0    0    0  501  0.00000000000E+00  0.00000000000E+00 -0.39196902081E+03  0.39196902082E+03  0.25500000920E-02 0. -1.
    10030    2    1    2    0    0  0.00000000000E+00  0.00000000000E+00  0.88881535835E+03  0.16727534000E+04  0.14170784015E+04 0.  0.
        1    1    3    3  502    0 -0.39195040903E+03  0.99239242767E+02  0.11312422974E+04  0.12013253872E+04  0.50400001928E-02 0.  1.
       -1    1    3    3    0  502  0.39195040903E+03 -0.99239242767E+02 -0.24242693906E+03  0.47142801280E+03  0.50400001928E-02 0. -1.
</event>
<event>
 5   0  0.8293000E-04  0.1162690E+04  0.7818609E-02  0.9146156E-01
       -3   -1    0    0    0  501  0.00000000000E+00  0.00000000000E+00  0.60076754008E+03  0.60076754857E+03  0.10100000352E+00 0.  1.
        3   -1    0    0  501    0  0.00000000000E+00  0.00000000000E+00 -0.56254994703E+03  0.56254995610E+03  0.10100000352E+00 0. -1.
    10030    2    1    2    0    0  0.00000000000E+00  0.00000000000E+00  0.38217593050E+02  0.11633175047E+04  0.11626895683E+04 0.  0.
        1    1    3    3  502    0 -0.40426082056E+03  0.40124624831E+03  0.13551764682E+03  0.58548304455E+03  0.50400001928E-02 0. -1.
       -1    1    3    3    0  502  0.40426082056E+03 -0.40124624831E+03 -0.97300053768E+02  0.57783446013E+03  0.50400001928E-02 0.  1.
</event>
<event>
 5   0  0.8293000E-04  0.1398946E+04  0.7818609E-02  0.8954582E-01
        4   -1    0    0  501    0  0.00000000000E+00  0.00000000000E+00  0.80274416068E+03  0.80274516529E+03  0.12699999809E+01 0. -1.
       -4   -1    0    0    0  501  0.00000000000E+00  0.00000000000E+00 -0.60948523114E+03  0.60948655430E+03  0.12699999809E+01 0.  1.
    10030    2    1    2    0    0  0.00000000000E+00  0.00000000000E+00  0.19325892954E+03  0.14122317196E+04  0.13989458231E+04 0.  0.
        4    1    3    3  502    0 -0.68810196841E+03 -0.12249047305E+03  0.12468742173E+03  0.70995549224E+03  0.12699999809E+01 0. -1.
       -4    1    3    3    0  502  0.68810196841E+03  0.12249047305E+03  0.68571507811E+02  0.70227622735E+03  0.12699999809E+01 0.  1.
</event>
<event>
 5   0  0.1210275E-03  0.1458014E+04  0.7818609E-02  0.8912863E-01
       -1   -1    0    0    0  501  0.00000000000E+00  0.00000000000E+00  0.36841027296E+03  0.36841027300E+03  0.50400001928E-02 0.  1.
        1   -1    0    0  501    0  0.00000000000E+00  0.00000000000E+00 -0.14425523289E+04  0.14425523289E+04  0.50400001928E-02 0. -1.
    10030    2    1    2    0    0  0.00000000000E+00  0.00000000000E+00 -0.10741420559E+04  0.18109626019E+04  0.14580138508E+04 0.  0.
        1    1    3    3  502    0 -0.23824166742E+03  0.67361999237E+03 -0.71675645141E+03  0.10120586924E+04  0.50400001928E-02 0. -1.
       -1    1    3    3    0  502  0.23824166742E+03 -0.67361999237E+03 -0.35738560449E+03  0.79890390945E+03  0.50400001928E-02 0.  1.
</event>
<event>
 5   0  0.1175374E-03  0.1439791E+04  0.7818609E-02  0.8925509E-01
        1   -1    0    0  501    0  0.00000000000E+00  0.00000000000E+00  0.94950951487E+03  0.94950951488E+03  0.50400001928E-02 0.  1.
       -1   -1    0    0    0  501  0.00000000000E+00  0.00000000000E+00 -0.54580794917E+03  0.54580794919E+03  0.50400001928E-02 0. -1.
    10030    2    1    2    0    0  0.00000000000E+00  0.00000000000E+00  0.40370156570E+03  0.14953174641E+04  0.14397914308E+04 0.  0.
        3    1    3    3  502    0  0.23890063913E+03 -0.82291484033E+02 -0.49824118989E+03  0.55864988788E+03  0.10100000352E+00 0. -1.
       -3    1    3    3    0  502 -0.23890063913E+03  0.82291484033E+02  0.90194275559E+03  0.93666757619E+03  0.10100000352E+00 0.  1.
</event>
<event>
 5   0  0.1238683E-03  0.1337081E+04  0.7818609E-02  0.9000665E-01
        1   -1    0    0  501    0  0.00000000000E+00  0.00000000000E+00  0.58057387779E+03  0.58057387781E+03  0.50400001928E-02 0. -1.
       -1   -1    0    0    0  501  0.00000000000E+00  0.00000000000E+00 -0.76983599967E+03  0.76983599969E+03  0.50400001928E-02 0.  1.
    10030    2    1    2    0    0  0.00000000000E+00  0.00000000000E+00 -0.18926212188E+03  0.13504098775E+04  0.13370814061E+04 0.  0.
        2    1    3    3  502    0 -0.34222210551E+03  0.16948050895E+03 -0.64883323505E+03  0.75287726711E+03  0.25500000920E-02 0.  1.
       -2    1    3    3    0  502  0.34222210551E+03 -0.16948050895E+03  0.45957111317E+03  0.59753261039E+03  0.25500000920E-02 0. -1.
</event>
<event>
 5   0  0.1175374E-03  0.1410989E+04  0.7818609E-02  0.8945902E-01
        1   -1    0    0  501    0  0.00000000000E+00  0.00000000000E+00  0.15759139262E+04  0.15759139262E+04  0.50400001928E-02 0. -1.
       -1   -1    0    0    0  501  0.00000000000E+00  0.00000000000E+00 -0.31583122950E+03  0.31583122954E+03  0.50400001928E-02 0.  1.
    10030    2    1    2    0    0  0.00000000000E+00  0.00000000000E+00  0.12600826967E+04  0.18917451558E+04  0.14109894868E+04 0.  0.
        3    1    3    3  502    0 -0.12576235616E+03  0.38651750202E+03  0.14031522163E+04  0.14608381504E+04  0.10100000352E+00 0. -1.
       -3    1    3    3    0  502  0.12576235616E+03 -0.38651750202E+03 -0.14306951957E+03  0.43090700531E+03  0.10100000352E+00 0.  1.
</event>
<event>
 5   0  0.1225690E-03  0.1320456E+04  0.7818609E-02  0.9013499E-01
       -1   -1    0    0    0  501  0.00000000000E+00  0.00000000000E+00  0.24564794293E+04  0.24564794293E+04  0.50400001928E-02 0.  1.
        1   -1    0    0  501    0  0.00000000000E+00  0.00000000000E+00 -0.17744948187E+03  0.17744948194E+03  0.50400001928E-02 0. -1.
    10030    2    1    2    0    0  0.00000000000E+00  0.00000000000E+00  0.22790299475E+04  0.26339289113E+04  0.13204559850E+04 0.  0.
        4    1    3    3  502    0 -0.51837346347E+03  0.19020510655E+03  0.41752205457E+03  0.69225378954E+03  0.12699999809E+01 0. -1.
       -4    1    3    3    0  502  0.51837346347E+03 -0.19020510655E+03  0.18615078929E+04  0.19416751217E+04  0.12699999809E+01 0.  1.
</event>
<event>
 5   0  0.1238683E-03  0.1406538E+04  0.7818609E-02  0.8949099E-01
       -1   -1    0    0    0  501  0.00000000000E+00  0.00000000000E+00  0.80420883964E+03  0.80420883966E+03  0.50400001928E-02 0.  1.
        1   -1    0    0  501    0  0.00000000000E+00  0.00000000000E+00 -0.61499874797E+03  0.61499874799E+03  0.50400001928E-02 0. -1.
    10030    2    1    2    0    0  0.00000000000E+00  0.00000000000E+00  0.18921009167E+03  0.14192075877E+04  0.14065382036E+04 0.  0.
        2    1    3    3  502    0 -0.43398284971E+03 -0.53285315296E+03 -0.56118631462E+02  0.68950917127E+03  0.25500000920E-02 0. -1.
       -2    1    3    3    0  502  0.43398284971E+03  0.53285315296E+03  0.24532872313E+03  0.72969841638E+03  0.25500000920E-02 0.  1.
</event>
<event>
 5   0  0.2172901E-03  0.1378199E+04  0.7818609E-02  0.8969752E-01
        2   -1    0    0  501    0  0.00000000000E+00  0.00000000000E+00  0.16375338119E+04  0.16375338119E+04  0.25500000920E-02 0. -1.
       -2   -1    0    0    0  501  0.00000000000E+00  0.00000000000E+00 -0.28998376097E+03  0.28998376098E+03  0.25500000920E-02 0.  1.
    10030    2    1    2    0    0  0.00000000000E+00  0.00000000000E+00  0.13475500509E+04  0.19275175729E+04  0.13781991344E+04 0.  0.
        2    1    3    3  502    0  0.65139894613E+03 -0.11553492532E+03  0.40406603767E+03  0.77520208255E+03  0.25500000920E-02 0.  1.
       -2    1    3    3    0  502 -0.65139894613E+03  0.11553492532E+03  0.94348401327E+03  0.11523154903E+04  0.25500000920E-02 0. -1.
</event>
<event>
 5   0  0.1238683E-03  0.1390940E+04  0.7818609E-02  0.8960403E-01
       -1   -1    0    0    0  501  0.00000000000E+00  0.00000000000E+00  0.30419222318E+03  0.30419222322E+03  0.50400001928E-02 0. -1.
        1   -1    0    0  501    0  0.00000000000E+00  0.00000000000E+00 -0.15900429964E+04  0.15900429965E+04  0.50400001928E-02 0.  1.
    10030    2    1    2    0    0  0.00000000000E+00  0.00000000000E+00 -0.12858507733E+04  0.18942352197E+04  0.13909402778E+04 0.  0.
        2    1    3    3  502    0 -0.20349038430E+03  0.44950358977E+03 -0.13103883977E+04  0.14002069728E+04  0.25500000920E-02 0.  1.
       -2    1    3    3    0  502  0.20349038430E+03 -0.44950358977E+03  0.24537624458E+02  0.49402824690E+03  0.25500000920E-02 0. -1.
</event>
<event>
 5   0  0.1199720E-03  0.1183297E+04  0.7818609E-02  0.9127604E-01
        1   -1    0    0  501    0  0.00000000000E+00  0.00000000000E+00  0.14244428267E+04  0.14244428267E+04  0.50400001928E-02 0.  1.
       -1   -1    0    0    0  501  0.00000000000E+00  0.00000000000E+00 -0.24574360639E+03  0.24574360644E+03  0.50400001928E-02 0. -1.
    10030    2    1    2    0    0  0.00000000000E+00  0.00000000000E+00  0.11786992203E+04  0.16701864331E+04  0.11832966109E+04 0.  0.
        5    1    3    3  502    0  0.58349148307E+03 -0.68729285234E+02  0.49115760007E+03  0.76579625460E+03  0.46999998093E+01 0. -1.
       -5    1    3    3    0  502 -0.58349148307E+03  0.68729285234E+02  0.68754162022E+03  0.90439017851E+03  0.46999998093E+01 0.  1.
</event>
<event>
 5   0  0.8293000E-04  0.1382866E+04  0.7818609E-02  0.8966315E-01
       -3   -1    0    0    0  501  0.00000000000E+00  0.00000000000E+00  0.61667232212E+03  0.61667233039E+03  0.10100000352E+00 0.  1.
        3   -1    0    0  501    0  0.00000000000E+00  0.00000000000E+00 -0.77525667290E+03  0.77525667948E+03  0.10100000352E+00 0. -1.
    10030    2    1    2    0    0  0.00000000000E+00  0.00000000000E+00 -0.15858435079E+03  0.13919290099E+04  0.13828656378E+04 0.  0.
        2    1    3    3  502    0 -0.25080382563E+03  0.20540064397E+03  0.53543747077E+03  0.62592752665E+03  0.25500000920E-02 0.  1.
       -2    1    3    3    0  502  0.25080382563E+03 -0.20540064397E+03 -0.69402182156E+03  0.76600148323E+03  0.25500000920E-02 0. -1.
</event>
<event>
 5   0  0.2236184E-03  0.1413916E+04  0.7818609E-02  0.8943807E-01
       -2   -1    0    0    0  501  0.00000000000E+00  0.00000000000E+00  0.44344545572E+03  0.44344545573E+03  0.25500000920E-02 0.  1.
        2   -1    0    0  501    0  0.00000000000E+00  0.00000000000E+00 -0.11270599585E+04  0.11270599585E+04  0.25500000920E-02 0. -1.
    10030    2    1    2    0    0  0.00000000000E+00  0.00000000000E+00 -0.68361450281E+03  0.15705054143E+04  0.14139160045E+04 0.  0.
        3    1    3    3  502    0  0.37849551151E+03 -0.48016653253E+03  0.52423835167E+02  0.61365056823E+03  0.10100000352E+00 0.  1.
       -3    1    3    3    0  502 -0.37849551151E+03  0.48016653253E+03 -0.73603833797E+03  0.95685484602E+03  0.10100000352E+00 0. -1.
</event>
<event>
 5   0  0.2236184E-03  0.1364922E+04  0.7818609E-02  0.8979609E-01
        2   -1    0    0  501    0  0.00000000000E+00  0.00000000000E+00  0.11868986425E+04  0.11868986425E+04  0.25500000920E-02 0. -1.
       -2   -1    0    0    0  501  0.00000000000E+00  0.00000000000E+00 -0.39241153259E+03  0.39241153260E+03  0.25500000920E-02 0.  1.
    10030    2    1    2    0    0  0.00000000000E+00  0.00000000000E+00  0.79448710990E+03  0.15793101751E+04  0.13649215587E+04 0.  0.
        3    1    3    3  502    0 -0.18945268574E+03 -0.20924029924E+03  0.11161920245E+04  0.11513290011E+04  0.10100000352E+00 0. -1.
       -3    1    3    3    0  502  0.18945268574E+03  0.20924029924E+03 -0.32170491465E+03  0.42798117397E+03  0.10100000352E+00 0.  1.
</event>
<event>
 5   0  0.2195980E-03  0.1380079E+04  0.7818609E-02  0.8968366E-01
        2   -1    0    0  501    0  0.00000000000E+00  0.00000000000E+00  0.72702237070E+03  0.72702237070E+03  0.25500000920E-02 0. -1.
       -2   -1    0    0    0  501  0.00000000000E+00  0.00000000000E+00 -0.65493806311E+03  0.65493806312E+03  0.25500000920E-02 0.  1.
    10030    2    1    2    0    0  0.00000000000E+00  0.00000000000E+00  0.72084307584E+02  0.13819604338E+04  0.13800791619E+04 0.  0.
        4    1    3    3  502    0  0.11387502489E+03  0.57281794598E+03 -0.33197085159E+03  0.67178432532E+03  0.12699999809E+01 0.  1.
       -4    1    3    3    0  502 -0.11387502489E+03 -0.57281794598E+03  0.40405515918E+03  0.71017610850E+03  0.12699999809E+01 0. -1.
</event>
<event>
 5   0  0.2236184E-03  0.1392942E+04  0.7818609E-02  0.8958943E-01
       -2   -1    0    0    0  501  0.00000000000E+00  0.00000000000E+00  0.27424586428E+03  0.27424586429E+03  0.25500000920E-02 0.  1.
        2   -1    0    0  501    0  0.00000000000E+00  0.00000000000E+00 -0.17687488913E+04  0.17687488913E+04  0.25500000920E-02 0. -1.
    10030    2    1    2    0    0  0.00000000000E+00  0.00000000000E+00 -0.14945030270E+04  0.20429947556E+04  0.13929423081E+04 0.  0.
        3    1    3    3  502    0  0.20762269509E+03  0.52214276319E+03 -0.13507878147E+04  0.14629996512E+04  0.10100000352E+00 0. -1.
       -3    1    3    3    0  502 -0.20762269509E+03 -0.52214276319E+03 -0.14371521223E+03  0.57999510438E+03  0.10100000352E+00 0.  1.
</event>
<event>
 5   0  0.2083966E-03  0.9093207E+03  0.7818609E-02  0.9414004E-01
       -2   -1    0    0    0  501  0.00000000000E+00  0.00000000000E+00  0.20886433559E+03  0.20886433560E+03  0.25500000920E-02 0.  1.
        2   -1    0    0  501    0  0.00000000000E+00  0.00000000000E+00 -0.98971446501E+03  0.98971446501E+03  0.25500000920E-02 0. -1.
    10030    2    1    2    0    0  0.00000000000E+00  0.00000000000E+00 -0.78085012942E+03  0.11985788006E+04  0.90932074466E+03 0.  0.
        1    1    3    3  502    0 -0.28252872723E+03 -0.28323304422E+03 -0.67518609841E+03  0.78480552149E+03  0.50400001928E-02 0. -1.
       -1    1    3    3    0  502  0.28252872723E+03  0.28323304422E+03 -0.10566403101E+03  0.41377327913E+03  0.50400001928E-02 0.  1.
</event>
<event>
 5   0  0.2236184E-03  0.1395716E+04  0.7818609E-02  0.8956925E-01
        2   -1    0    0  501    0  0.00000000000E+00  0.00000000000E+00  0.10721610921E+04  0.10721610921E+04  0.25500000920E-02 0. -1.
       -2   -1    0    0    0  501  0.00000000000E+00  0.00000000000E+00 -0.45422813767E+03  0.45422813767E+03  0.25500000920E-02 0.  1.
    10030    2    1    2    0    0  0.00000000000E+00  0.00000000000E+00  0.61793295439E+03  0.15263892297E+04  0.13957159254E+04 0.  0.
        3    1    3    3  502    0  0.19408286120E+03 -0.30499879598E+03 -0.34383973386E+03  0.49891702251E+03  0.10100000352E+00 0. -1.
       -3    1    3    3    0  502 -0.19408286120E+03  0.30499879598E+03  0.96177268826E+03  0.10274722072E+04  0.10100000352E+00 0.  1.
</event>
<event>
 5   0  0.2190704E-03  0.1419012E+04  0.7818609E-02  0.8940171E-01
        2   -1    0    0  501    0  0.00000000000E+00  0.00000000000E+00  0.45664371744E+03  0.45664371745E+03  0.25500000920E-02 0.  1.
       -2   -1    0    0    0  501  0.00000000000E+00  0.00000000000E+00 -0.11023882128E+04  0.11023882128E+04  0.25500000920E-02 0. -1.
    10030    2    1    2    0    0  0.00000000000E+00  0.00000000000E+00 -0.64574449533E+03  0.15590319302E+04  0.14190118415E+04 0.  0.
        5    1    3    3  502    0  0.13229682103E+02 -0.15278764908E+03  0.43819865968E+03  0.46428358311E+03  0.46999998093E+01 0.  1.
       -5    1    3    3    0  502 -0.13229682103E+02  0.15278764908E+03 -0.10839431550E+04  0.10947483471E+04  0.46999998093E+01 0. -1.
</event>
<event>
 5   0  0.1175374E-03  0.1412718E+04  0.7818609E-02  0.8944664E-01
        1   -1    0    0  501    0  0.00000000000E+00  0.00000000000E+00  0.99393451764E+03  0.99393451765E+03  0.50400001928E-02 0.  1.
       -1   -1    0    0    0  501  0.00000000000E+00  0.00000000000E+00 -0.50198778289E+03  0.50198778291E+03  0.50400001928E-02 0. -1.
    10030    2    1    2    0    0  0.00000000000E+00  0.00000000000E+00  0.49194673475E+03  0.14959223006E+04  0.14127179264E+04 0.  0.
        3    1    3    3  502    0 -0.60608788438E+03  0.33209342605E+03  0.40056650517E+03  0.79880041468E+03  0.10100000352E+00 0.  1.
       -3    1    3    3    0  502  0.60608788438E+03 -0.33209342605E+03  0.91380229580E+02  0.69712188589E+03  0.10100000352E+00 0. -1.
</event>
<event>
 5   0  0.1210275E-03  0.1367453E+04  0.7818609E-02  0.8977720E-01
       -1   -1    0    0    0  501  0.00000000000E+00  0.00000000000E+00  0.14164798527E+04  0.14164798527E+04  0.50400001928E-02 0.  1.
        1   -1    0    0  501    0  0.00000000000E+00  0.00000000000E+00 -0.33003086059E+03  0.33003086063E+03  0.50400001928E-02 0. -1.
    10030    2    1    2    0    0  0.00000000000E+00  0.00000000000E+00  0.10864489921E+04  0.17465107134E+04  0.13674532019E+04 0.  0.
        1    1    3    3  502    0  0.92312493547E+02  0.18941269671E+03  0.13739771214E+04  0.13900402499E+04  0.50400001928E-02 0.  1.
       -1    1    3    3    0  502 -0.92312493547E+02 -0.18941269671E+03 -0.28752812930E+03  0.35647046344E+03  0.50400001928E-02 0. -1.
</event>
<event>
 5   0  0.1175374E-03  0.1397803E+04  0.7818609E-02  0.8955410E-01
       -1   -1    0    0    0  501  0.00000000000E+00  0.00000000000E+00  0.26544887540E+03  0.26544887545E+03  0.50400001928E-02 0. -1.
        1   -1    0    0  501    0  0.00000000000E+00  0.00000000000E+00 -0.18401417896E+04  0.18401417896E+04  0.50400001928E-02 0.  1.
    10030    2    1    2    0    0  0.00000000000E+00  0.00000000000E+00 -0.15746929142E+04  0.21055906650E+04  0.13978033748E+04 0.  0.
        3    1    3    3  502    0 -0.30921997105E+02  0.54839054101E+03 -0.13633674069E+03  0.56592938821E+03  0.10100000352E+00 0.  1.
       -3    1    3    3    0  502  0.30921997105E+02 -0.54839054101E+03 -0.14383561735E+04  0.15396612768E+04  0.10100000352E+00 0. -1.
</event>
<event>
 5   0  0.1210275E-03  0.1439989E+04  0.7818609E-02  0.8925371E-01
       -1   -1    0    0    0  501  0.00000000000E+00  0.00000000000E+00  0.63694984862E+03  0.63694984864E+03  0.50400001928E-02 0. -1.
        1   -1    0    0  501    0  0.00000000000E+00  0.00000000000E+00 -0.81386635372E+03  0.81386635374E+03  0.50400001928E-02 0.  1.
    10030    2    1    2    0    0  0.00000000000E+00  0.00000000000E+00 -0.17691650510E+03  0.14508162024E+04  0.14399889594E+04 0.  0.
        1    1    3    3  502    0 -0.68802096115E+03 -0.15636207847E+03 -0.23295947570E+03  0.74302897649E+03  0.50400001928E-02 0.  1.
       -1    1    3    3    0  502  0.68802096115E+03  0.15636207847E+03  0.56042970595E+02  0.70778722589E+03  0.50400001928E-02 0. -1.
</event>
<event>
 5   0  0.1225690E-03  0.1438652E+04  0.7818609E-02  0.8926306E-01
        1   -1    0    0  501    0  0.00000000000E+00  0.00000000000E+00  0.90904826016E+03  0.90904826018E+03  0.50400001928E-02 0. -1.
       -1   -1    0    0    0  501  0.00000000000E+00  0.00000000000E+00 -0.56919988882E+03  0.56919988884E+03  0.50400001928E-02 0.  1.
    10030    2    1    2    0    0  0.00000000000E+00  0.00000000000E+00  0.33984837134E+03  0.14782481490E+04  0.14386523814E+04 0.  0.
        4    1    3    3  502    0  0.56711987333E+02 -0.26453096862E+03  0.85477849058E+03  0.89657167239E+03  0.12699999809E+01 0. -1.
       -4    1    3    3    0  502 -0.56711987333E+02  0.26453096862E+03 -0.51493011924E+03  0.58167647663E+03  0.12699999809E+01 0.  1.
</event>
<event>
 5   0  0.2195980E-03  0.1454580E+04  0.7818609E-02  0.8915231E-01
        2   -1    0    0  501    0  0.00000000000E+00  0.00000000000E+00  0.61989935590E+03  0.61989935591E+03  0.25500000920E-02 0. -1.
       -2   -1    0    0    0  501  0.00000000000E+00  0.00000000000E+00 -0.85328483393E+03  0.85328483394E+03  0.25500000920E-02 0.  1.
    10030    2    1    2    0    0  0.00000000000E+00  0.00000000000E+00 -0.23338547803E+03  0.14731841898E+04  0.14545799654E+04 0.  0.
        4    1    3    3  502    0  0.11297010510E+03  0.27340516105E+03  0.55621195454E+03  0.62998887134E+03  0.12699999809E+01 0. -1.
       -4    1    3    3    0  502 -0.11297010510E+03 -0.27340516105E+03 -0.78959743257E+03  0.84319531851E+03  0.12699999809E+01 0.  1.
</event>
<event>
 5   0  0.2190704E-03  0.1415495E+04  0.7818609E-02  0.8942679E-01
        2   -1    0    0  501    0  0.00000000000E+00  0.00000000000E+00  0.14571893861E+04  0.14571893861E+04  0.25500000920E-02 0.  1.
       -2   -1    0    0    0  501  0.00000000000E+00  0.00000000000E+00 -0.34374817089E+03  0.34374817089E+03  0.25500000920E-02 0. -1.
    10030    2    1    2    0    0  0.00000000000E+00  0.00000000000E+00  0.11134412152E+04  0.18009375570E+04  0.14154945229E+04 0.  0.
        5    1    3    3  502    0  0.10787474332E+03  0.43820330540E+03  0.12503590094E+04  0.13293151768E+04  0.46999998093E+01 0.  1.
       -5    1    3    3    0  502 -0.10787474332E+03 -0.43820330540E+03 -0.13691779414E+03  0.47162238016E+03  0.46999998093E+01 0. -1.
</event>
<event>
 5   0  0.1225690E-03  0.1403024E+04  0.7818609E-02  0.8951633E-01
       -1   -1    0    0    0  501  0.00000000000E+00  0.00000000000E+00  0.23222271606E+03  0.23222271612E+03  0.50400001928E-02 0.  1.
        1   -1    0    0  501    0  0.00000000000E+00  0.00000000000E+00 -0.21191675547E+04  0.21191675547E+04  0.50400001928E-02 0. -1.
    10030    2    1    2    0    0  0.00000000000E+00  0.00000000000E+00 -0.18869448386E+04  0.23513902708E+04  0.14030236568E+04 0.  0.
        4    1    3    3  502    0  0.81597609784E+02  0.48878929857E+03 -0.17756327636E+04  0.18434875840E+04  0.12699999809E+01 0. -1.
       -4    1    3    3    0  502 -0.81597609784E+02 -0.48878929857E+03 -0.11131207504E+03  0.50790268681E+03  0.12699999809E+01 0.  1.
</event>
<event>
 5   0  0.2236184E-03  0.1306101E+04  0.7818609E-02  0.9024741E-01
       -2   -1    0    0    0  501  0.00000000000E+00  0.00000000000E+00  0.36283067313E+03  0.36283067314E+03  0.25500000920E-02 0.  1.
        2   -1    0    0  501    0  0.00000000000E+00  0.00000000000E+00 -0.11754102619E+04  0.11754102619E+04  0.25500000920E-02 0. -1.
    10030    2    1    2    0    0  0.00000000000E+00  0.00000000000E+00 -0.81257958879E+03  0.15382409351E+04  0.13061009096E+04 0.  0.
        3    1    3    3  502    0  0.31176071059E+02 -0.20928821224E+03  0.32133836725E+03  0.38474908662E+03  0.10100000352E+00 0.  1.
       -3    1    3    3    0  502 -0.31176071059E+02  0.20928821224E+03 -0.11339179560E+04  0.11534918484E+04  0.10100000352E+00 0. -1.
</event>
<event>
 5   0  0.2083966E-03  0.1393244E+04  0.7818609E-02  0.8958723E-01
       -2   -1    0    0    0  501  0.00000000000E+00  0.00000000000E+00  0.61887407266E+03  0.61887407267E+03  0.25500000920E-02 0.  1.
        2   -1    0    0  501    0  0.00000000000E+00  0.00000000000E+00 -0.78413780080E+03  0.78413780081E+03  0.25500000920E-02 0. -1.
    10030    2    1    2    0    0  0.00000000000E+00  0.00000000000E+00 -0.16526372814E+03  0.14030118735E+04  0.13932444930E+04 0.  0.
        1    1    3    3  502    0 -0.53648454059E+03  0.44436879897E+03 -0.84450766546E+02  0.70172018910E+03  0.50400001928E-02 0.  1.
       -1    1    3    3    0  502  0.53648454059E+03 -0.44436879897E+03 -0.80812961597E+02  0.70129168438E+03  0.50400001928E-02 0. -1.
</event>
<event>
 5   0  0.2172901E-03  0.1396715E+04  0.7818609E-02  0.8956200E-01
       -2   -1    0    0    0  501  0.00000000000E+00  0.00000000000E+00  0.19740403706E+03  0.19740403708E+03  0.25500000920E-02 0. -1.
        2   -1    0    0  501    0  0.00000000000E+00  0.00000000000E+00 -0.24705848414E+04  0.24705848414E+04  0.25500000920E-02 0.  1.
    10030    2    1    2    0    0  0.00000000000E+00  0.00000000000E+00 -0.22731808043E+04  0.26679888785E+04  0.13967153205E+04 0.  0.
        2    1    3    3  502    0 -0.52401025651E+02  0.11284282020E+03 -0.24492441102E+04  0.24524021042E+04  0.25500000920E-02 0.  1.
       -2    1    3    3    0  502  0.52401025651E+02 -0.11284282020E+03  0.17606330585E+03  0.21558677425E+03  0.25500000920E-02 0. -1.
</event>
<event>
 5   0  0.8293000E-04  0.1344970E+04  0.7818609E-02  0.8994645E-01
        4   -1    0    0  501    0  0.00000000000E+00  0.00000000000E+00  0.12555943626E+04  0.12555950049E+04  0.12699999809E+01 0. -1.
       -4   -1    0    0    0  501  0.00000000000E+00  0.00000000000E+00 -0.36017480157E+03  0.36017704062E+03  0.12699999809E+01 0.  1.
    10030    2    1    2    0    0  0.00000000000E+00  0.00000000000E+00  0.89541956099E+03  0.16157720455E+04  0.13449695583E+04 0.  0.
        1    1    3    3  502    0  0.12001468087E+03 -0.66135924393E+03  0.42261907019E+03  0.79398139252E+03  0.50400001928E-02 0.  1.
       -1    1    3    3    0  502 -0.12001468087E+03  0.66135924393E+03  0.47280049080E+03  0.82179065295E+03  0.50400001928E-02 0. -1.
</event>
<event>
 5   0  0.1225690E-03  0.1217855E+04  0.7818609E-02  0.9097370E-01
        1   -1    0    0  501    0  0.00000000000E+00  0.00000000000E+00  0.11653713523E+04  0.11653713523E+04  0.50400001928E-02 0. -1.
       -1   -1    0    0    0  501  0.00000000000E+00  0.00000000000E+00 -0.31817559984E+03  0.31817559988E+03  0.50400001928E-02 0.  1.
    10030    2    1    2    0    0  0.00000000000E+00  0.00000000000E+00  0.84719575247E+03  0.14835469522E+04  0.12178550474E+04 0.  0.
        4    1    3    3  502    0 -0.34878023373E+03 -0.94863029046E+02  0.10205534215E+04  0.10826714852E+04  0.12699999809E+01 0. -1.
       -4    1    3    3    0  502  0.34878023373E+03  0.94863029046E+02 -0.17335766908E+03  0.40087546701E+03  0.12699999809E+01 0.  1.
</event>
<event>
 5   0  0.2190704E-03  0.1461460E+04  0.7818609E-02  0.8910494E-01
        2   -1    0    0  501    0  0.00000000000E+00  0.00000000000E+00  0.59298096753E+03  0.59298096754E+03  0.25500000920E-02 0. -1.
       -2   -1    0    0    0  501  0.00000000000E+00  0.00000000000E+00 -0.90047855771E+03  0.90047855771E+03  0.25500000920E-02 0.  1.
    10030    2    1    2    0    0  0.00000000000E+00  0.00000000000E+00 -0.30749759018E+03  0.14934595253E+04  0.14614604290E+04 0.  0.
        5    1    3    3  502    0 -0.17748002311E+03 -0.28375085422E+03 -0.81753318797E+03  0.88340042411E+03  0.46999998093E+01 0.  1.
       -5    1    3    3    0  502  0.17748002311E+03  0.28375085422E+03  0.51003559780E+03  0.61005910114E+03  0.46999998093E+01 0. -1.
</event>
<event>
 5   0  0.8293000E-04  0.1392517E+04  0.7818609E-02  0.8959253E-01
        4   -1    0    0  501    0  0.00000000000E+00  0.00000000000E+00  0.99207683157E+03  0.99207764446E+03  0.12699999809E+01 0.  1.
       -4   -1    0    0    0  501  0.00000000000E+00  0.00000000000E+00 -0.48864554855E+03  0.48864719893E+03  0.12699999809E+01 0. -1.
    10030    2    1    2    0    0  0.00000000000E+00  0.00000000000E+00  0.50343128302E+03  0.14807248434E+04  0.13925167881E+04 0.  0.
        2    1    3    3  502    0  0.55869113126E+02 -0.15274509516E+02  0.98951194665E+03  0.99120560986E+03  0.25500000920E-02 0.  1.
       -2    1    3    3    0  502 -0.55869113126E+02  0.15274509516E+02 -0.48608066362E+03  0.48951923353E+03  0.25500000920E-02 0. -1.
</event>
<event>
 5   0  0.1199720E-03  0.1391555E+04  0.7818609E-02  0.8959955E-01
       -1   -1    0    0    0  501  0.00000000000E+00  0.00000000000E+00  0.53942538927E+03  0.53942538929E+03  0.50400001928E-02 0.  1.
        1   -1    0    0  501    0  0.00000000000E+00  0.00000000000E+00 -0.89744766648E+03  0.89744766650E+03  0.50400001928E-02 0. -1.
    10030    2    1    2    0    0  0.00000000000E+00  0.00000000000E+00 -0.35802227721E+03  0.14368730558E+04  0.13915546082E+04 0.  0.
        5    1    3    3  502    0  0.78566753271E+02  0.59485088151E+03 -0.54270874540E+03  0.80905820451E+03  0.46999998093E+01 0. -1.
       -5    1    3    3    0  502 -0.78566753271E+02 -0.59485088151E+03  0.18468646819E+03  0.62781485128E+03  0.46999998093E+01 0.  1.
</event>
<event>
 5   0  0.1225690E-03  0.1409412E+04  0.7818609E-02  0.8947034E-01
        1   -1    0    0  501    0  0.00000000000E+00  0.00000000000E+00  0.95543946322E+03  0.95543946323E+03  0.50400001928E-02 0. -1.
       -1   -1    0    0    0  501  0.00000000000E+00  0.00000000000E+00 -0.51977179789E+03  0.51977179792E+03  0.50400001928E-02 0.  1.
    10030    2    1    2    0    0  0.00000000000E+00  0.00000000000E+00  0.43566766532E+03  0.14752112611E+04  0.14094119165E+04 0.  0.
        4    1    3    3  502    0  0.44248946646E+03  0.23207213063E+03 -0.30231152675E+03  0.58399338510E+03  0.12699999809E+01 0.  1.
       -4    1    3    3    0  502 -0.44248946646E+03 -0.23207213063E+03  0.73797919208E+03  0.89121787604E+03  0.12699999809E+01 0. -1.
</event>
<event>
 5   0  0.1175374E-03  0.1409917E+04  0.7818609E-02  0.8946671E-01
       -1   -1    0    0    0  501  0.00000000000E+00  0.00000000000E+00  0.35689884627E+03  0.35689884631E+03  0.50400001928E-02 0.  1.
        1   -1    0    0  501    0  0.00000000000E+00  0.00000000000E+00 -0.13924576497E+04  0.13924576497E+04  0.50400001928E-02 0. -1.
    10030    2    1    2    0    0  0.00000000000E+00  0.00000000000E+00 -0.10355588034E+04  0.17493564960E+04  0.14099170595E+04 0.  0.
        3    1    3    3  502    0 -0.32241687557E+03 -0.30060923384E+03  0.16480071917E+03  0.47061432230E+03  0.10100000352E+00 0.  1.
       -3    1    3    3    0  502  0.32241687557E+03  0.30060923384E+03 -0.12003595226E+04  0.12787421737E+04  0.10100000352E+00 0. -1.
</event>
<event>
 5   0  0.8293000E-04  0.1428344E+04  0.7818609E-02  0.8933553E-01
        3   -1    0    0  501    0  0.00000000000E+00  0.00000000000E+00  0.87481817122E+03  0.87481817705E+03  0.10100000352E+00 0. -1.
       -3   -1    0    0    0  501  0.00000000000E+00  0.00000000000E+00 -0.58302595637E+03  0.58302596512E+03  0.10100000352E+00 0.  1.
    10030    2    1    2    0    0  0.00000000000E+00  0.00000000000E+00  0.29179221485E+03  0.14578441422E+04  0.14283440924E+04 0.  0.
        3    1    3    3  502    0 -0.44791582978E+03 -0.50804093232E+03 -0.85293747640E+02  0.68264867470E+03  0.10100000352E+00 0.  1.
       -3    1    3    3    0  502  0.44791582978E+03  0.50804093232E+03  0.37708596249E+03  0.77519546747E+03  0.10100000352E+00 0. -1.
</event>
<event>
 5   0  0.1199720E-03  0.1385661E+04  0.7818609E-02  0.8964264E-01
        1   -1    0    0  501    0  0.00000000000E+00  0.00000000000E+00  0.10299801702E+04  0.10299801702E+04  0.50400001928E-02 0. -1.
       -1   -1    0    0    0  501  0.00000000000E+00  0.00000000000E+00 -0.46604183892E+03  0.46604183895E+03  0.50400001928E-02 0.  1.
    10030    2    1    2    0    0  0.00000000000E+00  0.00000000000E+00  0.56393833129E+03  0.14960220092E+04  0.13856606404E+04 0.  0.
        5    1    3    3  502    0  0.45014966562E+03  0.50338393824E+03  0.11484491274E+03  0.68501208363E+03  0.46999998093E+01 0.  1.
       -5    1    3    3    0  502 -0.45014966562E+03 -0.50338393824E+03  0.44909341855E+03  0.81100992554E+03  0.46999998093E+01 0. -1.
</event>
<event>
 5   0  0.1210275E-03  0.1382210E+04  0.7818609E-02  0.8966798E-01
        1   -1    0    0  501    0  0.00000000000E+00  0.00000000000E+00  0.19900563760E+04  0.19900563760E+04  0.50400001928E-02 0.  1.
       -1   -1    0    0    0  501  0.00000000000E+00  0.00000000000E+00 -0.24000629856E+03  0.24000629861E+03  0.50400001928E-02 0. -1.
    10030    2    1    2    0    0  0.00000000000E+00  0.00000000000E+00  0.17500500774E+04  0.22300626746E+04  0.13822099186E+04 0.  0.
        1    1    3    3  502    0 -0.39042127730E+03  0.38482435615E+03  0.15540121764E+04  0.16478690492E+04  0.50400001928E-02 0.  1.
       -1    1    3    3    0  502  0.39042127730E+03 -0.38482435615E+03  0.19603790108E+03  0.58219362547E+03  0.50400001928E-02 0. -1.
</event>
<event>
 5   0  0.8293000E-04  0.1399137E+04  0.7818609E-02  0.8954443E-01
       -3   -1    0    0    0  501  0.00000000000E+00  0.00000000000E+00  0.10203741856E+04  0.10203741906E+04  0.10100000352E+00 0.  1.
        3   -1    0    0  501    0  0.00000000000E+00  0.00000000000E+00 -0.47962437931E+03  0.47962438995E+03  0.10100000352E+00 0. -1.
    10030    2    1    2    0    0  0.00000000000E+00  0.00000000000E+00  0.54074980625E+03  0.14999985805E+04  0.13991373730E+04 0.  0.
        4    1    3    3  502    0 -0.27955079698E+03 -0.15897451623E+03  0.93642831902E+03  0.99011168788E+03  0.12699999809E+01 0.  1.
       -4    1    3    3    0  502  0.27955079698E+03  0.15897451623E+03 -0.39567851278E+03  0.50988689263E+03  0.12699999809E+01 0. -1.
</event>
<event>
 5   0  0.2083966E-03  0.1457919E+04  0.7818609E-02  0.8912929E-01
       -2   -1    0    0    0  501  0.00000000000E+00  0.00000000000E+00  0.47458964385E+03  0.47458964386E+03  0.25500000920E-02 0. -1.
        2   -1    0    0  501    0  0.00000000000E+00  0.00000000000E+00 -0.11196664511E+04  0.11196664511E+04  0.25500000920E-02 0.  1.
    10030    2    1    2    0    0  0.00000000000E+00  0.00000000000E+00 -0.64507680727E+03  0.15942560950E+04  0.14579192053E+04 0.  0.
        1    1    3    3  502    0 -0.69383408056E+03 -0.14455007791E+03 -0.50901920206E+03  0.87258294990E+03  0.50400001928E-02 0. -1.
       -1    1    3    3    0  502  0.69383408056E+03  0.14455007791E+03 -0.13605760522E+03  0.72167314509E+03  0.50400001928E-02 0.  1.
</event>
<event>
 5   0  0.1210275E-03  0.1399940E+04  0.7818609E-02  0.8953862E-01
       -1   -1    0    0    0  501  0.00000000000E+00  0.00000000000E+00  0.47129657452E+03  0.47129657455E+03  0.50400001928E-02 0.  1.
        1   -1    0    0  501    0  0.00000000000E+00  0.00000000000E+00 -0.10395952225E+04  0.10395952225E+04  0.50400001928E-02 0. -1.
    10030    2    1    2    0    0  0.00000000000E+00  0.00000000000E+00 -0.56829864795E+03  0.15108917970E+04  0.13999395234E+04 0.  0.
        1    1    3    3  502    0 -0.46089754285E+03  0.25418567566E+02 -0.85205187245E+03  0.96905368373E+03  0.50400001928E-02 0. -1.
       -1    1    3    3    0  502  0.46089754285E+03 -0.25418567566E+02  0.28375322450E+03  0.54183811330E+03  0.50400001928E-02 0.  1.
</event>
<event>
 5   0  0.2195980E-03  0.1405302E+04  0.7818609E-02  0.8949990E-01
       -2   -1    0    0    0  501  0.00000000000E+00  0.00000000000E+00  0.23757697347E+03  0.23757697348E+03  0.25500000920E-02 0. -1.
        2   -1    0    0  501    0  0.00000000000E+00  0.00000000000E+00 -0.20781403943E+04  0.20781403943E+04  0.25500000920E-02 0.  1.
    10030    2    1    2    0    0  0.00000000000E+00  0.00000000000E+00 -0.18405634208E+04  0.23157173677E+04  0.14053018257E+04 0.  0.
        4    1    3    3  502    0  0.37864704233E+03 -0.73187818715E+02  0.47588423831E+02  0.38858243714E+03  0.12699999809E+01 0. -1.
       -4    1    3    3    0  502 -0.37864704233E+03  0.73187818715E+02 -0.18881518446E+04  0.19271349306E+04  0.12699999809E+01 0.  1.
</event>
<event>
 5   0  0.2190704E-03  0.1362641E+04  0.7818609E-02  0.8981314E-01
       -2   -1    0    0    0  501  0.00000000000E+00  0.00000000000E+00  0.10011351193E+04  0.10011351193E+04  0.25500000920E-02 0. -1.
        2   -1    0    0  501    0  0.00000000000E+00  0.00000000000E+00 -0.46367148089E+03  0.46367148090E+03  0.25500000920E-02 0.  1.
    10030    2    1    2    0    0  0.00000000000E+00  0.00000000000E+00  0.53746363837E+03  0.14648066002E+04  0.13626412636E+04 0.  0.
        5    1    3    3  502    0  0.57075309606E+03  0.24125760878E+03 -0.35718724468E+02  0.62069497157E+03  0.46999998093E+01 0.  1.
       -5    1    3    3    0  502 -0.57075309606E+03 -0.24125760878E+03  0.57318236284E+03  0.84411162859E+03  0.46999998093E+01 0. -1.
</event>
<event>
 5   0  0.1238683E-03  0.1398849E+04  0.7818609E-02  0.8954652E-01
        1   -1    0    0  501    0  0.00000000000E+00  0.00000000000E+00  0.17940623924E+04  0.17940623924E+04  0.50400001928E-02 0. -1.
       -1   -1    0    0    0  501  0.00000000000E+00  0.00000000000E+00 -0.27267427691E+03  0.27267427695E+03  0.50400001928E-02 0.  1.
    10030    2    1    2    0    0  0.00000000000E+00  0.00000000000E+00  0.15213881155E+04  0.20667366693E+04  0.13988490492E+04 0.  0.
        2    1    3    3  502    0 -0.58440276021E+03  0.36104057201E+03  0.56626531731E+03  0.89024338828E+03  0.25500000920E-02 0.  1.
       -2    1    3    3    0  502  0.58440276021E+03 -0.36104057201E+03  0.95512279815E+03  0.11764932810E+04  0.25500000920E-02 0. -1.
</event>
<event>
 5   0  0.1210275E-03  0.1386141E+04  0.7818609E-02  0.8963912E-01
        1   -1    0    0  501    0  0.00000000000E+00  0.00000000000E+00  0.19246915621E+04  0.19246915621E+04  0.50400001928E-02 0. -1.
       -1   -1    0    0    0  501  0.00000000000E+00  0.00000000000E+00 -0.24957073784E+03  0.24957073790E+03  0.50400001928E-02 0.  1.
    10030    2    1    2    0    0  0.00000000000E+00  0.00000000000E+00  0.16751208242E+04  0.21742623000E+04  0.13861409644E+04 0.  0.
        1    1    3    3  502    0  0.54541070007E+03  0.36736404975E+03  0.49419884074E+03  0.82259447543E+03  0.50400001928E-02 0.  1.
       -1    1    3    3    0  502 -0.54541070007E+03 -0.36736404975E+03  0.11809219835E+04  0.13516678245E+04  0.50400001928E-02 0. -1.
</event>
<event>
 5   0  0.2172901E-03  0.1396206E+04  0.7818609E-02  0.8956569E-01
        2   -1    0    0  501    0  0.00000000000E+00  0.00000000000E+00  0.12513069547E+04  0.12513069547E+04  0.25500000920E-02 0.  1.
       -2   -1    0    0    0  501  0.00000000000E+00  0.00000000000E+00 -0.38947105409E+03  0.38947105410E+03  0.25500000920E-02 0. -1.
    10030    2    1    2    0    0  0.00000000000E+00  0.00000000000E+00  0.86183590061E+03  0.16407780088E+04  0.13962060573E+04 0.  0.
        2    1    3    3  502    0  0.29692995998E+03  0.51539057177E+03  0.14535927759E+01  0.59480833513E+03  0.25500000920E-02 0. -1.
       -2    1    3    3    0  502 -0.29692995998E+03 -0.51539057177E+03  0.86038230784E+03  0.10459696737E+04  0.25500000920E-02 0.  1.
</event>
<event>
 5   0  0.1175374E-03  0.1427343E+04  0.7818609E-02  0.8934261E-01
       -1   -1    0    0    0  501  0.00000000000E+00  0.00000000000E+00  0.34175145196E+03  0.34175145199E+03  0.50400001928E-02 0. -1.
        1   -1    0    0  501    0  0.00000000000E+00  0.00000000000E+00 -0.14903432050E+04  0.14903432050E+04  0.50400001928E-02 0.  1.
    10030    2    1    2    0    0  0.00000000000E+00  0.00000000000E+00 -0.11485917530E+04  0.18320946570E+04  0.14273429220E+04 0.  0.
        3    1    3    3  502    0 -0.21554738565E+03  0.10150116194E+03  0.28919843378E+03  0.37469841958E+03  0.10100000352E+00 0. -1.
       -3    1    3    3    0  502  0.21554738565E+03 -0.10150116194E+03 -0.14377901868E+04  0.14573962374E+04  0.10100000352E+00 0.  1.
</event>
<event>
 5   0  0.1175374E-03  0.1352376E+04  0.7818609E-02  0.8989031E-01
       -1   -1    0    0    0  501  0.00000000000E+00  0.00000000000E+00  0.68561928389E+03  0.68561928391E+03  0.50400001928E-02 0. -1.
        1   -1    0    0  501    0  0.00000000000E+00  0.00000000000E+00 -0.66688668048E+03  0.66688668050E+03  0.50400001928E-02 0.  1.
    10030    2    1    2    0    0  0.00000000000E+00  0.00000000000E+00  0.18732603410E+02  0.13525059644E+04  0.13523762322E+04 0.  0.
        3    1    3    3  502    0  0.66308386689E+03  0.10584128226E+03 -0.70314213472E+02  0.67514938375E+03  0.10100000352E+00 0.  1.
       -3    1    3    3    0  502 -0.66308386689E+03 -0.10584128226E+03  0.89046816882E+02  0.67735658066E+03  0.10100000352E+00 0. -1.
</event>
<event>
 5   0  0.2172901E-03  0.1407962E+04  0.7818609E-02  0.8948075E-01
        2   -1    0    0  501    0  0.00000000000E+00  0.00000000000E+00  0.57592059533E+03  0.57592059534E+03  0.25500000920E-02 0. -1.
       -2   -1    0    0    0  501  0.00000000000E+00  0.00000000000E+00 -0.86051710086E+03  0.86051710086E+03  0.25500000920E-02 0.  1.
    10030    2    1    2    0    0  0.00000000000E+00  0.00000000000E+00 -0.28459650553E+03  0.14364376962E+04  0.14079623873E+04 0.  0.
        2    1    3    3  502    0  0.48759416133E+03  0.33761553035E+03 -0.52925422599E+03  0.79488511637E+03  0.25500000920E-02 0. -1.
       -2    1    3    3    0  502 -0.48759416133E+03 -0.33761553035E+03  0.24465772046E+03  0.64155257983E+03  0.25500000920E-02 0.  1.
</event>
<event>
 5   0  0.1199720E-03  0.1413217E+04  0.7818609E-02  0.8944307E-01
        1   -1    0    0  501    0  0.00000000000E+00  0.00000000000E+00  0.77528532452E+03  0.77528532453E+03  0.50400001928E-02 0. -1.
       -1   -1    0    0    0  501  0.00000000000E+00  0.00000000000E+00 -0.64401511911E+03  0.64401511913E+03  0.50400001928E-02 0.  1.
    10030    2    1    2    0    0  0.00000000000E+00  0.00000000000E+00  0.13127020541E+03  0.14193004437E+04  0.14132168562E+04 0.  0.
        5    1    3    3  502    0 -0.63636541674E+03  0.18343992935E+02 -0.24223949491E+03  0.68117509393E+03  0.46999998093E+01 0.  1.
       -5    1    3    3    0  502  0.63636541674E+03 -0.18343992935E+02  0.37350970032E+03  0.73812534974E+03  0.46999998093E+01 0. -1.
</event>
<event>
 5   0  0.2236184E-03  0.1413743E+04  0.7818609E-02  0.8943930E-01
        2   -1    0    0  501    0  0.00000000000E+00  0.00000000000E+00  0.12691358588E+04  0.12691358588E+04  0.25500000920E-02 0.  1.
       -2   -1    0    0    0  501  0.00000000000E+00  0.00000000000E+00 -0.39370684472E+03  0.39370684472E+03  0.25500000920E-02 0. -1.
    10030    2    1    2    0    0  0.00000000000E+00  0.00000000000E+00  0.87542901408E+03  0.16628427035E+04  0.14137432221E+04 0.  0.
        3    1    3    3  502    0  0.65676274269E+03 -0.19118040841E+03  0.64739549418E+03  0.94181111951E+03  0.10100000352E+00 0. -1.
       -3    1    3    3    0  502 -0.65676274269E+03  0.19118040841E+03  0.22803351990E+03  0.72103158401E+03  0.10100000352E+00 0.  1.
</event>
<event>
 5   0  0.2236184E-03  0.1398375E+04  0.7818609E-02  0.8954996E-01
        2   -1    0    0  501    0  0.00000000000E+00  0.00000000000E+00  0.98976964800E+03  0.98976964801E+03  0.25500000920E-02 0.  1.
       -2   -1    0    0    0  501  0.00000000000E+00  0.00000000000E+00 -0.49391596760E+03  0.49391596760E+03  0.25500000920E-02 0. -1.
    10030    2    1    2    0    0  0.00000000000E+00  0.00000000000E+00  0.49585368041E+03  0.14836856156E+04  0.13983748187E+04 0.  0.
        3    1    3    3  502    0 -0.45564228328E+03  0.23871486794E+03  0.75038774982E+03  0.90976725802E+03  0.10100000352E+00 0. -1.
       -3    1    3    3    0  502  0.45564228328E+03 -0.23871486794E+03 -0.25453406941E+03  0.57391835759E+03  0.10100000352E+00 0.  1.
</event>
<event>
 5   0  0.2172901E-03  0.1411074E+04  0.7818609E-02  0.8945841E-01
        2   -1    0    0  501    0  0.00000000000E+00  0.00000000000E+00  0.10969747098E+04  0.10969747098E+04  0.25500000920E-02 0. -1.
       -2   -1    0    0    0  501  0.00000000000E+00  0.00000000000E+00 -0.45377752990E+03  0.45377752991E+03  0.25500000920E-02 0.  1.
    10030    2    1    2    0    0  0.00000000000E+00  0.00000000000E+00  0.64319717990E+03  0.15507522397E+04  0.14110740224E+04 0.  0.
        2    1    3    3  502    0  0.58239287394E+03 -0.39820843409E+03  0.31547400759E+03  0.77283585972E+03  0.25500000920E-02 0.  1.
       -2    1    3    3    0  502 -0.58239287394E+03  0.39820843409E+03  0.32772317231E+03  0.77791638000E+03  0.25500000920E-02 0. -1.
</event>
<event>
 5   0  0.1225690E-03  0.1056207E+04  0.7818609E-02  0.9248959E-01
        1   -1    0    0  501    0  0.00000000000E+00  0.00000000000E+00  0.77686371294E+03  0.77686371296E+03  0.50400001928E-02 0. -1.
       -1   -1    0    0    0  501  0.00000000000E+00  0.00000000000E+00 -0.35899934345E+03  0.35899934348E+03  0.50400001928E-02 0.  1.
    10030    2    1    2    0    0  0.00000000000E+00  0.00000000000E+00  0.41786436949E+03  0.11358630564E+04  0.10562074852E+04 0.  0.
        4    1    3    3  502    0 -0.30034215112E+03 -0.64724490030E+02  0.67085745400E+03  0.73786584406E+03  0.12699999809E+01 0. -1.
       -4    1    3    3    0  502  0.30034215112E+03  0.64724490030E+02 -0.25299308451E+03  0.39799721238E+03  0.12699999809E+01 0.  1.
</event>
<event>
 5   0  0.2083966E-03  0.1397189E+04  0.7818609E-02  0.8955856E-01
        2   -1    0    0  501    0  0.00000000000E+00  0.00000000000E+00  0.11936090728E+04  0.11936090728E+04  0.25500000920E-02 0.  1.
       -2   -1    0    0    0  501  0.00000000000E+00  0.00000000000E+00 -0.40887263565E+03  0.40887263566E+03  0.25500000920E-02 0. -1.
    10030    2    1    2    0    0  0.00000000000E+00  0.00000000000E+00  0.78473643715E+03  0.16024817085E+04  0.13971887310E+04 0.  0.
        1    1    3    3  502    0  0.50581099199E+02  0.65918211614E+03  0.65126676373E+03  0.92802365670E+03  0.50400001928E-02 0.  1.
       -1    1    3    3    0  502 -0.50581099199E+02 -0.65918211614E+03  0.13346967342E+03  0.67445805176E+03  0.50400001928E-02 0. -1.
</event>
<event>
 5   0  0.2172901E-03  0.1360425E+04  0.7818609E-02  0.8982974E-01
       -2   -1    0    0    0  501  0.00000000000E+00  0.00000000000E+00  0.80696828011E+03  0.80696828012E+03  0.25500000920E-02 0. -1.
        2   -1    0    0  501    0  0.00000000000E+00  0.00000000000E+00 -0.57336705825E+03  0.57336705825E+03  0.25500000920E-02 0.  1.
    10030    2    1    2    0    0  0.00000000000E+00  0.00000000000E+00  0.23360122187E+03  0.13803353384E+04  0.13604249761E+04 0.  0.
        2    1    3    3  502    0 -0.53340764526E+03 -0.41181424015E+03  0.21075357228E+03  0.70606781023E+03  0.25500000920E-02 0.  1.
       -2    1    3    3    0  502  0.53340764526E+03  0.41181424015E+03  0.22847649588E+02  0.67426752814E+03  0.25500000920E-02 0. -1.
</event>
<event>
 5   0  0.2083966E-03  0.1418688E+04  0.7818609E-02  0.8940401E-01
        2   -1    0    0  501    0  0.00000000000E+00  0.00000000000E+00  0.16893988417E+04  0.16893988417E+04  0.25500000920E-02 0. -1.
       -2   -1    0    0    0  501  0.00000000000E+00  0.00000000000E+00 -0.29783906491E+03  0.29783906492E+03  0.25500000920E-02 0.  1.
    10030    2    1    2    0    0  0.00000000000E+00  0.00000000000E+00  0.13915597768E+04  0.19872379066E+04  0.14186880859E+04 0.  0.
        1    1    3    3  502    0  0.60223564599E+03 -0.11229706280E+03  0.11966766659E+04  0.13443710226E+04  0.50400001928E-02 0. -1.
       -1    1    3    3    0  502 -0.60223564599E+03  0.11229706280E+03  0.19488311084E+03  0.64286688399E+03  0.50400001928E-02 0.  1.
</event>
<event>
 5   0  0.2236184E-03  0.1405390E+04  0.7818609E-02  0.8949926E-01
        2   -1    0    0  501    0  0.00000000000E+00  0.00000000000E+00  0.57262715342E+03  0.57262715343E+03  0.25500000920E-02 0.  1.
       -2   -1    0    0    0  501  0.00000000000E+00  0.00000000000E+00 -0.86230672943E+03  0.86230672944E+03  0.25500000920E-02 0. -1.
    10030    2    1    2    0    0  0.00000000000E+00  0.00000000000E+00 -0.28967957601E+03  0.14349338829E+04  0.14053899784E+04 0.  0.
        3    1    3    3  502    0 -0.54864551312E+03 -0.43904016393E+03 -0.14838745986E+03  0.71818313337E+03  0.10100000352E+00 0. -1.
       -3    1    3    3    0  502  0.54864551312E+03  0.43904016393E+03 -0.14129211615E+03  0.71675074950E+03  0.10100000352E+00 0.  1.
</event>
<event>
 5   0  0.8293000E-04  0.1406156E+04  0.7818609E-02  0.8949374E-01
       -4   -1    0    0    0  501  0.00000000000E+00  0.00000000000E+00  0.48628581868E+03  0.48628747706E+03  0.12699999809E+01 0. -1.
        4   -1    0    0  501    0  0.00000000000E+00  0.00000000000E+00 -0.10165152937E+04  0.10165160871E+04  0.12699999809E+01 0.  1.
    10030    2    1    2    0    0  0.00000000000E+00  0.00000000000E+00 -0.53022947503E+03  0.15028035641E+04  0.14061561991E+04 0.  0.
        5    1    3    3  502    0 -0.52966737413E+03 -0.43805584658E+03 -0.10711488013E+03  0.69565518721E+03  0.46999998093E+01 0. -1.
       -5    1    3    3    0  502  0.52966737413E+03  0.43805584658E+03 -0.42311459490E+03  0.80714837692E+03  0.46999998093E+01 0.  1.
</event>
<event>
 5   0  0.2083966E-03  0.1387861E+04  0.7818609E-02  0.8962652E-01
        2   -1    0    0  501    0  0.00000000000E+00  0.00000000000E+00  0.16248850662E+04  0.16248850662E+04  0.25500000920E-02 0.  1.
       -2   -1    0    0    0  501  0.00000000000E+00  0.00000000000E+00 -0.29635306720E+03  0.29635306721E+03  0.25500000920E-02 0. -1.
    10030    2    1    2    0    0  0.00000000000E+00  0.00000000000E+00  0.13285319990E+04  0.19212381334E+04  0.13878611937E+04 0.  0.
        1    1    3    3  502    0 -0.10484673043E+03  0.47716361859E+02 -0.28302481541E+03  0.30556952439E+03  0.50400001928E-02 0. -1.
       -1    1    3    3    0  502  0.10484673043E+03 -0.47716361859E+02  0.16115568144E+04  0.16156686090E+04  0.50400001928E-02 0.  1.
</event>
<event>
 5   0  0.2195980E-03  0.1414173E+04  0.7818609E-02  0.8943623E-01
       -2   -1    0    0    0  501  0.00000000000E+00  0.00000000000E+00  0.75394144361E+03  0.75394144361E+03  0.25500000920E-02 0.  1.
        2   -1    0    0  501    0  0.00000000000E+00  0.00000000000E+00 -0.66314381641E+03  0.66314381641E+03  0.25500000920E-02 0. -1.
    10030    2    1    2    0    0  0.00000000000E+00  0.00000000000E+00  0.90797627202E+02  0.14170852600E+04  0.14141734070E+04 0.  0.
        4    1    3    3  502    0 -0.12939605079E+03  0.65368293529E+03  0.28237100280E+03  0.72372627005E+03  0.12699999809E+01 0.  1.
       -4    1    3    3    0  502  0.12939605079E+03 -0.65368293529E+03 -0.19157337559E+03  0.69335898998E+03  0.12699999809E+01 0. -1.
</event>
<event>
 5   0  0.1210275E-03  0.1371265E+04  0.7818609E-02  0.8974885E-01
       -1   -1    0    0    0  501  0.00000000000E+00  0.00000000000E+00  0.53099740637E+03  0.53099740639E+03  0.50400001928E-02 0. -1.
        1   -1    0    0  501    0  0.00000000000E+00  0.00000000000E+00 -0.88529963308E+03  0.88529963310E+03  0.50400001928E-02 0.  1.
    10030    2    1    2    0    0  0.00000000000E+00  0.00000000000E+00 -0.35430222671E+03  0.14162970395E+04  0.13712648308E+04 0.  0.
        1    1    3    3  502    0  0.10328744000E+03 -0.47841803781E+03  0.31876231313E+03  0.58409034101E+03  0.50400001928E-02 0. -1.
       -1    1    3    3    0  502 -0.10328744000E+03  0.47841803781E+03 -0.67306453985E+03  0.83220669848E+03  0.50400001928E-02 0.  1.
</event>
<event>
 5   0  0.1238683E-03  0.1392660E+04  0.7818609E-02  0.8959149E-01
       -1   -1    0    0    0  501  0.00000000000E+00  0.00000000000E+00  0.42582171726E+03  0.42582171729E+03  0.50400001928E-02 0. -1.
        1   -1    0    0  501    0  0.00000000000E+00  0.00000000000E+00 -0.11386815388E+04  0.11386815388E+04  0.50400001928E-02 0.  1.
    10030    2    1    2    0    0  0.00000000000E+00  0.00000000000E+00 -0.71285982150E+03  0.15645032561E+04  0.13926597981E+04 0.  0.
        2    1    3    3  502    0 -0.42820928704E+03  0.34644340704E+03 -0.83501229219E+03  0.10003158281E+04  0.25500000920E-02 0. -1.
       -2    1    3    3    0  502  0.42820928704E+03 -0.34644340704E+03  0.12215247070E+03  0.56418742798E+03  0.25500000920E-02 0.  1.
</event>
<event>
 5   0  0.1199720E-03  0.1403287E+04  0.7818609E-02  0.8951443E-01
        1   -1    0    0  501    0  0.00000000000E+00  0.00000000000E+00  0.16558820308E+04  0.16558820308E+04  0.50400001928E-02 0.  1.
       -1   -1    0    0    0  501  0.00000000000E+00  0.00000000000E+00 -0.29730600364E+03  0.29730600368E+03  0.50400001928E-02 0. -1.
    10030    2    1    2    0    0  0.00000000000E+00  0.00000000000E+00  0.13585760272E+04  0.19531880345E+04  0.14032870970E+04 0.  0.
        5    1    3    3  502    0 -0.43041093218E+03  0.55128504573E+03  0.75694376312E+03  0.10306089087E+04  0.46999998093E+01 0.  1.
       -5    1    3    3    0  502  0.43041093218E+03 -0.55128504573E+03  0.60163226406E+03  0.92257912579E+03  0.46999998093E+01 0. -1.
</event>
<event>
 5   0  0.8293000E-04  0.1390071E+04  0.7818609E-02  0.8961037E-01
        3   -1    0    0  501    0  0.00000000000E+00  0.00000000000E+00  0.67689088857E+03  0.67689089610E+03  0.10100000352E+00 0. -1.
       -3   -1    0    0    0  501  0.00000000000E+00  0.00000000000E+00 -0.71366651742E+03  0.71366652457E+03  0.10100000352E+00 0.  1.
    10030    2    1    2    0    0  0.00000000000E+00  0.00000000000E+00 -0.36775628851E+02  0.13905574207E+04  0.13900710389E+04 0.  0.
        2    1    3    3  502    0  0.12307008432E+03  0.30893085479E+03  0.59214520386E+03  0.67913213821E+03  0.25500000920E-02 0. -1.
       -2    1    3    3    0  502 -0.12307008432E+03 -0.30893085479E+03 -0.62892083271E+03  0.71142528246E+03  0.25500000920E-02 0.  1.
</event>
<event>
 5   0  0.1175374E-03  0.1404600E+04  0.7818609E-02  0.8950495E-01
        1   -1    0    0  501    0  0.00000000000E+00  0.00000000000E+00  0.71185993571E+03  0.71185993573E+03  0.50400001928E-02 0. -1.
       -1   -1    0    0    0  501  0.00000000000E+00  0.00000000000E+00 -0.69286852814E+03  0.69286852816E+03  0.50400001928E-02 0.  1.
    10030    2    1    2    0    0  0.00000000000E+00  0.00000000000E+00  0.18991407563E+02  0.14047284639E+04  0.14046000796E+04 0.  0.
        3    1    3    3  502    0  0.23143495207E+03 -0.34044548084E+03 -0.55955548993E+03  0.69467087097E+03  0.10100000352E+00 0.  1.
       -3    1    3    3    0  502 -0.23143495207E+03  0.34044548084E+03  0.57854689749E+03  0.71005759292E+03  0.10100000352E+00 0. -1.
</event>
<event>
 5   0  0.2195980E-03  0.1381465E+04  0.7818609E-02  0.8967346E-01
       -2   -1    0    0    0  501  0.00000000000E+00  0.00000000000E+00  0.66163296616E+03  0.66163296616E+03  0.25500000920E-02 0. -1.
        2   -1    0    0  501    0  0.00000000000E+00  0.00000000000E+00 -0.72111161554E+03  0.72111161554E+03  0.25500000920E-02 0.  1.
    10030    2    1    2    0    0  0.00000000000E+00  0.00000000000E+00 -0.59478649384E+02  0.13827445817E+04  0.13814647547E+04 0.  0.
        4    1    3    3  502    0  0.45543795601E+02 -0.68823236346E+03  0.73298446452E+01  0.68977776345E+03  0.12699999809E+01 0. -1.
       -4    1    3    3    0  502 -0.45543795601E+02  0.68823236346E+03 -0.66808494029E+02  0.69296681825E+03  0.12699999809E+01 0.  1.
</event>
<event>
 5   0  0.1210275E-03  0.1417939E+04  0.7818609E-02  0.8940935E-01
        1   -1    0    0  501    0  0.00000000000E+00  0.00000000000E+00  0.13569669208E+04  0.13569669208E+04  0.50400001928E-02 0.  1.
       -1   -1    0    0    0  501  0.00000000000E+00  0.00000000000E+00 -0.37041244098E+03  0.37041244102E+03  0.50400001928E-02 0. -1.
    10030    2    1    2    0    0  0.00000000000E+00  0.00000000000E+00  0.98655447984E+03  0.17273793618E+04  0.14179385452E+04 0.  0.
        1    1    3    3  502    0  0.47575290236E+03 -0.39115190149E+03  0.92104319033E+03  0.11079987331E+04  0.50400001928E-02 0.  1.
       -1    1    3    3    0  502 -0.47575290236E+03  0.39115190149E+03  0.65511289515E+02  0.61938062872E+03  0.50400001928E-02 0. -1.
</event>
<event>
 5   0  0.2190704E-03  0.1399893E+04  0.7818609E-02  0.8953896E-01
       -2   -1    0    0    0  501  0.00000000000E+00  0.00000000000E+00  0.32936462267E+03  0.32936462268E+03  0.25500000920E-02 0.  1.
        2   -1    0    0  501    0  0.00000000000E+00  0.00000000000E+00 -0.14874854564E+04  0.14874854564E+04  0.25500000920E-02 0. -1.
    10030    2    1    2    0    0  0.00000000000E+00  0.00000000000E+00 -0.11581208337E+04  0.18168500791E+04  0.13998929760E+04 0.  0.
        5    1    3    3  502    0  0.31244369127E+03  0.21701468780E+03  0.18345950965E+03  0.42236940777E+03  0.46999998093E+01 0.  1.
       -5    1    3    3    0  502 -0.31244369127E+03 -0.21701468780E+03 -0.13415803434E+04  0.13944806713E+04  0.46999998093E+01 0. -1.
</event>
<event>
 5   0  0.2190704E-03  0.1412111E+04  0.7818609E-02  0.8945098E-01
       -2   -1    0    0    0  501  0.00000000000E+00  0.00000000000E+00  0.33211828157E+03  0.33211828158E+03  0.25500000920E-02 0.  1.
        2   -1    0    0  501    0  0.00000000000E+00  0.00000000000E+00 -0.15010147360E+04  0.15010147360E+04  0.25500000920E-02 0. -1.
    10030    2    1    2    0    0  0.00000000000E+00  0.00000000000E+00 -0.11688964544E+04  0.18331330176E+04  0.14121110930E+04 0.  0.
        5    1    3    3  502    0 -0.75755431293E+01 -0.68756204643E+03 -0.37636560869E+03  0.78388271951E+03  0.46999998093E+01 0.  1.
       -5    1    3    3    0  502  0.75755431293E+01  0.68756204643E+03 -0.79253084571E+03  0.10492502980E+04  0.46999998093E+01 0. -1.
</event>
<event>
 5   0  0.2190704E-03  0.1342253E+04  0.7818609E-02  0.8996713E-01
        2   -1    0    0  501    0  0.00000000000E+00  0.00000000000E+00  0.60448149972E+03  0.60448149972E+03  0.25500000920E-02 0. -1.
       -2   -1    0    0    0  501  0.00000000000E+00  0.00000000000E+00 -0.74511920892E+03  0.74511920893E+03  0.25500000920E-02 0.  1.
    10030    2    1    2    0    0  0.00000000000E+00  0.00000000000E+00 -0.14063770921E+03  0.13496007087E+04  0.13422529968E+04 0.  0.
        5    1    3    3  502    0  0.53439672072E+03 -0.22642382437E+03  0.26848428997E+03  0.63949472814E+03  0.46999998093E+01 0.  1.
       -5    1    3    3    0  502 -0.53439672072E+03  0.22642382437E+03 -0.40912199917E+03  0.71010598052E+03  0.46999998093E+01 0. -1.
</event>
<event>
 5   0  0.2172901E-03  0.1399164E+04  0.7818609E-02  0.8954424E-01
        2   -1    0    0  501    0  0.00000000000E+00  0.00000000000E+00  0.89587699932E+03  0.89587699933E+03  0.25500000920E-02 0.  1.
       -2   -1    0    0    0  501  0.00000000000E+00  0.00000000000E+00 -0.54629672093E+03  0.54629672094E+03  0.25500000920E-02 0. -1.
    10030    2    1    2    0    0  0.00000000000E+00  0.00000000000E+00  0.34958027839E+03  0.14421737203E+04  0.13991635603E+04 0.  0.
        2    1    3    3  502    0  0.66933734564E+03 -0.19277410513E+03  0.24190966498E+03  0.73735651071E+03  0.25500000920E-02 0. -1.
       -2    1    3    3    0  502 -0.66933734564E+03  0.19277410513E+03  0.10767061342E+03  0.70481720955E+03  0.25500000920E-02 0.  1.
</event>
<event>
 5   0  0.1225690E-03  0.1393719E+04  0.7818609E-02  0.8958378E-01
       -1   -1    0    0    0  501  0.00000000000E+00  0.00000000000E+00  0.61388068830E+03  0.61388068832E+03  0.50400001928E-02 0. -1.
        1   -1    0    0  501    0  0.00000000000E+00  0.00000000000E+00 -0.79105423942E+03  0.79105423944E+03  0.50400001928E-02 0.  1.
    10030    2    1    2    0    0  0.00000000000E+00  0.00000000000E+00 -0.17717355113E+03  0.14049349278E+04  0.13937186531E+04 0.  0.
        4    1    3    3  502    0  0.13515528765E+03  0.58986281349E+03 -0.43691973353E+03  0.74639504082E+03  0.12699999809E+01 0. -1.
       -4    1    3    3    0  502 -0.13515528765E+03 -0.58986281349E+03  0.25974618240E+03  0.65853988694E+03  0.12699999809E+01 0.  1.
</event>
<event>
 5   0  0.2083966E-03  0.1061625E+04  0.7818609E-02  0.9243423E-01
       -2   -1    0    0    0  501  0.00000000000E+00  0.00000000000E+00  0.36639192899E+03  0.36639192900E+03  0.25500000920E-02 0. -1.
        2   -1    0    0  501    0  0.00000000000E+00  0.00000000000E+00 -0.76901817084E+03  0.76901817084E+03  0.25500000920E-02 0.  1.
    10030    2    1    2    0    0  0.00000000000E+00  0.00000000000E+00 -0.40262624184E+03  0.11354100998E+04  0.10616252654E+04 0.  0.
        1    1    3    3  502    0  0.36279480514E+03 -0.34985693378E+03 -0.37944892685E+03  0.63087354745E+03  0.50400001928E-02 0.  1.
       -1    1    3    3    0  502 -0.36279480514E+03  0.34985693378E+03 -0.23177314990E+02  0.50453655240E+03  0.50400001928E-02 0. -1.
</event>
<event>
 5   0  0.2190704E-03  0.1399238E+04  0.7818609E-02  0.8954371E-01
        2   -1    0    0  501    0  0.00000000000E+00  0.00000000000E+00  0.16489741637E+04  0.16489741637E+04  0.25500000920E-02 0. -1.
       -2   -1    0    0    0  501  0.00000000000E+00  0.00000000000E+00 -0.29683093709E+03  0.29683093710E+03  0.25500000920E-02 0.  1.
    10030    2    1    2    0    0  0.00000000000E+00  0.00000000000E+00  0.13521432266E+04  0.19458051008E+04  0.13992377157E+04 0.  0.
        5    1    3    3  502    0  0.35603455241E+03 -0.43060389586E+03  0.12615599890E+04  0.13797594042E+04  0.46999998093E+01 0. -1.
       -5    1    3    3    0  502 -0.35603455241E+03  0.43060389586E+03  0.90583237534E+02  0.56604569653E+03  0.46999998093E+01 0.  1.
</event>
<event>
 5   0  0.2195980E-03  0.1369090E+04  0.7818609E-02  0.8976501E-01
       -2   -1    0    0    0  501  0.00000000000E+00  0.00000000000E+00  0.31083413748E+03  0.31083413749E+03  0.25500000920E-02 0. -1.
        2   -1    0    0  501    0  0.00000000000E+00  0.00000000000E+00 -0.15075634855E+04  0.15075634855E+04  0.25500000920E-02 0.  1.
    10030    2    1    2    0    0  0.00000000000E+00  0.00000000000E+00 -0.11967293480E+04  0.18183976230E+04  0.13690904948E+04 0.  0.
        4    1    3    3  502    0 -0.32134733327E+03  0.53534246831E+03 -0.22565732062E+03  0.66391151988E+03  0.12699999809E+01 0. -1.
       -4    1    3    3    0  502  0.32134733327E+03 -0.53534246831E+03 -0.97107202741E+03  0.11544861031E+04  0.12699999809E+01 0.  1.
</event>
<event>
 5   0  0.2236184E-03  0.1330026E+04  0.7818609E-02  0.9006087E-01
        2   -1    0    0  501    0  0.00000000000E+00  0.00000000000E+00  0.83559605133E+03  0.83559605134E+03  0.25500000920E-02 0.  1.
       -2   -1    0    0    0  501  0.00000000000E+00  0.00000000000E+00 -0.52925372001E+03  0.52925372002E+03  0.25500000920E-02 0. -1.
    10030    2    1    2    0    0  0.00000000000E+00  0.00000000000E+00  0.30634233132E+03  0.13648497714E+04  0.13300260428E+04 0.  0.
        3    1    3    3  502    0 -0.12267174970E+03 -0.29846241646E+03 -0.44352929178E+03  0.54849468100E+03  0.10100000352E+00 0. -1.
       -3    1    3    3    0  502  0.12267174970E+03  0.29846241646E+03  0.74987162310E+03  0.81635509035E+03  0.10100000352E+00 0.  1.
</event>
<event>
 5   0  0.2190704E-03  0.1390145E+04  0.7818609E-02  0.8960983E-01
        2   -1    0    0  501    0  0.00000000000E+00  0.00000000000E+00  0.19750226325E+04  0.19750226325E+04  0.25500000920E-02 0.  1.
       -2   -1    0    0    0  501  0.00000000000E+00  0.00000000000E+00 -0.24461776925E+03  0.24461776926E+03  0.25500000920E-02 0. -1.
    10030    2    1    2    0    0  0.00000000000E+00  0.00000000000E+00  0.17304048632E+04  0.22196404017E+04  0.13901447847E+04 0.  0.
        5    1    3    3  502    0  0.51098889943E+03  0.31584214835E+03  0.30695718500E+03  0.67461894536E+03  0.46999998093E+01 0. -1.
       -5    1    3    3    0  502 -0.51098889943E+03 -0.31584214835E+03  0.14234476782E+04  0.15450214564E+04  0.46999998093E+01 0.  1.
</event>
<event>
 5   0  0.1225690E-03  0.1394567E+04  0.7818609E-02  0.8957760E-01
        1   -1    0    0  501    0  0.00000000000E+00  0.00000000000E+00  0.79708935106E+03  0.79708935108E+03  0.50400001928E-02 0. -1.
       -1   -1    0    0    0  501  0.00000000000E+00  0.00000000000E+00 -0.60997482768E+03  0.60997482770E+03  0.50400001928E-02 0.  1.
    10030    2    1    2    0    0  0.00000000000E+00  0.00000000000E+00  0.18711452338E+03  0.14070641788E+04  0.13945672298E+04 0.  0.
        4    1    3    3  502    0 -0.25387441482E+03  0.36566584907E+03 -0.44794486922E+03  0.63152193188E+03  0.12699999809E+01 0.  1.
       -4    1    3    3    0  502  0.25387441482E+03 -0.36566584907E+03  0.63505939261E+03  0.77554224689E+03  0.12699999809E+01 0. -1.
</event>
<event>
 5   0  0.1175374E-03  0.1393010E+04  0.7818609E-02  0.8958894E-01
        1   -1    0    0  501    0  0.00000000000E+00  0.00000000000E+00  0.10198070559E+04  0.10198070559E+04  0.50400001928E-02 0. -1.
       -1   -1    0    0    0  501  0.00000000000E+00  0.00000000000E+00 -0.47569696541E+03  0.47569696543E+03  0.50400001928E-02 0.  1.
    10030    2    1    2    0    0  0.00000000000E+00  0.00000000000E+00  0.54411009053E+03  0.14955040214E+04  0.13930098662E+04 0.  0.
        3    1    3    3  502    0 -0.42471214890E+03 -0.55188280295E+03  0.25830344294E+03  0.74274875729E+03  0.10100000352E+00 0.  1.
       -3    1    3    3    0  502  0.42471214890E+03  0.55188280295E+03  0.28580664759E+03  0.75275526410E+03  0.10100000352E+00 0. -1.
</event>
<event>
 5   0  0.1199720E-03  0.1471950E+04  0.7818609E-02  0.8903323E-01
       -1   -1    0    0    0  501  0.00000000000E+00  0.00000000000E+00  0.48837992878E+03  0.48837992881E+03  0.50400001928E-02 0. -1.
        1   -1    0    0  501    0  0.00000000000E+00  0.00000000000E+00 -0.11090934847E+04  0.11090934847E+04  0.50400001928E-02 0.  1.
    10030    2    1    2    0    0  0.00000000000E+00  0.00000000000E+00 -0.62071355595E+03  0.15974734136E+04  0.14719497235E+04 0.  0.
        5    1    3    3  502    0  0.37342016433E+03  0.56915018216E+03 -0.61396751599E+03  0.91670755951E+03  0.46999998093E+01 0. -1.
       -5    1    3    3    0  502 -0.37342016433E+03 -0.56915018216E+03 -0.67460399663E+01  0.68076585405E+03  0.46999998093E+01 0.  1.
</event>
<event>
 5   0  0.2083966E-03  0.1252489E+04  0.7818609E-02  0.9068114E-01
       -2   -1    0    0    0  501  0.00000000000E+00  0.00000000000E+00  0.47441158876E+03  0.47441158877E+03  0.25500000920E-02 0. -1.
        2   -1    0    0  501    0  0.00000000000E+00  0.00000000000E+00 -0.82667106805E+03  0.82667106805E+03  0.25500000920E-02 0.  1.
    10030    2    1    2    0    0  0.00000000000E+00  0.00000000000E+00 -0.35225947928E+03  0.13010826568E+04  0.12524892571E+04 0.  0.
        1    1    3    3  502    0 -0.11978337841E+03 -0.27428787390E+03  0.39530370549E+03  0.49582952223E+03  0.50400001928E-02 0. -1.
       -1    1    3    3    0  502  0.11978337841E+03  0.27428787390E+03 -0.74756318478E+03  0.80525313459E+03  0.50400001928E-02 0.  1.
</event>
<event>
 5   0  0.2190704E-03  0.1384573E+04  0.7818609E-02  0.8965061E-01
       -2   -1    0    0    0  501  0.00000000000E+00  0.00000000000E+00  0.28523554155E+03  0.28523554157E+03  0.25500000920E-02 0.  1.
        2   -1    0    0  501    0  0.00000000000E+00  0.00000000000E+00 -0.16802284656E+04  0.16802284656E+04  0.25500000920E-02 0. -1.
    10030    2    1    2    0    0  0.00000000000E+00  0.00000000000E+00 -0.13949929240E+04  0.19654640072E+04  0.13845734019E+04 0.  0.
        5    1    3    3  502    0 -0.26382312285E+03 -0.24626987080E+03  0.14110172705E+03  0.38753487171E+03  0.46999998093E+01 0.  1.
       -5    1    3    3    0  502  0.26382312285E+03  0.24626987080E+03 -0.15360946511E+04  0.15779291354E+04  0.46999998093E+01 0. -1.
</event>
<event>
 5   0  0.1199720E-03  0.1422669E+04  0.7818609E-02  0.8937571E-01
        1   -1    0    0  501    0  0.00000000000E+00  0.00000000000E+00  0.77913624061E+03  0.77913624062E+03  0.50400001928E-02 0.  1.
       -1   -1    0    0    0  501  0.00000000000E+00  0.00000000000E+00 -0.64943278394E+03  0.64943278396E+03  0.50400001928E-02 0. -1.
    10030    2    1    2    0    0  0.00000000000E+00  0.00000000000E+00  0.12970345667E+03  0.14285690246E+04  0.14226687848E+04 0.  0.
        5    1    3    3  502    0  0.37969240836E+03 -0.22840281720E+03 -0.49390942557E+03  0.66355314974E+03  0.46999998093E+01 0. -1.
       -5    1    3    3    0  502 -0.37969240836E+03  0.22840281720E+03  0.62361288224E+03  0.76501587484E+03  0.46999998093E+01 0.  1.
</event>
<event>
 5   0  0.1210275E-03  0.1388037E+04  0.7818609E-02  0.8962524E-01
        1   -1    0    0  501    0  0.00000000000E+00  0.00000000000E+00  0.80449961342E+03  0.80449961344E+03  0.50400001928E-02 0. -1.
       -1   -1    0    0    0  501  0.00000000000E+00  0.00000000000E+00 -0.59870985464E+03  0.59870985466E+03  0.50400001928E-02 0.  1.
    10030    2    1    2    0    0  0.00000000000E+00  0.00000000000E+00  0.20578975878E+03  0.14032094681E+04  0.13880372425E+04 0.  0.
        1    1    3    3  502    0  0.48926522923E+02 -0.21282642389E+03  0.76886189597E+03  0.79927311131E+03  0.50400001928E-02 0. -1.
       -1    1    3    3    0  502 -0.48926522923E+02  0.21282642389E+03 -0.56307213719E+03  0.60393635679E+03  0.50400001928E-02 0.  1.
</event>
<event>
 5   0  0.2195980E-03  0.1222356E+04  0.7818609E-02  0.9093510E-01
       -2   -1    0    0    0  501  0.00000000000E+00  0.00000000000E+00  0.30257204405E+03  0.30257204406E+03  0.25500000920E-02 0. -1.
        2   -1    0    0  501    0  0.00000000000E+00  0.00000000000E+00 -0.12345443352E+04  0.12345443352E+04  0.25500000920E-02 0.  1.
    10030    2    1    2    0    0  0.00000000000E+00  0.00000000000E+00 -0.93197229113E+03  0.15371163792E+04  0.12223560905E+04 0.  0.
        4    1    3    3  502    0  0.58946507261E+03  0.14200932418E+03 -0.36938511585E+03  0.70998781447E+03  0.12699999809E+01 0.  1.
       -4    1    3    3    0  502 -0.58946507261E+03 -0.14200932418E+03 -0.56258717528E+03  0.82712856477E+03  0.12699999809E+01 0. -1.
</event>
<event>
 5   0  0.1210275E-03  0.1401980E+04  0.7818609E-02  0.8952387E-01
       -1   -1    0    0    0  501  0.00000000000E+00  0.00000000000E+00  0.42473291025E+03  0.42473291028E+03  0.50400001928E-02 0. -1.
        1   -1    0    0  501    0  0.00000000000E+00  0.00000000000E+00 -0.11569313795E+04  0.11569313795E+04  0.50400001928E-02 0.  1.
    10030    2    1    2    0    0  0.00000000000E+00  0.00000000000E+00 -0.73219846922E+03  0.15816642898E+04  0.14019797884E+04 0.  0.
        1    1    3    3  502    0 -0.52188463330E+02  0.62435183291E+03 -0.72079537819E+03  0.95503132106E+03  0.50400001928E-02 0.  1.
       -1    1    3    3    0  502  0.52188463330E+02 -0.62435183291E+03 -0.11403091029E+02  0.62663296871E+03  0.50400001928E-02 0. -1.
</event>
<event>
 5   0  0.2195980E-03  0.1662340E+04  0.7818609E-02  0.8783140E-01
        2   -1    0    0  501    0  0.00000000000E+00  0.00000000000E+00  0.11172297964E+04  0.11172297964E+04  0.25500000920E-02 0. -1.
       -2   -1    0    0    0  501  0.00000000000E+00  0.00000000000E+00 -0.61835402277E+03  0.61835402277E+03  0.25500000920E-02 0.  1.
    10030    2    1    2    0    0  0.00000000000E+00  0.00000000000E+00  0.49887577365E+03  0.17355838192E+04  0.16623399640E+04 0.  0.
        4    1    3    3  502    0 -0.25710090163E+03  0.43381831671E+03 -0.44038741889E+03  0.66950869834E+03  0.12699999809E+01 0.  1.
       -4    1    3    3    0  502  0.25710090163E+03 -0.43381831671E+03  0.93926319254E+03  0.10660751209E+04  0.12699999809E+01 0. -1.
</event>
<event>
 5   0  0.2083966E-03  0.1406556E+04  0.7818609E-02  0.8949087E-01
        2   -1    0    0  501    0  0.00000000000E+00  0.00000000000E+00  0.19565177974E+04  0.19565177974E+04  0.25500000920E-02 0. -1.
       -2   -1    0    0    0  501  0.00000000000E+00  0.00000000000E+00 -0.25279604092E+03  0.25279604094E+03  0.25500000920E-02 0.  1.
    10030    2    1    2    0    0  0.00000000000E+00  0.00000000000E+00  0.17037217565E+04  0.22093138384E+04  0.14065560113E+04 0.  0.
        1    1    3    3  502    0  0.27236196560E+03 -0.42996975926E+03  0.89540987168E+02  0.51679069515E+03  0.50400001928E-02 0.  1.
       -1    1    3    3    0  502 -0.27236196560E+03  0.42996975926E+03  0.16141807693E+04  0.16925231432E+04  0.50400001928E-02 0. -1.
</event>
<event>
 5   0  0.2190704E-03  0.1425238E+04  0.7818609E-02  0.8935750E-01
        2   -1    0    0  501    0  0.00000000000E+00  0.00000000000E+00  0.22116326315E+04  0.22116326315E+04  0.25500000920E-02 0. -1.
       -2   -1    0    0    0  501  0.00000000000E+00  0.00000000000E+00 -0.22961594342E+03  0.22961594344E+03  0.25500000920E-02 0.  1.
    10030    2    1    2    0    0  0.00000000000E+00  0.00000000000E+00  0.19820166881E+04  0.24412485749E+04  0.14252383846E+04 0.  0.
        5    1    3    3  502    0 -0.64972894009E+03 -0.97499769438E+02  0.51833643175E+03  0.83686835710E+03  0.46999998093E+01 0.  1.
       -5    1    3    3    0  502  0.64972894009E+03  0.97499769438E+02  0.14636802563E+04  0.16043802178E+04  0.46999998093E+01 0. -1.
</event>
<event>
 5   0  0.1210275E-03  0.1365477E+04  0.7818609E-02  0.8979194E-01
       -1   -1    0    0    0  501  0.00000000000E+00  0.00000000000E+00  0.62889538476E+03  0.62889538478E+03  0.50400001928E-02 0.  1.
        1   -1    0    0  501    0  0.00000000000E+00  0.00000000000E+00 -0.74119133782E+03  0.74119133784E+03  0.50400001928E-02 0. -1.
    10030    2    1    2    0    0  0.00000000000E+00  0.00000000000E+00 -0.11229595306E+03  0.13700867226E+04  0.13654769300E+04 0.  0.
        1    1    3    3  502    0 -0.21309585700E+03 -0.36611760258E+02 -0.70593098256E+03  0.73830130531E+03  0.50400001928E-02 0. -1.
       -1    1    3    3    0  502  0.21309585700E+03  0.36611760258E+02  0.59363502950E+03  0.63178541731E+03  0.50400001928E-02 0.  1.
</event>
<event>
 5   0  0.1199720E-03  0.1402306E+04  0.7818609E-02  0.8952151E-01
        1   -1    0    0  501    0  0.00000000000E+00  0.00000000000E+00  0.99466299730E+03  0.99466299732E+03  0.50400001928E-02 0.  1.
       -1   -1    0    0    0  501  0.00000000000E+00  0.00000000000E+00 -0.49425313221E+03  0.49425313223E+03  0.50400001928E-02 0. -1.
    10030    2    1    2    0    0  0.00000000000E+00  0.00000000000E+00  0.50040986510E+03  0.14889161296E+04  0.14023056756E+04 0.  0.
        5    1    3    3  502    0 -0.18011651480E+02 -0.51366105947E+03  0.75654573879E+03  0.91463416101E+03  0.46999998093E+01 0. -1.
       -5    1    3    3    0  502  0.18011651480E+02  0.51366105947E+03 -0.25613587370E+03  0.57428196854E+03  0.46999998093E+01 0.  1.
</event>
<event>
 5   0  0.2195980E-03  0.1387850E+04  0.7818609E-02  0.8962660E-01
       -2   -1    0    0    0  501  0.00000000000E+00  0.00000000000E+00  0.30158324647E+03  0.30158324648E+03  0.25500000920E-02 0. -1.
        2   -1    0    0  501    0  0.00000000000E+00  0.00000000000E+00 -0.15966802130E+04  0.15966802130E+04  0.25500000920E-02 0.  1.
    10030    2    1    2    0    0  0.00000000000E+00  0.00000000000E+00 -0.12950969665E+04  0.18982634595E+04  0.13878501392E+04 0.  0.
        4    1    3    3  502    0 -0.55593274924E+03  0.41267651710E+03 -0.71122355000E+03  0.99257426947E+03  0.12699999809E+01 0. -1.
       -4    1    3    3    0  502  0.55593274924E+03 -0.41267651710E+03 -0.58387341653E+03  0.90568919000E+03  0.12699999809E+01 0.  1.
</event>
<event>
 5   0  0.1225690E-03  0.1382597E+04  0.7818609E-02  0.8966513E-01
        1   -1    0    0  501    0  0.00000000000E+00  0.00000000000E+00  0.10238467406E+04  0.10238467406E+04  0.50400001928E-02 0. -1.
       -1   -1    0    0    0  501  0.00000000000E+00  0.00000000000E+00 -0.46676277014E+03  0.46676277016E+03  0.50400001928E-02 0.  1.
    10030    2    1    2    0    0  0.00000000000E+00  0.00000000000E+00  0.55708397048E+03  0.14906095108E+04  0.13825968912E+04 0.  0.
        4    1    3    3  502    0 -0.24972202397E+03 -0.49533677521E+03  0.72328872075E+03  0.91151949875E+03  0.12699999809E+01 0. -1.
       -4    1    3    3    0  502  0.24972202397E+03  0.49533677521E+03 -0.16620475027E+03  0.57909001204E+03  0.12699999809E+01 0.  1.
</event>
<event>
 5   0  0.2195980E-03  0.1372896E+04  0.7818609E-02  0.8973675E-01
        2   -1    0    0  501    0  0.00000000000E+00  0.00000000000E+00  0.74784579414E+03  0.74784579415E+03  0.25500000920E-02 0.  1.
       -2   -1    0    0    0  501  0.00000000000E+00  0.00000000000E+00 -0.63009048317E+03  0.63009048318E+03  0.25500000920E-02 0. -1.
    10030    2    1    2    0    0  0.00000000000E+00  0.00000000000E+00  0.11775531097E+03  0.13779362773E+04  0.13728955063E+04 0.  0.
        4    1    3    3  502    0  0.83463321138E+02  0.56360831422E+03  0.44315211692E+03  0.72180736312E+03  0.12699999809E+01 0.  1.
       -4    1    3    3    0  502 -0.83463321138E+02 -0.56360831422E+03 -0.32539680595E+03  0.65612891420E+03  0.12699999809E+01 0. -1.
</event>
<event>
 5   0  0.1238683E-03  0.1402256E+04  0.7818609E-02  0.8952187E-01
       -1   -1    0    0    0  501  0.00000000000E+00  0.00000000000E+00  0.54919429715E+03  0.54919429718E+03  0.50400001928E-02 0.  1.
        1   -1    0    0  501    0  0.00000000000E+00  0.00000000000E+00 -0.89509413154E+03  0.89509413156E+03  0.50400001928E-02 0. -1.
    10030    2    1    2    0    0  0.00000000000E+00  0.00000000000E+00 -0.34589983439E+03  0.14442884287E+04  0.14022561713E+04 0.  0.
        2    1    3    3  502    0  0.11018714427E+03  0.46268207692E+03  0.35762673105E+03  0.59507376839E+03  0.25500000920E-02 0.  1.
       -2    1    3    3    0  502 -0.11018714427E+03 -0.46268207692E+03 -0.70352656544E+03  0.84921466034E+03  0.25500000920E-02 0. -1.
</event>
<event>
 5   0  0.2083966E-03  0.1387271E+04  0.7818609E-02  0.8963084E-01
       -2   -1    0    0    0  501  0.00000000000E+00  0.00000000000E+00  0.60215565889E+03  0.60215565890E+03  0.25500000920E-02 0. -1.
        2   -1    0    0  501    0  0.00000000000E+00  0.00000000000E+00 -0.79901330303E+03  0.79901330303E+03  0.25500000920E-02 0.  1.
    10030    2    1    2    0    0  0.00000000000E+00  0.00000000000E+00 -0.19685764414E+03  0.14011689619E+04  0.13872712524E+04 0.  0.
        1    1    3    3  502    0 -0.51131019037E+03 -0.46134841586E+03 -0.18202214034E+03  0.71232894873E+03  0.50400001928E-02 0. -1.
       -1    1    3    3    0  502  0.51131019037E+03  0.46134841586E+03 -0.14835503797E+02  0.68884001320E+03  0.50400001928E-02 0.  1.
</event>
<event>
 5   0  0.1210275E-03  0.1416656E+04  0.7818609E-02  0.8941850E-01
        1   -1    0    0  501    0  0.00000000000E+00  0.00000000000E+00  0.43299965921E+03  0.43299965924E+03  0.50400001928E-02 0. -1.
       -1   -1    0    0    0  501  0.00000000000E+00  0.00000000000E+00 -0.11587270749E+04  0.11587270750E+04  0.50400001928E-02 0.  1.
    10030    2    1    2    0    0  0.00000000000E+00  0.00000000000E+00 -0.72572741574E+03  0.15917267342E+04  0.14166558207E+04 0.  0.
        1    1    3    3  502    0  0.62871214094E+03  0.28417747760E+02 -0.72805656145E+03  0.96236837087E+03  0.50400001928E-02 0.  1.
       -1    1    3    3    0  502 -0.62871214094E+03 -0.28417747760E+02  0.23291457099E+01  0.62935836333E+03  0.50400001928E-02 0. -1.
</event>
<event>
 5   0  0.1210275E-03  0.1403088E+04  0.7818609E-02  0.8951586E-01
       -1   -1    0    0    0  501  0.00000000000E+00  0.00000000000E+00  0.32147773095E+03  0.32147773099E+03  0.50400001928E-02 0. -1.
        1   -1    0    0  501    0  0.00000000000E+00  0.00000000000E+00 -0.15309430416E+04  0.15309430416E+04  0.50400001928E-02 0.  1.
    10030    2    1    2    0    0  0.00000000000E+00  0.00000000000E+00 -0.12094653106E+04  0.18524207726E+04  0.14030881587E+04 0.  0.
        1    1    3    3  502    0 -0.55797983523E+02  0.21029016866E+03  0.27581141172E+03  0.35129375864E+03  0.50400001928E-02 0. -1.
       -1    1    3    3    0  502  0.55797983523E+02 -0.21029016866E+03 -0.14852767223E+04  0.15011270139E+04  0.50400001928E-02 0.  1.
</event>
<event>
 5   0  0.1175374E-03  0.1402799E+04  0.7818609E-02  0.8951795E-01
        1   -1    0    0  501    0  0.00000000000E+00  0.00000000000E+00  0.89796542646E+03  0.89796542647E+03  0.50400001928E-02 0.  1.
       -1   -1    0    0    0  501  0.00000000000E+00  0.00000000000E+00 -0.54786192547E+03  0.54786192549E+03  0.50400001928E-02 0. -1.
    10030    2    1    2    0    0  0.00000000000E+00  0.00000000000E+00  0.35010350099E+03  0.14458273520E+04  0.14027987276E+04 0.  0.
        3    1    3    3  502    0 -0.11773897069E+03 -0.26451089398E+03  0.83350008719E+03  0.88235530474E+03  0.10100000352E+00 0.  1.
       -3    1    3    3    0  502  0.11773897069E+03  0.26451089398E+03 -0.48339658620E+03  0.56347204723E+03  0.10100000352E+00 0. -1.
</event>
<event>
 5   0  0.2236184E-03  0.1289987E+04  0.7818609E-02  0.9037544E-01
       -2   -1    0    0    0  501  0.00000000000E+00  0.00000000000E+00  0.45826361412E+03  0.45826361412E+03  0.25500000920E-02 0. -1.
        2   -1    0    0  501    0  0.00000000000E+00  0.00000000000E+00 -0.90781001144E+03  0.90781001144E+03  0.25500000920E-02 0.  1.
    10030    2    1    2    0    0  0.00000000000E+00  0.00000000000E+00 -0.44954639732E+03  0.13660736256E+04  0.12899865066E+04 0.  0.
        3    1    3    3  502    0 -0.39734287196E+03 -0.46997057493E+03 -0.42919416773E+03  0.75030749898E+03  0.10100000352E+00 0.  1.
       -3    1    3    3    0  502  0.39734287196E+03  0.46997057493E+03 -0.20352229585E+02  0.61576612659E+03  0.10100000352E+00 0. -1.
</event>
<event>
 5   0  0.2172901E-03  0.1407393E+04  0.7818609E-02  0.8948485E-01
       -2   -1    0    0    0  501  0.00000000000E+00  0.00000000000E+00  0.38172507178E+03  0.38172507179E+03  0.25500000920E-02 0. -1.
        2   -1    0    0  501    0  0.00000000000E+00  0.00000000000E+00 -0.12972390747E+04  0.12972390747E+04  0.25500000920E-02 0.  1.
    10030    2    1    2    0    0  0.00000000000E+00  0.00000000000E+00 -0.91551400290E+03  0.16789641465E+04  0.14073928789E+04 0.  0.
        2    1    3    3  502    0  0.25191320885E+03 -0.13951199080E+03 -0.12237313224E+04  0.12571563983E+04  0.25500000920E-02 0.  1.
       -2    1    3    3    0  502 -0.25191320885E+03  0.13951199080E+03  0.30821731950E+03  0.42180774817E+03  0.25500000920E-02 0. -1.
</event>
<event>
 5   0  0.1238683E-03  0.1365757E+04  0.7818609E-02  0.8978985E-01
       -1   -1    0    0    0  501  0.00000000000E+00  0.00000000000E+00  0.55366472981E+03  0.55366472983E+03  0.50400001928E-02 0. -1.
        1   -1    0    0  501    0  0.00000000000E+00  0.00000000000E+00 -0.84224814811E+03  0.84224814812E+03  0.50400001928E-02 0.  1.
    10030    2    1    2    0    0  0.00000000000E+00  0.00000000000E+00 -0.28858341830E+03  0.13959128780E+04  0.13657570697E+04 0.  0.
        2    1    3    3  502    0  0.58268666501E+01  0.53997265852E+03 -0.57151459855E+03  0.78627817004E+03  0.25500000920E-02 0.  1.
       -2    1    3    3    0  502 -0.58268666501E+01 -0.53997265852E+03  0.28293118025E+03  0.60963470791E+03  0.25500000920E-02 0. -1.
</event>
<event>
 5   0  0.2083966E-03  0.1409784E+04  0.7818609E-02  0.8946767E-01
        2   -1    0    0  501    0  0.00000000000E+00  0.00000000000E+00  0.18160259520E+04  0.18160259520E+04  0.25500000920E-02 0. -1.
       -2   -1    0    0    0  501  0.00000000000E+00  0.00000000000E+00 -0.27360439764E+03  0.27360439765E+03  0.25500000920E-02 0.  1.
    10030    2    1    2    0    0  0.00000000000E+00  0.00000000000E+00  0.15424215544E+04  0.20896303497E+04  0.14097839362E+04 0.  0.
        1    1    3    3  502    0  0.59957821443E+03  0.16079768863E+03  0.12662033175E+04  0.14101846592E+04  0.50400001928E-02 0.  1.
       -1    1    3    3    0  502 -0.59957821443E+03 -0.16079768863E+03  0.27621823694E+03  0.67944569049E+03  0.50400001928E-02 0. -1.
</event>
<event>
 5   0  0.2190704E-03  0.1417478E+04  0.7818609E-02  0.8941263E-01
       -2   -1    0    0    0  501  0.00000000000E+00  0.00000000000E+00  0.52145732707E+03  0.52145732707E+03  0.25500000920E-02 0. -1.
        2   -1    0    0  501    0  0.00000000000E+00  0.00000000000E+00 -0.96328346179E+03  0.96328346179E+03  0.25500000920E-02 0.  1.
    10030    2    1    2    0    0  0.00000000000E+00  0.00000000000E+00 -0.44182613472E+03  0.14847407889E+04  0.14174783514E+04 0.  0.
        5    1    3    3  502    0  0.35241604088E+03  0.32382839588E+03 -0.76842828835E+03  0.90529885683E+03  0.46999998093E+01 0.  1.
       -5    1    3    3    0  502 -0.35241604088E+03 -0.32382839588E+03  0.32660215363E+03  0.57944193203E+03  0.46999998093E+01 0. -1.
</event>
<event>
 5   0  0.1225690E-03  0.1406475E+04  0.7818609E-02  0.8949145E-01
       -1   -1    0    0    0  501  0.00000000000E+00  0.00000000000E+00  0.83783281536E+03  0.83783281537E+03  0.50400001928E-02 0.  1.
        1   -1    0    0  501    0  0.00000000000E+00  0.00000000000E+00 -0.59026455227E+03  0.59026455229E+03  0.50400001928E-02 0. -1.
    10030    2    1    2    0    0  0.00000000000E+00  0.00000000000E+00  0.24756826309E+03  0.14280973677E+04  0.14064750430E+04 0.  0.
        4    1    3    3  502    0  0.39908903695E+03 -0.55763292894E+03  0.28211355796E+03  0.74149593076E+03  0.12699999809E+01 0.  1.
       -4    1    3    3    0  502 -0.39908903695E+03  0.55763292894E+03 -0.34545294864E+02  0.68660143690E+03  0.12699999809E+01 0. -1.
</event>
<event>
 5   0  0.2083966E-03  0.1410226E+04  0.7818609E-02  0.8946450E-01
        2   -1    0    0  501    0  0.00000000000E+00  0.00000000000E+00  0.22742220093E+04  0.22742220093E+04  0.25500000920E-02 0.  1.
       -2   -1    0    0    0  501  0.00000000000E+00  0.00000000000E+00 -0.21861719281E+03  0.21861719283E+03  0.25500000920E-02 0. -1.
    10030    2    1    2    0    0  0.00000000000E+00  0.00000000000E+00  0.20556048165E+04  0.24928392021E+04  0.14102255586E+04 0.  0.
        1    1    3    3  502    0 -0.46472322425E+03  0.19656724722E+03  0.15717748062E+03  0.52849892930E+03  0.50400001928E-02 0. -1.
       -1    1    3    3    0  502  0.46472322425E+03 -0.19656724722E+03  0.18984273358E+04  0.19643402728E+04  0.50400001928E-02 0.  1.
</event>
<event>
 5   0  0.1210275E-03  0.1356146E+04  0.7818609E-02  0.8986188E-01
        1   -1    0    0  501    0  0.00000000000E+00  0.00000000000E+00  0.86464290670E+03  0.86464290672E+03  0.50400001928E-02 0.  1.
       -1   -1    0    0    0  501  0.00000000000E+00  0.00000000000E+00 -0.53176079490E+03  0.53176079492E+03  0.50400001928E-02 0. -1.
    10030    2    1    2    0    0  0.00000000000E+00  0.00000000000E+00  0.33288211181E+03  0.13964037016E+04  0.13561463039E+04 0.  0.
        1    1    3    3  502    0 -0.48313677467E+03  0.47044723380E+03  0.23955201154E+03  0.71563042773E+03  0.50400001928E-02 0. -1.
       -1    1    3    3    0  502  0.48313677467E+03 -0.47044723380E+03  0.93330100268E+02  0.68077327391E+03  0.50400001928E-02 0.  1.
</event>
<event>
 5   0  0.2083966E-03  0.1695732E+04  0.7818609E-02  0.8763802E-01
        2   -1    0    0  501    0  0.00000000000E+00  0.00000000000E+00  0.17809143394E+04  0.17809143394E+04  0.25500000920E-02 0.  1.
       -2   -1    0    0    0  501  0.00000000000E+00  0.00000000000E+00 -0.40365586970E+03  0.40365586971E+03  0.25500000920E-02 0. -1.
    10030    2    1    2    0    0  0.00000000000E+00  0.00000000000E+00  0.13772584697E+04  0.21845702092E+04  0.16957317318E+04 0.  0.
        1    1    3    3  502    0 -0.69724862968E+03 -0.27944651476E+03  0.18203940305E+03  0.77290643062E+03  0.50400001928E-02 0. -1.
       -1    1    3    3    0  502  0.69724862968E+03  0.27944651476E+03  0.11952190667E+04  0.14116637785E+04  0.50400001928E-02 0.  1.
</event>
<event>
 5   0  0.1225690E-03  0.1394531E+04  0.7818609E-02  0.8957787E-01
        1   -1    0    0  501    0  0.00000000000E+00  0.00000000000E+00  0.92833188227E+03  0.92833188229E+03  0.50400001928E-02 0.  1.
       -1   -1    0    0    0  501  0.00000000000E+00  0.00000000000E+00 -0.52371249296E+03  0.52371249298E+03  0.50400001928E-02 0. -1.
    10030    2    1    2    0    0  0.00000000000E+00  0.00000000000E+00  0.40461938932E+03  0.14520443753E+04  0.13945307517E+04 0.  0.
        4    1    3    3  502    0 -0.54602618228E+03 -0.41411119645E+03  0.68378586851E+02  0.68870161812E+03  0.12699999809E+01 0. -1.
       -4    1    3    3    0  502  0.54602618228E+03  0.41411119645E+03  0.33624080246E+03  0.76334275715E+03  0.12699999809E+01 0.  1.
</event>
<event>
 5   0  0.2172901E-03  0.1206774E+04  0.7818609E-02  0.9106948E-01
       -2   -1    0    0    0  501  0.00000000000E+00  0.00000000000E+00  0.18172979963E+03  0.18172979964E+03  0.25500000920E-02 0. -1.
        2   -1    0    0  501    0  0.00000000000E+00  0.00000000000E+00 -0.20033911300E+04  0.20033911300E+04  0.25500000920E-02 0.  1.
    10030    2    1    2    0    0  0.00000000000E+00  0.00000000000E+00 -0.18216613304E+04  0.21851209297E+04  0.12067739948E+04 0.  0.
        2    1    3    3  502    0  0.58298443441E+02 -0.53583004566E+03 -0.41971905483E+03  0.68313734441E+03  0.25500000920E-02 0.  1.
       -2    1    3    3    0  502 -0.58298443441E+02  0.53583004566E+03 -0.14019422756E+04  0.15019835852E+04  0.25500000920E-02 0. -1.
</event>
<event>
 5   0  0.2172901E-03  0.1448815E+04  0.7818609E-02  0.8919222E-01
        2   -1    0    0  501    0  0.00000000000E+00  0.00000000000E+00  0.11971426813E+04  0.11971426813E+04  0.25500000920E-02 0.  1.
       -2   -1    0    0    0  501  0.00000000000E+00  0.00000000000E+00 -0.43834912389E+03  0.43834912390E+03  0.25500000920E-02 0. -1.
    10030    2    1    2    0    0  0.00000000000E+00  0.00000000000E+00  0.75879355742E+03  0.16354918052E+04  0.14488153030E+04 0.  0.
        2    1    3    3  502    0  0.82317922531E+02  0.29091866486E+03  0.11225151931E+04  0.11625189326E+04  0.25500000920E-02 0.  1.
       -2    1    3    3    0  502 -0.82317922531E+02 -0.29091866486E+03 -0.36372163569E+03  0.47297287259E+03  0.25500000920E-02 0. -1.
</event>
<event>
 5   0  0.1225690E-03  0.1407803E+04  0.7818609E-02  0.8948190E-01
       -1   -1    0    0    0  501  0.00000000000E+00  0.00000000000E+00  0.56697333992E+03  0.56697333994E+03  0.50400001928E-02 0. -1.
        1   -1    0    0  501    0  0.00000000000E+00  0.00000000000E+00 -0.87389874696E+03  0.87389874697E+03  0.50400001928E-02 0.  1.
    10030    2    1    2    0    0  0.00000000000E+00  0.00000000000E+00 -0.30692540704E+03  0.14408720869E+04  0.14078029569E+04 0.  0.
        4    1    3    3  502    0  0.15988382948E+03  0.40352301025E+03 -0.72062943621E+03  0.84125029329E+03  0.12699999809E+01 0.  1.
       -4    1    3    3    0  502 -0.15988382948E+03 -0.40352301025E+03  0.41370402917E+03  0.59962179362E+03  0.12699999809E+01 0. -1.
</event>
<event>
 5   0  0.1199720E-03  0.1390665E+04  0.7818609E-02  0.8960603E-01
       -1   -1    0    0    0  501  0.00000000000E+00  0.00000000000E+00  0.31364638604E+03  0.31364638608E+03  0.50400001928E-02 0.  1.
        1   -1    0    0  501    0  0.00000000000E+00  0.00000000000E+00 -0.15415045211E+04  0.15415045212E+04  0.50400001928E-02 0. -1.
    10030    2    1    2    0    0  0.00000000000E+00  0.00000000000E+00 -0.12278581351E+04  0.18551509072E+04  0.13906650527E+04 0.  0.
        5    1    3    3  502    0 -0.52690681053E+03  0.32330591661E+03 -0.10385271154E+04  0.12086017384E+04  0.46999998093E+01 0. -1.
       -5    1    3    3    0  502  0.52690681053E+03 -0.32330591661E+03 -0.18933101975E+03  0.64654916885E+03  0.46999998093E+01 0.  1.
</event>
<event>
 5   0  0.8293000E-04  0.1568019E+04  0.7818609E-02  0.8840440E-01
       -4   -1    0    0    0  501  0.00000000000E+00  0.00000000000E+00  0.13147000305E+04  0.13147006440E+04  0.12699999809E+01 0. -1.
        4   -1    0    0  501    0  0.00000000000E+00  0.00000000000E+00 -0.46753528553E+03  0.46753701042E+03  0.12699999809E+01 0.  1.
    10030    2    1    2    0    0  0.00000000000E+00  0.00000000000E+00  0.84716474502E+03  0.17822376544E+04  0.15680187982E+04 0.  0.
        5    1    3    3  502    0 -0.66252888244E+03 -0.40164812575E+03  0.55989551968E+03  0.95591360485E+03  0.46999998093E+01 0. -1.
       -5    1    3    3    0  502  0.66252888244E+03  0.40164812575E+03  0.28726922534E+03  0.82632404952E+03  0.46999998093E+01 0.  1.
</event>
<event>
 5   0  0.2236184E-03  0.1406726E+04  0.7818609E-02  0.8948964E-01
       -2   -1    0    0    0  501  0.00000000000E+00  0.00000000000E+00  0.25072089796E+03  0.25072089797E+03  0.25500000920E-02 0. -1.
        2   -1    0    0  501    0  0.00000000000E+00  0.00000000000E+00 -0.19731879199E+04  0.19731879199E+04  0.25500000920E-02 0.  1.
    10030    2    1    2    0    0  0.00000000000E+00  0.00000000000E+00 -0.17224670219E+04  0.22239088179E+04  0.14067259110E+04 0.  0.
        3    1    3    3  502    0 -0.31447249535E+03  0.52101283995E+03 -0.30370255460E+03  0.68013423792E+03  0.10100000352E+00 0. -1.
       -3    1    3    3    0  502  0.31447249535E+03 -0.52101283995E+03 -0.14187644674E+04  0.15437745800E+04  0.10100000352E+00 0.  1.
</event>
<event>
 5   0  0.1238683E-03  0.1446996E+04  0.7818609E-02  0.8920486E-01
        1   -1    0    0  501    0  0.00000000000E+00  0.00000000000E+00  0.18283129855E+04  0.18283129855E+04  0.50400001928E-02 0. -1.
       -1   -1    0    0    0  501  0.00000000000E+00  0.00000000000E+00 -0.28630173920E+03  0.28630173924E+03  0.50400001928E-02 0.  1.
    10030    2    1    2    0    0  0.00000000000E+00  0.00000000000E+00  0.15420112463E+04  0.21146147247E+04  0.14469957672E+04 0.  0.
        2    1    3    3  502    0 -0.41486409095E+03 -0.42348413700E+03  0.16493129193E+03  0.61534816106E+03  0.25500000920E-02 0.  1.
       -2    1    3    3    0  502  0.41486409095E+03  0.42348413700E+03  0.13770799543E+04  0.14992665637E+04  0.25500000920E-02 0. -1.
</event>
<event>
 5   0  0.1210275E-03  0.1397495E+04  0.7818609E-02  0.8955634E-01
        1   -1    0    0  501    0  0.00000000000E+00  0.00000000000E+00  0.12434654421E+04  0.12434654422E+04  0.50400001928E-02 0.  1.
       -1   -1    0    0    0  501  0.00000000000E+00  0.00000000000E+00 -0.39265118460E+03  0.39265118464E+03  0.50400001928E-02 0. -1.
    10030    2    1    2    0    0  0.00000000000E+00  0.00000000000E+00  0.85081425754E+03  0.16361166268E+04  0.13974951576E+04 0.  0.
        1    1    3    3  502    0 -0.15537104813E+03 -0.23707840860E+03  0.11731319214E+04  0.12068905665E+04  0.50400001928E-02 0.  1.
       -1    1    3    3    0  502  0.15537104813E+03  0.23707840860E+03 -0.32231766384E+03  0.42922606033E+03  0.50400001928E-02 0. -1.
</event>
<event>
 5   0  0.2083966E-03  0.1388491E+04  0.7818609E-02  0.8962192E-01
       -2   -1    0    0    0  501  0.00000000000E+00  0.00000000000E+00  0.27095436973E+03  0.27095436975E+03  0.25500000920E-02 0. -1.
        2   -1    0    0  501    0  0.00000000000E+00  0.00000000000E+00 -0.17788113085E+04  0.17788113085E+04  0.25500000920E-02 0.  1.
    10030    2    1    2    0    0  0.00000000000E+00  0.00000000000E+00 -0.15078569388E+04  0.20497656782E+04  0.13884908311E+04 0.  0.
        1    1    3    3  502    0 -0.49599064619E+03  0.24681713541E+02 -0.37738463679E+02  0.49803624342E+03  0.50400001928E-02 0. -1.
       -1    1    3    3    0  502  0.49599064619E+03 -0.24681713541E+02 -0.14701184751E+04  0.15517294348E+04  0.50400001928E-02 0.  1.
</event>
<event>
 5   0  0.1199720E-03  0.1404542E+04  0.7818609E-02  0.8950537E-01
        1   -1    0    0  501    0  0.00000000000E+00  0.00000000000E+00  0.96852620120E+03  0.96852620122E+03  0.50400001928E-02 0. -1.
       -1   -1    0    0    0  501  0.00000000000E+00  0.00000000000E+00 -0.50921141106E+03  0.50921141108E+03  0.50400001928E-02 0.  1.
    10030    2    1    2    0    0  0.00000000000E+00  0.00000000000E+00  0.45931479015E+03  0.14777376123E+04  0.14045420515E+04 0.  0.
        5    1    3    3  502    0  0.35224696577E+03  0.23280210503E+01  0.86883616588E+03  0.93754024859E+03  0.46999998093E+01 0. -1.
       -5    1    3    3    0  502 -0.35224696577E+03 -0.23280210503E+01 -0.40952137574E+03  0.54019736371E+03  0.46999998093E+01 0.  1.
</event>
<event>
 5   0  0.1199720E-03  0.1380867E+04  0.7818609E-02  0.8967786E-01
        1   -1    0    0  501    0  0.00000000000E+00  0.00000000000E+00  0.15655278471E+04  0.15655278471E+04  0.50400001928E-02 0. -1.
       -1   -1    0    0    0  501  0.00000000000E+00  0.00000000000E+00 -0.30449676506E+03  0.30449676511E+03  0.50400001928E-02 0.  1.
    10030    2    1    2    0    0  0.00000000000E+00  0.00000000000E+00  0.12610310820E+04  0.18700246122E+04  0.13808666338E+04 0.  0.
        5    1    3    3  502    0  0.26958284176E+03  0.41857509844E+03  0.12782840800E+04  0.13718280872E+04  0.46999998093E+01 0.  1.
       -5    1    3    3    0  502 -0.26958284176E+03 -0.41857509844E+03 -0.17252997977E+02  0.49819652502E+03  0.46999998093E+01 0. -1.
</event>
<event>
 5   0  0.2172901E-03  0.1398382E+04  0.7818609E-02  0.8954991E-01
        2   -1    0    0  501    0  0.00000000000E+00  0.00000000000E+00  0.66393239198E+03  0.66393239198E+03  0.25500000920E-02 0. -1.
       -2   -1    0    0    0  501  0.00000000000E+00  0.00000000000E+00 -0.73632179286E+03  0.73632179286E+03  0.25500000920E-02 0.  1.
    10030    2    1    2    0    0  0.00000000000E+00  0.00000000000E+00 -0.72389400879E+02  0.14002541848E+04  0.13983817636E+04 0.  0.
        2    1    3    3  502    0  0.17668021571E+03 -0.26805891805E+03  0.58576209460E+03  0.66797358754E+03  0.25500000920E-02 0. -1.
       -2    1    3    3    0  502 -0.17668021571E+03  0.26805891805E+03 -0.65815149548E+03  0.73228059730E+03  0.25500000920E-02 0.  1.
</event>
<event>
 5   0  0.2172901E-03  0.1428681E+04  0.7818609E-02  0.8933315E-01
       -2   -1    0    0    0  501  0.00000000000E+00  0.00000000000E+00  0.57609543111E+03  0.57609543111E+03  0.25500000920E-02 0. -1.
        2   -1    0    0  501    0  0.00000000000E+00  0.00000000000E+00 -0.88576052667E+03  0.88576052667E+03  0.25500000920E-02 0.  1.
    10030    2    1    2    0    0  0.00000000000E+00  0.00000000000E+00 -0.30966509556E+03  0.14618559578E+04  0.14286813395E+04 0.  0.
        2    1    3    3  502    0  0.10682108688E+03  0.23186763070E+03  0.52782440750E+03  0.58632068693E+03  0.25500000920E-02 0. -1.
       -2    1    3    3    0  502 -0.10682108688E+03 -0.23186763070E+03 -0.83748950306E+03  0.87553527085E+03  0.25500000920E-02 0.  1.
</event>
<event>
 5   0  0.1175374E-03  0.1404601E+04  0.7818609E-02  0.8950495E-01
       -1   -1    0    0    0  501  0.00000000000E+00  0.00000000000E+00  0.64663905363E+03  0.64663905365E+03  0.50400001928E-02 0.  1.
        1   -1    0    0  501    0  0.00000000000E+00  0.00000000000E+00 -0.76275313178E+03  0.76275313180E+03  0.50400001928E-02 0. -1.
    10030    2    1    2    0    0  0.00000000000E+00  0.00000000000E+00 -0.11611407816E+03  0.14093921854E+04  0.14046009587E+04 0.  0.
        3    1    3    3  502    0 -0.19208860779E+03  0.23579733568E+03  0.57713272635E+03  0.65236539668E+03  0.10100000352E+00 0.  1.
       -3    1    3    3    0  502  0.19208860779E+03 -0.23579733568E+03 -0.69324680450E+03  0.75702678877E+03  0.10100000352E+00 0. -1.
</event>
<event>
 5   0  0.2190704E-03  0.1350672E+04  0.7818609E-02  0.8990319E-01
       -2   -1    0    0    0  501  0.00000000000E+00  0.00000000000E+00  0.59550915718E+03  0.59550915718E+03  0.25500000920E-02 0. -1.
        2   -1    0    0  501    0  0.00000000000E+00  0.00000000000E+00 -0.76586381459E+03  0.76586381459E+03  0.25500000920E-02 0.  1.
    10030    2    1    2    0    0  0.00000000000E+00  0.00000000000E+00 -0.17035465741E+03  0.13613729718E+04  0.13506722989E+04 0.  0.
        5    1    3    3  502    0  0.29850759815E+03 -0.58854916589E+03 -0.22970061199E+03  0.69877132738E+03  0.46999998093E+01 0.  1.
       -5    1    3    3    0  502 -0.29850759815E+03  0.58854916589E+03  0.59345954584E+02  0.66260164439E+03  0.46999998093E+01 0. -1.
</event>
<event>
 5   0  0.1225690E-03  0.1373192E+04  0.7818609E-02  0.8973456E-01
        1   -1    0    0  501    0  0.00000000000E+00  0.00000000000E+00  0.88965289220E+03  0.88965289221E+03  0.50400001928E-02 0.  1.
       -1   -1    0    0    0  501  0.00000000000E+00  0.00000000000E+00 -0.52988513303E+03  0.52988513306E+03  0.50400001928E-02 0. -1.
    10030    2    1    2    0    0  0.00000000000E+00  0.00000000000E+00  0.35976775916E+03  0.14195380253E+04  0.13731916708E+04 0.  0.
        4    1    3    3  502    0 -0.45633539575E+03  0.35918683467E+03  0.55851768561E+03  0.80572997565E+03  0.12699999809E+01 0.  1.
       -4    1    3    3    0  502  0.45633539575E+03 -0.35918683467E+03 -0.19874992645E+03  0.61380804962E+03  0.12699999809E+01 0. -1.
</event>
<event>
 5   0  0.2172901E-03  0.1394219E+04  0.7818609E-02  0.8958014E-01
       -2   -1    0    0    0  501  0.00000000000E+00  0.00000000000E+00  0.45401945591E+03  0.45401945591E+03  0.25500000920E-02 0.  1.
        2   -1    0    0  501    0  0.00000000000E+00  0.00000000000E+00 -0.10703543308E+04  0.10703543308E+04  0.25500000920E-02 0. -1.
    10030    2    1    2    0    0  0.00000000000E+00  0.00000000000E+00 -0.61633487491E+03  0.15243737867E+04  0.13942190515E+04 0.  0.
        2    1    3    3  502    0  0.71334820502E+02  0.10655028736E+03  0.44101491717E+03  0.45927745157E+03  0.25500000920E-02 0.  1.
       -2    1    3    3    0  502 -0.71334820502E+02 -0.10655028736E+03 -0.10573497921E+04  0.10650963352E+04  0.25500000920E-02 0. -1.
</event>
<event>
 5   0  0.1175374E-03  0.1396052E+04  0.7818609E-02  0.8956681E-01
       -1   -1    0    0    0  501  0.00000000000E+00  0.00000000000E+00  0.96648366306E+03  0.96648366308E+03  0.50400001928E-02 0.  1.
        1   -1    0    0  501    0  0.00000000000E+00  0.00000000000E+00 -0.50413694202E+03  0.50413694205E+03  0.50400001928E-02 0. -1.
    10030    2    1    2    0    0  0.00000000000E+00  0.00000000000E+00  0.46234672104E+03  0.14706206051E+04  0.13960517447E+04 0.  0.
        3    1    3    3  502    0 -0.29394218652E+02  0.16773316074E+03 -0.48192004920E+03  0.51112168544E+03  0.10100000352E+00 0. -1.
       -3    1    3    3    0  502  0.29394218652E+02 -0.16773316074E+03  0.94426677024E+03  0.95949891969E+03  0.10100000352E+00 0.  1.
</event>
<event>
 5   0  0.1199720E-03  0.1386565E+04  0.7818609E-02  0.8963601E-01
        1   -1    0    0  501    0  0.00000000000E+00  0.00000000000E+00  0.62713777186E+03  0.62713777188E+03  0.50400001928E-02 0.  1.
       -1   -1    0    0    0  501  0.00000000000E+00  0.00000000000E+00 -0.76640378347E+03  0.76640378349E+03  0.50400001928E-02 0. -1.
    10030    2    1    2    0    0  0.00000000000E+00  0.00000000000E+00 -0.13926601161E+03  0.13935415554E+04  0.13865651966E+04 0.  0.
        5    1    3    3  502    0 -0.27419073934E+03  0.61194896545E+03 -0.24646305561E+03  0.71444259786E+03  0.46999998093E+01 0. -1.
       -5    1    3    3    0  502  0.27419073934E+03 -0.61194896545E+03  0.10719704401E+03  0.67909895751E+03  0.46999998093E+01 0.  1.
</event>
<event>
 5   0  0.1238683E-03  0.1407188E+04  0.7818609E-02  0.8948632E-01
        1   -1    0    0  501    0  0.00000000000E+00  0.00000000000E+00  0.86815962790E+03  0.86815962791E+03  0.50400001928E-02 0.  1.
       -1   -1    0    0    0  501  0.00000000000E+00  0.00000000000E+00 -0.57022277168E+03  0.57022277170E+03  0.50400001928E-02 0. -1.
    10030    2    1    2    0    0  0.00000000000E+00  0.00000000000E+00  0.29793685622E+03  0.14383823996E+04  0.14071878187E+04 0.  0.
        2    1    3    3  502    0 -0.99060567700E+02 -0.47697501899E+03  0.66788984964E+03  0.82667709299E+03  0.25500000920E-02 0.  1.
       -2    1    3    3    0  502  0.99060567700E+02  0.47697501899E+03 -0.36995299342E+03  0.61170530663E+03  0.25500000920E-02 0. -1.
</event>
<event>
 5   0  0.1199720E-03  0.1387293E+04  0.7818609E-02  0.8963069E-01
       -1   -1    0    0    0  501  0.00000000000E+00  0.00000000000E+00  0.41895480130E+03  0.41895480133E+03  0.50400001928E-02 0.  1.
        1   -1    0    0  501    0  0.00000000000E+00  0.00000000000E+00 -0.11484416275E+04  0.11484416275E+04  0.50400001928E-02 0. -1.
    10030    2    1    2    0    0  0.00000000000E+00  0.00000000000E+00 -0.72948682617E+03  0.15673964288E+04  0.13872925198E+04 0.  0.
        5    1    3    3  502    0 -0.63776728182E+03  0.25549012227E+03 -0.25696071386E+03  0.73353473456E+03  0.46999998093E+01 0. -1.
       -5    1    3    3    0  502  0.63776728182E+03 -0.25549012227E+03 -0.47252611231E+03  0.83386169426E+03  0.46999998093E+01 0.  1.
</event>
<event>
 5   0  0.2172901E-03  0.1396310E+04  0.7818609E-02  0.8956494E-01
       -2   -1    0    0    0  501  0.00000000000E+00  0.00000000000E+00  0.52962373322E+03  0.52962373323E+03  0.25500000920E-02 0.  1.
        2   -1    0    0  501    0  0.00000000000E+00  0.00000000000E+00 -0.92031389549E+03  0.92031389549E+03  0.25500000920E-02 0. -1.
    10030    2    1    2    0    0  0.00000000000E+00  0.00000000000E+00 -0.39069016226E+03  0.14499376287E+04  0.13963095374E+04 0.  0.
        2    1    3    3  502    0 -0.85033636537E+02 -0.52721915724E+03 -0.66231583224E+03  0.85079552229E+03  0.25500000920E-02 0. -1.
       -2    1    3    3    0  502  0.85033636537E+02  0.52721915724E+03  0.27162566998E+03  0.59914210643E+03  0.25500000920E-02 0.  1.
</event>
<event>
 5   0  0.2172901E-03  0.1402936E+04  0.7818609E-02  0.8951696E-01
       -2   -1    0    0    0  501  0.00000000000E+00  0.00000000000E+00  0.47421169067E+03  0.47421169068E+03  0.25500000920E-02 0.  1.
        2   -1    0    0  501    0  0.00000000000E+00  0.00000000000E+00 -0.10376317847E+04  0.10376317847E+04  0.25500000920E-02 0. -1.
    10030    2    1    2    0    0  0.00000000000E+00  0.00000000000E+00 -0.56342009404E+03  0.15118434754E+04  0.14029356691E+04 0.  0.
        2    1    3    3  502    0  0.68795019340E+03 -0.13612110932E+03 -0.29884054174E+03  0.76230577487E+03  0.25500000920E-02 0.  1.
       -2    1    3    3    0  502 -0.68795019340E+03  0.13612110932E+03 -0.26457955230E+03  0.74953770052E+03  0.25500000920E-02 0. -1.
</event>
<event>
 5   0  0.1238683E-03  0.1388558E+04  0.7818609E-02  0.8962143E-01
       -1   -1    0    0    0  501  0.00000000000E+00  0.00000000000E+00  0.45728001768E+03  0.45728001771E+03  0.50400001928E-02 0.  1.
        1   -1    0    0  501    0  0.00000000000E+00  0.00000000000E+00 -0.10541094967E+04  0.10541094968E+04  0.50400001928E-02 0. -1.
    10030    2    1    2    0    0  0.00000000000E+00  0.00000000000E+00 -0.59682947906E+03  0.15113895145E+04  0.13885578264E+04 0.  0.
        2    1    3    3  502    0  0.26265827856E+03 -0.62137206118E+03 -0.47703694441E+03  0.82623051024E+03  0.25500000920E-02 0. -1.
       -2    1    3    3    0  502 -0.26265827856E+03  0.62137206118E+03 -0.11979253465E+03  0.68515900422E+03  0.25500000920E-02 0.  1.
</event>
<event>
 5   0  0.2195980E-03  0.1365144E+04  0.7818609E-02  0.8979443E-01
        2   -1    0    0  501    0  0.00000000000E+00  0.00000000000E+00  0.89772786216E+03  0.89772786216E+03  0.25500000920E-02 0.  1.
       -2   -1    0    0    0  501  0.00000000000E+00  0.00000000000E+00 -0.51898168001E+03  0.51898168001E+03  0.25500000920E-02 0. -1.
    10030    2    1    2    0    0  0.00000000000E+00  0.00000000000E+00  0.37874618215E+03  0.14167095422E+04  0.13651436761E+04 0.  0.
        4    1    3    3  502    0  0.89304457169E+02  0.60018967009E+03 -0.13500330128E+03  0.62163528729E+03  0.12699999809E+01 0. -1.
       -4    1    3    3    0  502 -0.89304457169E+02 -0.60018967009E+03  0.51374948343E+03  0.79507425488E+03  0.12699999809E+01 0.  1.
</event>
<event>
 5   0  0.8293000E-04  0.1437233E+04  0.7818609E-02  0.8927300E-01
       -3   -1    0    0    0  501  0.00000000000E+00  0.00000000000E+00  0.36527666322E+03  0.36527667719E+03  0.10100000352E+00 0.  1.
        3   -1    0    0  501    0  0.00000000000E+00  0.00000000000E+00 -0.14137484131E+04  0.14137484167E+04  0.10100000352E+00 0. -1.
    10030    2    1    2    0    0  0.00000000000E+00  0.00000000000E+00 -0.10484717499E+04  0.17790250939E+04  0.14372325053E+04 0.  0.
        2    1    3    3  502    0 -0.63268406335E+03  0.30938352525E+03 -0.34743202320E+03  0.78531286789E+03  0.25500000920E-02 0. -1.
       -2    1    3    3    0  502  0.63268406335E+03 -0.30938352525E+03 -0.70103972665E+03  0.99371222598E+03  0.25500000920E-02 0.  1.
</event>
<event>
 5   0  0.1199720E-03  0.1350348E+04  0.7818609E-02  0.8990565E-01
       -1   -1    0    0    0  501  0.00000000000E+00  0.00000000000E+00  0.69643739695E+03  0.69643739697E+03  0.50400001928E-02 0.  1.
        1   -1    0    0  501    0  0.00000000000E+00  0.00000000000E+00 -0.65455967085E+03  0.65455967087E+03  0.50400001928E-02 0. -1.
    10030    2    1    2    0    0  0.00000000000E+00  0.00000000000E+00  0.41877726100E+02  0.13509970678E+04  0.13503478564E+04 0.  0.
        5    1    3    3  502    0  0.89451655015E+02 -0.77339161567E+02  0.68598003854E+03  0.69611324350E+03  0.46999998093E+01 0.  1.
       -5    1    3    3    0  502 -0.89451655015E+02  0.77339161567E+02 -0.64410231244E+03  0.65488382435E+03  0.46999998093E+01 0. -1.
</event>
<event>
 5   0  0.1175374E-03  0.1359332E+04  0.7818609E-02  0.8983794E-01
        1   -1    0    0  501    0  0.00000000000E+00  0.00000000000E+00  0.13975848813E+04  0.13975848813E+04  0.50400001928E-02 0.  1.
       -1   -1    0    0    0  501  0.00000000000E+00  0.00000000000E+00 -0.33053172531E+03  0.33053172535E+03  0.50400001928E-02 0. -1.
    10030    2    1    2    0    0  0.00000000000E+00  0.00000000000E+00  0.10670531560E+04  0.17281166066E+04  0.13593323981E+04 0.  0.
        3    1    3    3  502    0 -0.30035344379E+03 -0.28977894450E+03  0.12154948593E+04  0.12851504935E+04  0.10100000352E+00 0.  1.
       -3    1    3    3    0  502  0.30035344379E+03  0.28977894450E+03 -0.14844170333E+03  0.44296611310E+03  0.10100000352E+00 0. -1.
</event>
<event>
 5   0  0.2172901E-03  0.1394645E+04  0.7818609E-02  0.8957704E-01
        2   -1    0    0  501    0  0.00000000000E+00  0.00000000000E+00  0.11450842024E+04  0.11450842024E+04  0.25500000920E-02 0. -1.
       -2   -1    0    0    0  501  0.00000000000E+00  0.00000000000E+00 -0.42464856374E+03  0.42464856375E+03  0.25500000920E-02 0.  1.
    10030    2    1    2    0    0  0.00000000000E+00  0.00000000000E+00  0.72043563867E+03  0.15697327662E+04  0.13946445596E+04 0.  0.
        2    1    3    3  502    0 -0.48074536511E+02  0.31925386236E+03  0.10558947602E+04  0.11041503224E+04  0.25500000920E-02 0. -1.
       -2    1    3    3    0  502  0.48074536511E+02 -0.31925386236E+03 -0.33545912158E+03  0.46558244377E+03  0.25500000920E-02 0.  1.
</event>
<event>
 5   0  0.1210275E-03  0.1390355E+04  0.7818609E-02  0.8960830E-01
        1   -1    0    0  501    0  0.00000000000E+00  0.00000000000E+00  0.12217838005E+04  0.12217838005E+04  0.50400001928E-02 0. -1.
       -1   -1    0    0    0  501  0.00000000000E+00  0.00000000000E+00 -0.39554626378E+03  0.39554626381E+03  0.50400001928E-02 0.  1.
    10030    2    1    2    0    0  0.00000000000E+00  0.00000000000E+00  0.82623753675E+03  0.16173300643E+04  0.13903553754E+04 0.  0.
        1    1    3    3  502    0  0.37579615594E+03 -0.41704095492E+03 -0.63850524087E+02  0.56499805164E+03  0.50400001928E-02 0.  1.
       -1    1    3    3    0  502 -0.37579615594E+03  0.41704095492E+03  0.89008806084E+03  0.10523320127E+04  0.50400001928E-02 0. -1.
</event>
<event>
 5   0  0.2172901E-03  0.1413418E+04  0.7818609E-02  0.8944163E-01
       -2   -1    0    0    0  501  0.00000000000E+00  0.00000000000E+00  0.33377016520E+03  0.33377016521E+03  0.25500000920E-02 0.  1.
        2   -1    0    0  501    0  0.00000000000E+00  0.00000000000E+00 -0.14963516822E+04  0.14963516822E+04  0.25500000920E-02 0. -1.
    10030    2    1    2    0    0  0.00000000000E+00  0.00000000000E+00 -0.11625815170E+04  0.18301218474E+04  0.14134179115E+04 0.  0.
        2    1    3    3  502    0  0.13908403765E+03 -0.22106236605E+03  0.26898771351E+03  0.37492309777E+03  0.25500000920E-02 0.  1.
       -2    1    3    3    0  502 -0.13908403765E+03  0.22106236605E+03 -0.14315692305E+04  0.14551987496E+04  0.25500000920E-02 0. -1.
</event>
<event>
 5   0  0.2172901E-03  0.1393077E+04  0.7818609E-02  0.8958845E-01
       -2   -1    0    0    0  501  0.00000000000E+00  0.00000000000E+00  0.86344065038E+03  0.86344065038E+03  0.25500000920E-02 0. -1.
        2   -1    0    0  501    0  0.00000000000E+00  0.00000000000E+00 -0.56189802748E+03  0.56189802749E+03  0.25500000920E-02 0.  1.
    10030    2    1    2    0    0  0.00000000000E+00  0.00000000000E+00  0.30154262289E+03  0.14253386779E+04  0.13930765927E+04 0.  0.
        2    1    3    3  502    0  0.35386937669E+03 -0.59520356906E+03  0.22784699004E+03  0.72897535984E+03  0.25500000920E-02 0.  1.
       -2    1    3    3    0  502 -0.35386937669E+03  0.59520356906E+03  0.73695632858E+02  0.69636331803E+03  0.25500000920E-02 0. -1.
</event>
<event>
 5   0  0.1175374E-03  0.1361235E+04  0.7818609E-02  0.8982367E-01
       -1   -1    0    0    0  501  0.00000000000E+00  0.00000000000E+00  0.57955870045E+03  0.57955870048E+03  0.50400001928E-02 0.  1.
        1   -1    0    0  501    0  0.00000000000E+00  0.00000000000E+00 -0.79929803231E+03  0.79929803232E+03  0.50400001928E-02 0. -1.
    10030    2    1    2    0    0  0.00000000000E+00  0.00000000000E+00 -0.21973933185E+03  0.13788567328E+04  0.13612349230E+04 0.  0.
        3    1    3    3  502    0  0.34597455880E+03 -0.34287936522E+03 -0.59139229904E+03  0.76616546254E+03  0.10100000352E+00 0. -1.
       -3    1    3    3    0  502 -0.34597455880E+03  0.34287936522E+03  0.37165296719E+03  0.61269127026E+03  0.10100000352E+00 0.  1.
</event>
<event>
 5   0  0.1210275E-03  0.1399110E+04  0.7818609E-02  0.8954463E-01
       -1   -1    0    0    0  501  0.00000000000E+00  0.00000000000E+00  0.51110389417E+03  0.51110389420E+03  0.50400001928E-02 0. -1.
        1   -1    0    0  501    0  0.00000000000E+00  0.00000000000E+00 -0.95749078054E+03  0.95749078055E+03  0.50400001928E-02 0.  1.
    10030    2    1    2    0    0  0.00000000000E+00  0.00000000000E+00 -0.44638688637E+03  0.14685946748E+04  0.13991100980E+04 0.  0.
        1    1    3    3  502    0 -0.61868288052E+03  0.30754099071E+03 -0.33830902453E+03  0.76928730895E+03  0.50400001928E-02 0. -1.
       -1    1    3    3    0  502  0.61868288052E+03 -0.30754099071E+03 -0.10807786184E+03  0.69930736580E+03  0.50400001928E-02 0.  1.
</event>
<event>
 5   0  0.1175374E-03  0.1379368E+04  0.7818609E-02  0.8968890E-01
        1   -1    0    0  501    0  0.00000000000E+00  0.00000000000E+00  0.99718602096E+03  0.99718602097E+03  0.50400001928E-02 0. -1.
       -1   -1    0    0    0  501  0.00000000000E+00  0.00000000000E+00 -0.47700627234E+03  0.47700627237E+03  0.50400001928E-02 0.  1.
    10030    2    1    2    0    0  0.00000000000E+00  0.00000000000E+00  0.52017974862E+03  0.14741922933E+04  0.13793679520E+04 0.  0.
        3    1    3    3  502    0 -0.40073287740E+03 -0.31488729844E+03 -0.23652941647E+03  0.56186032499E+03  0.10100000352E+00 0.  1.
       -3    1    3    3    0  502  0.40073287740E+03  0.31488729844E+03  0.75670916509E+03  0.91233196835E+03  0.10100000352E+00 0. -1.
</event>
<event>
 5   0  0.1199720E-03  0.1377299E+04  0.7818609E-02  0.8970416E-01
        1   -1    0    0  501    0  0.00000000000E+00  0.00000000000E+00  0.78304132811E+03  0.78304132813E+03  0.50400001928E-02 0.  1.
       -1   -1    0    0    0  501  0.00000000000E+00  0.00000000000E+00 -0.60563632287E+03  0.60563632289E+03  0.50400001928E-02 0. -1.
    10030    2    1    2    0    0  0.00000000000E+00  0.00000000000E+00  0.17740500524E+03  0.13886776510E+04  0.13772991986E+04 0.  0.
        5    1    3    3  502    0 -0.10667639528E+03  0.62297837446E+03  0.36433667318E+03  0.72955137569E+03  0.46999998093E+01 0.  1.
       -5    1    3    3    0  502  0.10667639528E+03 -0.62297837446E+03 -0.18693166794E+03  0.65912627533E+03  0.46999998093E+01 0. -1.
</event>
<event>
 5   0  0.1225690E-03  0.1406036E+04  0.7818609E-02  0.8949461E-01
        1   -1    0    0  501    0  0.00000000000E+00  0.00000000000E+00  0.15002085894E+04  0.15002085894E+04  0.50400001928E-02 0.  1.
       -1   -1    0    0    0  501  0.00000000000E+00  0.00000000000E+00 -0.32944354765E+03  0.32944354769E+03  0.50400001928E-02 0. -1.
    10030    2    1    2    0    0  0.00000000000E+00  0.00000000000E+00  0.11707650418E+04  0.18296521371E+04  0.14060356183E+04 0.  0.
        4    1    3    3  502    0  0.44927049826E+03  0.52935090886E+03  0.72897299370E+03  0.10067073079E+04  0.12699999809E+01 0. -1.
       -4    1    3    3    0  502 -0.44927049826E+03 -0.52935090886E+03  0.44179204809E+03  0.82294482924E+03  0.12699999809E+01 0.  1.
</event>
<event>
 5   0  0.1225690E-03  0.1382287E+04  0.7818609E-02  0.8966741E-01
        1   -1    0    0  501    0  0.00000000000E+00  0.00000000000E+00  0.76713772393E+03  0.76713772394E+03  0.50400001928E-02 0.  1.
       -1   -1    0    0    0  501  0.00000000000E+00  0.00000000000E+00 -0.62267721796E+03  0.62267721798E+03  0.50400001928E-02 0. -1.
    10030    2    1    2    0    0  0.00000000000E+00  0.00000000000E+00  0.14446050597E+03  0.13898149419E+04  0.13822867774E+04 0.  0.
        4    1    3    3  502    0  0.58099198081E+03 -0.34302821379E+03  0.22290478533E+03  0.71056892237E+03  0.12699999809E+01 0.  1.
       -4    1    3    3    0  502 -0.58099198081E+03  0.34302821379E+03 -0.78444279363E+02  0.67924601955E+03  0.12699999809E+01 0. -1.
</event>
<event>
 5   0  0.2083966E-03  0.1373218E+04  0.7818609E-02  0.8973436E-01
        2   -1    0    0  501    0  0.00000000000E+00  0.00000000000E+00  0.14384646175E+04  0.14384646175E+04  0.25500000920E-02 0. -1.
       -2   -1    0    0    0  501  0.00000000000E+00  0.00000000000E+00 -0.32773286339E+03  0.32773286340E+03  0.25500000920E-02 0.  1.
    10030    2    1    2    0    0  0.00000000000E+00  0.00000000000E+00  0.11107317541E+04  0.17661974809E+04  0.13732183045E+04 0.  0.
        1    1    3    3  502    0 -0.26542196938E+02  0.56930958596E+03  0.62886842638E+02  0.57338699662E+03  0.50400001928E-02 0.  1.
       -1    1    3    3    0  502  0.26542196938E+02 -0.56930958596E+03  0.10478449115E+04  0.11928104843E+04  0.50400001928E-02 0. -1.
</event>
<event>
 5   0  0.2236184E-03  0.1430065E+04  0.7818609E-02  0.8932339E-01
        2   -1    0    0  501    0  0.00000000000E+00  0.00000000000E+00  0.22019776395E+04  0.22019776395E+04  0.25500000920E-02 0. -1.
       -2   -1    0    0    0  501  0.00000000000E+00  0.00000000000E+00 -0.23218742361E+03  0.23218742362E+03  0.25500000920E-02 0.  1.
    10030    2    1    2    0    0  0.00000000000E+00  0.00000000000E+00  0.19697902159E+04  0.24341650631E+04  0.14300650544E+04 0.  0.
        3    1    3    3  502    0 -0.29297333996E+03  0.54150979839E+03  0.36599778194E+03  0.71625458202E+03  0.10100000352E+00 0. -1.
       -3    1    3    3    0  502  0.29297333996E+03 -0.54150979839E+03  0.16037924339E+04  0.17179104811E+04  0.10100000352E+00 0.  1.
</event>
<event>
 5   0  0.1199720E-03  0.1579407E+04  0.7818609E-02  0.8833300E-01
       -1   -1    0    0    0  501  0.00000000000E+00  0.00000000000E+00  0.86473042795E+03  0.86473042797E+03  0.50400001928E-02 0. -1.
        1   -1    0    0  501    0  0.00000000000E+00  0.00000000000E+00 -0.72118635208E+03  0.72118635210E+03  0.50400001928E-02 0.  1.
    10030    2    1    2    0    0  0.00000000000E+00  0.00000000000E+00  0.14354407587E+03  0.15859167801E+04  0.15794072089E+04 0.  0.
        5    1    3    3  502    0 -0.37749914853E+03  0.50337322445E+03 -0.40739437930E+03  0.74958820730E+03  0.46999998093E+01 0.  1.
       -5    1    3    3    0  502  0.37749914853E+03 -0.50337322445E+03  0.55093845517E+03  0.83632857276E+03  0.46999998093E+01 0. -1.
</event>
<event>
 5   0  0.2172901E-03  0.1350419E+04  0.7818609E-02  0.8990511E-01
       -2   -1    0    0    0  501  0.00000000000E+00  0.00000000000E+00  0.57311193453E+03  0.57311193453E+03  0.25500000920E-02 0.  1.
        2   -1    0    0  501    0  0.00000000000E+00  0.00000000000E+00 -0.79549501718E+03  0.79549501719E+03  0.25500000920E-02 0. -1.
    10030    2    1    2    0    0  0.00000000000E+00  0.00000000000E+00 -0.22238308266E+03  0.13686069517E+04  0.13504187324E+04 0.  0.
        2    1    3    3  502    0  0.28368241848E+01  0.18229184901E+03 -0.77007810573E+03  0.79136505781E+03  0.25500000920E-02 0. -1.
       -2    1    3    3    0  502 -0.28368241848E+01 -0.18229184901E+03  0.54769502307E+03  0.57724189392E+03  0.25500000920E-02 0.  1.
</event>
<event>
 5   0  0.2195980E-03  0.1420191E+04  0.7818609E-02  0.8939332E-01
       -2   -1    0    0    0  501  0.00000000000E+00  0.00000000000E+00  0.11823103129E+04  0.11823103129E+04  0.25500000920E-02 0.  1.
        2   -1    0    0  501    0  0.00000000000E+00  0.00000000000E+00 -0.42648312896E+03  0.42648312897E+03  0.25500000920E-02 0. -1.
    10030    2    1    2    0    0  0.00000000000E+00  0.00000000000E+00  0.75582718390E+03  0.16087934418E+04  0.14201906937E+04 0.  0.
        4    1    3    3  502    0 -0.69144783864E+03  0.86393368813E+02  0.22313026864E+03  0.73167797385E+03  0.12699999809E+01 0. -1.
       -4    1    3    3    0  502  0.69144783864E+03 -0.86393368813E+02  0.53269691526E+03  0.87711546798E+03  0.12699999809E+01 0.  1.
</event>
<event>
 5   0  0.1225690E-03  0.9363559E+03  0.7818609E-02  0.9381242E-01
       -1   -1    0    0    0  501  0.00000000000E+00  0.00000000000E+00  0.37762193283E+03  0.37762193287E+03  0.50400001928E-02 0. -1.
        1   -1    0    0  501    0  0.00000000000E+00  0.00000000000E+00 -0.58044990188E+03  0.58044990190E+03  0.50400001928E-02 0.  1.
    10030    2    1    2    0    0  0.00000000000E+00  0.00000000000E+00 -0.20282796904E+03  0.95807183476E+03  0.93635594489E+03 0.  0.
        4    1    3    3  502    0  0.38600150707E+03  0.24508818015E+03  0.15357071169E+01  0.45724102047E+03  0.12699999809E+01 0. -1.
       -4    1    3    3    0  502 -0.38600150707E+03 -0.24508818015E+03 -0.20436367616E+03  0.50083081429E+03  0.12699999809E+01 0.  1.
</event>
<event>
 5   0  0.2190704E-03  0.1409824E+04  0.7818609E-02  0.8946738E-01
        2   -1    0    0  501    0  0.00000000000E+00  0.00000000000E+00  0.14023523801E+04  0.14023523801E+04  0.25500000920E-02 0. -1.
       -2   -1    0    0    0  501  0.00000000000E+00  0.00000000000E+00 -0.35433374060E+03  0.35433374061E+03  0.25500000920E-02 0.  1.
    10030    2    1    2    0    0  0.00000000000E+00  0.00000000000E+00  0.10480186395E+04  0.17566861207E+04  0.14098237684E+04 0.  0.
        5    1    3    3  502    0  0.35835971894E+03 -0.44112657808E+03  0.10435679769E+04  0.11883057512E+04  0.46999998093E+01 0. -1.
       -5    1    3    3    0  502 -0.35835971894E+03  0.44112657808E+03  0.44506626551E+01  0.56838036951E+03  0.46999998093E+01 0.  1.
</event>
<event>
 5   0  0.2083966E-03  0.1468246E+04  0.7818609E-02  0.8905848E-01
       -2   -1    0    0    0  501  0.00000000000E+00  0.00000000000E+00  0.90652462114E+03  0.90652462114E+03  0.25500000920E-02 0. -1.
        2   -1    0    0  501    0  0.00000000000E+00  0.00000000000E+00 -0.59450832861E+03  0.59450832862E+03  0.25500000920E-02 0.  1.
    10030    2    1    2    0    0  0.00000000000E+00  0.00000000000E+00  0.31201629253E+03  0.15010329498E+04  0.14682458069E+04 0.  0.
        1    1    3    3  502    0 -0.20449067212E+03 -0.13451845143E+03 -0.55156354698E+03  0.60343516234E+03  0.50400001928E-02 0.  1.
       -1    1    3    3    0  502  0.20449067212E+03  0.13451845143E+03  0.86357983951E+03  0.89759778742E+03  0.50400001928E-02 0. -1.
</event>
<event>
 5   0  0.1225690E-03  0.1409850E+04  0.7818609E-02  0.8946719E-01
       -1   -1    0    0    0  501  0.00000000000E+00  0.00000000000E+00  0.55557964887E+03  0.55557964890E+03  0.50400001928E-02 0.  1.
        1   -1    0    0  501    0  0.00000000000E+00  0.00000000000E+00 -0.89441636201E+03  0.89441636202E+03  0.50400001928E-02 0. -1.
    10030    2    1    2    0    0  0.00000000000E+00  0.00000000000E+00 -0.33883671313E+03  0.14499960109E+04  0.14098503869E+04 0.  0.
        4    1    3    3  502    0  0.30252555586E+02  0.66120884797E+03  0.79985385997E+02  0.66671705590E+03  0.12699999809E+01 0.  1.
       -4    1    3    3    0  502 -0.30252555586E+02 -0.66120884797E+03 -0.41882209913E+03  0.78327895502E+03  0.12699999809E+01 0. -1.
</event>
<event>
 5   0  0.1210275E-03  0.1405455E+04  0.7818609E-02  0.8949880E-01
        1   -1    0    0  501    0  0.00000000000E+00  0.00000000000E+00  0.92574095623E+03  0.92574095624E+03  0.50400001928E-02 0. -1.
       -1   -1    0    0    0  501  0.00000000000E+00  0.00000000000E+00 -0.53343845648E+03  0.53343845650E+03  0.50400001928E-02 0.  1.
    10030    2    1    2    0    0  0.00000000000E+00  0.00000000000E+00  0.39230249975E+03  0.14591794127E+04  0.14054548400E+04 0.  0.
        1    1    3    3  502    0  0.63938580308E+03 -0.40783104425E+02 -0.10358573041E+03  0.64900498485E+03  0.50400001928E-02 0.  1.
       -1    1    3    3    0  502 -0.63938580308E+03  0.40783104425E+02  0.49588823016E+03  0.81017442790E+03  0.50400001928E-02 0. -1.
</event>
<event>
 5   0  0.2195980E-03  0.1409044E+04  0.7818609E-02  0.8947298E-01
       -2   -1    0    0    0  501  0.00000000000E+00  0.00000000000E+00  0.20909226974E+03  0.20909226975E+03  0.25500000920E-02 0.  1.
        2   -1    0    0  501    0  0.00000000000E+00  0.00000000000E+00 -0.23738375201E+04  0.23738375201E+04  0.25500000920E-02 0. -1.
    10030    2    1    2    0    0  0.00000000000E+00  0.00000000000E+00 -0.21647452504E+04  0.25829297899E+04  0.14090437539E+04 0.  0.
        4    1    3    3  502    0  0.52866617098E+03  0.24173788174E+03 -0.18119965614E+04  0.19029603977E+04  0.12699999809E+01 0. -1.
       -4    1    3    3    0  502 -0.52866617098E+03 -0.24173788174E+03 -0.35274868897E+03  0.67996939216E+03  0.12699999809E+01 0.  1.
</event>
<event>
 5   0  0.2236184E-03  0.1394434E+04  0.7818609E-02  0.8957857E-01
        2   -1    0    0  501    0  0.00000000000E+00  0.00000000000E+00  0.56440962473E+03  0.56440962473E+03  0.25500000920E-02 0. -1.
       -2   -1    0    0    0  501  0.00000000000E+00  0.00000000000E+00 -0.86127473470E+03  0.86127473470E+03  0.25500000920E-02 0.  1.
    10030    2    1    2    0    0  0.00000000000E+00  0.00000000000E+00 -0.29686510997E+03  0.14256843594E+04  0.13944342936E+04 0.  0.
        3    1    3    3  502    0  0.28417196198E+03 -0.34863476742E+03  0.39624638142E+03  0.59942565012E+03  0.10100000352E+00 0. -1.
       -3    1    3    3    0  502 -0.28417196198E+03  0.34863476742E+03 -0.69311149139E+03  0.82625870932E+03  0.10100000352E+00 0.  1.
</event>
<event>
 5   0  0.2172901E-03  0.1365280E+04  0.7818609E-02  0.8979342E-01
        2   -1    0    0  501    0  0.00000000000E+00  0.00000000000E+00  0.80289074235E+03  0.80289074236E+03  0.25500000920E-02 0.  1.
       -2   -1    0    0    0  501  0.00000000000E+00  0.00000000000E+00 -0.58039913487E+03  0.58039913487E+03  0.25500000920E-02 0. -1.
    10030    2    1    2    0    0  0.00000000000E+00  0.00000000000E+00  0.22249160749E+03  0.13832898772E+04  0.13652795937E+04 0.  0.
        2    1    3    3  502    0 -0.18592006382E+03 -0.28791848455E+03 -0.48690960033E+03  0.59543621218E+03  0.25500000920E-02 0. -1.
       -2    1    3    3    0  502  0.18592006382E+03  0.28791848455E+03  0.70940120781E+03  0.78785366505E+03  0.25500000920E-02 0.  1.
</event>
<event>
 5   0  0.2172901E-03  0.1443248E+04  0.7818609E-02  0.8923095E-01
        2   -1    0    0  501    0  0.00000000000E+00  0.00000000000E+00  0.11461322176E+04  0.11461322176E+04  0.25500000920E-02 0. -1.
       -2   -1    0    0    0  501  0.00000000000E+00  0.00000000000E+00 -0.45434646366E+03  0.45434646367E+03  0.25500000920E-02 0.  1.
    10030    2    1    2    0    0  0.00000000000E+00  0.00000000000E+00  0.69178575392E+03  0.16004786813E+04  0.14432478927E+04 0.  0.
        2    1    3    3  502    0  0.19185016160E+03 -0.68953629767E+03  0.44797780760E+03  0.84436420248E+03  0.25500000920E-02 0. -1.
       -2    1    3    3    0  502 -0.19185016160E+03  0.68953629767E+03  0.24380794632E+03  0.75611447877E+03  0.25500000920E-02 0.  1.
</event>
<event>
 5   0  0.2195980E-03  0.1407687E+04  0.7818609E-02  0.8948273E-01
       -2   -1    0    0    0  501  0.00000000000E+00  0.00000000000E+00  0.50418028611E+03  0.50418028611E+03  0.25500000920E-02 0. -1.
        2   -1    0    0  501    0  0.00000000000E+00  0.00000000000E+00 -0.98257630023E+03  0.98257630024E+03  0.25500000920E-02 0.  1.
    10030    2    1    2    0    0  0.00000000000E+00  0.00000000000E+00 -0.47839601413E+03  0.14867565863E+04  0.14076868973E+04 0.  0.
        4    1    3    3  502    0 -0.60664118788E+03 -0.32302423748E+03 -0.78897300035E+02  0.69179808159E+03  0.12699999809E+01 0. -1.
       -4    1    3    3    0  502  0.60664118788E+03  0.32302423748E+03 -0.39949871409E+03  0.79495850476E+03  0.12699999809E+01 0.  1.
</event>
<event>
 5   0  0.2190704E-03  0.1413983E+04  0.7818609E-02  0.8943759E-01
       -2   -1    0    0    0  501  0.00000000000E+00  0.00000000000E+00  0.36341418429E+03  0.36341418430E+03  0.25500000920E-02 0. -1.
        2   -1    0    0  501    0  0.00000000000E+00  0.00000000000E+00 -0.13753912566E+04  0.13753912566E+04  0.25500000920E-02 0.  1.
    10030    2    1    2    0    0  0.00000000000E+00  0.00000000000E+00 -0.10119770723E+04  0.17388054409E+04  0.14139825906E+04 0.  0.
        5    1    3    3  502    0  0.42663239872E+03 -0.15267676989E+03 -0.11733200214E+04  0.12577866919E+04  0.46999998093E+01 0.  1.
       -5    1    3    3    0  502 -0.42663239872E+03  0.15267676989E+03  0.16134294906E+03  0.48101874903E+03  0.46999998093E+01 0. -1.
</event>
<event>
 5   0  0.2190704E-03  0.1435085E+04  0.7818609E-02  0.8928807E-01
        2   -1    0    0  501    0  0.00000000000E+00  0.00000000000E+00  0.10080532399E+04  0.10080532399E+04  0.25500000920E-02 0. -1.
       -2   -1    0    0    0  501  0.00000000000E+00  0.00000000000E+00 -0.51075386562E+03  0.51075386562E+03  0.25500000920E-02 0.  1.
    10030    2    1    2    0    0  0.00000000000E+00  0.00000000000E+00  0.49729937424E+03  0.15188071055E+04  0.14350847905E+04 0.  0.
        5    1    3    3  502    0 -0.25433501824E+03 -0.66138766172E+03  0.36803611315E+03  0.79849396438E+03  0.46999998093E+01 0. -1.
       -5    1    3    3    0  502  0.25433501824E+03  0.66138766172E+03  0.12926326109E+03  0.72031314110E+03  0.46999998093E+01 0.  1.
</event>
<event>
 5   0  0.2236184E-03  0.1394836E+04  0.7818609E-02  0.8957565E-01
        2   -1    0    0  501    0  0.00000000000E+00  0.00000000000E+00  0.10990696573E+04  0.10990696573E+04  0.25500000920E-02 0.  1.
       -2   -1    0    0    0  501  0.00000000000E+00  0.00000000000E+00 -0.44254862859E+03  0.44254862860E+03  0.25500000920E-02 0. -1.
    10030    2    1    2    0    0  0.00000000000E+00  0.00000000000E+00  0.65652102873E+03  0.15416182859E+04  0.13948358607E+04 0.  0.
        3    1    3    3  502    0 -0.65540148475E+03  0.51850453833E+02  0.71065979826E+02  0.66127903299E+03  0.10100000352E+00 0. -1.
       -3    1    3    3    0  502  0.65540148475E+03 -0.51850453833E+02  0.58545504890E+03  0.88033925294E+03  0.10100000352E+00 0.  1.
</event>
<event>
 5   0  0.1210275E-03  0.1273917E+04  0.7818609E-02  0.9050509E-01
        1   -1    0    0  501    0  0.00000000000E+00  0.00000000000E+00  0.11676920108E+04  0.11676920108E+04  0.50400001928E-02 0.  1.
       -1   -1    0    0    0  501  0.00000000000E+00  0.00000000000E+00 -0.34745133817E+03  0.34745133821E+03  0.50400001928E-02 0. -1.
    10030    2    1    2    0    0  0.00000000000E+00  0.00000000000E+00  0.82024067259E+03  0.15151433490E+04  0.12739170330E+04 0.  0.
        1    1    3    3  502    0  0.11684063367E+03  0.51610525913E+03 -0.11556589784E+02  0.52929191093E+03  0.50400001928E-02 0. -1.
       -1    1    3    3    0  502 -0.11684063367E+03 -0.51610525913E+03  0.83179726237E+03  0.98585143804E+03  0.50400001928E-02 0.  1.
</event>
<event>
 5   0  0.1210275E-03  0.1413827E+04  0.7818609E-02  0.8943870E-01
        1   -1    0    0  501    0  0.00000000000E+00  0.00000000000E+00  0.12629471734E+04  0.12629471734E+04  0.50400001928E-02 0. -1.
       -1   -1    0    0    0  501  0.00000000000E+00  0.00000000000E+00 -0.39568290311E+03  0.39568290314E+03  0.50400001928E-02 0.  1.
    10030    2    1    2    0    0  0.00000000000E+00  0.00000000000E+00  0.86726427029E+03  0.16586300765E+04  0.14138268693E+04 0.  0.
        1    1    3    3  502    0  0.64285832314E+03 -0.25581668755E+03  0.60370886439E+03  0.91824473548E+03  0.50400001928E-02 0.  1.
       -1    1    3    3    0  502 -0.64285832314E+03  0.25581668755E+03  0.26355540590E+03  0.74038534107E+03  0.50400001928E-02 0. -1.
</event>
<event>
 5   0  0.2172901E-03  0.1379118E+04  0.7818609E-02  0.8969074E-01
        2   -1    0    0  501    0  0.00000000000E+00  0.00000000000E+00  0.73376119444E+03  0.73376119445E+03  0.25500000920E-02 0. -1.
       -2   -1    0    0    0  501  0.00000000000E+00  0.00000000000E+00 -0.64801932004E+03  0.64801932005E+03  0.25500000920E-02 0.  1.
    10030    2    1    2    0    0  0.00000000000E+00  0.00000000000E+00  0.85741874401E+02  0.13817805145E+04  0.13791177329E+04 0.  0.
        2    1    3    3  502    0 -0.37804720726E+03  0.49721263096E+02 -0.53278127488E+03  0.65517004036E+03  0.25500000920E-02 0.  1.
       -2    1    3    3    0  502  0.37804720726E+03 -0.49721263096E+02  0.61852314928E+03  0.72661047413E+03  0.25500000920E-02 0. -1.
</event>
<event>
 5   0  0.2195980E-03  0.1419498E+04  0.7818609E-02  0.8939825E-01
       -2   -1    0    0    0  501  0.00000000000E+00  0.00000000000E+00  0.81955486071E+03  0.81955486072E+03  0.25500000920E-02 0.  1.
        2   -1    0    0  501    0  0.00000000000E+00  0.00000000000E+00 -0.61465515889E+03  0.61465515889E+03  0.25500000920E-02 0. -1.
    10030    2    1    2    0    0  0.00000000000E+00  0.00000000000E+00  0.20489970183E+03  0.14342100196E+04  0.14194979720E+04 0.  0.
        4    1    3    3  502    0 -0.36687564668E+02  0.17050220554E+03 -0.59266683190E+03  0.61779654096E+03  0.12699999809E+01 0. -1.
       -4    1    3    3    0  502  0.36687564668E+02 -0.17050220554E+03  0.79756653372E+03  0.81641347864E+03  0.12699999809E+01 0.  1.
</event>
<event>
 5   0  0.1199720E-03  0.1388982E+04  0.7818609E-02  0.8961833E-01
       -1   -1    0    0    0  501  0.00000000000E+00  0.00000000000E+00  0.42511536739E+03  0.42511536742E+03  0.50400001928E-02 0.  1.
        1   -1    0    0  501    0  0.00000000000E+00  0.00000000000E+00 -0.11345571173E+04  0.11345571173E+04  0.50400001928E-02 0. -1.
    10030    2    1    2    0    0  0.00000000000E+00  0.00000000000E+00 -0.70944174994E+03  0.15596724848E+04  0.13889818801E+04 0.  0.
        5    1    3    3  502    0 -0.16257973576E+02 -0.18082216644E+02  0.42461933874E+03  0.42534099391E+03  0.46999998093E+01 0.  1.
       -5    1    3    3    0  502  0.16257973576E+02  0.18082216644E+02 -0.11340610887E+04  0.11343314909E+04  0.46999998093E+01 0. -1.
</event>
<event>
 5   0  0.8293000E-04  0.1452383E+04  0.7818609E-02  0.8916750E-01
        3   -1    0    0  501    0  0.00000000000E+00  0.00000000000E+00  0.16717426102E+04  0.16717426133E+04  0.10100000352E+00 0. -1.
       -3   -1    0    0    0  501  0.00000000000E+00  0.00000000000E+00 -0.31545185881E+03  0.31545187498E+03  0.10100000352E+00 0.  1.
    10030    2    1    2    0    0  0.00000000000E+00  0.00000000000E+00  0.13562907514E+04  0.19871944882E+04  0.14523833281E+04 0.  0.
        1    1    3    3  502    0  0.28307682470E+03  0.38052435916E+03 -0.74285430033E+02  0.48005166570E+03  0.50400001928E-02 0.  1.
       -1    1    3    3    0  502 -0.28307682470E+03 -0.38052435916E+03  0.14305761814E+04  0.15071428225E+04  0.50400001928E-02 0. -1.
</event>
<event>
 5   0  0.2083966E-03  0.1429271E+04  0.7818609E-02  0.8932899E-01
        2   -1    0    0  501    0  0.00000000000E+00  0.00000000000E+00  0.33707052437E+03  0.33707052438E+03  0.25500000920E-02 0. -1.
       -2   -1    0    0    0  501  0.00000000000E+00  0.00000000000E+00 -0.15151257396E+04  0.15151257396E+04  0.25500000920E-02 0.  1.
    10030    2    1    2    0    0  0.00000000000E+00  0.00000000000E+00 -0.11780552152E+04  0.18521962639E+04  0.14292714613E+04 0.  0.
        1    1    3    3  502    0  0.57361141055E+03 -0.37582127279E+03 -0.84960566236E+03  0.10918339896E+04  0.50400001928E-02 0.  1.
       -1    1    3    3    0  502 -0.57361141055E+03  0.37582127279E+03 -0.32844955283E+03  0.76036227430E+03  0.50400001928E-02 0. -1.
</event>
<event>
 5   0  0.1199720E-03  0.1410673E+04  0.7818609E-02  0.8946129E-01
       -1   -1    0    0    0  501  0.00000000000E+00  0.00000000000E+00  0.33605460492E+03  0.33605460495E+03  0.50400001928E-02 0. -1.
        1   -1    0    0  501    0  0.00000000000E+00  0.00000000000E+00 -0.14804127178E+04  0.14804127178E+04  0.50400001928E-02 0.  1.
    10030    2    1    2    0    0  0.00000000000E+00  0.00000000000E+00 -0.11443581129E+04  0.18164673228E+04  0.14106729047E+04 0.  0.
        5    1    3    3  502    0  0.21295102554E+03  0.66181195787E+03 -0.41909248419E+03  0.81179049462E+03  0.46999998093E+01 0.  1.
       -5    1    3    3    0  502 -0.21295102554E+03 -0.66181195787E+03 -0.72526562873E+03  0.10046768282E+04  0.46999998093E+01 0. -1.
</event>
<event>
 5   0  0.1225690E-03  0.1373266E+04  0.7818609E-02  0.8973400E-01
        1   -1    0    0  501    0  0.00000000000E+00  0.00000000000E+00  0.59241667799E+03  0.59241667801E+03  0.50400001928E-02 0.  1.
       -1   -1    0    0    0  501  0.00000000000E+00  0.00000000000E+00 -0.79583373779E+03  0.79583373781E+03  0.50400001928E-02 0. -1.
    10030    2    1    2    0    0  0.00000000000E+00  0.00000000000E+00 -0.20341705981E+03  0.13882504158E+04  0.13732664406E+04 0.  0.
        4    1    3    3  502    0 -0.10694478726E+03 -0.57413425804E+03 -0.46675279252E+03  0.74761428290E+03  0.12699999809E+01 0. -1.
       -4    1    3    3    0  502  0.10694478726E+03  0.57413425804E+03  0.26333573271E+03  0.64063613292E+03  0.12699999809E+01 0.  1.
</event>
<event>
 5   0  0.1210275E-03  0.1236076E+04  0.7818609E-02  0.9081852E-01
        1   -1    0    0  501    0  0.00000000000E+00  0.00000000000E+00  0.54142674635E+03  0.54142674637E+03  0.50400001928E-02 0. -1.
       -1   -1    0    0    0  501  0.00000000000E+00  0.00000000000E+00 -0.70549006492E+03  0.70549006494E+03  0.50400001928E-02 0.  1.
    10030    2    1    2    0    0  0.00000000000E+00  0.00000000000E+00 -0.16406331858E+03  0.12469168113E+04  0.12360763576E+04 0.  0.
        1    1    3    3  502    0  0.15441026011E+02  0.61229398093E+03  0.13299023697E+01  0.61249009219E+03  0.50400001928E-02 0.  1.
       -1    1    3    3    0  502 -0.15441026011E+02 -0.61229398093E+03 -0.16539322095E+03  0.63442671912E+03  0.50400001928E-02 0. -1.
</event>
<event>
 5   0  0.1210275E-03  0.1404733E+04  0.7818609E-02  0.8950399E-01
       -1   -1    0    0    0  501  0.00000000000E+00  0.00000000000E+00  0.56933700538E+03  0.56933700540E+03  0.50400001928E-02 0. -1.
        1   -1    0    0  501    0  0.00000000000E+00  0.00000000000E+00 -0.86647971860E+03  0.86647971861E+03  0.50400001928E-02 0.  1.
    10030    2    1    2    0    0  0.00000000000E+00  0.00000000000E+00 -0.29714271322E+03  0.14358167240E+04  0.14047333814E+04 0.  0.
        1    1    3    3  502    0 -0.11266182657E+03 -0.53215927095E+03 -0.60273749133E+03  0.81189818346E+03  0.50400001928E-02 0.  1.
       -1    1    3    3    0  502  0.11266182657E+03  0.53215927095E+03  0.30559477811E+03  0.62391854056E+03  0.50400001928E-02 0. -1.
</event>
<event>
 5   0  0.1210275E-03  0.9872510E+03  0.7818609E-02  0.9322639E-01
       -1   -1    0    0    0  501  0.00000000000E+00  0.00000000000E+00  0.14460019294E+03  0.14460019302E+03  0.50400001928E-02 0. -1.
        1   -1    0    0  501    0  0.00000000000E+00  0.00000000000E+00 -0.16851025222E+04  0.16851025222E+04  0.50400001928E-02 0.  1.
    10030    2    1    2    0    0  0.00000000000E+00  0.00000000000E+00 -0.15405023293E+04  0.18297027153E+04  0.98725103174E+03 0.  0.
        1    1    3    3  502    0 -0.56608143355E+02 -0.40762584390E+03 -0.26506012238E+03  0.48951014189E+03  0.50400001928E-02 0.  1.
       -1    1    3    3    0  502  0.56608143355E+02  0.40762584390E+03 -0.12754422069E+04  0.13401925734E+04  0.50400001928E-02 0. -1.
</event>
<event>
 5   0  0.8293000E-04  0.1415678E+04  0.7818609E-02  0.8942548E-01
       -4   -1    0    0    0  501  0.00000000000E+00  0.00000000000E+00  0.60790397447E+03  0.60790530108E+03  0.12699999809E+01 0.  1.
        4   -1    0    0  501    0  0.00000000000E+00  0.00000000000E+00 -0.82419976257E+03  0.82420074103E+03  0.12699999809E+01 0. -1.
    10030    2    1    2    0    0  0.00000000000E+00  0.00000000000E+00 -0.21629578809E+03  0.14321060421E+04  0.14156778758E+04 0.  0.
        3    1    3    3  502    0 -0.25421810841E+03 -0.29196265254E+03  0.49132220809E+03  0.62551303703E+03  0.10100000352E+00 0.  1.
       -3    1    3    3    0  502  0.25421810841E+03  0.29196265254E+03 -0.70761799619E+03  0.80659300509E+03  0.10100000352E+00 0. -1.
</event>
<event>
 5   0  0.1199720E-03  0.1442683E+04  0.7818609E-02  0.8923489E-01
        1   -1    0    0  501    0  0.00000000000E+00  0.00000000000E+00  0.12539361955E+04  0.12539361955E+04  0.50400001928E-02 0. -1.
       -1   -1    0    0    0  501  0.00000000000E+00  0.00000000000E+00 -0.41496039998E+03  0.41496040001E+03  0.50400001928E-02 0.  1.
    10030    2    1    2    0    0  0.00000000000E+00  0.00000000000E+00  0.83897579552E+03  0.16688965955E+04  0.14426834237E+04 0.  0.
        5    1    3    3  502    0 -0.13890368179E+02 -0.33009279094E+03 -0.32227061422E+03  0.46155674814E+03  0.46999998093E+01 0.  1.
       -5    1    3    3    0  502  0.13890368179E+02  0.33009279094E+03  0.11612464097E+04  0.12073398474E+04  0.46999998093E+01 0. -1.
</event>
<event>
 5   0  0.2236184E-03  0.1422527E+04  0.7818609E-02  0.8937672E-01
       -2   -1    0    0    0  501  0.00000000000E+00  0.00000000000E+00  0.22726937859E+03  0.22726937861E+03  0.25500000920E-02 0.  1.
        2   -1    0    0  501    0  0.00000000000E+00  0.00000000000E+00 -0.22259728003E+04  0.22259728003E+04  0.25500000920E-02 0. -1.
    10030    2    1    2    0    0  0.00000000000E+00  0.00000000000E+00 -0.19987034217E+04  0.24532421789E+04  0.14225265623E+04 0.  0.
        3    1    3    3  502    0 -0.34343349316E+03 -0.15074102305E+03  0.42871873387E+02  0.37750156024E+03  0.10100000352E+00 0.  1.
       -3    1    3    3    0  502  0.34343349316E+03  0.15074102305E+03 -0.20415752951E+04  0.20757406187E+04  0.10100000352E+00 0. -1.
</event>
<event>
 5   0  0.1175374E-03  0.1410170E+04  0.7818609E-02  0.8946490E-01
       -1   -1    0    0    0  501  0.00000000000E+00  0.00000000000E+00  0.56201623971E+03  0.56201623973E+03  0.50400001928E-02 0.  1.
        1   -1    0    0  501    0  0.00000000000E+00  0.00000000000E+00 -0.88457322885E+03  0.88457322886E+03  0.50400001928E-02 0. -1.
    10030    2    1    2    0    0  0.00000000000E+00  0.00000000000E+00 -0.32255698913E+03  0.14465894686E+04  0.14101695215E+04 0.  0.
        3    1    3    3  502    0 -0.57136343586E+03 -0.40367424335E+03 -0.71055661557E+02  0.70317706719E+03  0.10100000352E+00 0. -1.
       -3    1    3    3    0  502  0.57136343586E+03  0.40367424335E+03 -0.25150132758E+03  0.74341240140E+03  0.10100000352E+00 0.  1.
</event>
<event>
 5   0  0.1238683E-03  0.1412349E+04  0.7818609E-02  0.8944928E-01
       -1   -1    0    0    0  501  0.00000000000E+00  0.00000000000E+00  0.50352074342E+03  0.50352074344E+03  0.50400001928E-02 0. -1.
        1   -1    0    0  501    0  0.00000000000E+00  0.00000000000E+00 -0.99039104178E+03  0.99039104180E+03  0.50400001928E-02 0.  1.
    10030    2    1    2    0    0  0.00000000000E+00  0.00000000000E+00 -0.48687029837E+03  0.14939117852E+04  0.14123490130E+04 0.  0.
        2    1    3    3  502    0  0.12263915604E+03  0.47857824730E+03  0.29028835520E+03  0.57301381358E+03  0.25500000920E-02 0. -1.
       -2    1    3    3    0  502 -0.12263915604E+03 -0.47857824730E+03 -0.77715865357E+03  0.92089797166E+03  0.25500000920E-02 0.  1.
</event>
<event>
 5   0  0.2190704E-03  0.1299983E+04  0.7818609E-02  0.9029578E-01
       -2   -1    0    0    0  501  0.00000000000E+00  0.00000000000E+00  0.24122867763E+03  0.24122867764E+03  0.25500000920E-02 0. -1.
        2   -1    0    0  501    0  0.00000000000E+00  0.00000000000E+00 -0.17514055029E+04  0.17514055029E+04  0.25500000920E-02 0.  1.
    10030    2    1    2    0    0  0.00000000000E+00  0.00000000000E+00 -0.15101768253E+04  0.19926341806E+04  0.12999834360E+04 0.  0.
        5    1    3    3  502    0  0.15795859152E+03 -0.35426311379E+02  0.20980764951E+03  0.26504203433E+03  0.46999998093E+01 0. -1.
       -5    1    3    3    0  502 -0.15795859152E+03  0.35426311379E+02 -0.17199844748E+04  0.17275921462E+04  0.46999998093E+01 0.  1.
</event>
<event>
 5   0  0.2236184E-03  0.1387852E+04  0.7818609E-02  0.8962659E-01
       -2   -1    0    0    0  501  0.00000000000E+00  0.00000000000E+00  0.31335794503E+03  0.31335794504E+03  0.25500000920E-02 0. -1.
        2   -1    0    0  501    0  0.00000000000E+00  0.00000000000E+00 -0.15366875462E+04  0.15366875462E+04  0.25500000920E-02 0.  1.
    10030    2    1    2    0    0  0.00000000000E+00  0.00000000000E+00 -0.12233296012E+04  0.18500454913E+04  0.13878519397E+04 0.  0.
        3    1    3    3  502    0 -0.33337054474E+03 -0.18044902527E+02  0.19926303859E+03  0.38880240143E+03  0.10100000352E+00 0. -1.
       -3    1    3    3    0  502  0.33337054474E+03  0.18044902527E+02 -0.14225926398E+04  0.14612430899E+04  0.10100000352E+00 0.  1.
</event>
<event>
 5   0  0.1210275E-03  0.1451826E+04  0.7818609E-02  0.8917135E-01
        1   -1    0    0  501    0  0.00000000000E+00  0.00000000000E+00  0.68633729173E+03  0.68633729175E+03  0.50400001928E-02 0.  1.
       -1   -1    0    0    0  501  0.00000000000E+00  0.00000000000E+00 -0.76777080250E+03  0.76777080252E+03  0.50400001928E-02 0. -1.
    10030    2    1    2    0    0  0.00000000000E+00  0.00000000000E+00 -0.81433510769E+02  0.14541080943E+04  0.14518260685E+04 0.  0.
        1    1    3    3  502    0  0.29734477092E+03 -0.81689809314E+02  0.61747872688E+03  0.69019353511E+03  0.50400001928E-02 0.  1.
       -1    1    3    3    0  502 -0.29734477092E+03  0.81689809314E+02 -0.69891223765E+03  0.76391455916E+03  0.50400001928E-02 0. -1.
</event>
<event>
 5   0  0.2195980E-03  0.1269526E+04  0.7818609E-02  0.9054086E-01
        2   -1    0    0  501    0  0.00000000000E+00  0.00000000000E+00  0.13344093105E+04  0.13344093105E+04  0.25500000920E-02 0.  1.
       -2   -1    0    0    0  501  0.00000000000E+00  0.00000000000E+00 -0.30194946492E+03  0.30194946493E+03  0.25500000920E-02 0. -1.
    10030    2    1    2    0    0  0.00000000000E+00  0.00000000000E+00  0.10324598456E+04  0.16363587754E+04  0.12695261751E+04 0.  0.
        4    1    3    3  502    0  0.87484863196E+02 -0.15282946522E+03  0.13022923439E+04  0.13141451246E+04  0.12699999809E+01 0.  1.
       -4    1    3    3    0  502 -0.87484863196E+02  0.15282946522E+03 -0.26983249830E+03  0.32221365081E+03  0.12699999809E+01 0. -1.
</event>
<event>
 5   0  0.2083966E-03  0.1396132E+04  0.7818609E-02  0.8956623E-01
        2   -1    0    0  501    0  0.00000000000E+00  0.00000000000E+00  0.15696511192E+04  0.15696511192E+04  0.25500000920E-02 0.  1.
       -2   -1    0    0    0  501  0.00000000000E+00  0.00000000000E+00 -0.31044885648E+03  0.31044885649E+03  0.25500000920E-02 0. -1.
    10030    2    1    2    0    0  0.00000000000E+00  0.00000000000E+00  0.12592022627E+04  0.18800999757E+04  0.13961323648E+04 0.  0.
        1    1    3    3  502    0  0.42903983372E+03  0.10959828343E+03 -0.97102060574E+02  0.45333847492E+03  0.50400001928E-02 0. -1.
       -1    1    3    3    0  502 -0.42903983372E+03 -0.10959828343E+03  0.13563043233E+04  0.14267615008E+04  0.50400001928E-02 0.  1.
</event>
<event>
 5   0  0.2236184E-03  0.1391898E+04  0.7818609E-02  0.8959704E-01
       -2   -1    0    0    0  501  0.00000000000E+00  0.00000000000E+00  0.69790915538E+03  0.69790915539E+03  0.25500000920E-02 0. -1.
        2   -1    0    0  501    0  0.00000000000E+00  0.00000000000E+00 -0.69399481031E+03  0.69399481031E+03  0.25500000920E-02 0.  1.
    10030    2    1    2    0    0  0.00000000000E+00  0.00000000000E+00  0.39143450743E+01  0.13919039657E+04  0.13918984617E+04 0.  0.
        3    1    3    3  502    0 -0.29597139681E+03 -0.13607866440E+03 -0.61304839033E+03  0.69422244974E+03  0.10100000352E+00 0.  1.
       -3    1    3    3    0  502  0.29597139681E+03  0.13607866440E+03  0.61696273541E+03  0.69768151596E+03  0.10100000352E+00 0. -1.
</event>
<event>
 5   0  0.1199720E-03  0.1340103E+04  0.7818609E-02  0.8998354E-01
       -1   -1    0    0    0  501  0.00000000000E+00  0.00000000000E+00  0.23603511863E+03  0.23603511868E+03  0.50400001928E-02 0.  1.
        1   -1    0    0  501    0  0.00000000000E+00  0.00000000000E+00 -0.19021271922E+04  0.19021271922E+04  0.50400001928E-02 0. -1.
    10030    2    1    2    0    0  0.00000000000E+00  0.00000000000E+00 -0.16660920736E+04  0.21381623109E+04  0.13401027088E+04 0.  0.
        5    1    3    3  502    0 -0.24631879080E+03 -0.53667065988E+03 -0.32784651089E+03  0.67542117866E+03  0.46999998093E+01 0.  1.
       -5    1    3    3    0  502  0.24631879080E+03  0.53667065988E+03 -0.13382455627E+04  0.14627411322E+04  0.46999998093E+01 0. -1.
</event>
<event>
 5   0  0.1238683E-03  0.1378190E+04  0.7818609E-02  0.8969759E-01
       -1   -1    0    0    0  501  0.00000000000E+00  0.00000000000E+00  0.12164765211E+04  0.12164765211E+04  0.50400001928E-02 0.  1.
        1   -1    0    0  501    0  0.00000000000E+00  0.00000000000E+00 -0.39035019451E+03  0.39035019454E+03  0.50400001928E-02 0. -1.
    10030    2    1    2    0    0  0.00000000000E+00  0.00000000000E+00  0.82612632662E+03  0.16068267157E+04  0.13781898950E+04 0.  0.
        2    1    3    3  502    0 -0.21024351296E+02  0.62671635446E+03  0.79942174891E+02  0.63214410037E+03  0.25500000920E-02 0. -1.
       -2    1    3    3    0  502  0.21024351296E+02 -0.62671635446E+03  0.74618415173E+03  0.97468261531E+03  0.25500000920E-02 0.  1.
</event>
<event>
 5   0  0.1210275E-03  0.1400199E+04  0.7818609E-02  0.8953675E-01
       -1   -1    0    0    0  501  0.00000000000E+00  0.00000000000E+00  0.40996278218E+03  0.40996278221E+03  0.50400001928E-02 0.  1.
        1   -1    0    0  501    0  0.00000000000E+00  0.00000000000E+00 -0.11955702473E+04  0.11955702473E+04  0.50400001928E-02 0. -1.
    10030    2    1    2    0    0  0.00000000000E+00  0.00000000000E+00 -0.78560746509E+03  0.16055330295E+04  0.14001989929E+04 0.  0.
        1    1    3    3  502    0  0.48943305552E+03 -0.49948182114E+03 -0.43104914714E+03  0.82148047619E+03  0.50400001928E-02 0.  1.
       -1    1    3    3    0  502 -0.48943305552E+03  0.49948182114E+03 -0.35455831795E+03  0.78405255330E+03  0.50400001928E-02 0. -1.
</event>
<event>
 5   0  0.2172901E-03  0.1392701E+04  0.7818609E-02  0.8959119E-01
        2   -1    0    0  501    0  0.00000000000E+00  0.00000000000E+00  0.34224196143E+03  0.34224196143E+03  0.25500000920E-02 0.  1.
       -2   -1    0    0    0  501  0.00000000000E+00  0.00000000000E+00 -0.14168451090E+04  0.14168451090E+04  0.25500000920E-02 0. -1.
    10030    2    1    2    0    0  0.00000000000E+00  0.00000000000E+00 -0.10746031476E+04  0.17590870704E+04  0.13927007563E+04 0.  0.
        2    1    3    3  502    0  0.15458274749E+03 -0.67854544068E+03 -0.56782801633E+03  0.89819173734E+03  0.25500000920E-02 0. -1.
       -2    1    3    3    0  502 -0.15458274749E+03  0.67854544068E+03 -0.50677513123E+03  0.86089533309E+03  0.25500000920E-02 0.  1.
</event>
<event>
 5   0  0.2195980E-03  0.1392752E+04  0.7818609E-02  0.8959082E-01
        2   -1    0    0  501    0  0.00000000000E+00  0.00000000000E+00  0.13535338327E+04  0.13535338327E+04  0.25500000920E-02 0.  1.
       -2   -1    0    0    0  501  0.00000000000E+00  0.00000000000E+00 -0.35827668073E+03  0.35827668073E+03  0.25500000920E-02 0. -1.
    10030    2    1    2    0    0  0.00000000000E+00  0.00000000000E+00  0.99525715199E+03  0.17118105134E+04  0.13927521084E+04 0.  0.
        4    1    3    3  502    0  0.76805981566E+02  0.60313891363E+03  0.80350581024E+02  0.61329726618E+03  0.12699999809E+01 0. -1.
       -4    1    3    3    0  502 -0.76805981566E+02 -0.60313891363E+03  0.91490657096E+03  0.10985132473E+04  0.12699999809E+01 0.  1.
</event>
<event>
 5   0  0.1238683E-03  0.1347644E+04  0.7818609E-02  0.8992613E-01
       -1   -1    0    0    0  501  0.00000000000E+00  0.00000000000E+00  0.68128680332E+03  0.68128680334E+03  0.50400001928E-02 0.  1.
        1   -1    0    0  501    0  0.00000000000E+00  0.00000000000E+00 -0.66643928927E+03  0.66643928929E+03  0.50400001928E-02 0. -1.
    10030    2    1    2    0    0  0.00000000000E+00  0.00000000000E+00  0.14847514051E+02  0.13477260926E+04  0.13476443047E+04 0.  0.
        2    1    3    3  502    0  0.22382263136E+03 -0.18295390275E+03  0.61612118642E+03  0.68056889232E+03  0.25500000920E-02 0.  1.
       -2    1    3    3    0  502 -0.22382263136E+03  0.18295390275E+03 -0.60127367237E+03  0.66715720031E+03  0.25500000920E-02 0. -1.
</event>
<event>
 5   0  0.1199720E-03  0.1204689E+04  0.7818609E-02  0.9108762E-01
       -1   -1    0    0    0  501  0.00000000000E+00  0.00000000000E+00  0.45451222401E+03  0.45451222404E+03  0.50400001928E-02 0. -1.
        1   -1    0    0  501    0  0.00000000000E+00  0.00000000000E+00 -0.79826055967E+03  0.79826055969E+03  0.50400001928E-02 0.  1.
    10030    2    1    2    0    0  0.00000000000E+00  0.00000000000E+00 -0.34374833566E+03  0.12527727837E+04  0.12046894743E+04 0.  0.
        5    1    3    3  502    0  0.10890201884E+03  0.44262609524E+02 -0.78619661277E+03  0.79495033319E+03  0.46999998093E+01 0.  1.
       -5    1    3    3    0  502 -0.10890201884E+03 -0.44262609524E+02  0.44244827710E+03  0.45782245054E+03  0.46999998093E+01 0. -1.
</event>
<event>
 5   0  0.1238683E-03  0.1390763E+04  0.7818609E-02  0.8960532E-01
       -1   -1    0    0    0  501  0.00000000000E+00  0.00000000000E+00  0.12521965075E+04  0.12521965075E+04  0.50400001928E-02 0. -1.
        1   -1    0    0  501    0  0.00000000000E+00  0.00000000000E+00 -0.38616580089E+03  0.38616580092E+03  0.50400001928E-02 0.  1.
    10030    2    1    2    0    0  0.00000000000E+00  0.00000000000E+00  0.86603070657E+03  0.16383623084E+04  0.13907630527E+04 0.  0.
        2    1    3    3  502    0 -0.67005488440E+03 -0.85115581155E+02  0.62779082771E+03  0.92213856531E+03  0.25500000920E-02 0. -1.
       -2    1    3    3    0  502  0.67005488440E+03  0.85115581155E+02  0.23823987886E+03  0.71622374308E+03  0.25500000920E-02 0.  1.
</event>
<event>
 5   0  0.8293000E-04  0.1312511E+04  0.7818609E-02  0.9019702E-01
        3   -1    0    0  501    0  0.00000000000E+00  0.00000000000E+00  0.17977632587E+03  0.17977635424E+03  0.10100000352E+00 0.  1.
       -3   -1    0    0    0  501  0.00000000000E+00  0.00000000000E+00 -0.23955963754E+04  0.23955963775E+04  0.10100000352E+00 0. -1.
    10030    2    1    2    0    0  0.00000000000E+00  0.00000000000E+00 -0.22158200495E+04  0.25753727317E+04  0.13125114154E+04 0.  0.
        4    1    3    3  502    0  0.25894223334E+03  0.51522438180E+03 -0.49314345205E+03  0.75874852290E+03  0.12699999809E+01 0.  1.
       -4    1    3    3    0  502 -0.25894223334E+03 -0.51522438180E+03 -0.17226765975E+04  0.18166242088E+04  0.12699999809E+01 0. -1.
</event>
<event>
 5   0  0.2172901E-03  0.1414303E+04  0.7818609E-02  0.8943530E-01
       -2   -1    0    0    0  501  0.00000000000E+00  0.00000000000E+00  0.64511602930E+03  0.64511602930E+03  0.25500000920E-02 0. -1.
        2   -1    0    0  501    0  0.00000000000E+00  0.00000000000E+00 -0.77515294058E+03  0.77515294058E+03  0.25500000920E-02 0.  1.
    10030    2    1    2    0    0  0.00000000000E+00  0.00000000000E+00 -0.13003691128E+03  0.14202689699E+04  0.14143034853E+04 0.  0.
        2    1    3    3  502    0  0.49089812903E+03 -0.21959531155E+03 -0.52615083335E+03  0.75235481881E+03  0.25500000920E-02 0.  1.
       -2    1    3    3    0  502 -0.49089812903E+03  0.21959531155E+03  0.39611392207E+03  0.66791415107E+03  0.25500000920E-02 0. -1.
</event>
<event>
 5   0  0.2236184E-03  0.1265256E+04  0.7818609E-02  0.9057580E-01
        2   -1    0    0  501    0  0.00000000000E+00  0.00000000000E+00  0.59318241321E+03  0.59318241322E+03  0.25500000920E-02 0.  1.
       -2   -1    0    0    0  501  0.00000000000E+00  0.00000000000E+00 -0.67469701370E+03  0.67469701371E+03  0.25500000920E-02 0. -1.
    10030    2    1    2    0    0  0.00000000000E+00  0.00000000000E+00 -0.81514600491E+02  0.12678794269E+04  0.12652563421E+04 0.  0.
        3    1    3    3  502    0 -0.12965310659E+03 -0.35809038541E+03  0.46544315063E+03  0.60139503560E+03  0.10100000352E+00 0.  1.
       -3    1    3    3    0  502  0.12965310659E+03  0.35809038541E+03 -0.54695775112E+03  0.66648439133E+03  0.10100000352E+00 0. -1.
</event>
<event>
 5   0  0.2172901E-03  0.1075965E+04  0.7818609E-02  0.9228940E-01
       -2   -1    0    0    0  501  0.00000000000E+00  0.00000000000E+00  0.48125479035E+03  0.48125479036E+03  0.25500000920E-02 0.  1.
        2   -1    0    0  501    0  0.00000000000E+00  0.00000000000E+00 -0.60139708798E+03  0.60139708799E+03  0.25500000920E-02 0. -1.
    10030    2    1    2    0    0  0.00000000000E+00  0.00000000000E+00 -0.12014229763E+03  0.10826518784E+04  0.10759651100E+04 0.  0.
        2    1    3    3  502    0  0.28985215730E+03  0.40913978342E+03  0.13611644261E+03  0.51955492628E+03  0.25500000920E-02 0.  1.
       -2    1    3    3    0  502 -0.28985215730E+03 -0.40913978342E+03 -0.25625874024E+03  0.56309695207E+03  0.25500000920E-02 0. -1.
</event>
<event>
 5   0  0.1175374E-03  0.1347797E+04  0.7818609E-02  0.8992498E-01
       -1   -1    0    0    0  501  0.00000000000E+00  0.00000000000E+00  0.74989598021E+03  0.74989598022E+03  0.50400001928E-02 0. -1.
        1   -1    0    0  501    0  0.00000000000E+00  0.00000000000E+00 -0.60560253436E+03  0.60560253438E+03  0.50400001928E-02 0.  1.
    10030    2    1    2    0    0  0.00000000000E+00  0.00000000000E+00  0.14429344585E+03  0.13554985146E+04  0.13477965813E+04 0.  0.
        3    1    3    3  502    0  0.95610835992E+02  0.20590762291E+03 -0.56598644622E+03  0.60981968535E+03  0.10100000352E+00 0.  1.
       -3    1    3    3    0  502 -0.95610835992E+02 -0.20590762291E+03  0.71027989206E+03  0.74567882926E+03  0.10100000352E+00 0. -1.
</event>
<event>
 5   0  0.1199720E-03  0.1091144E+04  0.7818609E-02  0.9213867E-01
       -1   -1    0    0    0  501  0.00000000000E+00  0.00000000000E+00  0.40419216869E+03  0.40419216872E+03  0.50400001928E-02 0.  1.
        1   -1    0    0  501    0  0.00000000000E+00  0.00000000000E+00 -0.73640412152E+03  0.73640412154E+03  0.50400001928E-02 0. -1.
    10030    2    1    2    0    0  0.00000000000E+00  0.00000000000E+00 -0.33221195283E+03  0.11405962903E+04  0.10911439482E+04 0.  0.
        5    1    3    3  502    0 -0.28932649522E+02  0.49599421985E+03 -0.40166154013E+03  0.63890644632E+03  0.46999998093E+01 0. -1.
       -5    1    3    3    0  502  0.28932649522E+02 -0.49599421985E+03  0.69449587300E+02  0.50168984393E+03  0.46999998093E+01 0.  1.
</event>
<event>
 5   0  0.2190704E-03  0.1408008E+04  0.7818609E-02  0.8948042E-01
       -2   -1    0    0    0  501  0.00000000000E+00  0.00000000000E+00  0.41704337802E+03  0.41704337803E+03  0.25500000920E-02 0. -1.
        2   -1    0    0  501    0  0.00000000000E+00  0.00000000000E+00 -0.11884173853E+04  0.11884173854E+04  0.25500000920E-02 0.  1.
    10030    2    1    2    0    0  0.00000000000E+00  0.00000000000E+00 -0.77137400733E+03  0.16054607634E+04  0.14080079558E+04 0.  0.
        5    1    3    3  502    0  0.11967085240E+03 -0.54129188589E+03  0.10907735089E+03  0.56501148406E+03  0.46999998093E+01 0. -1.
       -5    1    3    3    0  502 -0.11967085240E+03  0.54129188589E+03 -0.88045135823E+03  0.10404492793E+04  0.46999998093E+01 0.  1.
</event>
<event>
 5   0  0.1199720E-03  0.1465423E+04  0.7818609E-02  0.8907778E-01
        1   -1    0    0  501    0  0.00000000000E+00  0.00000000000E+00  0.16314366323E+04  0.16314366323E+04  0.50400001928E-02 0. -1.
       -1   -1    0    0    0  501  0.00000000000E+00  0.00000000000E+00 -0.32907550687E+03  0.32907550691E+03  0.50400001928E-02 0.  1.
    10030    2    1    2    0    0  0.00000000000E+00  0.00000000000E+00  0.13023611255E+04  0.19605121393E+04  0.14654225831E+04 0.  0.
        5    1    3    3  502    0  0.23917100362E+03  0.36902072946E+03 -0.13287654600E+03  0.45940976722E+03  0.46999998093E+01 0.  1.
       -5    1    3    3    0  502 -0.23917100362E+03 -0.36902072946E+03  0.14352376715E+04  0.15011023720E+04  0.46999998093E+01 0. -1.
</event>
<event>
 5   0  0.1238683E-03  0.1457507E+04  0.7818609E-02  0.8913213E-01
        1   -1    0    0  501    0  0.00000000000E+00  0.00000000000E+00  0.10851385668E+04  0.10851385669E+04  0.50400001928E-02 0.  1.
       -1   -1    0    0    0  501  0.00000000000E+00  0.00000000000E+00 -0.48941336332E+03  0.48941336335E+03  0.50400001928E-02 0. -1.
    10030    2    1    2    0    0  0.00000000000E+00  0.00000000000E+00  0.59572520352E+03  0.15745519302E+04  0.14575065224E+04 0.  0.
        2    1    3    3  502    0  0.37447588671E+03  0.16103780206E+03  0.95045634581E+03  0.10341821062E+04  0.25500000920E-02 0. -1.
       -2    1    3    3    0  502 -0.37447588671E+03 -0.16103780206E+03 -0.35473114229E+03  0.54036982404E+03  0.25500000920E-02 0.  1.
</event>
<event>
 5   0  0.2190704E-03  0.1424556E+04  0.7818609E-02  0.8936233E-01
       -2   -1    0    0    0  501  0.00000000000E+00  0.00000000000E+00  0.36735872233E+03  0.36735872234E+03  0.25500000920E-02 0. -1.
        2   -1    0    0  501    0  0.00000000000E+00  0.00000000000E+00 -0.13810485683E+04  0.13810485683E+04  0.25500000920E-02 0.  1.
    10030    2    1    2    0    0  0.00000000000E+00  0.00000000000E+00 -0.10136898460E+04  0.17484072907E+04  0.14245564047E+04 0.  0.
        5    1    3    3  502    0 -0.64222018087E+03  0.22341090404E+03 -0.24660671348E+03  0.72332299416E+03  0.46999998093E+01 0. -1.
       -5    1    3    3    0  502  0.64222018087E+03 -0.22341090404E+03 -0.76708313253E+03  0.10250842965E+04  0.46999998093E+01 0.  1.
</event>
<event>
 5   0  0.1210275E-03  0.1396635E+04  0.7818609E-02  0.8956258E-01
        1   -1    0    0  501    0  0.00000000000E+00  0.00000000000E+00  0.10541841822E+04  0.10541841822E+04  0.50400001928E-02 0. -1.
       -1   -1    0    0    0  501  0.00000000000E+00  0.00000000000E+00 -0.46258281325E+03  0.46258281327E+03  0.50400001928E-02 0.  1.
    10030    2    1    2    0    0  0.00000000000E+00  0.00000000000E+00  0.59160136896E+03  0.15167669955E+04  0.13966352204E+04 0.  0.
        1    1    3    3  502    0  0.66985977997E+03  0.17344102800E+03  0.39798755161E+03  0.79824056918E+03  0.50400001928E-02 0. -1.
       -1    1    3    3    0  502 -0.66985977997E+03 -0.17344102800E+03  0.19361381734E+03  0.71852642631E+03  0.50400001928E-02 0.  1.
</event>
<event>
 5   0  0.2236184E-03  0.1382640E+04  0.7818609E-02  0.8966481E-01
        2   -1    0    0  501    0  0.00000000000E+00  0.00000000000E+00  0.44348814171E+03  0.44348814172E+03  0.25500000920E-02 0. -1.
       -2   -1    0    0    0  501  0.00000000000E+00  0.00000000000E+00 -0.10776462224E+04  0.10776462224E+04  0.25500000920E-02 0.  1.
    10030    2    1    2    0    0  0.00000000000E+00  0.00000000000E+00 -0.63415808065E+03  0.15211343641E+04  0.13826399684E+04 0.  0.
        3    1    3    3  502    0  0.39321753765E+03  0.39598382570E+03 -0.76599568128E+03  0.94771969278E+03  0.10100000352E+00 0.  1.
       -3    1    3    3    0  502 -0.39321753765E+03 -0.39598382570E+03  0.13183760063E+03  0.57341467131E+03  0.10100000352E+00 0. -1.
</event>
<event>
 5   0  0.2083966E-03  0.1379652E+04  0.7818609E-02  0.8968681E-01
        2   -1    0    0  501    0  0.00000000000E+00  0.00000000000E+00  0.13087015014E+04  0.13087015014E+04  0.25500000920E-02 0. -1.
       -2   -1    0    0    0  501  0.00000000000E+00  0.00000000000E+00 -0.36361226416E+03  0.36361226417E+03  0.25500000920E-02 0.  1.
    10030    2    1    2    0    0  0.00000000000E+00  0.00000000000E+00  0.94508923721E+03  0.16723137655E+04  0.13796520083E+04 0.  0.
        1    1    3    3  502    0 -0.41173166249E+03 -0.50560932549E+03  0.74546486647E+03  0.99039467844E+03  0.50400001928E-02 0. -1.
       -1    1    3    3    0  502  0.41173166249E+03  0.50560932549E+03  0.19962437073E+03  0.68191908709E+03  0.50400001928E-02 0.  1.
</event>
<event>
 5   0  0.2236184E-03  0.1387026E+04  0.7818609E-02  0.8963264E-01
       -2   -1    0    0    0  501  0.00000000000E+00  0.00000000000E+00  0.48561917018E+03  0.48561917019E+03  0.25500000920E-02 0.  1.
        2   -1    0    0  501    0  0.00000000000E+00  0.00000000000E+00 -0.99040662704E+03  0.99040662705E+03  0.25500000920E-02 0. -1.
    10030    2    1    2    0    0  0.00000000000E+00  0.00000000000E+00 -0.50478745686E+03  0.14760257972E+04  0.13870262353E+04 0.  0.
        3    1    3    3  502    0  0.55121242820E+03 -0.40625229919E+03 -0.36937629508E+03  0.77801987710E+03  0.10100000352E+00 0.  1.
       -3    1    3    3    0  502 -0.55121242820E+03  0.40625229919E+03 -0.13541116178E+03  0.69800592013E+03  0.10100000352E+00 0. -1.
</event>
<event>
 5   0  0.8293000E-04  0.1403984E+04  0.7818609E-02  0.8950940E-01
       -4   -1    0    0    0  501  0.00000000000E+00  0.00000000000E+00  0.28460900059E+03  0.28461183412E+03  0.12699999809E+01 0.  1.
        4   -1    0    0  501    0  0.00000000000E+00  0.00000000000E+00 -0.17314604085E+04  0.17314608742E+04  0.12699999809E+01 0. -1.
    10030    2    1    2    0    0  0.00000000000E+00  0.00000000000E+00 -0.14468514079E+04  0.20160727084E+04  0.14039836783E+04 0.  0.
        3    1    3    3  502    0  0.54189924654E+03 -0.41555305496E+03 -0.48987302265E+03  0.84042532292E+03  0.10100000352E+00 0. -1.
       -3    1    3    3    0  502 -0.54189924654E+03  0.41555305496E+03 -0.95697838524E+03  0.11756473854E+04  0.10100000352E+00 0.  1.
</event>
<event>
 5   0  0.2195980E-03  0.1442786E+04  0.7818609E-02  0.8923417E-01
        2   -1    0    0  501    0  0.00000000000E+00  0.00000000000E+00  0.75373553685E+03  0.75373553686E+03  0.25500000920E-02 0. -1.
       -2   -1    0    0    0  501  0.00000000000E+00  0.00000000000E+00 -0.69043806776E+03  0.69043806776E+03  0.25500000920E-02 0.  1.
    10030    2    1    2    0    0  0.00000000000E+00  0.00000000000E+00  0.63297469094E+02  0.14441736046E+04  0.14427857882E+04 0.  0.
        4    1    3    3  502    0 -0.45572901777E+03 -0.43179621396E+03 -0.32403682935E+03  0.70649726659E+03  0.12699999809E+01 0.  1.
       -4    1    3    3    0  502  0.45572901777E+03  0.43179621396E+03  0.38733429845E+03  0.73767633802E+03  0.12699999809E+01 0. -1.
</event>
<event>
 5   0  0.1199720E-03  0.1416386E+04  0.7818609E-02  0.8942043E-01
       -1   -1    0    0    0  501  0.00000000000E+00  0.00000000000E+00  0.27145284472E+03  0.27145284477E+03  0.50400001928E-02 0.  1.
        1   -1    0    0  501    0  0.00000000000E+00  0.00000000000E+00 -0.18476025920E+04  0.18476025920E+04  0.50400001928E-02 0. -1.
    10030    2    1    2    0    0  0.00000000000E+00  0.00000000000E+00 -0.15761497472E+04  0.21190554367E+04  0.14163855119E+04 0.  0.
        5    1    3    3  502    0 -0.38726313106E+03 -0.40346082817E+03 -0.13806856423E+03  0.57605415629E+03  0.46999998093E+01 0.  1.
       -5    1    3    3    0  502  0.38726313106E+03  0.40346082817E+03 -0.14380811830E+04  0.15430012805E+04  0.46999998093E+01 0. -1.
</event>
<event>
 5   0  0.8293000E-04  0.1404083E+04  0.7818609E-02  0.8950869E-01
       -4   -1    0    0    0  501  0.00000000000E+00  0.00000000000E+00  0.89082838909E+03  0.89082929437E+03  0.12699999809E+01 0.  1.
        4   -1    0    0  501    0  0.00000000000E+00  0.00000000000E+00 -0.55326060690E+03  0.55326206453E+03  0.12699999809E+01 0. -1.
    10030    2    1    2    0    0  0.00000000000E+00  0.00000000000E+00  0.33756778219E+03  0.14440913589E+04  0.14040825636E+04 0.  0.
        4    1    3    3  502    0 -0.27383699310E+03  0.18305873281E+03 -0.46885220635E+03  0.57299319608E+03  0.12699999809E+01 0. -1.
       -4    1    3    3    0  502  0.27383699310E+03 -0.18305873281E+03  0.80641998854E+03  0.87109816282E+03  0.12699999809E+01 0.  1.
</event>
<event>
 5   0  0.8293000E-04  0.1396712E+04  0.7818609E-02  0.8956202E-01
        3   -1    0    0  501    0  0.00000000000E+00  0.00000000000E+00  0.71258754350E+03  0.71258755066E+03  0.10100000352E+00 0. -1.
       -3   -1    0    0    0  501  0.00000000000E+00  0.00000000000E+00 -0.68440855080E+03  0.68440855825E+03  0.10100000352E+00 0.  1.
    10030    2    1    2    0    0  0.00000000000E+00  0.00000000000E+00  0.28178992704E+02  0.13969961089E+04  0.13967118789E+04 0.  0.
        5    1    3    3  502    0  0.42485690015E+03 -0.47932791801E+03  0.29239113622E+03  0.70411171353E+03  0.46999998093E+01 0. -1.
       -5    1    3    3    0  502 -0.42485690015E+03  0.47932791801E+03 -0.26421214352E+03  0.69288439538E+03  0.46999998093E+01 0.  1.
</event>
<event>
 5   0  0.8293000E-04  0.1397151E+04  0.7818609E-02  0.8955883E-01
        3   -1    0    0  501    0  0.00000000000E+00  0.00000000000E+00  0.16796165413E+04  0.16796165443E+04  0.10100000352E+00 0.  1.
       -3   -1    0    0    0  501  0.00000000000E+00  0.00000000000E+00 -0.29054713985E+03  0.29054715741E+03  0.10100000352E+00 0. -1.
    10030    2    1    2    0    0  0.00000000000E+00  0.00000000000E+00  0.13890694014E+04  0.19701637017E+04  0.13971511048E+04 0.  0.
        4    1    3    3  502    0  0.32760599375E+03 -0.28107152635E+02 -0.17460211375E+03  0.37229452077E+03  0.12699999809E+01 0. -1.
       -4    1    3    3    0  502 -0.32760599375E+03  0.28107152635E+02  0.15636715152E+04  0.15978691810E+04  0.12699999809E+01 0.  1.
</event>
<event>
 5   0  0.1238683E-03  0.1480182E+04  0.7818609E-02  0.8897740E-01
       -1   -1    0    0    0  501  0.00000000000E+00  0.00000000000E+00  0.59143676355E+03  0.59143676357E+03  0.50400001928E-02 0.  1.
        1   -1    0    0  501    0  0.00000000000E+00  0.00000000000E+00 -0.92610863775E+03  0.92610863777E+03  0.50400001928E-02 0. -1.
    10030    2    1    2    0    0  0.00000000000E+00  0.00000000000E+00 -0.33467187420E+03  0.15175454013E+04  0.14801820097E+04 0.  0.
        2    1    3    3  502    0 -0.37496156101E+03 -0.45784620339E+03  0.28830950241E+03  0.65828693393E+03  0.25500000920E-02 0.  1.
       -2    1    3    3    0  502  0.37496156101E+03  0.45784620339E+03 -0.62298137662E+03  0.85925846741E+03  0.25500000920E-02 0. -1.
</event>
<event>
 5   0  0.1175374E-03  0.1425455E+04  0.7818609E-02  0.8935596E-01
        1   -1    0    0  501    0  0.00000000000E+00  0.00000000000E+00  0.14387409392E+04  0.14387409393E+04  0.50400001928E-02 0. -1.
       -1   -1    0    0    0  501  0.00000000000E+00  0.00000000000E+00 -0.35307314585E+03  0.35307314589E+03  0.50400001928E-02 0.  1.
    10030    2    1    2    0    0  0.00000000000E+00  0.00000000000E+00  0.10856677934E+04  0.17918140851E+04  0.14254554213E+04 0.  0.
        3    1    3    3  502    0 -0.14700378524E+03 -0.25427014077E+03  0.13591343670E+04  0.13905069777E+04  0.10100000352E+00 0. -1.
       -3    1    3    3    0  502  0.14700378524E+03  0.25427014077E+03 -0.27346657362E+03  0.40130710740E+03  0.10100000352E+00 0.  1.
</event>
<event>
 5   0  0.1199720E-03  0.1421545E+04  0.7818609E-02  0.8938369E-01
        1   -1    0    0  501    0  0.00000000000E+00  0.00000000000E+00  0.13330495131E+04  0.13330495131E+04  0.50400001928E-02 0.  1.
       -1   -1    0    0    0  501  0.00000000000E+00  0.00000000000E+00 -0.37897897862E+03  0.37897897866E+03  0.50400001928E-02 0. -1.
    10030    2    1    2    0    0  0.00000000000E+00  0.00000000000E+00  0.95407053447E+03  0.17120284918E+04  0.14215452760E+04 0.  0.
        5    1    3    3  502    0 -0.39617488192E+02 -0.48167130709E+03 -0.15061000593E+03  0.50624327880E+03  0.46999998093E+01 0. -1.
       -5    1    3    3    0  502  0.39617488192E+02  0.48167130709E+03  0.11046805404E+04  0.12057852130E+04  0.46999998093E+01 0.  1.
</event>
<event>
 5   0  0.2190704E-03  0.1384454E+04  0.7818609E-02  0.8965149E-01
       -2   -1    0    0    0  501  0.00000000000E+00  0.00000000000E+00  0.41463754430E+03  0.41463754431E+03  0.25500000920E-02 0. -1.
        2   -1    0    0  501    0  0.00000000000E+00  0.00000000000E+00 -0.11556553394E+04  0.11556553394E+04  0.25500000920E-02 0.  1.
    10030    2    1    2    0    0  0.00000000000E+00  0.00000000000E+00 -0.74101779505E+03  0.15702928837E+04  0.13844538157E+04 0.  0.
        5    1    3    3  502    0  0.28062644013E+03 -0.37427941101E+03 -0.94921189094E+03  0.10582351252E+04  0.46999998093E+01 0.  1.
       -5    1    3    3    0  502 -0.28062644013E+03  0.37427941101E+03  0.20819409588E+03  0.51205775842E+03  0.46999998093E+01 0. -1.
</event>
<event>
 5   0  0.1210275E-03  0.1409999E+04  0.7818609E-02  0.8946612E-01
       -1   -1    0    0    0  501  0.00000000000E+00  0.00000000000E+00  0.79919790179E+03  0.79919790181E+03  0.50400001928E-02 0.  1.
        1   -1    0    0  501    0  0.00000000000E+00  0.00000000000E+00 -0.62190422055E+03  0.62190422057E+03  0.50400001928E-02 0. -1.
    10030    2    1    2    0    0  0.00000000000E+00  0.00000000000E+00  0.17729368124E+03  0.14211021224E+04  0.14099993592E+04 0.  0.
        1    1    3    3  502    0  0.20734952584E+03 -0.59392959022E+03  0.40939539807E+03  0.75056696969E+03  0.50400001928E-02 0. -1.
       -1    1    3    3    0  502 -0.20734952584E+03  0.59392959022E+03 -0.23210171683E+03  0.67053515269E+03  0.50400001928E-02 0.  1.
</event>
<event>
 5   0  0.1199720E-03  0.1404874E+04  0.7818609E-02  0.8950298E-01
       -1   -1    0    0    0  501  0.00000000000E+00  0.00000000000E+00  0.35725259491E+03  0.35725259495E+03  0.50400001928E-02 0.  1.
        1   -1    0    0  501    0  0.00000000000E+00  0.00000000000E+00 -0.13811449698E+04  0.13811449698E+04  0.50400001928E-02 0. -1.
    10030    2    1    2    0    0  0.00000000000E+00  0.00000000000E+00 -0.10238923749E+04  0.17383975647E+04  0.14048738370E+04 0.  0.
        5    1    3    3  502    0  0.34369229426E+03 -0.26404795155E+03  0.17204860739E+03  0.46633520900E+03  0.46999998093E+01 0.  1.
       -5    1    3    3    0  502 -0.34369229426E+03  0.26404795155E+03 -0.11959409822E+04  0.12720623557E+04  0.46999998093E+01 0. -1.
</event>
<event>
 5   0  0.1225690E-03  0.1400135E+04  0.7818609E-02  0.8953721E-01
        1   -1    0    0  501    0  0.00000000000E+00  0.00000000000E+00  0.11988569862E+04  0.11988569862E+04  0.50400001928E-02 0.  1.
       -1   -1    0    0    0  501  0.00000000000E+00  0.00000000000E+00 -0.40880132749E+03  0.40880132752E+03  0.50400001928E-02 0. -1.
    10030    2    1    2    0    0  0.00000000000E+00  0.00000000000E+00  0.79005565867E+03  0.16076583137E+04  0.14001347470E+04 0.  0.
        4    1    3    3  502    0  0.50083994460E+03 -0.19240405655E+03 -0.12132867721E+03  0.55007475119E+03  0.12699999809E+01 0. -1.
       -4    1    3    3    0  502 -0.50083994460E+03  0.19240405655E+03  0.91138433588E+03  0.10575835625E+04  0.12699999809E+01 0.  1.
</event>
<event>
 5   0  0.1238683E-03  0.1422405E+04  0.7818609E-02  0.8937759E-01
       -1   -1    0    0    0  501  0.00000000000E+00  0.00000000000E+00  0.54630526017E+03  0.54630526019E+03  0.50400001928E-02 0. -1.
        1   -1    0    0  501    0  0.00000000000E+00  0.00000000000E+00 -0.92587216134E+03  0.92587216135E+03  0.50400001928E-02 0.  1.
    10030    2    1    2    0    0  0.00000000000E+00  0.00000000000E+00 -0.37956690117E+03  0.14721774215E+04  0.14224047694E+04 0.  0.
        2    1    3    3  502    0  0.64930348768E+03 -0.16460826909E+03  0.57572968584E+02  0.67231357869E+03  0.25500000920E-02 0. -1.
       -2    1    3    3    0  502 -0.64930348768E+03  0.16460826909E+03 -0.43713986975E+03  0.79986384285E+03  0.25500000920E-02 0.  1.
</event>
<event>
 5   0  0.2172901E-03  0.1404084E+04  0.7818609E-02  0.8950868E-01
        2   -1    0    0  501    0  0.00000000000E+00  0.00000000000E+00  0.10553846715E+04  0.10553846715E+04  0.25500000920E-02 0. -1.
       -2   -1    0    0    0  501  0.00000000000E+00  0.00000000000E+00 -0.46699811393E+03  0.46699811394E+03  0.25500000920E-02 0.  1.
    10030    2    1    2    0    0  0.00000000000E+00  0.00000000000E+00  0.58838655755E+03  0.15223827854E+04  0.14040835460E+04 0.  0.
        2    1    3    3  502    0  0.30596518918E+03 -0.39698268674E+03 -0.23880614660E+03  0.55519215252E+03  0.25500000920E-02 0.  1.
       -2    1    3    3    0  502 -0.30596518918E+03  0.39698268674E+03  0.82719270415E+03  0.96719063290E+03  0.25500000920E-02 0. -1.
</event>
<event>
 5   0  0.2236184E-03  0.1430333E+04  0.7818609E-02  0.8932150E-01
        2   -1    0    0  501    0  0.00000000000E+00  0.00000000000E+00  0.11616578489E+04  0.11616578489E+04  0.25500000920E-02 0.  1.
       -2   -1    0    0    0  501  0.00000000000E+00  0.00000000000E+00 -0.44028736699E+03  0.44028736700E+03  0.25500000920E-02 0. -1.
    10030    2    1    2    0    0  0.00000000000E+00  0.00000000000E+00  0.72137048195E+03  0.16019452159E+04  0.14303332138E+04 0.  0.
        3    1    3    3  502    0 -0.18113827076E+02  0.47504458823E+03 -0.23771119151E+03  0.53150925891E+03  0.10100000352E+00 0. -1.
       -3    1    3    3    0  502  0.18113827076E+02 -0.47504458823E+03  0.95908167346E+03  0.10704359570E+04  0.10100000352E+00 0.  1.
</event>
<event>
 5   0  0.2195980E-03  0.1540617E+04  0.7818609E-02  0.8857883E-01
        2   -1    0    0  501    0  0.00000000000E+00  0.00000000000E+00  0.57736309149E+03  0.57736309150E+03  0.25500000920E-02 0. -1.
       -2   -1    0    0    0  501  0.00000000000E+00  0.00000000000E+00 -0.10277331356E+04  0.10277331356E+04  0.25500000920E-02 0.  1.
    10030    2    1    2    0    0  0.00000000000E+00  0.00000000000E+00 -0.45037004414E+03  0.16050962271E+04  0.15406169938E+04 0.  0.
        4    1    3    3  502    0  0.43535605189E+03 -0.63113687142E+03 -0.30248548571E+03  0.82423766254E+03  0.12699999809E+01 0. -1.
       -4    1    3    3    0  502 -0.43535605189E+03  0.63113687142E+03 -0.14788455843E+03  0.78085856459E+03  0.12699999809E+01 0.  1.
</event>
<event>
 5   0  0.1199720E-03  0.1405568E+04  0.7818609E-02  0.8949798E-01
        1   -1    0    0  501    0  0.00000000000E+00  0.00000000000E+00  0.10490121237E+04  0.10490121237E+04  0.50400001928E-02 0. -1.
       -1   -1    0    0    0  501  0.00000000000E+00  0.00000000000E+00 -0.47082894252E+03  0.47082894254E+03  0.50400001928E-02 0.  1.
    10030    2    1    2    0    0  0.00000000000E+00  0.00000000000E+00  0.57818318121E+03  0.15198410663E+04  0.14055678837E+04 0.  0.
        5    1    3    3  502    0 -0.63717623020E+03 -0.23311067418E+03  0.48714687091E+03  0.83526540608E+03  0.46999998093E+01 0. -1.
       -5    1    3    3    0  502  0.63717623020E+03  0.23311067418E+03  0.91036310302E+02  0.68457566020E+03  0.46999998093E+01 0.  1.
</event>
<event>
 5   0  0.2083966E-03  0.1412709E+04  0.7818609E-02  0.8944670E-01
        2   -1    0    0  501    0  0.00000000000E+00  0.00000000000E+00  0.18036935185E+04  0.18036935186E+04  0.25500000920E-02 0.  1.
       -2   -1    0    0    0  501  0.00000000000E+00  0.00000000000E+00 -0.27661926164E+03  0.27661926166E+03  0.25500000920E-02 0. -1.
    10030    2    1    2    0    0  0.00000000000E+00  0.00000000000E+00  0.15270742569E+04  0.20803127802E+04  0.14127085607E+04 0.  0.
        1    1    3    3  502    0 -0.25315630051E+03  0.57318042985E+03  0.28339686436E+03  0.68770466074E+03  0.50400001928E-02 0. -1.
       -1    1    3    3    0  502  0.25315630051E+03 -0.57318042985E+03  0.12436773925E+04  0.13926081195E+04  0.50400001928E-02 0.  1.
</event>
<event>
 5   0  0.2190704E-03  0.1404122E+04  0.7818609E-02  0.8950840E-01
        2   -1    0    0  501    0  0.00000000000E+00  0.00000000000E+00  0.81632414827E+03  0.81632414827E+03  0.25500000920E-02 0. -1.
       -2   -1    0    0    0  501  0.00000000000E+00  0.00000000000E+00 -0.60379190940E+03  0.60379190940E+03  0.25500000920E-02 0.  1.
    10030    2    1    2    0    0  0.00000000000E+00  0.00000000000E+00  0.21253223887E+03  0.14201160577E+04  0.14041223824E+04 0.  0.
        5    1    3    3  502    0 -0.16851526405E+03 -0.35805084186E+03  0.69275928416E+03  0.79783163347E+03  0.46999998093E+01 0. -1.
       -5    1    3    3    0  502  0.16851526405E+03  0.35805084186E+03 -0.48022704529E+03  0.62228442420E+03  0.46999998093E+01 0.  1.
</event>
<event>
 5   0  0.1225690E-03  0.1348989E+04  0.7818609E-02  0.8991594E-01
        1   -1    0    0  501    0  0.00000000000E+00  0.00000000000E+00  0.10859187590E+04  0.10859187590E+04  0.50400001928E-02 0.  1.
       -1   -1    0    0    0  501  0.00000000000E+00  0.00000000000E+00 -0.41894713117E+03  0.41894713120E+03  0.50400001928E-02 0. -1.
    10030    2    1    2    0    0  0.00000000000E+00  0.00000000000E+00  0.66697162779E+03  0.15048658902E+04  0.13489885823E+04 0.  0.
        4    1    3    3  502    0 -0.76525646365E+02 -0.39404574511E+03  0.93816471561E+03  0.10204326878E+04  0.12699999809E+01 0.  1.
       -4    1    3    3    0  502  0.76525646365E+02  0.39404574511E+03 -0.27119308782E+03  0.48443320238E+03  0.12699999809E+01 0. -1.
</event>
<event>
 5   0  0.1238683E-03  0.1394476E+04  0.7818609E-02  0.8957827E-01
       -1   -1    0    0    0  501  0.00000000000E+00  0.00000000000E+00  0.61412490489E+03  0.61412490491E+03  0.50400001928E-02 0. -1.
        1   -1    0    0  501    0  0.00000000000E+00  0.00000000000E+00 -0.79159901591E+03  0.79159901592E+03  0.50400001928E-02 0.  1.
    10030    2    1    2    0    0  0.00000000000E+00  0.00000000000E+00 -0.17747411102E+03  0.14057239208E+04  0.13944757730E+04 0.  0.
        2    1    3    3  502    0 -0.12467764492E+03  0.65874002053E+03 -0.28174354360E+03  0.72722923082E+03  0.25500000920E-02 0.  1.
       -2    1    3    3    0  502  0.12467764492E+03 -0.65874002053E+03  0.10426943258E+03  0.67849469001E+03  0.25500000920E-02 0. -1.
</event>
<event>
 5   0  0.1238683E-03  0.1396329E+04  0.7818609E-02  0.8956480E-01
        1   -1    0    0  501    0  0.00000000000E+00  0.00000000000E+00  0.55817845246E+03  0.55817845249E+03  0.50400001928E-02 0.  1.
       -1   -1    0    0    0  501  0.00000000000E+00  0.00000000000E+00 -0.87325821420E+03  0.87325821422E+03  0.50400001928E-02 0. -1.
    10030    2    1    2    0    0  0.00000000000E+00  0.00000000000E+00 -0.31507976174E+03  0.14314366667E+04  0.13963293575E+04 0.  0.
        2    1    3    3  502    0  0.40344913358E+02 -0.47259468336E+03  0.36764984460E+03  0.60011653453E+03  0.25500000920E-02 0.  1.
       -2    1    3    3    0  502 -0.40344913358E+02  0.47259468336E+03 -0.68272960634E+03  0.83132013217E+03  0.25500000920E-02 0. -1.
</event>
<event>
 5   0  0.1175374E-03  0.1390956E+04  0.7818609E-02  0.8960391E-01
       -1   -1    0    0    0  501  0.00000000000E+00  0.00000000000E+00  0.91939572241E+03  0.91939572243E+03  0.50400001928E-02 0.  1.
        1   -1    0    0  501    0  0.00000000000E+00  0.00000000000E+00 -0.52609517032E+03  0.52609517034E+03  0.50400001928E-02 0. -1.
    10030    2    1    2    0    0  0.00000000000E+00  0.00000000000E+00  0.39330055209E+03  0.14454908928E+04  0.13909560010E+04 0.  0.
        3    1    3    3  502    0  0.25256736027E+02  0.14410419717E+03  0.90322354762E+03  0.91499546968E+03  0.10100000352E+00 0.  1.
       -3    1    3    3    0  502 -0.25256736027E+02 -0.14410419717E+03 -0.50992299552E+03  0.53049542309E+03  0.10100000352E+00 0. -1.
</event>
<event>
 5   0  0.1238683E-03  0.1410515E+04  0.7818609E-02  0.8946242E-01
       -1   -1    0    0    0  501  0.00000000000E+00  0.00000000000E+00  0.10220908337E+04  0.10220908337E+04  0.50400001928E-02 0.  1.
        1   -1    0    0  501    0  0.00000000000E+00  0.00000000000E+00 -0.48663821606E+03  0.48663821608E+03  0.50400001928E-02 0. -1.
    10030    2    1    2    0    0  0.00000000000E+00  0.00000000000E+00  0.53545261766E+03  0.15087290498E+04  0.14105154519E+04 0.  0.
        2    1    3    3  502    0 -0.31223361749E+03  0.45370926691E+03  0.73890576225E+03  0.92158757384E+03  0.25500000920E-02 0.  1.
       -2    1    3    3    0  502  0.31223361749E+03 -0.45370926691E+03 -0.20345314458E+03  0.58714147598E+03  0.25500000920E-02 0. -1.
</event>
<event>
 5   0  0.2172901E-03  0.1369828E+04  0.7818609E-02  0.8975953E-01
       -2   -1    0    0    0  501  0.00000000000E+00  0.00000000000E+00  0.42450964359E+03  0.42450964359E+03  0.25500000920E-02 0.  1.
        2   -1    0    0  501    0  0.00000000000E+00  0.00000000000E+00 -0.11050565989E+04  0.11050565989E+04  0.25500000920E-02 0. -1.
    10030    2    1    2    0    0  0.00000000000E+00  0.00000000000E+00 -0.68054695529E+03  0.15295662425E+04  0.13698279935E+04 0.  0.
        2    1    3    3  502    0  0.32043028579E+03  0.54294462593E+03 -0.41399315880E+02  0.63180561745E+03  0.25500000920E-02 0. -1.
       -2    1    3    3    0  502 -0.32043028579E+03 -0.54294462593E+03 -0.63914763941E+03  0.89776062503E+03  0.25500000920E-02 0.  1.
</event>
<event>
 5   0  0.2172901E-03  0.1379058E+04  0.7818609E-02  0.8969118E-01
        2   -1    0    0  501    0  0.00000000000E+00  0.00000000000E+00  0.67063090514E+03  0.67063090514E+03  0.25500000920E-02 0. -1.
       -2   -1    0    0    0  501  0.00000000000E+00  0.00000000000E+00 -0.70895990899E+03  0.70895990899E+03  0.25500000920E-02 0.  1.
    10030    2    1    2    0    0  0.00000000000E+00  0.00000000000E+00 -0.38329003848E+02  0.13795908141E+04  0.13790582663E+04 0.  0.
        2    1    3    3  502    0 -0.49288937756E+03 -0.27283475686E+03 -0.41690033177E+03  0.70084565327E+03  0.25500000920E-02 0.  1.
       -2    1    3    3    0  502  0.49288937756E+03  0.27283475686E+03  0.37857132792E+03  0.67874516087E+03  0.25500000920E-02 0. -1.
</event>
<event>
 5   0  0.2236184E-03  0.1401760E+04  0.7818609E-02  0.8952546E-01
       -2   -1    0    0    0  501  0.00000000000E+00  0.00000000000E+00  0.73927804940E+03  0.73927804940E+03  0.25500000920E-02 0.  1.
        2   -1    0    0  501    0  0.00000000000E+00  0.00000000000E+00 -0.66447613774E+03  0.66447613775E+03  0.25500000920E-02 0. -1.
    10030    2    1    2    0    0  0.00000000000E+00  0.00000000000E+00  0.74801911656E+02  0.14037541871E+04  0.14017597840E+04 0.  0.
        3    1    3    3  502    0 -0.30833101406E+03  0.58297294455E+03 -0.20022792376E+03  0.68921455292E+03  0.10100000352E+00 0.  1.
       -3    1    3    3    0  502  0.30833101406E+03 -0.58297294455E+03  0.27502983542E+03  0.71453963422E+03  0.10100000352E+00 0. -1.
</event>
<event>
 5   0  0.1210275E-03  0.1575513E+04  0.7818609E-02  0.8835734E-01
        1   -1    0    0  501    0  0.00000000000E+00  0.00000000000E+00  0.58634244155E+03  0.58634244158E+03  0.50400001928E-02 0.  1.
       -1   -1    0    0    0  501  0.00000000000E+00  0.00000000000E+00 -0.10583581031E+04  0.10583581031E+04  0.50400001928E-02 0. -1.
    10030    2    1    2    0    0  0.00000000000E+00  0.00000000000E+00 -0.47201566151E+03  0.16447005447E+04  0.15755129631E+04 0.  0.
        1    1    3    3  502    0  0.28035422551E+03  0.59679517880E+03  0.21396319635E+03  0.69321225221E+03  0.50400001928E-02 0.  1.
       -1    1    3    3    0  502 -0.28035422551E+03 -0.59679517880E+03 -0.68597885786E+03  0.95148829244E+03  0.50400001928E-02 0. -1.
</event>
<event>
 5   0  0.1238683E-03  0.1385610E+04  0.7818609E-02  0.8964301E-01
        1   -1    0    0  501    0  0.00000000000E+00  0.00000000000E+00  0.13135112669E+04  0.13135112669E+04  0.50400001928E-02 0. -1.
       -1   -1    0    0    0  501  0.00000000000E+00  0.00000000000E+00 -0.36541664979E+03  0.36541664983E+03  0.50400001928E-02 0.  1.
    10030    2    1    2    0    0  0.00000000000E+00  0.00000000000E+00  0.94809461707E+03  0.16789279167E+04  0.13856101712E+04 0.  0.
        2    1    3    3  502    0 -0.90087529774E+02  0.48400415233E+03  0.10646794036E+04  0.11729953175E+04  0.25500000920E-02 0. -1.
       -2    1    3    3    0  502  0.90087529774E+02 -0.48400415233E+03 -0.11658478649E+03  0.50593259921E+03  0.25500000920E-02 0.  1.
</event>
<event>
 5   0  0.1238683E-03  0.1405198E+04  0.7818609E-02  0.8950064E-01
       -1   -1    0    0    0  501  0.00000000000E+00  0.00000000000E+00  0.22583246350E+03  0.22583246355E+03  0.50400001928E-02 0.  1.
        1   -1    0    0  501    0  0.00000000000E+00  0.00000000000E+00 -0.21858933448E+04  0.21858933448E+04  0.50400001928E-02 0. -1.
    10030    2    1    2    0    0  0.00000000000E+00  0.00000000000E+00 -0.19600608813E+04  0.24117258083E+04  0.14051984615E+04 0.  0.
        2    1    3    3  502    0 -0.13921795672E+03  0.52058455813E+03 -0.17538000946E+04  0.18347219663E+04  0.25500000920E-02 0.  1.
       -2    1    3    3    0  502  0.13921795672E+03 -0.52058455813E+03 -0.20626078667E+03  0.57700384207E+03  0.25500000920E-02 0. -1.
</event>
<event>
 5   0  0.2236184E-03  0.9322033E+03  0.7818609E-02  0.9386197E-01
       -2   -1    0    0    0  501  0.00000000000E+00  0.00000000000E+00  0.32625622107E+03  0.32625622108E+03  0.25500000920E-02 0.  1.
        2   -1    0    0  501    0  0.00000000000E+00  0.00000000000E+00 -0.66589000626E+03  0.66589000627E+03  0.25500000920E-02 0. -1.
    10030    2    1    2    0    0  0.00000000000E+00  0.00000000000E+00 -0.33963378519E+03  0.99214622734E+03  0.93220331923E+03 0.  0.
        3    1    3    3  502    0 -0.41508341627E+03 -0.21080209574E+03 -0.14557085832E+03  0.48777315529E+03  0.10100000352E+00 0. -1.
       -3    1    3    3    0  502  0.41508341627E+03  0.21080209574E+03 -0.19406292687E+03  0.50437307205E+03  0.10100000352E+00 0.  1.
</event>
<event>
 5   0  0.2172901E-03  0.1375172E+04  0.7818609E-02  0.8971989E-01
        2   -1    0    0  501    0  0.00000000000E+00  0.00000000000E+00  0.45849826040E+03  0.45849826040E+03  0.25500000920E-02 0.  1.
       -2   -1    0    0    0  501  0.00000000000E+00  0.00000000000E+00 -0.10311370546E+04  0.10311370546E+04  0.25500000920E-02 0. -1.
    10030    2    1    2    0    0  0.00000000000E+00  0.00000000000E+00 -0.57263879418E+03  0.14896353150E+04  0.13751720558E+04 0.  0.
        2    1    3    3  502    0 -0.99065559130E+02  0.47714053697E+03  0.23913078701E+03  0.54282650113E+03  0.25500000920E-02 0.  1.
       -2    1    3    3    0  502  0.99065559130E+02 -0.47714053697E+03 -0.81176958119E+03  0.94680881385E+03  0.25500000920E-02 0. -1.
</event>
<event>
 5   0  0.2172901E-03  0.1111982E+04  0.7818609E-02  0.9193592E-01
        2   -1    0    0  501    0  0.00000000000E+00  0.00000000000E+00  0.45240740375E+03  0.45240740376E+03  0.25500000920E-02 0. -1.
       -2   -1    0    0    0  501  0.00000000000E+00  0.00000000000E+00 -0.68329075718E+03  0.68329075719E+03  0.25500000920E-02 0.  1.
    10030    2    1    2    0    0  0.00000000000E+00  0.00000000000E+00 -0.23088335343E+03  0.11356981609E+04  0.11119816500E+04 0.  0.
        2    1    3    3  502    0 -0.28632822715E+03  0.17497804223E+03  0.33732431027E+03  0.47580338295E+03  0.25500000920E-02 0. -1.
       -2    1    3    3    0  502  0.28632822715E+03 -0.17497804223E+03 -0.56820766370E+03  0.65989477799E+03  0.25500000920E-02 0.  1.
</event>
<event>
 5   0  0.1225690E-03  0.1408924E+04  0.7818609E-02  0.8947384E-01
        1   -1    0    0  501    0  0.00000000000E+00  0.00000000000E+00  0.84303678474E+03  0.84303678475E+03  0.50400001928E-02 0.  1.
       -1   -1    0    0    0  501  0.00000000000E+00  0.00000000000E+00 -0.58866586750E+03  0.58866586752E+03  0.50400001928E-02 0. -1.
    10030    2    1    2    0    0  0.00000000000E+00  0.00000000000E+00  0.25437091724E+03  0.14317026523E+04  0.14089243844E+04 0.  0.
        4    1    3    3  502    0  0.19064873263E+02  0.70236033540E+03  0.17891881783E+03  0.72504280316E+03  0.12699999809E+01 0. -1.
       -4    1    3    3    0  502 -0.19064873263E+02 -0.70236033540E+03  0.75452099409E+02  0.70665984911E+03  0.12699999809E+01 0.  1.
</event>
<event>
 5   0  0.1199720E-03  0.1501789E+04  0.7818609E-02  0.8883264E-01
       -1   -1    0    0    0  501  0.00000000000E+00  0.00000000000E+00  0.46120622164E+03  0.46120622166E+03  0.50400001928E-02 0. -1.
        1   -1    0    0  501    0  0.00000000000E+00  0.00000000000E+00 -0.12225387245E+04  0.12225387245E+04  0.50400001928E-02 0.  1.
    10030    2    1    2    0    0  0.00000000000E+00  0.00000000000E+00 -0.76133250283E+03  0.16837449461E+04  0.15017888879E+04 0.  0.
        5    1    3    3  502    0 -0.83168564916E+02  0.47124252674E+02  0.45433998198E+03  0.46431090295E+03  0.46999998093E+01 0. -1.
       -5    1    3    3    0  502  0.83168564916E+02 -0.47124252674E+02 -0.12156724848E+04  0.12194340432E+04  0.46999998093E+01 0.  1.
</event>
<event>
 5   0  0.2083966E-03  0.1389869E+04  0.7818609E-02  0.8961185E-01
       -2   -1    0    0    0  501  0.00000000000E+00  0.00000000000E+00  0.28293572999E+03  0.28293573000E+03  0.25500000920E-02 0.  1.
        2   -1    0    0  501    0  0.00000000000E+00  0.00000000000E+00 -0.17068684200E+04  0.17068684200E+04  0.25500000920E-02 0. -1.
    10030    2    1    2    0    0  0.00000000000E+00  0.00000000000E+00 -0.14239326900E+04  0.19898041500E+04  0.13898691484E+04 0.  0.
        1    1    3    3  502    0  0.54842333427E+03 -0.40361220653E+03 -0.51326561755E+03  0.85270895446E+03  0.50400001928E-02 0. -1.
       -1    1    3    3    0  502 -0.54842333427E+03  0.40361220653E+03 -0.91066707249E+03  0.11370951956E+04  0.50400001928E-02 0.  1.
</event>
<event>
 5   0  0.2236184E-03  0.1591496E+04  0.7818609E-02  0.8825790E-01
       -2   -1    0    0    0  501  0.00000000000E+00  0.00000000000E+00  0.69298684534E+03  0.69298684534E+03  0.25500000920E-02 0. -1.
        2   -1    0    0  501    0  0.00000000000E+00  0.00000000000E+00 -0.91374697771E+03  0.91374697771E+03  0.25500000920E-02 0.  1.
    10030    2    1    2    0    0  0.00000000000E+00  0.00000000000E+00 -0.22076013237E+03  0.16067338231E+04  0.15914956934E+04 0.  0.
        3    1    3    3  502    0 -0.60033782422E+03  0.51926459376E+03 -0.16725241136E+03  0.81118099141E+03  0.10100000352E+00 0.  1.
       -3    1    3    3    0  502  0.60033782422E+03 -0.51926459376E+03 -0.53507721012E+02  0.79555283164E+03  0.10100000352E+00 0. -1.
</event>
<event>
 5   0  0.8293000E-04  0.1424952E+04  0.7818609E-02  0.8935953E-01
       -4   -1    0    0    0  501  0.00000000000E+00  0.00000000000E+00  0.30364579986E+03  0.30364845574E+03  0.12699999809E+01 0.  1.
        4   -1    0    0  501    0  0.00000000000E+00  0.00000000000E+00 -0.16717463487E+04  0.16717468311E+04  0.12699999809E+01 0. -1.
    10030    2    1    2    0    0  0.00000000000E+00  0.00000000000E+00 -0.13681005489E+04  0.19753952869E+04  0.14249517282E+04 0.  0.
        1    1    3    3  502    0 -0.14243374570E+03  0.57674798887E+03 -0.13880269899E+03  0.61007524442E+03  0.50400001928E-02 0.  1.
       -1    1    3    3    0  502  0.14243374570E+03 -0.57674798887E+03 -0.12292978499E+04  0.13653200425E+04  0.50400001928E-02 0. -1.
</event>
<event>
 5   0  0.2236184E-03  0.1386187E+04  0.7818609E-02  0.8963878E-01
       -2   -1    0    0    0  501  0.00000000000E+00  0.00000000000E+00  0.69562910185E+03  0.69562910185E+03  0.25500000920E-02 0.  1.
        2   -1    0    0  501    0  0.00000000000E+00  0.00000000000E+00 -0.69056705718E+03  0.69056705718E+03  0.25500000920E-02 0. -1.
    10030    2    1    2    0    0  0.00000000000E+00  0.00000000000E+00  0.50620446676E+01  0.13861961590E+04  0.13861869163E+04 0.  0.
        3    1    3    3  502    0 -0.72554391067E+02 -0.28189205442E+03 -0.62648132869E+03  0.69080108237E+03  0.10100000352E+00 0. -1.
       -3    1    3    3    0  502  0.72554391067E+02  0.28189205442E+03  0.63154337336E+03  0.69539507666E+03  0.10100000352E+00 0.  1.
</event>
<event>
 5   0  0.2172901E-03  0.1419148E+04  0.7818609E-02  0.8940074E-01
       -2   -1    0    0    0  501  0.00000000000E+00  0.00000000000E+00  0.57658352431E+03  0.57658352431E+03  0.25500000920E-02 0. -1.
        2   -1    0    0  501    0  0.00000000000E+00  0.00000000000E+00 -0.87323877793E+03  0.87323877793E+03  0.25500000920E-02 0.  1.
    10030    2    1    2    0    0  0.00000000000E+00  0.00000000000E+00 -0.29665525362E+03  0.14498223022E+04  0.14191477614E+04 0.  0.
        2    1    3    3  502    0 -0.49237341646E+03 -0.30463463790E+03  0.27073527208E+03  0.63916463559E+03  0.25500000920E-02 0. -1.
       -2    1    3    3    0  502  0.49237341646E+03  0.30463463790E+03 -0.56739052570E+03  0.81065766665E+03  0.25500000920E-02 0.  1.
</event>
<event>
 5   0  0.2236184E-03  0.1402663E+04  0.7818609E-02  0.8951893E-01
        2   -1    0    0  501    0  0.00000000000E+00  0.00000000000E+00  0.18993218829E+04  0.18993218829E+04  0.25500000920E-02 0. -1.
       -2   -1    0    0    0  501  0.00000000000E+00  0.00000000000E+00 -0.25896916427E+03  0.25896916428E+03  0.25500000920E-02 0.  1.
    10030    2    1    2    0    0  0.00000000000E+00  0.00000000000E+00  0.16403527187E+04  0.21582910472E+04  0.14026628971E+04 0.  0.
        3    1    3    3  502    0 -0.63548281302E+03  0.25002409231E+03  0.10659624851E+04  0.12659488466E+04  0.10100000352E+00 0.  1.
       -3    1    3    3    0  502  0.63548281302E+03 -0.25002409231E+03  0.57439023358E+03  0.89234220062E+03  0.10100000352E+00 0. -1.
</event>
<event>
 5   0  0.1175374E-03  0.1426866E+04  0.7818609E-02  0.8934598E-01
        1   -1    0    0  501    0  0.00000000000E+00  0.00000000000E+00  0.60877915977E+03  0.60877915979E+03  0.50400001928E-02 0.  1.
       -1   -1    0    0    0  501  0.00000000000E+00  0.00000000000E+00 -0.83607756661E+03  0.83607756663E+03  0.50400001928E-02 0. -1.
    10030    2    1    2    0    0  0.00000000000E+00  0.00000000000E+00 -0.22729840684E+03  0.14448567264E+04  0.14268659342E+04 0.  0.
        3    1    3    3  502    0  0.42231789428E+03  0.27298841961E+02  0.46795227795E+03  0.63093341585E+03  0.10100000352E+00 0.  1.
       -3    1    3    3    0  502 -0.42231789428E+03 -0.27298841961E+02 -0.69525068479E+03  0.81392331057E+03  0.10100000352E+00 0. -1.
</event>
<event>
 5   0  0.1199720E-03  0.1377620E+04  0.7818609E-02  0.8970180E-01
       -1   -1    0    0    0  501  0.00000000000E+00  0.00000000000E+00  0.34970827907E+03  0.34970827910E+03  0.50400001928E-02 0. -1.
        1   -1    0    0  501    0  0.00000000000E+00  0.00000000000E+00 -0.13567276942E+04  0.13567276942E+04  0.50400001928E-02 0.  1.
    10030    2    1    2    0    0  0.00000000000E+00  0.00000000000E+00 -0.10070194151E+04  0.17064359733E+04  0.13776195514E+04 0.  0.
        5    1    3    3  502    0  0.74059917011E+02 -0.17924003122E+03  0.31517074613E+03  0.37008992058E+03  0.46999998093E+01 0. -1.
       -5    1    3    3    0  502 -0.74059917011E+02  0.17924003122E+03 -0.13221901612E+04  0.13363460527E+04  0.46999998093E+01 0.  1.
</event>
<event>
 5   0  0.2083966E-03  0.1358770E+04  0.7818609E-02  0.8984216E-01
       -2   -1    0    0    0  501  0.00000000000E+00  0.00000000000E+00  0.55632487196E+03  0.55632487197E+03  0.25500000920E-02 0.  1.
        2   -1    0    0  501    0  0.00000000000E+00  0.00000000000E+00 -0.82966663909E+03  0.82966663910E+03  0.25500000920E-02 0. -1.
    10030    2    1    2    0    0  0.00000000000E+00  0.00000000000E+00 -0.27334176713E+03  0.13859915111E+04  0.13587703070E+04 0.  0.
        1    1    3    3  502    0  0.48908304150E+03 -0.17359033179E+03  0.31055121502E+03  0.60479573572E+03  0.50400001928E-02 0.  1.
       -1    1    3    3    0  502 -0.48908304150E+03  0.17359033179E+03 -0.58389298216E+03  0.78119577534E+03  0.50400001928E-02 0. -1.
</event>
<event>
 5   0  0.1238683E-03  0.1407354E+04  0.7818609E-02  0.8948512E-01
       -1   -1    0    0    0  501  0.00000000000E+00  0.00000000000E+00  0.94205698475E+03  0.94205698476E+03  0.50400001928E-02 0.  1.
        1   -1    0    0  501    0  0.00000000000E+00  0.00000000000E+00 -0.52561724105E+03  0.52561724108E+03  0.50400001928E-02 0. -1.
    10030    2    1    2    0    0  0.00000000000E+00  0.00000000000E+00  0.41643974370E+03  0.14676742258E+04  0.14073541037E+04 0.  0.
        2    1    3    3  502    0 -0.13903748391E+03 -0.17485091474E+03  0.90409565738E+03  0.93128578966E+03  0.25500000920E-02 0.  1.
       -2    1    3    3    0  502  0.13903748391E+03  0.17485091474E+03 -0.48765591368E+03  0.53638843618E+03  0.25500000920E-02 0. -1.
</event>
<event>
 5   0  0.2172901E-03  0.1442414E+04  0.7818609E-02  0.8923677E-01
       -2   -1    0    0    0  501  0.00000000000E+00  0.00000000000E+00  0.35556459126E+03  0.35556459126E+03  0.25500000920E-02 0. -1.
        2   -1    0    0  501    0  0.00000000000E+00  0.00000000000E+00 -0.14628543892E+04  0.14628543892E+04  0.25500000920E-02 0.  1.
    10030    2    1    2    0    0  0.00000000000E+00  0.00000000000E+00 -0.11072897980E+04  0.18184189805E+04  0.14424135648E+04 0.  0.
        2    1    3    3  502    0 -0.26452424287E+03 -0.65065256925E+03 -0.34719610631E+03  0.78349663507E+03  0.25500000920E-02 0. -1.
       -2    1    3    3    0  502  0.26452424287E+03  0.65065256925E+03 -0.76009369166E+03  0.10349223454E+04  0.25500000920E-02 0.  1.
</event>
<event>
 5   0  0.1210275E-03  0.1379509E+04  0.7818609E-02  0.8968786E-01
        1   -1    0    0  501    0  0.00000000000E+00  0.00000000000E+00  0.71427435921E+03  0.71427435923E+03  0.50400001928E-02 0.  1.
       -1   -1    0    0    0  501  0.00000000000E+00  0.00000000000E+00 -0.66607627099E+03  0.66607627101E+03  0.50400001928E-02 0. -1.
    10030    2    1    2    0    0  0.00000000000E+00  0.00000000000E+00  0.48198088216E+02  0.13803506302E+04  0.13795089005E+04 0.  0.
        1    1    3    3  502    0  0.17490283476E+03 -0.27517177283E+03  0.63229447789E+03  0.71141184483E+03  0.50400001928E-02 0.  1.
       -1    1    3    3    0  502 -0.17490283476E+03  0.27517177283E+03 -0.58409638967E+03  0.66893878541E+03  0.50400001928E-02 0. -1.
</event>
<event>
 5   0  0.2195980E-03  0.1405222E+04  0.7818609E-02  0.8950047E-01
       -2   -1    0    0    0  501  0.00000000000E+00  0.00000000000E+00  0.79316893894E+03  0.79316893894E+03  0.25500000920E-02 0. -1.
        2   -1    0    0  501    0  0.00000000000E+00  0.00000000000E+00 -0.62239204295E+03  0.62239204295E+03  0.25500000920E-02 0.  1.
    10030    2    1    2    0    0  0.00000000000E+00  0.00000000000E+00  0.17077689599E+03  0.14155609819E+04  0.14052217424E+04 0.  0.
        4    1    3    3  502    0 -0.37468946162E+03 -0.59380472587E+03  0.59427170211E+02  0.70464845602E+03  0.12699999809E+01 0. -1.
       -4    1    3    3    0  502  0.37468946162E+03  0.59380472587E+03  0.11134972578E+03  0.71091252588E+03  0.12699999809E+01 0.  1.
</event>
<event>
 5   0  0.1225690E-03  0.1412655E+04  0.7818609E-02  0.8944709E-01
       -1   -1    0    0    0  501  0.00000000000E+00  0.00000000000E+00  0.75230350269E+03  0.75230350271E+03  0.50400001928E-02 0.  1.
        1   -1    0    0  501    0  0.00000000000E+00  0.00000000000E+00 -0.66316151778E+03  0.66316151780E+03  0.50400001928E-02 0. -1.
    10030    2    1    2    0    0  0.00000000000E+00  0.00000000000E+00  0.89141984909E+02  0.14154650205E+04  0.14126552767E+04 0.  0.
        4    1    3    3  502    0 -0.31386286668E+03 -0.57762943841E+03  0.30340911118E+03  0.72403340313E+03  0.12699999809E+01 0.  1.
       -4    1    3    3    0  502  0.31386286668E+03  0.57762943841E+03 -0.21426712627E+03  0.69143161738E+03  0.12699999809E+01 0. -1.
</event>
<event>
 5   0  0.2190704E-03  0.1114172E+04  0.7818609E-02  0.9191488E-01
       -2   -1    0    0    0  501  0.00000000000E+00  0.00000000000E+00  0.27616914808E+03  0.27616914809E+03  0.25500000920E-02 0. -1.
        2   -1    0    0  501    0  0.00000000000E+00  0.00000000000E+00 -0.11237488858E+04  0.11237488858E+04  0.25500000920E-02 0.  1.
    10030    2    1    2    0    0  0.00000000000E+00  0.00000000000E+00 -0.84757973776E+03  0.13999180339E+04  0.11141719301E+04 0.  0.
        5    1    3    3  502    0  0.52389097473E+03  0.20227867411E+02 -0.66036512045E+03  0.84319339557E+03  0.46999998093E+01 0.  1.
       -5    1    3    3    0  502 -0.52389097473E+03 -0.20227867411E+02 -0.18721461730E+03  0.55672463836E+03  0.46999998093E+01 0. -1.
</event>
<event>
 5   0  0.1238683E-03  0.1407090E+04  0.7818609E-02  0.8948702E-01
        1   -1    0    0  501    0  0.00000000000E+00  0.00000000000E+00  0.76606842467E+03  0.76606842469E+03  0.50400001928E-02 0.  1.
       -1   -1    0    0    0  501  0.00000000000E+00  0.00000000000E+00 -0.64612463108E+03  0.64612463110E+03  0.50400001928E-02 0. -1.
    10030    2    1    2    0    0  0.00000000000E+00  0.00000000000E+00  0.11994379359E+03  0.14121930558E+04  0.14070901582E+04 0.  0.
        2    1    3    3  502    0 -0.65104493437E+03 -0.11448632486E+03  0.30169604278E+03  0.72662722726E+03  0.25500000920E-02 0.  1.
       -2    1    3    3    0  502  0.65104493437E+03  0.11448632486E+03 -0.18175224919E+03  0.68556582853E+03  0.25500000920E-02 0. -1.
</event>
<event>
 5   0  0.1175374E-03  0.1369652E+04  0.7818609E-02  0.8976083E-01
       -1   -1    0    0    0  501  0.00000000000E+00  0.00000000000E+00  0.55788997014E+03  0.55788997016E+03  0.50400001928E-02 0.  1.
        1   -1    0    0  501    0  0.00000000000E+00  0.00000000000E+00 -0.84064415086E+03  0.84064415087E+03  0.50400001928E-02 0. -1.
    10030    2    1    2    0    0  0.00000000000E+00  0.00000000000E+00 -0.28275418072E+03  0.13985341210E+04  0.13696524234E+04 0.  0.
        3    1    3    3  502    0 -0.46116716296E+03  0.79549380221E+02  0.36914967954E+03  0.59604928671E+03  0.10100000352E+00 0.  1.
       -3    1    3    3    0  502  0.46116716296E+03 -0.79549380221E+02 -0.65190386026E+03  0.80248483432E+03  0.10100000352E+00 0. -1.
</event>
<event>
 5   0  0.2083966E-03  0.1409778E+04  0.7818609E-02  0.8946771E-01
       -2   -1    0    0    0  501  0.00000000000E+00  0.00000000000E+00  0.71396597647E+03  0.71396597648E+03  0.25500000920E-02 0.  1.
        2   -1    0    0  501    0  0.00000000000E+00  0.00000000000E+00 -0.69592785719E+03  0.69592785719E+03  0.25500000920E-02 0. -1.
    10030    2    1    2    0    0  0.00000000000E+00  0.00000000000E+00  0.18038119281E+02  0.14098938337E+04  0.14097784395E+04 0.  0.
        1    1    3    3  502    0  0.16035079215E+03 -0.59396937699E+03  0.35307747211E+03  0.70934878493E+03  0.50400001928E-02 0. -1.
       -1    1    3    3    0  502 -0.16035079215E+03  0.59396937699E+03 -0.33503935283E+03  0.70054504874E+03  0.50400001928E-02 0.  1.
</event>
<event>
 5   0  0.1175374E-03  0.1398353E+04  0.7818609E-02  0.8955012E-01
       -1   -1    0    0    0  501  0.00000000000E+00  0.00000000000E+00  0.44521426138E+03  0.44521426140E+03  0.50400001928E-02 0. -1.
        1   -1    0    0  501    0  0.00000000000E+00  0.00000000000E+00 -0.10980054433E+04  0.10980054433E+04  0.50400001928E-02 0.  1.
    10030    2    1    2    0    0  0.00000000000E+00  0.00000000000E+00 -0.65279118195E+03  0.15432197047E+04  0.13983528631E+04 0.  0.
        3    1    3    3  502    0  0.68523058695E+03  0.15802505677E+02 -0.17404708382E+03  0.70716552099E+03  0.10100000352E+00 0. -1.
       -3    1    3    3    0  502 -0.68523058695E+03 -0.15802505677E+02 -0.47874409812E+03  0.83605418375E+03  0.10100000352E+00 0.  1.
</event>
<event>
 5   0  0.2083966E-03  0.1434277E+04  0.7818609E-02  0.8929374E-01
       -2   -1    0    0    0  501  0.00000000000E+00  0.00000000000E+00  0.69718048392E+03  0.69718048393E+03  0.25500000920E-02 0. -1.
        2   -1    0    0  501    0  0.00000000000E+00  0.00000000000E+00 -0.73766805361E+03  0.73766805361E+03  0.25500000920E-02 0.  1.
    10030    2    1    2    0    0  0.00000000000E+00  0.00000000000E+00 -0.40487569683E+02  0.14348485375E+04  0.14342771986E+04 0.  0.
        1    1    3    3  502    0  0.23519669621E+03 -0.31169651826E+03  0.58150689304E+03  0.70044448180E+03  0.50400001928E-02 0. -1.
       -1    1    3    3    0  502 -0.23519669621E+03  0.31169651826E+03 -0.62199446272E+03  0.73440405574E+03  0.50400001928E-02 0.  1.
</event>
<event>
 5   0  0.1175374E-03  0.1131240E+04  0.7818609E-02  0.9175267E-01
        1   -1    0    0  501    0  0.00000000000E+00  0.00000000000E+00  0.26248110214E+03  0.26248110219E+03  0.50400001928E-02 0. -1.
       -1   -1    0    0    0  501  0.00000000000E+00  0.00000000000E+00 -0.12188536459E+04  0.12188536459E+04  0.50400001928E-02 0.  1.
    10030    2    1    2    0    0  0.00000000000E+00  0.00000000000E+00 -0.95637254379E+03  0.14813347481E+04  0.11312401131E+04 0.  0.
        3    1    3    3  502    0 -0.25327141070E+03  0.28077035377E+03  0.72647805493E+02  0.38504040422E+03  0.10100000352E+00 0. -1.
       -3    1    3    3    0  502  0.25327141070E+03 -0.28077035377E+03 -0.10290203493E+04  0.10962943439E+04  0.10100000352E+00 0.  1.
</event>
<event>
 5   0  0.1199720E-03  0.1385798E+04  0.7818609E-02  0.8964163E-01
       -1   -1    0    0    0  501  0.00000000000E+00  0.00000000000E+00  0.40198867472E+03  0.40198867475E+03  0.50400001928E-02 0.  1.
        1   -1    0    0  501    0  0.00000000000E+00  0.00000000000E+00 -0.11943349621E+04  0.11943349621E+04  0.50400001928E-02 0. -1.
    10030    2    1    2    0    0  0.00000000000E+00  0.00000000000E+00 -0.79234628736E+03  0.15963236368E+04  0.13857981507E+04 0.  0.
        5    1    3    3  502    0 -0.69043114323E+03 -0.57206862627E+02 -0.40875225807E+03  0.80440554893E+03  0.46999998093E+01 0. -1.
       -5    1    3    3    0  502  0.69043114323E+03  0.57206862627E+02 -0.38359402929E+03  0.79191808792E+03  0.46999998093E+01 0.  1.
</event>
<event>
 5   0  0.2195980E-03  0.1409405E+04  0.7818609E-02  0.8947038E-01
       -2   -1    0    0    0  501  0.00000000000E+00  0.00000000000E+00  0.81935665665E+03  0.81935665666E+03  0.25500000920E-02 0.  1.
        2   -1    0    0  501    0  0.00000000000E+00  0.00000000000E+00 -0.60609249235E+03  0.60609249235E+03  0.25500000920E-02 0. -1.
    10030    2    1    2    0    0  0.00000000000E+00  0.00000000000E+00  0.21326416431E+03  0.14254491490E+04  0.14094054323E+04 0.  0.
        4    1    3    3  502    0 -0.40745807409E+03  0.34256748623E+03  0.57365659613E+03  0.78259700226E+03  0.12699999809E+01 0.  1.
       -4    1    3    3    0  502  0.40745807409E+03 -0.34256748623E+03 -0.36039243182E+03  0.64285214675E+03  0.12699999809E+01 0. -1.
</event>
<event>
 5   0  0.2172901E-03  0.1403724E+04  0.7818609E-02  0.8951128E-01
        2   -1    0    0  501    0  0.00000000000E+00  0.00000000000E+00  0.20023826654E+04  0.20023826654E+04  0.25500000920E-02 0.  1.
       -2   -1    0    0    0  501  0.00000000000E+00  0.00000000000E+00 -0.24601192718E+03  0.24601192719E+03  0.25500000920E-02 0. -1.
    10030    2    1    2    0    0  0.00000000000E+00  0.00000000000E+00  0.17563707382E+04  0.22483945926E+04  0.14037236459E+04 0.  0.
        2    1    3    3  502    0  0.54692234588E+03  0.40188910766E+03  0.59178750026E+03  0.90047284954E+03  0.25500000920E-02 0. -1.
       -2    1    3    3    0  502 -0.54692234588E+03 -0.40188910766E+03  0.11645832380E+04  0.13479217431E+04  0.25500000920E-02 0.  1.
</event>
<event>
 5   0  0.1225690E-03  0.1436063E+04  0.7818609E-02  0.8928121E-01
        1   -1    0    0  501    0  0.00000000000E+00  0.00000000000E+00  0.77145386331E+03  0.77145386333E+03  0.50400001928E-02 0.  1.
       -1   -1    0    0    0  501  0.00000000000E+00  0.00000000000E+00 -0.66830813509E+03  0.66830813511E+03  0.50400001928E-02 0. -1.
    10030    2    1    2    0    0  0.00000000000E+00  0.00000000000E+00  0.10314572821E+03  0.14397619984E+04  0.14360625233E+04 0.  0.
        4    1    3    3  502    0  0.50224596772E+03  0.21162321043E+03  0.52025107490E+03  0.75345748992E+03  0.12699999809E+01 0.  1.
       -4    1    3    3    0  502 -0.50224596772E+03 -0.21162321043E+03 -0.41710534668E+03  0.68630450852E+03  0.12699999809E+01 0. -1.
</event>
<event>
 5   0  0.8293000E-04  0.1443184E+04  0.7818609E-02  0.8923140E-01
        3   -1    0    0  501    0  0.00000000000E+00  0.00000000000E+00  0.48482284410E+03  0.48482285462E+03  0.10100000352E+00 0. -1.
       -3   -1    0    0    0  501  0.00000000000E+00  0.00000000000E+00 -0.10739903502E+04  0.10739903550E+04  0.10100000352E+00 0.  1.
    10030    2    1    2    0    0  0.00000000000E+00  0.00000000000E+00 -0.58916750615E+03  0.15588132096E+04  0.14431840742E+04 0.  0.
        5    1    3    3  502    0  0.44879344513E+03 -0.24494348637E+03  0.25538776684E+03  0.57153991055E+03  0.46999998093E+01 0. -1.
       -5    1    3    3    0  502 -0.44879344513E+03  0.24494348637E+03 -0.84455527299E+03  0.98727329906E+03  0.46999998093E+01 0.  1.
</event>
<event>
 5   0  0.2190704E-03  0.1417782E+04  0.7818609E-02  0.8941047E-01
       -2   -1    0    0    0  501  0.00000000000E+00  0.00000000000E+00  0.66750373620E+03  0.66750373621E+03  0.25500000920E-02 0.  1.
        2   -1    0    0  501    0  0.00000000000E+00  0.00000000000E+00 -0.75284401885E+03  0.75284401885E+03  0.25500000920E-02 0. -1.
    10030    2    1    2    0    0  0.00000000000E+00  0.00000000000E+00 -0.85340282640E+02  0.14203477551E+04  0.14177816410E+04 0.  0.
        5    1    3    3  502    0 -0.10162529839E+02  0.27954810607E+03 -0.69519663933E+03  0.74938032931E+03  0.46999998093E+01 0. -1.
       -5    1    3    3    0  502  0.10162529839E+02 -0.27954810607E+03  0.60985635669E+03  0.67096742575E+03  0.46999998093E+01 0.  1.
</event>
<event>
 5   0  0.1210275E-03  0.1380169E+04  0.7818609E-02  0.8968300E-01
       -1   -1    0    0    0  501  0.00000000000E+00  0.00000000000E+00  0.69446365717E+03  0.69446365719E+03  0.50400001928E-02 0. -1.
        1   -1    0    0  501    0  0.00000000000E+00  0.00000000000E+00 -0.68573248608E+03  0.68573248610E+03  0.50400001928E-02 0.  1.
    10030    2    1    2    0    0  0.00000000000E+00  0.00000000000E+00  0.87311710863E+01  0.13801961433E+04  0.13801685262E+04 0.  0.
        1    1    3    3  502    0  0.89273786525E+02  0.57291145737E+03  0.37856412481E+03  0.69246526524E+03  0.50400001928E-02 0. -1.
       -1    1    3    3    0  502 -0.89273786525E+02 -0.57291145737E+03 -0.36983295372E+03  0.68773087805E+03  0.50400001928E-02 0.  1.
</event>
<event>
 5   0  0.2195980E-03  0.1419245E+04  0.7818609E-02  0.8940005E-01
       -2   -1    0    0    0  501  0.00000000000E+00  0.00000000000E+00  0.47712600791E+03  0.47712600792E+03  0.25500000920E-02 0. -1.
        2   -1    0    0  501    0  0.00000000000E+00  0.00000000000E+00 -0.10554104662E+04  0.10554104663E+04  0.25500000920E-02 0.  1.
    10030    2    1    2    0    0  0.00000000000E+00  0.00000000000E+00 -0.57828445834E+03  0.15325364742E+04  0.14192445631E+04 0.  0.
        4    1    3    3  502    0  0.98904434180E+02  0.70181431155E+03 -0.32711701592E+03  0.78059757238E+03  0.12699999809E+01 0.  1.
       -4    1    3    3    0  502 -0.98904434180E+02 -0.70181431155E+03 -0.25116744242E+03  0.75193890179E+03  0.12699999809E+01 0. -1.
</event>
<event>
 5   0  0.1238683E-03  0.1400658E+04  0.7818609E-02  0.8953342E-01
        1   -1    0    0  501    0  0.00000000000E+00  0.00000000000E+00  0.72954328443E+03  0.72954328444E+03  0.50400001928E-02 0. -1.
       -1   -1    0    0    0  501  0.00000000000E+00  0.00000000000E+00 -0.67228465005E+03  0.67228465007E+03  0.50400001928E-02 0.  1.
    10030    2    1    2    0    0  0.00000000000E+00  0.00000000000E+00  0.57258634376E+02  0.14018279345E+04  0.14006580620E+04 0.  0.
        2    1    3    3  502    0  0.45172456194E+03 -0.32850221568E+03 -0.39420664928E+03  0.68364293890E+03  0.25500000920E-02 0.  1.
       -2    1    3    3    0  502 -0.45172456194E+03  0.32850221568E+03  0.45146528366E+03  0.71818499561E+03  0.25500000920E-02 0. -1.
</event>
<event>
 5   0  0.1238683E-03  0.1271384E+04  0.7818609E-02  0.9052571E-01
        1   -1    0    0  501    0  0.00000000000E+00  0.00000000000E+00  0.10736502303E+04  0.10736502303E+04  0.50400001928E-02 0. -1.
       -1   -1    0    0    0  501  0.00000000000E+00  0.00000000000E+00 -0.37638333909E+03  0.37638333913E+03  0.50400001928E-02 0.  1.
    10030    2    1    2    0    0  0.00000000000E+00  0.00000000000E+00  0.69726689120E+03  0.14500335694E+04  0.12713835908E+04 0.  0.
        2    1    3    3  502    0  0.24319034949E+01  0.63568714358E+03  0.34864208730E+03  0.72502094019E+03  0.25500000920E-02 0. -1.
       -2    1    3    3    0  502 -0.24319034949E+01 -0.63568714358E+03  0.34862480390E+03  0.72501262924E+03  0.25500000920E-02 0.  1.
</event>
<event>
 5   0  0.2172901E-03  0.1401168E+04  0.7818609E-02  0.8952974E-01
        2   -1    0    0  501    0  0.00000000000E+00  0.00000000000E+00  0.48818455561E+03  0.48818455562E+03  0.25500000920E-02 0. -1.
       -2   -1    0    0    0  501  0.00000000000E+00  0.00000000000E+00 -0.10053939200E+04  0.10053939200E+04  0.25500000920E-02 0.  1.
    10030    2    1    2    0    0  0.00000000000E+00  0.00000000000E+00 -0.51720936437E+03  0.14935784756E+04  0.14011677759E+04 0.  0.
        2    1    3    3  502    0  0.33685893975E+03  0.25034408178E+03  0.33934788452E+03  0.53972501453E+03  0.25500000920E-02 0. -1.
       -2    1    3    3    0  502 -0.33685893975E+03 -0.25034408178E+03 -0.85655724888E+03  0.95385346107E+03  0.25500000920E-02 0.  1.
</event>
<event>
 5   0  0.1199720E-03  0.1395499E+04  0.7818609E-02  0.8957083E-01
        1   -1    0    0  501    0  0.00000000000E+00  0.00000000000E+00  0.47470257726E+03  0.47470257728E+03  0.50400001928E-02 0. -1.
       -1   -1    0    0    0  501  0.00000000000E+00  0.00000000000E+00 -0.10255989855E+04  0.10255989855E+04  0.50400001928E-02 0.  1.
    10030    2    1    2    0    0  0.00000000000E+00  0.00000000000E+00 -0.55089640822E+03  0.15003015628E+04  0.13954991676E+04 0.  0.
        5    1    3    3  502    0  0.19214770575E+02 -0.43423121419E+03 -0.86224660743E+03  0.96561755204E+03  0.46999998093E+01 0.  1.
       -5    1    3    3    0  502 -0.19214770575E+02  0.43423121419E+03  0.31135019921E+03  0.53468401073E+03  0.46999998093E+01 0. -1.
</event>
<event>
 5   0  0.1225690E-03  0.1402807E+04  0.7818609E-02  0.8951789E-01
        1   -1    0    0  501    0  0.00000000000E+00  0.00000000000E+00  0.44623981263E+03  0.44623981266E+03  0.50400001928E-02 0.  1.
       -1   -1    0    0    0  501  0.00000000000E+00  0.00000000000E+00 -0.11024722331E+04  0.11024722331E+04  0.50400001928E-02 0. -1.
    10030    2    1    2    0    0  0.00000000000E+00  0.00000000000E+00 -0.65623242049E+03  0.15487120458E+04  0.14028071896E+04 0.  0.
        4    1    3    3  502    0  0.12734192974E+03  0.61101053189E+03 -0.68142598250E+03  0.92406321195E+03  0.12699999809E+01 0. -1.
       -4    1    3    3    0  502 -0.12734192974E+03 -0.61101053189E+03  0.25193562015E+02  0.62464883384E+03  0.12699999809E+01 0.  1.
</event>
<event>
 5   0  0.1199720E-03  0.1400813E+04  0.7818609E-02  0.8953231E-01
        1   -1    0    0  501    0  0.00000000000E+00  0.00000000000E+00  0.14247656168E+04  0.14247656168E+04  0.50400001928E-02 0.  1.
       -1   -1    0    0    0  501  0.00000000000E+00  0.00000000000E+00 -0.34431557565E+03  0.34431557568E+03  0.50400001928E-02 0. -1.
    10030    2    1    2    0    0  0.00000000000E+00  0.00000000000E+00  0.10804500412E+04  0.17690811925E+04  0.14008126121E+04 0.  0.
        5    1    3    3  502    0  0.60270673810E+03 -0.32090230083E+03  0.34330547463E+03  0.76427379762E+03  0.46999998093E+01 0. -1.
       -5    1    3    3    0  502 -0.60270673810E+03  0.32090230083E+03  0.73714456652E+03  0.10048073949E+04  0.46999998093E+01 0.  1.
</event>
<event>
 5   0  0.2172901E-03  0.1186520E+04  0.7818609E-02  0.9124738E-01
        2   -1    0    0  501    0  0.00000000000E+00  0.00000000000E+00  0.14408511259E+04  0.14408511259E+04  0.25500000920E-02 0.  1.
       -2   -1    0    0    0  501  0.00000000000E+00  0.00000000000E+00 -0.24427059050E+03  0.24427059051E+03  0.25500000920E-02 0. -1.
    10030    2    1    2    0    0  0.00000000000E+00  0.00000000000E+00  0.11965805354E+04  0.16851217165E+04  0.11865202154E+04 0.  0.
        2    1    3    3  502    0  0.52031524159E+03 -0.26107979695E+03  0.76063685154E+03  0.95784081712E+03  0.25500000920E-02 0.  1.
       -2    1    3    3    0  502 -0.52031524159E+03  0.26107979695E+03  0.43594368390E+03  0.72728089934E+03  0.25500000920E-02 0. -1.
</event>
<event>
 5   0  0.2172901E-03  0.1390557E+04  0.7818609E-02  0.8960683E-01
        2   -1    0    0  501    0  0.00000000000E+00  0.00000000000E+00  0.11604459677E+04  0.11604459677E+04  0.25500000920E-02 0.  1.
       -2   -1    0    0    0  501  0.00000000000E+00  0.00000000000E+00 -0.41657431859E+03  0.41657431859E+03  0.25500000920E-02 0. -1.
    10030    2    1    2    0    0  0.00000000000E+00  0.00000000000E+00  0.74387164915E+03  0.15770202863E+04  0.13905567062E+04 0.  0.
        2    1    3    3  502    0 -0.67280127887E+03  0.82054898272E+02  0.54769247305E+03  0.87141357128E+03  0.25500000920E-02 0.  1.
       -2    1    3    3    0  502  0.67280127887E+03 -0.82054898272E+02  0.19617917610E+03  0.70560671504E+03  0.25500000920E-02 0. -1.
</event>
<event>
 5   0  0.1210275E-03  0.1426017E+04  0.7818609E-02  0.8935198E-01
        1   -1    0    0  501    0  0.00000000000E+00  0.00000000000E+00  0.10729722515E+04  0.10729722515E+04  0.50400001928E-02 0. -1.
       -1   -1    0    0    0  501  0.00000000000E+00  0.00000000000E+00 -0.47380642312E+03  0.47380642314E+03  0.50400001928E-02 0.  1.
    10030    2    1    2    0    0  0.00000000000E+00  0.00000000000E+00  0.59916582835E+03  0.15467786746E+04  0.14260170330E+04 0.  0.
        1    1    3    3  502    0  0.59579161598E+03 -0.10096741197E+03 -0.11090832958E+03  0.61437995211E+03  0.50400001928E-02 0.  1.
       -1    1    3    3    0  502 -0.59579161598E+03  0.10096741197E+03  0.71007415793E+03  0.93239872251E+03  0.50400001928E-02 0. -1.
</event>
<event>
 5   0  0.2236184E-03  0.1186956E+04  0.7818609E-02  0.9124351E-01
       -2   -1    0    0    0  501  0.00000000000E+00  0.00000000000E+00  0.49702145084E+03  0.49702145084E+03  0.25500000920E-02 0.  1.
        2   -1    0    0  501    0  0.00000000000E+00  0.00000000000E+00 -0.70865382446E+03  0.70865382446E+03  0.25500000920E-02 0. -1.
    10030    2    1    2    0    0  0.00000000000E+00  0.00000000000E+00 -0.21163237362E+03  0.12056752753E+04  0.11869560261E+04 0.  0.
        3    1    3    3  502    0 -0.23754181243E+02 -0.59074515297E+03 -0.53309139062E+02  0.59362106718E+03  0.10100000352E+00 0.  1.
       -3    1    3    3    0  502  0.23754181243E+02  0.59074515297E+03 -0.15832323456E+03  0.61205420813E+03  0.10100000352E+00 0. -1.
</event>
<event>
 5   0  0.2236184E-03  0.1404342E+04  0.7818609E-02  0.8950682E-01
       -2   -1    0    0    0  501  0.00000000000E+00  0.00000000000E+00  0.21690941325E+03  0.21690941327E+03  0.25500000920E-02 0. -1.
        2   -1    0    0  501    0  0.00000000000E+00  0.00000000000E+00 -0.22730417364E+04  0.22730417364E+04  0.25500000920E-02 0.  1.
    10030    2    1    2    0    0  0.00000000000E+00  0.00000000000E+00 -0.20561323232E+04  0.24899511497E+04  0.14043420514E+04 0.  0.
        3    1    3    3  502    0  0.41281223882E+03  0.51658530271E+03 -0.60935209961E+03  0.89921316216E+03  0.10100000352E+00 0.  1.
       -3    1    3    3    0  502 -0.41281223882E+03 -0.51658530271E+03 -0.14467802236E+04  0.15907379875E+04  0.10100000352E+00 0. -1.
</event>
<event>
 5   0  0.2195980E-03  0.1353124E+04  0.7818609E-02  0.8988467E-01
       -2   -1    0    0    0  501  0.00000000000E+00  0.00000000000E+00  0.61109053826E+03  0.61109053827E+03  0.25500000920E-02 0.  1.
        2   -1    0    0  501    0  0.00000000000E+00  0.00000000000E+00 -0.74904819333E+03  0.74904819333E+03  0.25500000920E-02 0. -1.
    10030    2    1    2    0    0  0.00000000000E+00  0.00000000000E+00 -0.13795765507E+03  0.13601387316E+04  0.13531241830E+04 0.  0.
        4    1    3    3  502    0 -0.56103805624E+03 -0.37456485553E+03 -0.17018310175E+02  0.67479905700E+03  0.12699999809E+01 0.  1.
       -4    1    3    3    0  502  0.56103805624E+03  0.37456485553E+03 -0.12093934489E+03  0.68533967460E+03  0.12699999809E+01 0. -1.
</event>
<event>
 5   0  0.1225690E-03  0.1395423E+04  0.7818609E-02  0.8957138E-01
        1   -1    0    0  501    0  0.00000000000E+00  0.00000000000E+00  0.13459205596E+04  0.13459205596E+04  0.50400001928E-02 0.  1.
       -1   -1    0    0    0  501  0.00000000000E+00  0.00000000000E+00 -0.36168675608E+03  0.36168675611E+03  0.50400001928E-02 0. -1.
    10030    2    1    2    0    0  0.00000000000E+00  0.00000000000E+00  0.98423380354E+03  0.17076073157E+04  0.13954234356E+04 0.  0.
        4    1    3    3  502    0  0.58588640836E+03 -0.33398938181E+03  0.71098232228E+03  0.97995370613E+03  0.12699999809E+01 0.  1.
       -4    1    3    3    0  502 -0.58588640836E+03  0.33398938181E+03  0.27325148125E+03  0.72765360960E+03  0.12699999809E+01 0. -1.
</event>
<event>
 5   0  0.1225690E-03  0.1414878E+04  0.7818609E-02  0.8943119E-01
       -1   -1    0    0    0  501  0.00000000000E+00  0.00000000000E+00  0.65278343914E+03  0.65278343916E+03  0.50400001928E-02 0. -1.
        1   -1    0    0  501    0  0.00000000000E+00  0.00000000000E+00 -0.76667121086E+03  0.76667121088E+03  0.50400001928E-02 0.  1.
    10030    2    1    2    0    0  0.00000000000E+00  0.00000000000E+00 -0.11388777172E+03  0.14194546500E+04  0.14148784679E+04 0.  0.
        4    1    3    3  502    0  0.19876553522E+03 -0.15632543290E+03 -0.71977988661E+03  0.76290895723E+03  0.12699999809E+01 0.  1.
       -4    1    3    3    0  502 -0.19876553522E+03  0.15632543290E+03  0.60589211488E+03  0.65654569280E+03  0.12699999809E+01 0. -1.
</event>
<event>
 5   0  0.2190704E-03  0.1485313E+04  0.7818609E-02  0.8894279E-01
       -2   -1    0    0    0  501  0.00000000000E+00  0.00000000000E+00  0.40852138424E+03  0.40852138424E+03  0.25500000920E-02 0. -1.
        2   -1    0    0  501    0  0.00000000000E+00  0.00000000000E+00 -0.13500848060E+04  0.13500848060E+04  0.25500000920E-02 0.  1.
    10030    2    1    2    0    0  0.00000000000E+00  0.00000000000E+00 -0.94156342179E+03  0.17586061903E+04  0.14853127803E+04 0.  0.
        5    1    3    3  502    0  0.64402796788E+03  0.33049969715E+02 -0.34703948947E+02  0.64582565603E+03  0.46999998093E+01 0. -1.
       -5    1    3    3    0  502 -0.64402796788E+03 -0.33049969715E+02 -0.90685947285E+03  0.11127805342E+04  0.46999998093E+01 0.  1.
</event>
<event>
 5   0  0.1225690E-03  0.1371765E+04  0.7818609E-02  0.8974514E-01
       -1   -1    0    0    0  501  0.00000000000E+00  0.00000000000E+00  0.88301529827E+03  0.88301529829E+03  0.50400001928E-02 0.  1.
        1   -1    0    0  501    0  0.00000000000E+00  0.00000000000E+00 -0.53275976518E+03  0.53275976520E+03  0.50400001928E-02 0. -1.
    10030    2    1    2    0    0  0.00000000000E+00  0.00000000000E+00  0.35025553309E+03  0.14157750635E+04  0.13717653196E+04 0.  0.
        4    1    3    3  502    0 -0.46205696666E+03  0.78746995909E+02  0.69192777184E+03  0.83574121841E+03  0.12699999809E+01 0.  1.
       -4    1    3    3    0  502  0.46205696666E+03 -0.78746995909E+02 -0.34167223875E+03  0.58003384508E+03  0.12699999809E+01 0. -1.
</event>
<event>
 5   0  0.2236184E-03  0.1367296E+04  0.7818609E-02  0.8977837E-01
       -2   -1    0    0    0  501  0.00000000000E+00  0.00000000000E+00  0.21362310174E+04  0.21362310175E+04  0.25500000920E-02 0. -1.
        2   -1    0    0  501    0  0.00000000000E+00  0.00000000000E+00 -0.21878475775E+03  0.21878475777E+03  0.25500000920E-02 0.  1.
    10030    2    1    2    0    0  0.00000000000E+00  0.00000000000E+00  0.19174462597E+04  0.23550157752E+04  0.13672962893E+04 0.  0.
        3    1    3    3  502    0  0.31499139738E+03 -0.10693911599E+03  0.19874366332E+04  0.20150831090E+04  0.10100000352E+00 0. -1.
       -3    1    3    3    0  502 -0.31499139738E+03  0.10693911599E+03 -0.69990373540E+02  0.33993266619E+03  0.10100000352E+00 0.  1.
</event>
<event>
 5   0  0.2236184E-03  0.1347008E+04  0.7818609E-02  0.8993096E-01
       -2   -1    0    0    0  501  0.00000000000E+00  0.00000000000E+00  0.27626686078E+03  0.27626686079E+03  0.25500000920E-02 0. -1.
        2   -1    0    0  501    0  0.00000000000E+00  0.00000000000E+00 -0.16419183794E+04  0.16419183794E+04  0.25500000920E-02 0.  1.
    10030    2    1    2    0    0  0.00000000000E+00  0.00000000000E+00 -0.13656515186E+04  0.19181852402E+04  0.13470079975E+04 0.  0.
        3    1    3    3  502    0  0.29036834414E+03 -0.60661985244E+03 -0.63135908287E+03  0.92245093223E+03  0.10100000352E+00 0. -1.
       -3    1    3    3    0  502 -0.29036834414E+03  0.60661985244E+03 -0.73429243577E+03  0.99573430798E+03  0.10100000352E+00 0.  1.
</event>
<event>
 5   0  0.1225690E-03  0.1377698E+04  0.7818609E-02  0.8970122E-01
       -1   -1    0    0    0  501  0.00000000000E+00  0.00000000000E+00  0.64169235095E+03  0.64169235097E+03  0.50400001928E-02 0.  1.
        1   -1    0    0  501    0  0.00000000000E+00  0.00000000000E+00 -0.73947095323E+03  0.73947095325E+03  0.50400001928E-02 0. -1.
    10030    2    1    2    0    0  0.00000000000E+00  0.00000000000E+00 -0.97778602280E+02  0.13811633042E+04  0.13776978689E+04 0.  0.
        4    1    3    3  502    0  0.58758837748E+03  0.24111198709E+03 -0.31623620745E+03  0.70950831107E+03  0.12699999809E+01 0. -1.
       -4    1    3    3    0  502 -0.58758837748E+03 -0.24111198709E+03  0.21845760518E+03  0.67165499315E+03  0.12699999809E+01 0.  1.
</event>
<event>
 5   0  0.1175374E-03  0.1399140E+04  0.7818609E-02  0.8954441E-01
        1   -1    0    0  501    0  0.00000000000E+00  0.00000000000E+00  0.74740497414E+03  0.74740497415E+03  0.50400001928E-02 0. -1.
       -1   -1    0    0    0  501  0.00000000000E+00  0.00000000000E+00 -0.65479665121E+03  0.65479665122E+03  0.50400001928E-02 0.  1.
    10030    2    1    2    0    0  0.00000000000E+00  0.00000000000E+00  0.92608322932E+02  0.14022016254E+04  0.13991401276E+04 0.  0.
        3    1    3    3  502    0 -0.27961419548E+03 -0.26334207063E+03  0.63227587208E+03  0.73980127946E+03  0.10100000352E+00 0. -1.
       -3    1    3    3    0  502  0.27961419548E+03  0.26334207063E+03 -0.53966754915E+03  0.66240034592E+03  0.10100000352E+00 0.  1.
</event>
<event>
 5   0  0.1225690E-03  0.1397952E+04  0.7818609E-02  0.8955303E-01
        1   -1    0    0  501    0  0.00000000000E+00  0.00000000000E+00  0.91935504631E+03  0.91935504632E+03  0.50400001928E-02 0.  1.
       -1   -1    0    0    0  501  0.00000000000E+00  0.00000000000E+00 -0.53142376908E+03  0.53142376910E+03  0.50400001928E-02 0. -1.
    10030    2    1    2    0    0  0.00000000000E+00  0.00000000000E+00  0.38793127723E+03  0.14507788154E+04  0.13979515354E+04 0.  0.
        4    1    3    3  502    0 -0.61869551751E+03 -0.32294257079E+03  0.23401762210E+03  0.73609911545E+03  0.12699999809E+01 0.  1.
       -4    1    3    3    0  502  0.61869551751E+03  0.32294257079E+03  0.15391365513E+03  0.71467969997E+03  0.12699999809E+01 0. -1.
</event>
<event>
 5   0  0.2190704E-03  0.1450344E+04  0.7818609E-02  0.8918162E-01
        2   -1    0    0  501    0  0.00000000000E+00  0.00000000000E+00  0.82824365087E+03  0.82824365087E+03  0.25500000920E-02 0. -1.
       -2   -1    0    0    0  501  0.00000000000E+00  0.00000000000E+00 -0.63492687800E+03  0.63492687801E+03  0.25500000920E-02 0.  1.
    10030    2    1    2    0    0  0.00000000000E+00  0.00000000000E+00  0.19331677286E+03  0.14631705289E+04  0.14503436220E+04 0.  0.
        5    1    3    3  502    0 -0.87463892003E+02  0.71626522352E+03  0.16917078589E+03  0.74116573560E+03  0.46999998093E+01 0. -1.
       -5    1    3    3    0  502  0.87463892003E+02 -0.71626522352E+03  0.24145986973E+02  0.72200479328E+03  0.46999998093E+01 0.  1.
</event>
<event>
 5   0  0.1225690E-03  0.1401664E+04  0.7818609E-02  0.8952615E-01
        1   -1    0    0  501    0  0.00000000000E+00  0.00000000000E+00  0.11290047228E+04  0.11290047229E+04  0.50400001928E-02 0.  1.
       -1   -1    0    0    0  501  0.00000000000E+00  0.00000000000E+00 -0.43504285618E+03  0.43504285621E+03  0.50400001928E-02 0. -1.
    10030    2    1    2    0    0  0.00000000000E+00  0.00000000000E+00  0.69396186666E+03  0.15640475791E+04  0.14016639245E+04 0.  0.
        4    1    3    3  502    0  0.37945137151E+03 -0.55292817660E+03  0.11979934936E+03  0.68122419865E+03  0.12699999809E+01 0. -1.
       -4    1    3    3    0  502 -0.37945137151E+03  0.55292817660E+03  0.57416251731E+03  0.88282338041E+03  0.12699999809E+01 0.  1.
</event>
<event>
 5   0  0.8293000E-04  0.1423367E+04  0.7818609E-02  0.8937076E-01
       -3   -1    0    0    0  501  0.00000000000E+00  0.00000000000E+00  0.67762704875E+03  0.67762705627E+03  0.10100000352E+00 0. -1.
        3   -1    0    0  501    0  0.00000000000E+00  0.00000000000E+00 -0.74745144489E+03  0.74745145172E+03  0.10100000352E+00 0.  1.
    10030    2    1    2    0    0  0.00000000000E+00  0.00000000000E+00 -0.69824396147E+02  0.14250785080E+04  0.14233668914E+04 0.  0.
        1    1    3    3  502    0  0.92448251710E+02  0.46228181781E+03 -0.56869697599E+03  0.73869304102E+03  0.50400001928E-02 0.  1.
       -1    1    3    3    0  502 -0.92448251710E+02 -0.46228181781E+03  0.49887257985E+03  0.68638546697E+03  0.50400001928E-02 0. -1.
</event>
<event>
 5   0  0.1238683E-03  0.1397908E+04  0.7818609E-02  0.8955334E-01
       -1   -1    0    0    0  501  0.00000000000E+00  0.00000000000E+00  0.76374930068E+03  0.76374930069E+03  0.50400001928E-02 0. -1.
        1   -1    0    0  501    0  0.00000000000E+00  0.00000000000E+00 -0.63965569485E+03  0.63965569487E+03  0.50400001928E-02 0.  1.
    10030    2    1    2    0    0  0.00000000000E+00  0.00000000000E+00  0.12409360583E+03  0.14034049956E+04  0.13979078505E+04 0.  0.
        2    1    3    3  502    0 -0.31571790591E+03 -0.29654413416E+03 -0.48867246058E+03  0.65300612046E+03  0.25500000920E-02 0.  1.
       -2    1    3    3    0  502  0.31571790591E+03  0.29654413416E+03  0.61276606641E+03  0.75039887511E+03  0.25500000920E-02 0. -1.
</event>
<event>
 5   0  0.1199720E-03  0.1452123E+04  0.7818609E-02  0.8916930E-01
       -1   -1    0    0    0  501  0.00000000000E+00  0.00000000000E+00  0.10991842868E+04  0.10991842868E+04  0.50400001928E-02 0.  1.
        1   -1    0    0  501    0  0.00000000000E+00  0.00000000000E+00 -0.47959683746E+03  0.47959683749E+03  0.50400001928E-02 0. -1.
    10030    2    1    2    0    0  0.00000000000E+00  0.00000000000E+00  0.61958744929E+03  0.15787811243E+04  0.14521230082E+04 0.  0.
        5    1    3    3  502    0 -0.31982306823E+02 -0.65266073353E+03  0.65386891187E+03  0.92442173544E+03  0.46999998093E+01 0.  1.
       -5    1    3    3    0  502  0.31982306823E+02  0.65266073353E+03 -0.34281462578E+02  0.65435938881E+03  0.46999998093E+01 0. -1.
</event>
<event>
 5   0  0.2172901E-03  0.1406311E+04  0.7818609E-02  0.8949263E-01
        2   -1    0    0  501    0  0.00000000000E+00  0.00000000000E+00  0.15841784512E+04  0.15841784512E+04  0.25500000920E-02 0.  1.
       -2   -1    0    0    0  501  0.00000000000E+00  0.00000000000E+00 -0.31210351809E+03  0.31210351810E+03  0.25500000920E-02 0. -1.
    10030    2    1    2    0    0  0.00000000000E+00  0.00000000000E+00  0.12720749331E+04  0.18962819693E+04  0.14063110153E+04 0.  0.
        2    1    3    3  502    0 -0.18840449990E+03  0.27489698491E+03 -0.19884755310E+03  0.38807854524E+03  0.25500000920E-02 0. -1.
       -2    1    3    3    0  502  0.18840449990E+03 -0.27489698491E+03  0.14709224862E+04  0.15082034240E+04  0.25500000920E-02 0.  1.
</event>
<event>
 5   0  0.2195980E-03  0.1394214E+04  0.7818609E-02  0.8958018E-01
        2   -1    0    0  501    0  0.00000000000E+00  0.00000000000E+00  0.78419806048E+03  0.78419806048E+03  0.25500000920E-02 0.  1.
       -2   -1    0    0    0  501  0.00000000000E+00  0.00000000000E+00 -0.61968779969E+03  0.61968779969E+03  0.25500000920E-02 0. -1.
    10030    2    1    2    0    0  0.00000000000E+00  0.00000000000E+00  0.16451026079E+03  0.14038858602E+04  0.13942137148E+04 0.  0.
        4    1    3    3  502    0 -0.35779168825E+03  0.17587045037E+03  0.65807104453E+03  0.76941823480E+03  0.12699999809E+01 0.  1.
       -4    1    3    3    0  502  0.35779168825E+03 -0.17587045037E+03 -0.49356078375E+03  0.63446762537E+03  0.12699999809E+01 0. -1.
</event>
<event>
 5   0  0.2236184E-03  0.1396518E+04  0.7818609E-02  0.8956343E-01
       -2   -1    0    0    0  501  0.00000000000E+00  0.00000000000E+00  0.32513620307E+03  0.32513620308E+03  0.25500000920E-02 0. -1.
        2   -1    0    0  501    0  0.00000000000E+00  0.00000000000E+00 -0.14995726564E+04  0.14995726564E+04  0.25500000920E-02 0.  1.
    10030    2    1    2    0    0  0.00000000000E+00  0.00000000000E+00 -0.11744364534E+04  0.18247088595E+04  0.13965176114E+04 0.  0.
        3    1    3    3  502    0 -0.29487943978E+03 -0.47029095189E+03 -0.33735290822E+02  0.55611648374E+03  0.10100000352E+00 0. -1.
       -3    1    3    3    0  502  0.29487943978E+03  0.47029095189E+03 -0.11407011625E+04  0.12685923758E+04  0.10100000352E+00 0.  1.
</event>
<event>
 5   0  0.1225690E-03  0.1389519E+04  0.7818609E-02  0.8961441E-01
        1   -1    0    0  501    0  0.00000000000E+00  0.00000000000E+00  0.15006345817E+04  0.15006345817E+04  0.50400001928E-02 0.  1.
       -1   -1    0    0    0  501  0.00000000000E+00  0.00000000000E+00 -0.32165765928E+03  0.32165765932E+03  0.50400001928E-02 0. -1.
    10030    2    1    2    0    0  0.00000000000E+00  0.00000000000E+00  0.11789769224E+04  0.18222922410E+04  0.13895187758E+04 0.  0.
        4    1    3    3  502    0  0.22779265649E+03  0.35062991530E+03  0.13171491996E+04  0.13819241871E+04  0.12699999809E+01 0.  1.
       -4    1    3    3    0  502 -0.22779265649E+03 -0.35062991530E+03 -0.13817227721E+03  0.44036805395E+03  0.12699999809E+01 0. -1.
</event>
<event>
 5   0  0.1175374E-03  0.1429275E+04  0.7818609E-02  0.8932896E-01
        1   -1    0    0  501    0  0.00000000000E+00  0.00000000000E+00  0.89559785604E+03  0.89559785606E+03  0.50400001928E-02 0. -1.
       -1   -1    0    0    0  501  0.00000000000E+00  0.00000000000E+00 -0.57024100793E+03  0.57024100795E+03  0.50400001928E-02 0.  1.
    10030    2    1    2    0    0  0.00000000000E+00  0.00000000000E+00  0.32535684811E+03  0.14658388640E+04  0.14292748149E+04 0.  0.
        3    1    3    3  502    0 -0.41480917803E+03 -0.94759408902E+02  0.75152753354E+03  0.86362008061E+03  0.10100000352E+00 0. -1.
       -3    1    3    3    0  502  0.41480917803E+03  0.94759408902E+02 -0.42617068543E+03  0.60221878340E+03  0.10100000352E+00 0.  1.
</event>
<event>
 5   0  0.1199720E-03  0.1374899E+04  0.7818609E-02  0.8972191E-01
        1   -1    0    0  501    0  0.00000000000E+00  0.00000000000E+00  0.25594632345E+04  0.25594632345E+04  0.50400001928E-02 0.  1.
       -1   -1    0    0    0  501  0.00000000000E+00  0.00000000000E+00 -0.18464301624E+03  0.18464301631E+03  0.50400001928E-02 0. -1.
    10030    2    1    2    0    0  0.00000000000E+00  0.00000000000E+00  0.23748202182E+04  0.27441062508E+04  0.13748992860E+04 0.  0.
        5    1    3    3  502    0 -0.24128740831E+03  0.53615170307E+03  0.47646181126E+03  0.75678015942E+03  0.46999998093E+01 0. -1.
       -5    1    3    3    0  502  0.24128740831E+03 -0.53615170307E+03  0.18983584070E+04  0.19873260914E+04  0.46999998093E+01 0.  1.
</event>
<event>
 5   0  0.1199720E-03  0.1184103E+04  0.7818609E-02  0.9126886E-01
        1   -1    0    0  501    0  0.00000000000E+00  0.00000000000E+00  0.26137372747E+03  0.26137372752E+03  0.50400001928E-02 0. -1.
       -1   -1    0    0    0  501  0.00000000000E+00  0.00000000000E+00 -0.13410867012E+04  0.13410867012E+04  0.50400001928E-02 0.  1.
    10030    2    1    2    0    0  0.00000000000E+00  0.00000000000E+00 -0.10797129737E+04  0.16024604287E+04  0.11841027489E+04 0.  0.
        5    1    3    3  502    0 -0.18857050351E+03 -0.21682068654E+03  0.16064777325E+03  0.32924131265E+03  0.46999998093E+01 0. -1.
       -5    1    3    3    0  502  0.18857050351E+03  0.21682068654E+03 -0.12403607470E+04  0.12732191161E+04  0.46999998093E+01 0.  1.
</event>
<event>
 5   0  0.2172901E-03  0.1439279E+04  0.7818609E-02  0.8925867E-01
        2   -1    0    0  501    0  0.00000000000E+00  0.00000000000E+00  0.77356762949E+03  0.77356762949E+03  0.25500000920E-02 0.  1.
       -2   -1    0    0    0  501  0.00000000000E+00  0.00000000000E+00 -0.66947101191E+03  0.66947101191E+03  0.25500000920E-02 0. -1.
    10030    2    1    2    0    0  0.00000000000E+00  0.00000000000E+00  0.10409661758E+03  0.14430386414E+04  0.14392791303E+04 0.  0.
        2    1    3    3  502    0 -0.47700627264E+03  0.52965875769E+03  0.15134092666E+03  0.72868200185E+03  0.25500000920E-02 0.  1.
       -2    1    3    3    0  502  0.47700627264E+03 -0.52965875769E+03 -0.47244309078E+02  0.71435663956E+03  0.25500000920E-02 0. -1.
</event>
<event>
 5   0  0.2172901E-03  0.1561986E+04  0.7818609E-02  0.8844248E-01
        2   -1    0    0  501    0  0.00000000000E+00  0.00000000000E+00  0.67792692318E+03  0.67792692318E+03  0.25500000920E-02 0.  1.
       -2   -1    0    0    0  501  0.00000000000E+00  0.00000000000E+00 -0.89972857727E+03  0.89972857728E+03  0.25500000920E-02 0. -1.
    10030    2    1    2    0    0  0.00000000000E+00  0.00000000000E+00 -0.22180165410E+03  0.15776555005E+04  0.15619862049E+04 0.  0.
        2    1    3    3  502    0 -0.27254952256E+02 -0.68685740497E+03  0.26353944112E+03  0.73618541430E+03  0.25500000920E-02 0. -1.
       -2    1    3    3    0  502  0.27254952256E+02  0.68685740497E+03 -0.48534109522E+03  0.84147008616E+03  0.25500000920E-02 0.  1.
</event>
<event>
 5   0  0.1175374E-03  0.1389686E+04  0.7818609E-02  0.8961318E-01
        1   -1    0    0  501    0  0.00000000000E+00  0.00000000000E+00  0.95030258361E+03  0.95030258363E+03  0.50400001928E-02 0. -1.
       -1   -1    0    0    0  501  0.00000000000E+00  0.00000000000E+00 -0.50805574815E+03  0.50805574817E+03  0.50400001928E-02 0.  1.
    10030    2    1    2    0    0  0.00000000000E+00  0.00000000000E+00  0.44224683547E+03  0.14583583318E+04  0.13896858496E+04 0.  0.
        3    1    3    3  502    0  0.38078244421E+02  0.64984324087E+03  0.47615627285E+03  0.80651782174E+03  0.10100000352E+00 0.  1.
       -3    1    3    3    0  502 -0.38078244421E+02 -0.64984324087E+03 -0.33909437386E+02  0.65184051006E+03  0.10100000352E+00 0. -1.
</event>
<event>
 5   0  0.1210275E-03  0.1386812E+04  0.7818609E-02  0.8963420E-01
       -1   -1    0    0    0  501  0.00000000000E+00  0.00000000000E+00  0.60917294162E+03  0.60917294164E+03  0.50400001928E-02 0. -1.
        1   -1    0    0  501    0  0.00000000000E+00  0.00000000000E+00 -0.78928674089E+03  0.78928674091E+03  0.50400001928E-02 0.  1.
    10030    2    1    2    0    0  0.00000000000E+00  0.00000000000E+00 -0.18011379928E+03  0.13984596826E+04  0.13868123532E+04 0.  0.
        1    1    3    3  502    0 -0.56053616931E+03 -0.13438806114E+03  0.29860350476E+03  0.64917255115E+03  0.50400001928E-02 0. -1.
       -1    1    3    3    0  502  0.56053616931E+03  0.13438806114E+03 -0.47871730403E+03  0.74928713140E+03  0.50400001928E-02 0.  1.
</event>
<event>
 5   0  0.2083966E-03  0.1423056E+04  0.7818609E-02  0.8937296E-01
        2   -1    0    0  501    0  0.00000000000E+00  0.00000000000E+00  0.68649731785E+03  0.68649731785E+03  0.25500000920E-02 0.  1.
       -2   -1    0    0    0  501  0.00000000000E+00  0.00000000000E+00 -0.73747169936E+03  0.73747169936E+03  0.25500000920E-02 0. -1.
    10030    2    1    2    0    0  0.00000000000E+00  0.00000000000E+00 -0.50974381507E+02  0.14239690172E+04  0.14230563497E+04 0.  0.
        1    1    3    3  502    0 -0.69271064837E+03 -0.10950818667E+03  0.94724190813E+02  0.70768125429E+03  0.50400001928E-02 0.  1.
       -1    1    3    3    0  502  0.69271064837E+03  0.10950818667E+03 -0.14569857232E+03  0.71628776293E+03  0.50400001928E-02 0. -1.
</event>
<event>
 5   0  0.2190704E-03  0.1390436E+04  0.7818609E-02  0.8960771E-01
        2   -1    0    0  501    0  0.00000000000E+00  0.00000000000E+00  0.76941727759E+03  0.76941727760E+03  0.25500000920E-02 0.  1.
       -2   -1    0    0    0  501  0.00000000000E+00  0.00000000000E+00 -0.62817408039E+03  0.62817408039E+03  0.25500000920E-02 0. -1.
    10030    2    1    2    0    0  0.00000000000E+00  0.00000000000E+00  0.14124319721E+03  0.13975913580E+04  0.13904358896E+04 0.  0.
        5    1    3    3  502    0 -0.32663049246E+03 -0.63522826492E+02 -0.54291562106E+03  0.63679045979E+03  0.46999998093E+01 0. -1.
       -5    1    3    3    0  502  0.32663049246E+03  0.63522826492E+02  0.68415881827E+03  0.76080089820E+03  0.46999998093E+01 0.  1.
</event>
<event>
 5   0  0.1238683E-03  0.1361400E+04  0.7818609E-02  0.8982243E-01
       -1   -1    0    0    0  501  0.00000000000E+00  0.00000000000E+00  0.54734003770E+03  0.54734003773E+03  0.50400001928E-02 0. -1.
        1   -1    0    0  501    0  0.00000000000E+00  0.00000000000E+00 -0.84655384708E+03  0.84655384710E+03  0.50400001928E-02 0.  1.
    10030    2    1    2    0    0  0.00000000000E+00  0.00000000000E+00 -0.29921380938E+03  0.13938938848E+04  0.13614004769E+04 0.  0.
        2    1    3    3  502    0  0.32800668802E+03 -0.41294480102E+03 -0.59027579765E+03  0.79154110024E+03  0.25500000920E-02 0.  1.
       -2    1    3    3    0  502 -0.32800668802E+03  0.41294480102E+03  0.29106198827E+03  0.60235278458E+03  0.25500000920E-02 0. -1.
</event>
<event>
 5   0  0.1238683E-03  0.1235989E+04  0.7818609E-02  0.9081926E-01
       -1   -1    0    0    0  501  0.00000000000E+00  0.00000000000E+00  0.30530688355E+03  0.30530688360E+03  0.50400001928E-02 0. -1.
        1   -1    0    0  501    0  0.00000000000E+00  0.00000000000E+00 -0.12509280787E+04  0.12509280788E+04  0.50400001928E-02 0.  1.
    10030    2    1    2    0    0  0.00000000000E+00  0.00000000000E+00 -0.94562119519E+03  0.15562349623E+04  0.12359885975E+04 0.  0.
        2    1    3    3  502    0  0.42900430660E+03 -0.68160034288E+02 -0.10262805030E+04  0.11144245853E+04  0.25500000920E-02 0.  1.
       -2    1    3    3    0  502 -0.42900430660E+03  0.68160034288E+02  0.80659307827E+02  0.44181037709E+03  0.25500000920E-02 0. -1.
</event>
<event>
 5   0  0.1175374E-03  0.1388654E+04  0.7818609E-02  0.8962073E-01
        1   -1    0    0  501    0  0.00000000000E+00  0.00000000000E+00  0.12445989768E+04  0.12445989768E+04  0.50400001928E-02 0.  1.
       -1   -1    0    0    0  501  0.00000000000E+00  0.00000000000E+00 -0.38734556631E+03  0.38734556634E+03  0.50400001928E-02 0. -1.
    10030    2    1    2    0    0  0.00000000000E+00  0.00000000000E+00  0.85725341052E+03  0.16319445432E+04  0.13886538741E+04 0.  0.
        3    1    3    3  502    0 -0.34422734607E+03  0.39327118562E+03 -0.10855001934E+03  0.53379566139E+03  0.10100000352E+00 0. -1.
       -3    1    3    3    0  502  0.34422734607E+03 -0.39327118562E+03  0.96580342986E+03  0.10981488818E+04  0.10100000352E+00 0.  1.
</event>
<event>
 5   0  0.2236184E-03  0.1385322E+04  0.7818609E-02  0.8964512E-01
       -2   -1    0    0    0  501  0.00000000000E+00  0.00000000000E+00  0.32427040939E+03  0.32427040940E+03  0.25500000920E-02 0. -1.
        2   -1    0    0  501    0  0.00000000000E+00  0.00000000000E+00 -0.14795651406E+04  0.14795651406E+04  0.25500000920E-02 0.  1.
    10030    2    1    2    0    0  0.00000000000E+00  0.00000000000E+00 -0.11552947312E+04  0.18038355500E+04  0.13853219032E+04 0.  0.
        3    1    3    3  502    0 -0.23816626022E+03 -0.42148528799E+03  0.67396096929E+02  0.48878958621E+03  0.10100000352E+00 0. -1.
       -3    1    3    3    0  502  0.23816626022E+03  0.42148528799E+03 -0.12226908282E+04  0.13150459638E+04  0.10100000352E+00 0.  1.
</event>
<event>
 5   0  0.1199720E-03  0.1367216E+04  0.7818609E-02  0.8977897E-01
        1   -1    0    0  501    0  0.00000000000E+00  0.00000000000E+00  0.93121773511E+03  0.93121773513E+03  0.50400001928E-02 0.  1.
       -1   -1    0    0    0  501  0.00000000000E+00  0.00000000000E+00 -0.50183743428E+03  0.50183743431E+03  0.50400001928E-02 0. -1.
    10030    2    1    2    0    0  0.00000000000E+00  0.00000000000E+00  0.42938030083E+03  0.14330551694E+04  0.13672160312E+04 0.  0.
        5    1    3    3  502    0  0.60231085057E+03  0.19355860059E+03  0.48610890301E+03  0.79785164545E+03  0.46999998093E+01 0.  1.
       -5    1    3    3    0  502 -0.60231085057E+03 -0.19355860059E+03 -0.56728602176E+02  0.63520352398E+03  0.46999998093E+01 0. -1.
</event>
<event>
 5   0  0.1238683E-03  0.1341601E+04  0.7818609E-02  0.8997210E-01
        1   -1    0    0  501    0  0.00000000000E+00  0.00000000000E+00  0.17458214673E+04  0.17458214673E+04  0.50400001928E-02 0.  1.
       -1   -1    0    0    0  501  0.00000000000E+00  0.00000000000E+00 -0.25774319944E+03  0.25774319949E+03  0.50400001928E-02 0. -1.
    10030    2    1    2    0    0  0.00000000000E+00  0.00000000000E+00  0.14880782678E+04  0.20035646668E+04  0.13416014470E+04 0.  0.
        2    1    3    3  502    0  0.53815496130E+03  0.39282711570E+03  0.62788171270E+03  0.91551043160E+03  0.25500000920E-02 0. -1.
       -2    1    3    3    0  502 -0.53815496130E+03 -0.39282711570E+03  0.86019655514E+03  0.10880542352E+04  0.25500000920E-02 0.  1.
</event>
<event>
 5   0  0.2083966E-03  0.1419665E+04  0.7818609E-02  0.8939706E-01
       -2   -1    0    0    0  501  0.00000000000E+00  0.00000000000E+00  0.46503232969E+03  0.46503232969E+03  0.25500000920E-02 0.  1.
        2   -1    0    0  501    0  0.00000000000E+00  0.00000000000E+00 -0.10834991440E+04  0.10834991440E+04  0.25500000920E-02 0. -1.
    10030    2    1    2    0    0  0.00000000000E+00  0.00000000000E+00 -0.61846681434E+03  0.15485314737E+04  0.14196649339E+04 0.  0.
        1    1    3    3  502    0 -0.49332802809E+03 -0.48509722948E+03 -0.48228598869E+03  0.84338107654E+03  0.50400001928E-02 0.  1.
       -1    1    3    3    0  502  0.49332802809E+03  0.48509722948E+03 -0.13618082564E+03  0.70515039718E+03  0.50400001928E-02 0. -1.
</event>
<event>
 5   0  0.2190704E-03  0.1420500E+04  0.7818609E-02  0.8939112E-01
        2   -1    0    0  501    0  0.00000000000E+00  0.00000000000E+00  0.14021285460E+04  0.14021285460E+04  0.25500000920E-02 0.  1.
       -2   -1    0    0    0  501  0.00000000000E+00  0.00000000000E+00 -0.35977782620E+03  0.35977782621E+03  0.25500000920E-02 0. -1.
    10030    2    1    2    0    0  0.00000000000E+00  0.00000000000E+00  0.10423507198E+04  0.17619063722E+04  0.14204995746E+04 0.  0.
        5    1    3    3  502    0 -0.51727083704E+03  0.36748136706E+03  0.12538939497E+03  0.64680465703E+03  0.46999998093E+01 0. -1.
       -5    1    3    3    0  502  0.51727083704E+03 -0.36748136706E+03  0.91696132480E+03  0.11151017152E+04  0.46999998093E+01 0.  1.
</event>
<event>
 5   0  0.2190704E-03  0.1410213E+04  0.7818609E-02  0.8946459E-01
       -2   -1    0    0    0  501  0.00000000000E+00  0.00000000000E+00  0.62273213902E+03  0.62273213903E+03  0.25500000920E-02 0.  1.
        2   -1    0    0  501    0  0.00000000000E+00  0.00000000000E+00 -0.79837691438E+03  0.79837691438E+03  0.25500000920E-02 0. -1.
    10030    2    1    2    0    0  0.00000000000E+00  0.00000000000E+00 -0.17564477536E+03  0.14211090534E+04  0.14102126983E+04 0.  0.
        5    1    3    3  502    0 -0.70065033607E+03  0.30663883390E+02 -0.14446963541E+02  0.70148554649E+03  0.46999998093E+01 0. -1.
       -5    1    3    3    0  502  0.70065033607E+03 -0.30663883390E+02 -0.16119781181E+03  0.71962350692E+03  0.46999998093E+01 0.  1.
</event>
<event>
 5   0  0.2190704E-03  0.1499474E+04  0.7818609E-02  0.8884803E-01
        2   -1    0    0  501    0  0.00000000000E+00  0.00000000000E+00  0.71462109232E+03  0.71462109233E+03  0.25500000920E-02 0.  1.
       -2   -1    0    0    0  501  0.00000000000E+00  0.00000000000E+00 -0.78657836080E+03  0.78657836080E+03  0.25500000920E-02 0. -1.
    10030    2    1    2    0    0  0.00000000000E+00  0.00000000000E+00 -0.71957268475E+02  0.15011994531E+04  0.14994738909E+04 0.  0.
        5    1    3    3  502    0  0.37658077508E+03 -0.13976940784E+03 -0.66974331813E+03  0.78097808529E+03  0.46999998093E+01 0. -1.
       -5    1    3    3    0  502 -0.37658077508E+03  0.13976940784E+03  0.59778604966E+03  0.72022136784E+03  0.46999998093E+01 0.  1.
</event>
<event>
 5   0  0.2172901E-03  0.1358029E+04  0.7818609E-02  0.8984773E-01
       -2   -1    0    0    0  501  0.00000000000E+00  0.00000000000E+00  0.94596575403E+03  0.94596575403E+03  0.25500000920E-02 0.  1.
        2   -1    0    0  501    0  0.00000000000E+00  0.00000000000E+00 -0.48739658757E+03  0.48739658757E+03  0.25500000920E-02 0. -1.
    10030    2    1    2    0    0  0.00000000000E+00  0.00000000000E+00  0.45856916647E+03  0.14333623416E+04  0.13580286896E+04 0.  0.
        2    1    3    3  502    0  0.17590055591E+03  0.11520730944E+02 -0.46282455040E+03  0.49525780889E+03  0.25500000920E-02 0. -1.
       -2    1    3    3    0  502 -0.17590055591E+03 -0.11520730944E+02  0.92139371687E+03  0.93810453271E+03  0.25500000920E-02 0.  1.
</event>
<event>
 5   0  0.2195980E-03  0.1126601E+04  0.7818609E-02  0.9179645E-01
       -2   -1    0    0    0  501  0.00000000000E+00  0.00000000000E+00  0.37346783934E+03  0.37346783934E+03  0.25500000920E-02 0. -1.
        2   -1    0    0  501    0  0.00000000000E+00  0.00000000000E+00 -0.84962516432E+03  0.84962516433E+03  0.25500000920E-02 0.  1.
    10030    2    1    2    0    0  0.00000000000E+00  0.00000000000E+00 -0.47615732499E+03  0.12230930037E+04  0.11266013925E+04 0.  0.
        4    1    3    3  502    0  0.62314650265E+02  0.42667562914E+03 -0.63157320078E+03  0.76473624798E+03  0.12699999809E+01 0.  1.
       -4    1    3    3    0  502 -0.62314650265E+02 -0.42667562914E+03  0.15541587579E+03  0.45835675569E+03  0.12699999809E+01 0. -1.
</event>
<event>
 5   0  0.2236184E-03  0.1441353E+04  0.7818609E-02  0.8924417E-01
        2   -1    0    0  501    0  0.00000000000E+00  0.00000000000E+00  0.52730052553E+03  0.52730052554E+03  0.25500000920E-02 0. -1.
       -2   -1    0    0    0  501  0.00000000000E+00  0.00000000000E+00 -0.98496891597E+03  0.98496891597E+03  0.25500000920E-02 0.  1.
    10030    2    1    2    0    0  0.00000000000E+00  0.00000000000E+00 -0.45766839043E+03  0.15122694415E+04  0.14413530130E+04 0.  0.
        3    1    3    3  502    0  0.23434804383E+03 -0.15125223276E+03  0.46837436998E+03  0.54513374892E+03  0.10100000352E+00 0. -1.
       -3    1    3    3    0  502 -0.23434804383E+03  0.15125223276E+03 -0.92604276041E+03  0.96713569259E+03  0.10100000352E+00 0.  1.
</event>
<event>
 5   0  0.2190704E-03  0.1327087E+04  0.7818609E-02  0.9008357E-01
        2   -1    0    0  501    0  0.00000000000E+00  0.00000000000E+00  0.59774113159E+03  0.59774113160E+03  0.25500000920E-02 0.  1.
       -2   -1    0    0    0  501  0.00000000000E+00  0.00000000000E+00 -0.73658959359E+03  0.73658959359E+03  0.25500000920E-02 0. -1.
    10030    2    1    2    0    0  0.00000000000E+00  0.00000000000E+00 -0.13884846200E+03  0.13343307252E+04  0.13270868806E+04 0.  0.
        5    1    3    3  502    0  0.40646882336E+03 -0.25156222088E+03  0.39326951945E+03  0.61901814211E+03  0.46999998093E+01 0.  1.
       -5    1    3    3    0  502 -0.40646882336E+03  0.25156222088E+03 -0.53211798144E+03  0.71531258308E+03  0.46999998093E+01 0. -1.
</event>
<event>
 5   0  0.2083966E-03  0.1358298E+04  0.7818609E-02  0.8984570E-01
       -2   -1    0    0    0  501  0.00000000000E+00  0.00000000000E+00  0.54714068994E+03  0.54714068995E+03  0.25500000920E-02 0.  1.
        2   -1    0    0  501    0  0.00000000000E+00  0.00000000000E+00 -0.84300662208E+03  0.84300662208E+03  0.25500000920E-02 0. -1.
    10030    2    1    2    0    0  0.00000000000E+00  0.00000000000E+00 -0.29586593213E+03  0.13901473120E+04  0.13582977948E+04 0.  0.
        1    1    3    3  502    0  0.48408018200E+03 -0.14408324689E+03  0.31675036953E+03  0.59617480764E+03  0.50400001928E-02 0.  1.
       -1    1    3    3    0  502 -0.48408018200E+03  0.14408324689E+03 -0.61261630166E+03  0.79397250439E+03  0.50400001928E-02 0. -1.
</event>
<event>
 5   0  0.8293000E-04  0.1191565E+04  0.7818609E-02  0.9120272E-01
       -3   -1    0    0    0  501  0.00000000000E+00  0.00000000000E+00  0.10677367793E+04  0.10677367841E+04  0.10100000352E+00 0.  1.
        3   -1    0    0  501    0  0.00000000000E+00  0.00000000000E+00 -0.33243856481E+03  0.33243858015E+03  0.10100000352E+00 0. -1.
    10030    2    1    2    0    0  0.00000000000E+00  0.00000000000E+00  0.73529821448E+03  0.14001753642E+04  0.11915651834E+04 0.  0.
        2    1    3    3  502    0 -0.50570959838E+03  0.26556012424E+03  0.56669305046E+03  0.80461505761E+03  0.25500000920E-02 0.  1.
       -2    1    3    3    0  502  0.50570959838E+03 -0.26556012424E+03  0.16860516401E+03  0.59556030661E+03  0.25500000920E-02 0. -1.
</event>
<event>
 5   0  0.2083966E-03  0.1398980E+04  0.7818609E-02  0.8954557E-01
        2   -1    0    0  501    0  0.00000000000E+00  0.00000000000E+00  0.14218270382E+04  0.14218270382E+04  0.25500000920E-02 0.  1.
       -2   -1    0    0    0  501  0.00000000000E+00  0.00000000000E+00 -0.34412488706E+03  0.34412488707E+03  0.25500000920E-02 0. -1.
    10030    2    1    2    0    0  0.00000000000E+00  0.00000000000E+00  0.10777021511E+04  0.17659519253E+04  0.13989797267E+04 0.  0.
        1    1    3    3  502    0  0.39166697145E+03 -0.22952243750E+03  0.12106139513E+04  0.12929306652E+04  0.50400001928E-02 0.  1.
       -1    1    3    3    0  502 -0.39166697145E+03  0.22952243750E+03 -0.13291180017E+03  0.47302126009E+03  0.50400001928E-02 0. -1.
</event>
<event>
 5   0  0.1238683E-03  0.1409597E+04  0.7818609E-02  0.8946901E-01
        1   -1    0    0  501    0  0.00000000000E+00  0.00000000000E+00  0.12409772648E+04  0.12409772648E+04  0.50400001928E-02 0. -1.
       -1   -1    0    0    0  501  0.00000000000E+00  0.00000000000E+00 -0.40028179913E+03  0.40028179916E+03  0.50400001928E-02 0.  1.
    10030    2    1    2    0    0  0.00000000000E+00  0.00000000000E+00  0.84069546564E+03  0.16412590640E+04  0.14095965554E+04 0.  0.
        2    1    3    3  502    0  0.55735088979E+02 -0.22249700956E+03  0.11963035921E+04  0.12180942509E+04  0.25500000920E-02 0. -1.
       -2    1    3    3    0  502 -0.55735088979E+02  0.22249700956E+03 -0.35560812649E+03  0.42316481309E+03  0.25500000920E-02 0.  1.
</event>
<event>
 5   0  0.2236184E-03  0.1412484E+04  0.7818609E-02  0.8944831E-01
       -2   -1    0    0    0  501  0.00000000000E+00  0.00000000000E+00  0.24720200518E+04  0.24720200518E+04  0.25500000920E-02 0. -1.
        2   -1    0    0  501    0  0.00000000000E+00  0.00000000000E+00 -0.20176932075E+03  0.20176932077E+03  0.25500000920E-02 0.  1.
    10030    2    1    2    0    0  0.00000000000E+00  0.00000000000E+00  0.22702507310E+04  0.26737893725E+04  0.14124840626E+04 0.  0.
        3    1    3    3  502    0 -0.27800614524E+03  0.36146205641E+03  0.11426253703E+03  0.47010442732E+03  0.10100000352E+00 0.  1.
       -3    1    3    3    0  502  0.27800614524E+03 -0.36146205641E+03  0.21559881940E+04  0.22036849452E+04  0.10100000352E+00 0. -1.
</event>
<event>
 5   0  0.1225690E-03  0.1418596E+04  0.7818609E-02  0.8940467E-01
        1   -1    0    0  501    0  0.00000000000E+00  0.00000000000E+00  0.18039438260E+04  0.18039438260E+04  0.50400001928E-02 0.  1.
       -1   -1    0    0    0  501  0.00000000000E+00  0.00000000000E+00 -0.27889108170E+03  0.27889108174E+03  0.50400001928E-02 0. -1.
    10030    2    1    2    0    0  0.00000000000E+00  0.00000000000E+00  0.15250527443E+04  0.20828349078E+04  0.14185962710E+04 0.  0.
        4    1    3    3  502    0  0.18753988048E+03 -0.58283042131E+03  0.12883103206E+04  0.14263967196E+04  0.12699999809E+01 0.  1.
       -4    1    3    3    0  502 -0.18753988048E+03  0.58283042131E+03  0.23674242378E+03  0.65643818817E+03  0.12699999809E+01 0. -1.
</event>
<event>
 5   0  0.1210275E-03  0.1457707E+04  0.7818609E-02  0.8913075E-01
        1   -1    0    0  501    0  0.00000000000E+00  0.00000000000E+00  0.43300016643E+03  0.43300016646E+03  0.50400001928E-02 0.  1.
       -1   -1    0    0    0  501  0.00000000000E+00  0.00000000000E+00 -0.12268529661E+04  0.12268529661E+04  0.50400001928E-02 0. -1.
    10030    2    1    2    0    0  0.00000000000E+00  0.00000000000E+00 -0.79385279969E+03  0.16598531326E+04  0.14577071565E+04 0.  0.
        1    1    3    3  502    0  0.16159768204E+03 -0.59514701564E+03  0.45421319663E+02  0.61836629709E+03  0.50400001928E-02 0.  1.
       -1    1    3    3    0  502 -0.16159768204E+03  0.59514701564E+03 -0.83927411936E+03  0.10414868355E+04  0.50400001928E-02 0. -1.
</event>
<event>
 5   0  0.1199720E-03  0.1413515E+04  0.7818609E-02  0.8944093E-01
        1   -1    0    0  501    0  0.00000000000E+00  0.00000000000E+00  0.93445567701E+03  0.93445567702E+03  0.50400001928E-02 0.  1.
       -1   -1    0    0    0  501  0.00000000000E+00  0.00000000000E+00 -0.53454253690E+03  0.53454253692E+03  0.50400001928E-02 0. -1.
    10030    2    1    2    0    0  0.00000000000E+00  0.00000000000E+00  0.39991314011E+03  0.14689982139E+04  0.14135152044E+04 0.  0.
        5    1    3    3  502    0  0.61605325004E+03  0.31760478678E+03  0.56367429827E+02  0.69540907718E+03  0.46999998093E+01 0. -1.
       -5    1    3    3    0  502 -0.61605325004E+03 -0.31760478678E+03  0.34354571028E+03  0.77358913677E+03  0.46999998093E+01 0.  1.
</event>
<event>
 5   0  0.2195980E-03  0.1396782E+04  0.7818609E-02  0.8956151E-01
       -2   -1    0    0    0  501  0.00000000000E+00  0.00000000000E+00  0.23004709176E+03  0.23004709177E+03  0.25500000920E-02 0.  1.
        2   -1    0    0  501    0  0.00000000000E+00  0.00000000000E+00 -0.21202193405E+04  0.21202193405E+04  0.25500000920E-02 0. -1.
    10030    2    1    2    0    0  0.00000000000E+00  0.00000000000E+00 -0.18901722487E+04  0.23502664323E+04  0.13967824357E+04 0.  0.
        4    1    3    3  502    0  0.19916681965E+03 -0.55611742640E+03 -0.15719972963E+04  0.16793186494E+04  0.12699999809E+01 0. -1.
       -4    1    3    3    0  502 -0.19916681965E+03  0.55611742640E+03 -0.31817495248E+03  0.67094778283E+03  0.12699999809E+01 0.  1.
</event>
<event>
 5   0  0.1238683E-03  0.1408633E+04  0.7818609E-02  0.8947593E-01
       -1   -1    0    0    0  501  0.00000000000E+00  0.00000000000E+00  0.16692406566E+04  0.16692406566E+04  0.50400001928E-02 0.  1.
        1   -1    0    0  501    0  0.00000000000E+00  0.00000000000E+00 -0.29717791461E+03  0.29717791466E+03  0.50400001928E-02 0. -1.
    10030    2    1    2    0    0  0.00000000000E+00  0.00000000000E+00  0.13720627420E+04  0.19664185713E+04  0.14086326098E+04 0.  0.
        2    1    3    3  502    0 -0.37763439558E+03  0.51407967000E+03  0.11029024525E+04  0.12740798498E+04  0.25500000920E-02 0.  1.
       -2    1    3    3    0  502  0.37763439558E+03 -0.51407967000E+03  0.26916028946E+03  0.69233872148E+03  0.25500000920E-02 0. -1.
</event>
<event>
 5   0  0.2172901E-03  0.1446453E+04  0.7818609E-02  0.8920863E-01
        2   -1    0    0  501    0  0.00000000000E+00  0.00000000000E+00  0.89492037452E+03  0.89492037452E+03  0.25500000920E-02 0.  1.
       -2   -1    0    0    0  501  0.00000000000E+00  0.00000000000E+00 -0.58447294825E+03  0.58447294826E+03  0.25500000920E-02 0. -1.
    10030    2    1    2    0    0  0.00000000000E+00  0.00000000000E+00  0.31044742627E+03  0.14793933228E+04  0.14464532481E+04 0.  0.
        2    1    3    3  502    0  0.36667080694E+03  0.32956885927E+03  0.69641816207E+03  0.85326512300E+03  0.25500000920E-02 0.  1.
       -2    1    3    3    0  502 -0.36667080694E+03 -0.32956885927E+03 -0.38597073580E+03  0.62612819978E+03  0.25500000920E-02 0. -1.
</event>
<event>
 5   0  0.2083966E-03  0.1386239E+04  0.7818609E-02  0.8963840E-01
        2   -1    0    0  501    0  0.00000000000E+00  0.00000000000E+00  0.10145176980E+04  0.10145176980E+04  0.25500000920E-02 0.  1.
       -2   -1    0    0    0  501  0.00000000000E+00  0.00000000000E+00 -0.47353966451E+03  0.47353966451E+03  0.25500000920E-02 0. -1.
    10030    2    1    2    0    0  0.00000000000E+00  0.00000000000E+00  0.54097803351E+03  0.14880573625E+04  0.13862386091E+04 0.  0.
        1    1    3    3  502    0  0.17916214343E+02 -0.18211921030E+03  0.98811718879E+03  0.10049198855E+04  0.50400001928E-02 0.  1.
       -1    1    3    3    0  502 -0.17916214343E+02  0.18211921030E+03 -0.44713915528E+03  0.48313747702E+03  0.50400001928E-02 0. -1.
</event>
<event>
 5   0  0.2190704E-03  0.1401401E+04  0.7818609E-02  0.8952805E-01
       -2   -1    0    0    0  501  0.00000000000E+00  0.00000000000E+00  0.48510531593E+03  0.48510531594E+03  0.25500000920E-02 0. -1.
        2   -1    0    0  501    0  0.00000000000E+00  0.00000000000E+00 -0.10121123701E+04  0.10121123701E+04  0.25500000920E-02 0.  1.
    10030    2    1    2    0    0  0.00000000000E+00  0.00000000000E+00 -0.52700705418E+03  0.14972176861E+04  0.14014008578E+04 0.  0.
        5    1    3    3  502    0  0.46702970590E+03 -0.26714875759E+03  0.21604421932E+03  0.57981238308E+03  0.46999998093E+01 0. -1.
       -5    1    3    3    0  502 -0.46702970590E+03  0.26714875759E+03 -0.74305127350E+03  0.91740530297E+03  0.46999998093E+01 0.  1.
</event>
<event>
 5   0  0.1238683E-03  0.1335063E+04  0.7818609E-02  0.9002213E-01
       -1   -1    0    0    0  501  0.00000000000E+00  0.00000000000E+00  0.59773794799E+03  0.59773794801E+03  0.50400001928E-02 0. -1.
        1   -1    0    0  501    0  0.00000000000E+00  0.00000000000E+00 -0.74547433533E+03  0.74547433535E+03  0.50400001928E-02 0.  1.
    10030    2    1    2    0    0  0.00000000000E+00  0.00000000000E+00 -0.14773638734E+03  0.13432122834E+04  0.13350629940E+04 0.  0.
        2    1    3    3  502    0  0.36069439065E+03  0.39839758092E+03  0.32449974752E+03  0.62779069926E+03  0.25500000920E-02 0. -1.
       -2    1    3    3    0  502 -0.36069439065E+03 -0.39839758092E+03 -0.47223613486E+03  0.71542158410E+03  0.25500000920E-02 0.  1.
</event>
<event>
 5   0  0.1225690E-03  0.1378240E+04  0.7818609E-02  0.8969722E-01
        1   -1    0    0  501    0  0.00000000000E+00  0.00000000000E+00  0.20503274895E+04  0.20503274895E+04  0.50400001928E-02 0. -1.
       -1   -1    0    0    0  501  0.00000000000E+00  0.00000000000E+00 -0.23161500748E+03  0.23161500754E+03  0.50400001928E-02 0.  1.
    10030    2    1    2    0    0  0.00000000000E+00  0.00000000000E+00  0.18187124820E+04  0.22819424970E+04  0.13782403519E+04 0.  0.
        4    1    3    3  502    0  0.12023450028E+03 -0.36132612866E+02  0.20312308244E+04  0.20351074113E+04  0.12699999809E+01 0. -1.
       -4    1    3    3    0  502 -0.12023450028E+03  0.36132612866E+02 -0.21251834240E+03  0.24683508569E+03  0.12699999809E+01 0.  1.
</event>
<event>
 5   0  0.2195980E-03  0.1416072E+04  0.7818609E-02  0.8942266E-01
        2   -1    0    0  501    0  0.00000000000E+00  0.00000000000E+00  0.54401813053E+03  0.54401813054E+03  0.25500000920E-02 0. -1.
       -2   -1    0    0    0  501  0.00000000000E+00  0.00000000000E+00 -0.92150407069E+03  0.92150407069E+03  0.25500000920E-02 0.  1.
    10030    2    1    2    0    0  0.00000000000E+00  0.00000000000E+00 -0.37748594015E+03  0.14655222012E+04  0.14160719216E+04 0.  0.
        4    1    3    3  502    0  0.38477412071E+03 -0.37274289290E+03 -0.66786200614E+03  0.85617151338E+03  0.12699999809E+01 0.  1.
       -4    1    3    3    0  502 -0.38477412071E+03  0.37274289290E+03  0.29037606599E+03  0.60935068784E+03  0.12699999809E+01 0. -1.
</event>
<event>
 5   0  0.2236184E-03  0.1398874E+04  0.7818609E-02  0.8954634E-01
       -2   -1    0    0    0  501  0.00000000000E+00  0.00000000000E+00  0.31338230338E+03  0.31338230339E+03  0.25500000920E-02 0.  1.
        2   -1    0    0  501    0  0.00000000000E+00  0.00000000000E+00 -0.15610719779E+04  0.15610719779E+04  0.25500000920E-02 0. -1.
    10030    2    1    2    0    0  0.00000000000E+00  0.00000000000E+00 -0.12476896745E+04  0.18744542813E+04  0.13988743077E+04 0.  0.
        3    1    3    3  502    0  0.38794569862E+03  0.29087152913E+03  0.51618978545E+02  0.48761936045E+03  0.10100000352E+00 0.  1.
       -3    1    3    3    0  502 -0.38794569862E+03 -0.29087152913E+03 -0.12993086530E+04  0.13868349208E+04  0.10100000352E+00 0. -1.
</event>
<event>
 5   0  0.1210275E-03  0.1393364E+04  0.7818609E-02  0.8958636E-01
       -1   -1    0    0    0  501  0.00000000000E+00  0.00000000000E+00  0.20476642788E+03  0.20476642794E+03  0.50400001928E-02 0.  1.
        1   -1    0    0  501    0  0.00000000000E+00  0.00000000000E+00 -0.23703387108E+04  0.23703387108E+04  0.50400001928E-02 0. -1.
    10030    2    1    2    0    0  0.00000000000E+00  0.00000000000E+00 -0.21655722830E+04  0.25751051388E+04  0.13933639737E+04 0.  0.
        1    1    3    3  502    0 -0.90314111653E+02  0.51243262128E+03 -0.19389708501E+04  0.20075736071E+04  0.50400001928E-02 0. -1.
       -1    1    3    3    0  502  0.90314111653E+02 -0.51243262128E+03 -0.22660143284E+03  0.56753153173E+03  0.50400001928E-02 0.  1.
</event>
<event>
 5   0  0.1210275E-03  0.1409459E+04  0.7818609E-02  0.8947000E-01
        1   -1    0    0  501    0  0.00000000000E+00  0.00000000000E+00  0.97765315698E+03  0.97765315699E+03  0.50400001928E-02 0. -1.
       -1   -1    0    0    0  501  0.00000000000E+00  0.00000000000E+00 -0.50799579411E+03  0.50799579414E+03  0.50400001928E-02 0.  1.
    10030    2    1    2    0    0  0.00000000000E+00  0.00000000000E+00  0.46965736287E+03  0.14856489511E+04  0.14094590336E+04 0.  0.
        1    1    3    3  502    0 -0.53464934809E+03  0.27197466628E+03  0.62472053953E+03  0.86608076820E+03  0.50400001928E-02 0. -1.
       -1    1    3    3    0  502  0.53464934809E+03 -0.27197466628E+03 -0.15506317666E+03  0.61956818293E+03  0.50400001928E-02 0.  1.
</event>
<event>
 5   0  0.1238683E-03  0.1400388E+04  0.7818609E-02  0.8953538E-01
       -1   -1    0    0    0  501  0.00000000000E+00  0.00000000000E+00  0.77810823435E+03  0.77810823436E+03  0.50400001928E-02 0. -1.
        1   -1    0    0  501    0  0.00000000000E+00  0.00000000000E+00 -0.63008172729E+03  0.63008172731E+03  0.50400001928E-02 0.  1.
    10030    2    1    2    0    0  0.00000000000E+00  0.00000000000E+00  0.14802650706E+03  0.14081899617E+04  0.14003882038E+04 0.  0.
        2    1    3    3  502    0  0.41195825398E+03  0.35345228437E+03  0.51878233604E+03  0.75084834191E+03  0.25500000920E-02 0. -1.
       -2    1    3    3    0  502 -0.41195825398E+03 -0.35345228437E+03 -0.37075582898E+03  0.65734161977E+03  0.25500000920E-02 0.  1.
</event>
<event>
 5   0  0.1238683E-03  0.1402737E+04  0.7818609E-02  0.8951840E-01
       -1   -1    0    0    0  501  0.00000000000E+00  0.00000000000E+00  0.52974962270E+03  0.52974962273E+03  0.50400001928E-02 0.  1.
        1   -1    0    0  501    0  0.00000000000E+00  0.00000000000E+00 -0.92858558480E+03  0.92858558482E+03  0.50400001928E-02 0. -1.
    10030    2    1    2    0    0  0.00000000000E+00  0.00000000000E+00 -0.39883596210E+03  0.14583352075E+04  0.14027371289E+04 0.  0.
        2    1    3    3  502    0  0.52612794685E+03 -0.34547657857E+03 -0.52112287842E+03  0.81714976425E+03  0.25500000920E-02 0. -1.
       -2    1    3    3    0  502 -0.52612794685E+03  0.34547657857E+03  0.12228691632E+03  0.64118544330E+03  0.25500000920E-02 0.  1.
</event>
<event>
 5   0  0.2190704E-03  0.1030219E+04  0.7818609E-02  0.9276008E-01
       -2   -1    0    0    0  501  0.00000000000E+00  0.00000000000E+00  0.24379089853E+03  0.24379089854E+03  0.25500000920E-02 0.  1.
        2   -1    0    0  501    0  0.00000000000E+00  0.00000000000E+00 -0.10883826097E+04  0.10883826097E+04  0.25500000920E-02 0. -1.
    10030    2    1    2    0    0  0.00000000000E+00  0.00000000000E+00 -0.84459171113E+03  0.13321735082E+04  0.10302189561E+04 0.  0.
        5    1    3    3  502    0  0.30803230077E+03  0.13687172061E+03 -0.92593684292E+03  0.98539276093E+03  0.46999998093E+01 0. -1.
       -5    1    3    3    0  502 -0.30803230077E+03 -0.13687172061E+03  0.81345131788E+02  0.34678074728E+03  0.46999998093E+01 0.  1.
</event>
<event>
 5   0  0.1199720E-03  0.1390529E+04  0.7818609E-02  0.8960703E-01
        1   -1    0    0  501    0  0.00000000000E+00  0.00000000000E+00  0.55303988098E+03  0.55303988100E+03  0.50400001928E-02 0.  1.
       -1   -1    0    0    0  501  0.00000000000E+00  0.00000000000E+00 -0.87406494730E+03  0.87406494732E+03  0.50400001928E-02 0. -1.
    10030    2    1    2    0    0  0.00000000000E+00  0.00000000000E+00 -0.32102506632E+03  0.14271048283E+04  0.13905290712E+04 0.  0.
        5    1    3    3  502    0 -0.13326749201E+03  0.51887004369E+03  0.29429665193E+03  0.61124377788E+03  0.46999998093E+01 0.  1.
       -5    1    3    3    0  502  0.13326749201E+03 -0.51887004369E+03 -0.61532171826E+03  0.81586105044E+03  0.46999998093E+01 0. -1.
</event>
<event>
 5   0  0.1175374E-03  0.1230156E+04  0.7818609E-02  0.9086863E-01
       -1   -1    0    0    0  501  0.00000000000E+00  0.00000000000E+00  0.20287362405E+03  0.20287362411E+03  0.50400001928E-02 0.  1.
        1   -1    0    0  501    0  0.00000000000E+00  0.00000000000E+00 -0.18648109702E+04  0.18648109702E+04  0.50400001928E-02 0. -1.
    10030    2    1    2    0    0  0.00000000000E+00  0.00000000000E+00 -0.16619373461E+04  0.20676845943E+04  0.12301560222E+04 0.  0.
        3    1    3    3  502    0  0.28558840451E+03 -0.12720295165E+03 -0.17213010314E+04  0.17494623685E+04  0.10100000352E+00 0. -1.
       -3    1    3    3    0  502 -0.28558840451E+03  0.12720295165E+03  0.59363685269E+02  0.31822222586E+03  0.10100000352E+00 0.  1.
</event>
<event>
 5   0  0.1199720E-03  0.1362095E+04  0.7818609E-02  0.8981722E-01
       -1   -1    0    0    0  501  0.00000000000E+00  0.00000000000E+00  0.40134459673E+03  0.40134459676E+03  0.50400001928E-02 0.  1.
        1   -1    0    0  501    0  0.00000000000E+00  0.00000000000E+00 -0.11556800617E+04  0.11556800617E+04  0.50400001928E-02 0. -1.
    10030    2    1    2    0    0  0.00000000000E+00  0.00000000000E+00 -0.75433546493E+03  0.15570246584E+04  0.13620953687E+04 0.  0.
        5    1    3    3  502    0  0.62550085854E+03  0.87559171873E+02 -0.85986602689E+02  0.63744310997E+03  0.46999998093E+01 0.  1.
       -5    1    3    3    0  502 -0.62550085854E+03 -0.87559171873E+02 -0.66834886224E+03  0.91958154846E+03  0.46999998093E+01 0. -1.
</event>
<event>
 5   0  0.1225690E-03  0.9859419E+03  0.7818609E-02  0.9324099E-01
        1   -1    0    0  501    0  0.00000000000E+00  0.00000000000E+00  0.15149593305E+04  0.15149593306E+04  0.50400001928E-02 0.  1.
       -1   -1    0    0    0  501  0.00000000000E+00  0.00000000000E+00 -0.16041376803E+03  0.16041376810E+03  0.50400001928E-02 0. -1.
    10030    2    1    2    0    0  0.00000000000E+00  0.00000000000E+00  0.13545455625E+04  0.16753730987E+04  0.98594185364E+03 0.  0.
        4    1    3    3  502    0 -0.43897745305E+03 -0.62211049364E+02  0.10434914543E+04  0.11337757481E+04  0.12699999809E+01 0.  1.
       -4    1    3    3    0  502  0.43897745305E+03  0.62211049364E+02  0.31105410821E+03  0.54159735051E+03  0.12699999809E+01 0. -1.
</event>
<event>
 5   0  0.2172901E-03  0.1415896E+04  0.7818609E-02  0.8942392E-01
        2   -1    0    0  501    0  0.00000000000E+00  0.00000000000E+00  0.16766714056E+04  0.16766714056E+04  0.25500000920E-02 0.  1.
       -2   -1    0    0    0  501  0.00000000000E+00  0.00000000000E+00 -0.29891999646E+03  0.29891999647E+03  0.25500000920E-02 0. -1.
    10030    2    1    2    0    0  0.00000000000E+00  0.00000000000E+00  0.13777514091E+04  0.19755914021E+04  0.14158963389E+04 0.  0.
        2    1    3    3  502    0  0.52342917683E+03  0.47408491776E+03  0.75802371566E+03  0.10360186127E+04  0.25500000920E-02 0. -1.
       -2    1    3    3    0  502 -0.52342917683E+03 -0.47408491776E+03  0.61972769346E+03  0.93957278933E+03  0.25500000920E-02 0.  1.
</event>
<event>
 5   0  0.2083966E-03  0.1372966E+04  0.7818609E-02  0.8973623E-01
       -2   -1    0    0    0  501  0.00000000000E+00  0.00000000000E+00  0.51596975078E+03  0.51596975078E+03  0.25500000920E-02 0. -1.
        2   -1    0    0  501    0  0.00000000000E+00  0.00000000000E+00 -0.91334643463E+03  0.91334643463E+03  0.25500000920E-02 0.  1.
    10030    2    1    2    0    0  0.00000000000E+00  0.00000000000E+00 -0.39737668385E+03  0.14293161854E+04  0.13729663248E+04 0.  0.
        1    1    3    3  502    0 -0.13224253048E+03 -0.67273804136E+03 -0.16270721300E+03  0.70465466461E+03  0.50400001928E-02 0.  1.
       -1    1    3    3    0  502  0.13224253048E+03  0.67273804136E+03 -0.23466947085E+03  0.72466152081E+03  0.50400001928E-02 0. -1.
</event>
<event>
 5   0  0.1199720E-03  0.1369932E+04  0.7818609E-02  0.8975875E-01
        1   -1    0    0  501    0  0.00000000000E+00  0.00000000000E+00  0.39610653919E+03  0.39610653923E+03  0.50400001928E-02 0.  1.
       -1   -1    0    0    0  501  0.00000000000E+00  0.00000000000E+00 -0.11844758838E+04  0.11844758838E+04  0.50400001928E-02 0. -1.
    10030    2    1    2    0    0  0.00000000000E+00  0.00000000000E+00 -0.78836934463E+03  0.15805824231E+04  0.13699323241E+04 0.  0.
        5    1    3    3  502    0 -0.19700653371E+03  0.38266368784E+03  0.22058302840E+03  0.48365487151E+03  0.46999998093E+01 0.  1.
       -5    1    3    3    0  502  0.19700653371E+03 -0.38266368784E+03 -0.10089523730E+04  0.10969275516E+04  0.46999998093E+01 0. -1.
</event>
<event>
 5   0  0.1238683E-03  0.1392518E+04  0.7818609E-02  0.8959252E-01
       -1   -1    0    0    0  501  0.00000000000E+00  0.00000000000E+00  0.26560209489E+03  0.26560209494E+03  0.50400001928E-02 0. -1.
        1   -1    0    0  501    0  0.00000000000E+00  0.00000000000E+00 -0.18251981855E+04  0.18251981855E+04  0.50400001928E-02 0.  1.
    10030    2    1    2    0    0  0.00000000000E+00  0.00000000000E+00 -0.15595960906E+04  0.20908002804E+04  0.13925178085E+04 0.  0.
        2    1    3    3  502    0 -0.14894440846E+03  0.67020538782E+03 -0.60588359577E+03  0.91567168259E+03  0.25500000920E-02 0.  1.
       -2    1    3    3    0  502  0.14894440846E+03 -0.67020538782E+03 -0.95371249485E+03  0.11751285979E+04  0.25500000920E-02 0. -1.
</event>
<event>
 5   0  0.1175374E-03  0.1407630E+04  0.7818609E-02  0.8948314E-01
       -1   -1    0    0    0  501  0.00000000000E+00  0.00000000000E+00  0.55344848097E+03  0.55344848099E+03  0.50400001928E-02 0. -1.
        1   -1    0    0  501    0  0.00000000000E+00  0.00000000000E+00 -0.89503519323E+03  0.89503519325E+03  0.50400001928E-02 0.  1.
    10030    2    1    2    0    0  0.00000000000E+00  0.00000000000E+00 -0.34158671226E+03  0.14484836742E+04  0.14076304460E+04 0.  0.
        3    1    3    3  502    0  0.50255770272E+03  0.34449943869E+03  0.19172616928E+03  0.63875115813E+03  0.10100000352E+00 0. -1.
       -3    1    3    3    0  502 -0.50255770272E+03 -0.34449943869E+03 -0.53331288155E+03  0.80973251611E+03  0.10100000352E+00 0.  1.
</event>
<event>
 5   0  0.2172901E-03  0.1411393E+04  0.7818609E-02  0.8945612E-01
        2   -1    0    0  501    0  0.00000000000E+00  0.00000000000E+00  0.15246173124E+04  0.15246173124E+04  0.25500000920E-02 0.  1.
       -2   -1    0    0    0  501  0.00000000000E+00  0.00000000000E+00 -0.32664450535E+03  0.32664450536E+03  0.25500000920E-02 0. -1.
    10030    2    1    2    0    0  0.00000000000E+00  0.00000000000E+00  0.11979728070E+04  0.18512618177E+04  0.14113934503E+04 0.  0.
        2    1    3    3  502    0  0.11944178852E+03 -0.24637625930E+03 -0.25413453154E+03  0.37356654309E+03  0.25500000920E-02 0. -1.
       -2    1    3    3    0  502 -0.11944178852E+03  0.24637625930E+03  0.14521073385E+04  0.14776952746E+04  0.25500000920E-02 0.  1.
</event>
<event>
 5   0  0.2083966E-03  0.1435738E+04  0.7818609E-02  0.8928348E-01
        2   -1    0    0  501    0  0.00000000000E+00  0.00000000000E+00  0.52462060569E+03  0.52462060569E+03  0.25500000920E-02 0. -1.
       -2   -1    0    0    0  501  0.00000000000E+00  0.00000000000E+00 -0.98230250380E+03  0.98230250380E+03  0.25500000920E-02 0.  1.
    10030    2    1    2    0    0  0.00000000000E+00  0.00000000000E+00 -0.45768189811E+03  0.15069231095E+04  0.14357383251E+04 0.  0.
        1    1    3    3  502    0  0.32388209010E+03  0.45419202389E+03 -0.70306805858E+03  0.89749356425E+03  0.50400001928E-02 0.  1.
       -1    1    3    3    0  502 -0.32388209010E+03 -0.45419202389E+03  0.24538616046E+03  0.60942954525E+03  0.50400001928E-02 0. -1.
</event>
<event>
 5   0  0.1210275E-03  0.1395776E+04  0.7818609E-02  0.8956882E-01
        1   -1    0    0  501    0  0.00000000000E+00  0.00000000000E+00  0.76601997237E+03  0.76601997239E+03  0.50400001928E-02 0. -1.
       -1   -1    0    0    0  501  0.00000000000E+00  0.00000000000E+00 -0.63581564602E+03  0.63581564604E+03  0.50400001928E-02 0.  1.
    10030    2    1    2    0    0  0.00000000000E+00  0.00000000000E+00  0.13020432635E+03  0.14018356184E+04  0.13957757465E+04 0.  0.
        1    1    3    3  502    0 -0.67959772457E+03  0.81594236007E+02  0.20184317527E+03  0.71361849332E+03  0.50400001928E-02 0.  1.
       -1    1    3    3    0  502  0.67959772457E+03 -0.81594236007E+02 -0.71638848917E+02  0.68821712510E+03  0.50400001928E-02 0. -1.
</event>
<event>
 5   0  0.2172901E-03  0.1421054E+04  0.7818609E-02  0.8938718E-01
       -2   -1    0    0    0  501  0.00000000000E+00  0.00000000000E+00  0.60148333529E+03  0.60148333530E+03  0.25500000920E-02 0. -1.
        2   -1    0    0  501    0  0.00000000000E+00  0.00000000000E+00 -0.83933951711E+03  0.83933951711E+03  0.25500000920E-02 0.  1.
    10030    2    1    2    0    0  0.00000000000E+00  0.00000000000E+00 -0.23785618181E+03  0.14408228524E+04  0.14210541611E+04 0.  0.
        2    1    3    3  502    0 -0.18660027377E+03  0.33627714667E+03  0.48683341766E+03  0.62041015313E+03  0.25500000920E-02 0. -1.
       -2    1    3    3    0  502  0.18660027377E+03 -0.33627714667E+03 -0.72468959948E+03  0.82041269928E+03  0.25500000920E-02 0.  1.
</event>
<event>
 5   0  0.1225690E-03  0.1393199E+04  0.7818609E-02  0.8958756E-01
       -1   -1    0    0    0  501  0.00000000000E+00  0.00000000000E+00  0.78785651864E+03  0.78785651865E+03  0.50400001928E-02 0. -1.
        1   -1    0    0  501    0  0.00000000000E+00  0.00000000000E+00 -0.61591270943E+03  0.61591270945E+03  0.50400001928E-02 0.  1.
    10030    2    1    2    0    0  0.00000000000E+00  0.00000000000E+00  0.17194380921E+03  0.14037692281E+04  0.13931989708E+04 0.  0.
        4    1    3    3  502    0  0.92461898771E+01 -0.28021207342E+03  0.72849723727E+03  0.78058576450E+03  0.12699999809E+01 0. -1.
       -4    1    3    3    0  502 -0.92461898771E+01  0.28021207342E+03 -0.55655342807E+03  0.62318346361E+03  0.12699999809E+01 0.  1.
</event>
<event>
 5   0  0.8293000E-04  0.1397772E+04  0.7818609E-02  0.8955433E-01
       -3   -1    0    0    0  501  0.00000000000E+00  0.00000000000E+00  0.78238259729E+03  0.78238260380E+03  0.10100000352E+00 0.  1.
        3   -1    0    0  501    0  0.00000000000E+00  0.00000000000E+00 -0.62429982668E+03  0.62429983485E+03  0.10100000352E+00 0. -1.
    10030    2    1    2    0    0  0.00000000000E+00  0.00000000000E+00  0.15808277061E+03  0.14066824386E+04  0.13977715553E+04 0.  0.
        3    1    3    3  502    0  0.26833397921E+03  0.43906483426E+03  0.55498366532E+03  0.75682754446E+03  0.10100000352E+00 0.  1.
       -3    1    3    3    0  502 -0.26833397921E+03 -0.43906483426E+03 -0.39690089471E+03  0.64985489419E+03  0.10100000352E+00 0. -1.
</event>
<event>
 5   0  0.1175374E-03  0.1404236E+04  0.7818609E-02  0.8950758E-01
       -1   -1    0    0    0  501  0.00000000000E+00  0.00000000000E+00  0.62399275079E+03  0.62399275081E+03  0.50400001928E-02 0.  1.
        1   -1    0    0  501    0  0.00000000000E+00  0.00000000000E+00 -0.79002431731E+03  0.79002431733E+03  0.50400001928E-02 0. -1.
    10030    2    1    2    0    0  0.00000000000E+00  0.00000000000E+00 -0.16603156653E+03  0.14140170681E+04  0.14042356597E+04 0.  0.
        3    1    3    3  502    0  0.36018997420E+03  0.12287674652E+03  0.51112289692E+03  0.63724574405E+03  0.10100000352E+00 0.  1.
       -3    1    3    3    0  502 -0.36018997420E+03 -0.12287674652E+03 -0.67715446345E+03  0.77677132409E+03  0.10100000352E+00 0. -1.
</event>
<event>
 5   0  0.2190704E-03  0.1351587E+04  0.7818609E-02  0.8989627E-01
        2   -1    0    0  501    0  0.00000000000E+00  0.00000000000E+00  0.95116732865E+03  0.95116732865E+03  0.25500000920E-02 0. -1.
       -2   -1    0    0    0  501  0.00000000000E+00  0.00000000000E+00 -0.48014388394E+03  0.48014388395E+03  0.25500000920E-02 0.  1.
    10030    2    1    2    0    0  0.00000000000E+00  0.00000000000E+00  0.47102344471E+03  0.14313112126E+04  0.13515874747E+04 0.  0.
        5    1    3    3  502    0  0.52522358131E+03 -0.28815628796E+03  0.56665630936E+03  0.82463041394E+03  0.46999998093E+01 0. -1.
       -5    1    3    3    0  502 -0.52522358131E+03  0.28815628796E+03 -0.95632864653E+02  0.60668079866E+03  0.46999998093E+01 0.  1.
</event>
<event>
 5   0  0.2172901E-03  0.1397166E+04  0.7818609E-02  0.8955872E-01
        2   -1    0    0  501    0  0.00000000000E+00  0.00000000000E+00  0.12531039325E+04  0.12531039325E+04  0.25500000920E-02 0.  1.
       -2   -1    0    0    0  501  0.00000000000E+00  0.00000000000E+00 -0.38944756543E+03  0.38944756544E+03  0.25500000920E-02 0. -1.
    10030    2    1    2    0    0  0.00000000000E+00  0.00000000000E+00  0.86365636709E+03  0.16425514980E+04  0.13971660972E+04 0.  0.
        2    1    3    3  502    0 -0.42022001135E+03 -0.24863726715E+03 -0.15553198599E+03  0.51244077436E+03  0.25500000920E-02 0. -1.
       -2    1    3    3    0  502  0.42022001135E+03  0.24863726715E+03  0.10191883531E+04  0.11301107236E+04  0.25500000920E-02 0.  1.
</event>
<event>
 5   0  0.1199720E-03  0.1418928E+04  0.7818609E-02  0.8940230E-01
        1   -1    0    0  501    0  0.00000000000E+00  0.00000000000E+00  0.19428534650E+04  0.19428534650E+04  0.50400001928E-02 0.  1.
       -1   -1    0    0    0  501  0.00000000000E+00  0.00000000000E+00 -0.25907209581E+03  0.25907209586E+03  0.50400001928E-02 0. -1.
    10030    2    1    2    0    0  0.00000000000E+00  0.00000000000E+00  0.16837813692E+04  0.22019255609E+04  0.14189279321E+04 0.  0.
        5    1    3    3  502    0 -0.16869975259E+03 -0.13584350595E+03 -0.20648514341E+03  0.29928459546E+03  0.46999998093E+01 0. -1.
       -5    1    3    3    0  502  0.16869975259E+03  0.13584350595E+03  0.18902665126E+04  0.19026409654E+04  0.46999998093E+01 0.  1.
</event>
<event>
 5   0  0.1199720E-03  0.1368074E+04  0.7818609E-02  0.8977258E-01
       -1   -1    0    0    0  501  0.00000000000E+00  0.00000000000E+00  0.29605783784E+03  0.29605783788E+03  0.50400001928E-02 0. -1.
        1   -1    0    0  501    0  0.00000000000E+00  0.00000000000E+00 -0.15804576743E+04  0.15804576743E+04  0.50400001928E-02 0.  1.
    10030    2    1    2    0    0  0.00000000000E+00  0.00000000000E+00 -0.12843998365E+04  0.18765155122E+04  0.13680743867E+04 0.  0.
        5    1    3    3  502    0  0.61694401734E+03  0.29510388254E+03 -0.62387059012E+03  0.92571206389E+03  0.46999998093E+01 0.  1.
       -5    1    3    3    0  502 -0.61694401734E+03 -0.29510388254E+03 -0.66052924637E+03  0.95080344832E+03  0.46999998093E+01 0. -1.
</event>
<event>
 5   0  0.1238683E-03  0.1395315E+04  0.7818609E-02  0.8957217E-01
        1   -1    0    0  501    0  0.00000000000E+00  0.00000000000E+00  0.67673829996E+03  0.67673829998E+03  0.50400001928E-02 0.  1.
       -1   -1    0    0    0  501  0.00000000000E+00  0.00000000000E+00 -0.71922348100E+03  0.71922348102E+03  0.50400001928E-02 0. -1.
    10030    2    1    2    0    0  0.00000000000E+00  0.00000000000E+00 -0.42485181043E+02  0.13959617810E+04  0.13953151269E+04 0.  0.
        2    1    3    3  502    0  0.28863323465E+03  0.17780039349E+03 -0.63128246971E+03  0.71654705403E+03  0.25500000920E-02 0. -1.
       -2    1    3    3    0  502 -0.28863323465E+03 -0.17780039349E+03  0.58879728867E+03  0.67941472697E+03  0.25500000920E-02 0.  1.
</event>
<event>
 5   0  0.1210275E-03  0.1352402E+04  0.7818609E-02  0.8989012E-01
        1   -1    0    0  501    0  0.00000000000E+00  0.00000000000E+00  0.11215841548E+04  0.11215841548E+04  0.50400001928E-02 0.  1.
       -1   -1    0    0    0  501  0.00000000000E+00  0.00000000000E+00 -0.40768049434E+03  0.40768049437E+03  0.50400001928E-02 0. -1.
    10030    2    1    2    0    0  0.00000000000E+00  0.00000000000E+00  0.71390366048E+03  0.15292646492E+04  0.13524022814E+04 0.  0.
        1    1    3    3  502    0  0.40319626864E+03  0.24581679061E+03  0.90424629638E+03  0.10201247424E+04  0.50400001928E-02 0.  1.
       -1    1    3    3    0  502 -0.40319626864E+03 -0.24581679061E+03 -0.19034263590E+03  0.50913990676E+03  0.50400001928E-02 0. -1.
</event>
<event>
 5   0  0.2172901E-03  0.1400350E+04  0.7818609E-02  0.8953565E-01
       -2   -1    0    0    0  501  0.00000000000E+00  0.00000000000E+00  0.48845026444E+03  0.48845026445E+03  0.25500000920E-02 0. -1.
        2   -1    0    0  501    0  0.00000000000E+00  0.00000000000E+00 -0.10036750566E+04  0.10036750566E+04  0.25500000920E-02 0.  1.
    10030    2    1    2    0    0  0.00000000000E+00  0.00000000000E+00 -0.51522479220E+03  0.14921253211E+04  0.14003504516E+04 0.  0.
        2    1    3    3  502    0 -0.17387719399E+03  0.10254923127E+03  0.45677099112E+03  0.49938898842E+03  0.25500000920E-02 0. -1.
       -2    1    3    3    0  502  0.17387719399E+03 -0.10254923127E+03 -0.97199578331E+03  0.99273633267E+03  0.25500000920E-02 0.  1.
</event>
<event>
 5   0  0.1210275E-03  0.1397202E+04  0.7818609E-02  0.8955847E-01
        1   -1    0    0  501    0  0.00000000000E+00  0.00000000000E+00  0.22123925515E+04  0.22123925515E+04  0.50400001928E-02 0. -1.
       -1   -1    0    0    0  501  0.00000000000E+00  0.00000000000E+00 -0.22059518088E+03  0.22059518093E+03  0.50400001928E-02 0.  1.
    10030    2    1    2    0    0  0.00000000000E+00  0.00000000000E+00  0.19917973706E+04  0.24329877325E+04  0.13972016821E+04 0.  0.
        1    1    3    3  502    0  0.41209953233E+02  0.28422474815E+03  0.21048411177E+04  0.21243441573E+04  0.50400001928E-02 0. -1.
       -1    1    3    3    0  502 -0.41209953233E+02 -0.28422474815E+03 -0.11304374709E+03  0.30864357516E+03  0.50400001928E-02 0.  1.
</event>
<event>
 5   0  0.2190704E-03  0.1290964E+04  0.7818609E-02  0.9036762E-01
       -2   -1    0    0    0  501  0.00000000000E+00  0.00000000000E+00  0.29895391706E+03  0.29895391707E+03  0.25500000920E-02 0.  1.
        2   -1    0    0  501    0  0.00000000000E+00  0.00000000000E+00 -0.13936823344E+04  0.13936823344E+04  0.25500000920E-02 0. -1.
    10030    2    1    2    0    0  0.00000000000E+00  0.00000000000E+00 -0.10947284173E+04  0.16926362514E+04  0.12909636602E+04 0.  0.
        5    1    3    3  502    0  0.29622849148E+01  0.64275342825E+03 -0.62475443169E+03  0.89637098044E+03  0.46999998093E+01 0. -1.
       -5    1    3    3    0  502 -0.29622849148E+01 -0.64275342825E+03 -0.46997398562E+03  0.79626527101E+03  0.46999998093E+01 0.  1.
</event>
<event>
 5   0  0.1175374E-03  0.1402445E+04  0.7818609E-02  0.8952051E-01
        1   -1    0    0  501    0  0.00000000000E+00  0.00000000000E+00  0.23772346478E+04  0.23772346478E+04  0.50400001928E-02 0. -1.
       -1   -1    0    0    0  501  0.00000000000E+00  0.00000000000E+00 -0.20684232288E+03  0.20684232294E+03  0.50400001928E-02 0.  1.
    10030    2    1    2    0    0  0.00000000000E+00  0.00000000000E+00  0.21703923249E+04  0.25840769707E+04  0.14024446323E+04 0.  0.
        3    1    3    3  502    0 -0.52075851984E+03 -0.25359965028E+03  0.35695563673E+03  0.68038191878E+03  0.10100000352E+00 0.  1.
       -3    1    3    3    0  502  0.52075851984E+03  0.25359965028E+03  0.18134366882E+04  0.19036950519E+04  0.10100000352E+00 0. -1.
</event>
<event>
 5   0  0.1199720E-03  0.1516750E+04  0.7818609E-02  0.8873390E-01
        1   -1    0    0  501    0  0.00000000000E+00  0.00000000000E+00  0.75716734882E+03  0.75716734884E+03  0.50400001928E-02 0. -1.
       -1   -1    0    0    0  501  0.00000000000E+00  0.00000000000E+00 -0.75958456092E+03  0.75958456094E+03  0.50400001928E-02 0.  1.
    10030    2    1    2    0    0  0.00000000000E+00  0.00000000000E+00 -0.24172121003E+01  0.15167519098E+04  0.15167499836E+04 0.  0.
        5    1    3    3  502    0  0.35573313553E+03  0.20868797331E+03  0.63519915079E+03  0.75736172671E+03  0.46999998093E+01 0. -1.
       -5    1    3    3    0  502 -0.35573313553E+03 -0.20868797331E+03 -0.63761636289E+03  0.75939018307E+03  0.46999998093E+01 0.  1.
</event>
<event>
 5   0  0.1199720E-03  0.1388439E+04  0.7818609E-02  0.8962230E-01
       -1   -1    0    0    0  501  0.00000000000E+00  0.00000000000E+00  0.98375499728E+03  0.98375499729E+03  0.50400001928E-02 0. -1.
        1   -1    0    0  501    0  0.00000000000E+00  0.00000000000E+00 -0.48989911529E+03  0.48989911532E+03  0.50400001928E-02 0.  1.
    10030    2    1    2    0    0  0.00000000000E+00  0.00000000000E+00  0.49385588198E+03  0.14736541126E+04  0.13884389837E+04 0.  0.
        5    1    3    3  502    0 -0.31069827446E+03  0.60280854820E+03  0.89475401411E+02  0.68406103602E+03  0.46999998093E+01 0. -1.
       -5    1    3    3    0  502  0.31069827446E+03 -0.60280854820E+03  0.40438048057E+03  0.78959307659E+03  0.46999998093E+01 0.  1.
</event>
<event>
 5   0  0.2172901E-03  0.1293059E+04  0.7818609E-02  0.9035088E-01
       -2   -1    0    0    0  501  0.00000000000E+00  0.00000000000E+00  0.59004402227E+03  0.59004402228E+03  0.25500000920E-02 0.  1.
        2   -1    0    0  501    0  0.00000000000E+00  0.00000000000E+00 -0.70842248186E+03  0.70842248187E+03  0.25500000920E-02 0. -1.
    10030    2    1    2    0    0  0.00000000000E+00  0.00000000000E+00 -0.11837845959E+03  0.12984665041E+04  0.12930590871E+04 0.  0.
        2    1    3    3  502    0  0.41513966759E+03  0.37780141790E+03  0.26297259369E+03  0.61986243636E+03  0.25500000920E-02 0.  1.
       -2    1    3    3    0  502 -0.41513966759E+03 -0.37780141790E+03 -0.38135105328E+03  0.67860406779E+03  0.25500000920E-02 0. -1.
</event>
<event>
 5   0  0.1199720E-03  0.1472648E+04  0.7818609E-02  0.8902848E-01
       -1   -1    0    0    0  501  0.00000000000E+00  0.00000000000E+00  0.30992802105E+03  0.30992802109E+03  0.50400001928E-02 0.  1.
        1   -1    0    0  501    0  0.00000000000E+00  0.00000000000E+00 -0.17493525421E+04  0.17493525421E+04  0.50400001928E-02 0. -1.
    10030    2    1    2    0    0  0.00000000000E+00  0.00000000000E+00 -0.14394245211E+04  0.20592805632E+04  0.14726484598E+04 0.  0.
        5    1    3    3  502    0 -0.43187338107E+03  0.59427795629E+03 -0.65021016967E+03  0.98105874510E+03  0.46999998093E+01 0. -1.
       -5    1    3    3    0  502  0.43187338107E+03 -0.59427795629E+03 -0.78921435139E+03  0.10782218181E+04  0.46999998093E+01 0.  1.
</event>
<event>
 5   0  0.1210275E-03  0.1374513E+04  0.7818609E-02  0.8972477E-01
        1   -1    0    0  501    0  0.00000000000E+00  0.00000000000E+00  0.17234038965E+04  0.17234038965E+04  0.50400001928E-02 0. -1.
       -1   -1    0    0    0  501  0.00000000000E+00  0.00000000000E+00 -0.27406310107E+03  0.27406310112E+03  0.50400001928E-02 0.  1.
    10030    2    1    2    0    0  0.00000000000E+00  0.00000000000E+00  0.14493407955E+04  0.19974669977E+04  0.13745128829E+04 0.  0.
        1    1    3    3  502    0  0.33966281543E+02  0.31973267486E+02 -0.27175984849E+03  0.27573431668E+03  0.50400001928E-02 0.  1.
       -1    1    3    3    0  502 -0.33966281543E+02 -0.31973267486E+02  0.17211006440E+04  0.17217326810E+04  0.50400001928E-02 0. -1.
</event>
<event>
 5   0  0.2172901E-03  0.1322178E+04  0.7818609E-02  0.9012160E-01
        2   -1    0    0  501    0  0.00000000000E+00  0.00000000000E+00  0.13293863888E+04  0.13293863888E+04  0.25500000920E-02 0. -1.
       -2   -1    0    0    0  501  0.00000000000E+00  0.00000000000E+00 -0.32875226761E+03  0.32875226762E+03  0.25500000920E-02 0.  1.
    10030    2    1    2    0    0  0.00000000000E+00  0.00000000000E+00  0.10006341212E+04  0.16581386564E+04  0.13221781875E+04 0.  0.
        2    1    3    3  502    0  0.11328501254E+03  0.45525644565E+03 -0.83810294296E+02  0.47656698460E+03  0.25500000920E-02 0.  1.
       -2    1    3    3    0  502 -0.11328501254E+03 -0.45525644565E+03  0.10844444155E+04  0.11815716718E+04  0.25500000920E-02 0. -1.
</event>
<event>
 5   0  0.8293000E-04  0.1416137E+04  0.7818609E-02  0.8942220E-01
        4   -1    0    0  501    0  0.00000000000E+00  0.00000000000E+00  0.60668802790E+03  0.60668935717E+03  0.12699999809E+01 0. -1.
       -4   -1    0    0    0  501  0.00000000000E+00  0.00000000000E+00 -0.82638727265E+03  0.82638824852E+03  0.12699999809E+01 0.  1.
    10030    2    1    2    0    0  0.00000000000E+00  0.00000000000E+00 -0.21969924474E+03  0.14330776057E+04  0.14161368810E+04 0.  0.
        5    1    3    3  502    0 -0.48386959223E+03 -0.46792148522E+03  0.11245654464E+03  0.68245795698E+03  0.46999998093E+01 0. -1.
       -5    1    3    3    0  502  0.48386959223E+03  0.46792148522E+03 -0.33215578938E+03  0.75061964871E+03  0.46999998093E+01 0.  1.
</event>
<event>
 5   0  0.1238683E-03  0.1422268E+04  0.7818609E-02  0.8937856E-01
        1   -1    0    0  501    0  0.00000000000E+00  0.00000000000E+00  0.50870091712E+03  0.50870091715E+03  0.50400001928E-02 0.  1.
       -1   -1    0    0    0  501  0.00000000000E+00  0.00000000000E+00 -0.99412382891E+03  0.99412382892E+03  0.50400001928E-02 0. -1.
    10030    2    1    2    0    0  0.00000000000E+00  0.00000000000E+00 -0.48542291179E+03  0.15028247461E+04  0.14222681935E+04 0.  0.
        2    1    3    3  502    0  0.31105198146E+03  0.72501748811E+02  0.42865125767E+03  0.53455751744E+03  0.25500000920E-02 0.  1.
       -2    1    3    3    0  502 -0.31105198146E+03 -0.72501748811E+02 -0.91407416946E+03  0.96826722862E+03  0.25500000920E-02 0. -1.
</event>
<event>
 5   0  0.1225690E-03  0.1398682E+04  0.7818609E-02  0.8954773E-01
        1   -1    0    0  501    0  0.00000000000E+00  0.00000000000E+00  0.16966138571E+04  0.16966138571E+04  0.50400001928E-02 0. -1.
       -1   -1    0    0    0  501  0.00000000000E+00  0.00000000000E+00 -0.28826697668E+03  0.28826697673E+03  0.50400001928E-02 0.  1.
    10030    2    1    2    0    0  0.00000000000E+00  0.00000000000E+00  0.14083468804E+04  0.19848808339E+04  0.13986818755E+04 0.  0.
        4    1    3    3  502    0  0.24507172848E+03 -0.58567987002E+03  0.11203257155E+04  0.12877159562E+04  0.12699999809E+01 0. -1.
       -4    1    3    3    0  502 -0.24507172848E+03  0.58567987002E+03  0.28802116497E+03  0.69716487764E+03  0.12699999809E+01 0.  1.
</event>
<event>
 5   0  0.1225690E-03  0.1387368E+04  0.7818609E-02  0.8963014E-01
        1   -1    0    0  501    0  0.00000000000E+00  0.00000000000E+00  0.80236168254E+03  0.80236168256E+03  0.50400001928E-02 0.  1.
       -1   -1    0    0    0  501  0.00000000000E+00  0.00000000000E+00 -0.59972603093E+03  0.59972603095E+03  0.50400001928E-02 0. -1.
    10030    2    1    2    0    0  0.00000000000E+00  0.00000000000E+00  0.20263565161E+03  0.14020877135E+04  0.13873675609E+04 0.  0.
        4    1    3    3  502    0  0.43608391623E+03 -0.49143197487E+03 -0.12357643839E+03  0.66854118568E+03  0.12699999809E+01 0. -1.
       -4    1    3    3    0  502 -0.43608391623E+03  0.49143197487E+03  0.32621209000E+03  0.73354652783E+03  0.12699999809E+01 0.  1.
</event>
<event>
 5   0  0.1199720E-03  0.1407326E+04  0.7818609E-02  0.8948533E-01
        1   -1    0    0  501    0  0.00000000000E+00  0.00000000000E+00  0.11071307656E+04  0.11071307656E+04  0.50400001928E-02 0. -1.
       -1   -1    0    0    0  501  0.00000000000E+00  0.00000000000E+00 -0.44722933487E+03  0.44722933490E+03  0.50400001928E-02 0.  1.
    10030    2    1    2    0    0  0.00000000000E+00  0.00000000000E+00  0.65990143074E+03  0.15543601005E+04  0.14073256282E+04 0.  0.
        5    1    3    3  502    0 -0.47420868464E+03 -0.18800635667E+03  0.86525118749E+03  0.10044411253E+04  0.46999998093E+01 0. -1.
       -5    1    3    3    0  502  0.47420868464E+03  0.18800635667E+03 -0.20534975674E+03  0.54991897524E+03  0.46999998093E+01 0.  1.
</event>
<event>
 5   0  0.1175374E-03  0.1434876E+04  0.7818609E-02  0.8928953E-01
       -1   -1    0    0    0  501  0.00000000000E+00  0.00000000000E+00  0.32564999429E+03  0.32564999433E+03  0.50400001928E-02 0. -1.
        1   -1    0    0  501    0  0.00000000000E+00  0.00000000000E+00 -0.15805844087E+04  0.15805844087E+04  0.50400001928E-02 0.  1.
    10030    2    1    2    0    0  0.00000000000E+00  0.00000000000E+00 -0.12549344144E+04  0.19062344030E+04  0.14348760277E+04 0.  0.
        3    1    3    3  502    0  0.12504807321E+03  0.31706414743E+03 -0.14661614399E+04  0.15052561484E+04  0.10100000352E+00 0.  1.
       -3    1    3    3    0  502 -0.12504807321E+03 -0.31706414743E+03  0.21122702549E+03  0.40097825465E+03  0.10100000352E+00 0. -1.
</event>
<event>
 5   0  0.2190704E-03  0.1380910E+04  0.7818609E-02  0.8967754E-01
       -2   -1    0    0    0  501  0.00000000000E+00  0.00000000000E+00  0.17816422735E+03  0.17816422736E+03  0.25500000920E-02 0. -1.
        2   -1    0    0  501    0  0.00000000000E+00  0.00000000000E+00 -0.26757792108E+04  0.26757792108E+04  0.25500000920E-02 0.  1.
    10030    2    1    2    0    0  0.00000000000E+00  0.00000000000E+00 -0.24976149835E+04  0.28539434382E+04  0.13809100415E+04 0.  0.
        5    1    3    3  502    0  0.56997471627E+02  0.11326743129E+03 -0.26514760347E+04  0.26545104022E+04  0.46999998093E+01 0.  1.
       -5    1    3    3    0  502 -0.56997471627E+02 -0.11326743129E+03  0.15386105122E+03  0.19943303599E+03  0.46999998093E+01 0. -1.
</event>
<event>
 5   0  0.1199720E-03  0.9502468E+03  0.7818609E-02  0.9364862E-01
        1   -1    0    0  501    0  0.00000000000E+00  0.00000000000E+00  0.21083880233E+04  0.21083880234E+04  0.50400001928E-02 0. -1.
       -1   -1    0    0    0  501  0.00000000000E+00  0.00000000000E+00 -0.10706864567E+03  0.10706864578E+03  0.50400001928E-02 0.  1.
    10030    2    1    2    0    0  0.00000000000E+00  0.00000000000E+00  0.20013193777E+04  0.22154566691E+04  0.95024681075E+03 0.  0.
        5    1    3    3  502    0 -0.23951093360E+03  0.14110362253E+03  0.18989336456E+04  0.19191786785E+04  0.46999998093E+01 0. -1.
       -5    1    3    3    0  502  0.23951093360E+03 -0.14110362253E+03  0.10238573208E+03  0.29627799064E+03  0.46999998093E+01 0.  1.
</event>
<event>
 5   0  0.2083966E-03  0.1397423E+04  0.7818609E-02  0.8955686E-01
       -2   -1    0    0    0  501  0.00000000000E+00  0.00000000000E+00  0.45642234884E+03  0.45642234885E+03  0.25500000920E-02 0.  1.
        2   -1    0    0  501    0  0.00000000000E+00  0.00000000000E+00 -0.10696181911E+04  0.10696181911E+04  0.25500000920E-02 0. -1.
    10030    2    1    2    0    0  0.00000000000E+00  0.00000000000E+00 -0.61319584223E+03  0.15260405399E+04  0.13974228381E+04 0.  0.
        1    1    3    3  502    0 -0.62439192326E+03 -0.17402810332E+03 -0.59146445126E+03  0.87748575584E+03  0.50400001928E-02 0. -1.
       -1    1    3    3    0  502  0.62439192326E+03  0.17402810332E+03 -0.21731390969E+02  0.64855478408E+03  0.50400001928E-02 0.  1.
</event>
<event>
 5   0  0.1175374E-03  0.1425491E+04  0.7818609E-02  0.8935571E-01
        1   -1    0    0  501    0  0.00000000000E+00  0.00000000000E+00  0.10469467694E+04  0.10469467694E+04  0.50400001928E-02 0.  1.
       -1   -1    0    0    0  501  0.00000000000E+00  0.00000000000E+00 -0.48522604351E+03  0.48522604354E+03  0.50400001928E-02 0. -1.
    10030    2    1    2    0    0  0.00000000000E+00  0.00000000000E+00  0.56172072588E+03  0.15321728129E+04  0.14254905664E+04 0.  0.
        3    1    3    3  502    0  0.48389247498E+01 -0.34020825122E+03  0.95402263051E+03  0.10128791928E+04  0.10100000352E+00 0.  1.
       -3    1    3    3    0  502 -0.48389247498E+01  0.34020825122E+03 -0.39230190463E+03  0.51929362019E+03  0.10100000352E+00 0. -1.
</event>
<event>
 5   0  0.1238683E-03  0.1427837E+04  0.7818609E-02  0.8933911E-01
        1   -1    0    0  501    0  0.00000000000E+00  0.00000000000E+00  0.96563472380E+03  0.96563472381E+03  0.50400001928E-02 0.  1.
       -1   -1    0    0    0  501  0.00000000000E+00  0.00000000000E+00 -0.52781853636E+03  0.52781853638E+03  0.50400001928E-02 0. -1.
    10030    2    1    2    0    0  0.00000000000E+00  0.00000000000E+00  0.43781618744E+03  0.14934532602E+04  0.14278373949E+04 0.  0.
        2    1    3    3  502    0  0.42371067549E+03 -0.23820665163E+03 -0.32800397677E+03  0.58639556119E+03  0.25500000920E-02 0. -1.
       -2    1    3    3    0  502 -0.42371067549E+03  0.23820665163E+03  0.76582016421E+03  0.90705769900E+03  0.25500000920E-02 0.  1.
</event>
<event>
 5   0  0.8293000E-04  0.1355341E+04  0.7818609E-02  0.8986795E-01
        3   -1    0    0  501    0  0.00000000000E+00  0.00000000000E+00  0.74848573356E+03  0.74848574037E+03  0.10100000352E+00 0.  1.
       -3   -1    0    0    0  501  0.00000000000E+00  0.00000000000E+00 -0.61355509473E+03  0.61355510304E+03  0.10100000352E+00 0. -1.
    10030    2    1    2    0    0  0.00000000000E+00  0.00000000000E+00  0.13493063883E+03  0.13620408434E+04  0.13553409098E+04 0.  0.
        3    1    3    3  502    0 -0.50327070324E+03  0.42451165414E+03 -0.93782500446E+02  0.66504639901E+03  0.10100000352E+00 0. -1.
       -3    1    3    3    0  502  0.50327070324E+03 -0.42451165414E+03  0.22871313928E+03  0.69699444440E+03  0.10100000352E+00 0.  1.
</event>
<event>
 5   0  0.2083966E-03  0.1411210E+04  0.7818609E-02  0.8945744E-01
        2   -1    0    0  501    0  0.00000000000E+00  0.00000000000E+00  0.61876194252E+03  0.61876194253E+03  0.25500000920E-02 0. -1.
       -2   -1    0    0    0  501  0.00000000000E+00  0.00000000000E+00 -0.80463679497E+03  0.80463679498E+03  0.25500000920E-02 0.  1.
    10030    2    1    2    0    0  0.00000000000E+00  0.00000000000E+00 -0.18587485245E+03  0.14233987375E+04  0.14112102980E+04 0.  0.
        1    1    3    3  502    0  0.56012675518E+03 -0.30629665662E+03 -0.39606427567E+03  0.75128325831E+03  0.50400001928E-02 0.  1.
       -1    1    3    3    0  502 -0.56012675518E+03  0.30629665662E+03  0.21018942322E+03  0.67211547920E+03  0.50400001928E-02 0. -1.
</event>
<event>
 5   0  0.2236184E-03  0.1406867E+04  0.7818609E-02  0.8948863E-01
       -2   -1    0    0    0  501  0.00000000000E+00  0.00000000000E+00  0.56880975316E+03  0.56880975317E+03  0.25500000920E-02 0. -1.
        2   -1    0    0  501    0  0.00000000000E+00  0.00000000000E+00 -0.86991954705E+03  0.86991954705E+03  0.25500000920E-02 0.  1.
    10030    2    1    2    0    0  0.00000000000E+00  0.00000000000E+00 -0.30110979388E+03  0.14387293002E+04  0.14068670482E+04 0.  0.
        3    1    3    3  502    0 -0.33580358756E+03 -0.43143119398E+03  0.30210018281E+03  0.62462905409E+03  0.10100000352E+00 0. -1.
       -3    1    3    3    0  502  0.33580358756E+03  0.43143119398E+03 -0.60320997670E+03  0.81410024613E+03  0.10100000352E+00 0.  1.
</event>
<event>
 5   0  0.2083966E-03  0.1398792E+04  0.7818609E-02  0.8954693E-01
        2   -1    0    0  501    0  0.00000000000E+00  0.00000000000E+00  0.84483562445E+03  0.84483562446E+03  0.25500000920E-02 0.  1.
       -2   -1    0    0    0  501  0.00000000000E+00  0.00000000000E+00 -0.57899433383E+03  0.57899433384E+03  0.25500000920E-02 0. -1.
    10030    2    1    2    0    0  0.00000000000E+00  0.00000000000E+00  0.26584129062E+03  0.14238299583E+04  0.13987923929E+04 0.  0.
        1    1    3    3  502    0 -0.60125702027E+03  0.35555241440E+03  0.16858368872E+03  0.71857357587E+03  0.50400001928E-02 0.  1.
       -1    1    3    3    0  502  0.60125702027E+03 -0.35555241440E+03  0.97257601902E+02  0.70525638243E+03  0.50400001928E-02 0. -1.
</event>
<event>
 5   0  0.2236184E-03  0.1378827E+04  0.7818609E-02  0.8969289E-01
        2   -1    0    0  501    0  0.00000000000E+00  0.00000000000E+00  0.32212740749E+03  0.32212740750E+03  0.25500000920E-02 0.  1.
       -2   -1    0    0    0  501  0.00000000000E+00  0.00000000000E+00 -0.14754753454E+04  0.14754753454E+04  0.25500000920E-02 0. -1.
    10030    2    1    2    0    0  0.00000000000E+00  0.00000000000E+00 -0.11533479379E+04  0.17976027529E+04  0.13788271071E+04 0.  0.
        3    1    3    3  502    0 -0.11476198816E+02  0.41248796723E+03 -0.12966915396E+04  0.13607670577E+04  0.10100000352E+00 0. -1.
       -3    1    3    3    0  502  0.11476198816E+02 -0.41248796723E+03  0.14334360170E+03  0.43683569520E+03  0.10100000352E+00 0.  1.
</event>
<event>
 5   0  0.2172901E-03  0.1402848E+04  0.7818609E-02  0.8951759E-01
        2   -1    0    0  501    0  0.00000000000E+00  0.00000000000E+00  0.12878424397E+04  0.12878424397E+04  0.25500000920E-02 0.  1.
       -2   -1    0    0    0  501  0.00000000000E+00  0.00000000000E+00 -0.38203107083E+03  0.38203107084E+03  0.25500000920E-02 0. -1.
    10030    2    1    2    0    0  0.00000000000E+00  0.00000000000E+00  0.90581136887E+03  0.16698735105E+04  0.14028482830E+04 0.  0.
        2    1    3    3  502    0 -0.34643672435E+03 -0.58853164336E+03  0.64339037767E+03  0.93826386337E+03  0.25500000920E-02 0.  1.
       -2    1    3    3    0  502  0.34643672435E+03  0.58853164336E+03  0.26242099120E+03  0.73160964718E+03  0.25500000920E-02 0. -1.
</event>
<event>
 5   0  0.2083966E-03  0.1143910E+04  0.7818609E-02  0.9163420E-01
        2   -1    0    0  501    0  0.00000000000E+00  0.00000000000E+00  0.11424945857E+04  0.11424945857E+04  0.25500000920E-02 0. -1.
       -2   -1    0    0    0  501  0.00000000000E+00  0.00000000000E+00 -0.28633171842E+03  0.28633171843E+03  0.25500000920E-02 0.  1.
    10030    2    1    2    0    0  0.00000000000E+00  0.00000000000E+00  0.85616286725E+03  0.14288263041E+04  0.11439098531E+04 0.  0.
        1    1    3    3  502    0  0.33349433580E+03  0.36759226278E+03  0.73050531483E+02  0.50167611448E+03  0.50400001928E-02 0.  1.
       -1    1    3    3    0  502 -0.33349433580E+03 -0.36759226278E+03  0.78311233577E+03  0.92715018962E+03  0.50400001928E-02 0. -1.
</event>
<event>
 5   0  0.1199720E-03  0.1415877E+04  0.7818609E-02  0.8942406E-01
       -1   -1    0    0    0  501  0.00000000000E+00  0.00000000000E+00  0.12102650947E+04  0.12102650947E+04  0.50400001928E-02 0. -1.
        1   -1    0    0  501    0  0.00000000000E+00  0.00000000000E+00 -0.41410491719E+03  0.41410491722E+03  0.50400001928E-02 0.  1.
    10030    2    1    2    0    0  0.00000000000E+00  0.00000000000E+00  0.79616017747E+03  0.16243700119E+04  0.14158767275E+04 0.  0.
        5    1    3    3  502    0  0.69597377176E+03  0.85008334482E+02  0.51018697806E+03  0.86713248728E+03  0.46999998093E+01 0. -1.
       -5    1    3    3    0  502 -0.69597377176E+03 -0.85008334482E+02  0.28597319941E+03  0.75723752462E+03  0.46999998093E+01 0.  1.
</event>
<event>
 5   0  0.1199720E-03  0.1400891E+04  0.7818609E-02  0.8953174E-01
       -1   -1    0    0    0  501  0.00000000000E+00  0.00000000000E+00  0.53682875481E+03  0.53682875484E+03  0.50400001928E-02 0. -1.
        1   -1    0    0  501    0  0.00000000000E+00  0.00000000000E+00 -0.91392986452E+03  0.91392986453E+03  0.50400001928E-02 0.  1.
    10030    2    1    2    0    0  0.00000000000E+00  0.00000000000E+00 -0.37710110970E+03  0.14507586194E+04  0.14008909039E+04 0.  0.
        5    1    3    3  502    0 -0.19899539918E+03 -0.12730773773E+03  0.49431195604E+03  0.54788030524E+03  0.46999998093E+01 0. -1.
       -5    1    3    3    0  502  0.19899539918E+03  0.12730773773E+03 -0.87141306575E+03  0.90287831413E+03  0.46999998093E+01 0.  1.
</event>
<event>
 5   0  0.2172901E-03  0.1336954E+04  0.7818609E-02  0.9000763E-01
        2   -1    0    0  501    0  0.00000000000E+00  0.00000000000E+00  0.35786890546E+03  0.35786890547E+03  0.25500000920E-02 0. -1.
       -2   -1    0    0    0  501  0.00000000000E+00  0.00000000000E+00 -0.12486740505E+04  0.12486740505E+04  0.25500000920E-02 0.  1.
    10030    2    1    2    0    0  0.00000000000E+00  0.00000000000E+00 -0.89080514505E+03  0.16065429560E+04  0.13369541738E+04 0.  0.
        2    1    3    3  502    0 -0.45578350979E+03 -0.42773307998E+03 -0.73018819465E+03  0.96118104180E+03  0.25500000920E-02 0.  1.
       -2    1    3    3    0  502  0.45578350979E+03  0.42773307998E+03 -0.16061695040E+03  0.64536191417E+03  0.25500000920E-02 0. -1.
</event>
<event>
 5   0  0.1175374E-03  0.1359598E+04  0.7818609E-02  0.8983594E-01
        1   -1    0    0  501    0  0.00000000000E+00  0.00000000000E+00  0.25773785199E+04  0.25773785199E+04  0.50400001928E-02 0.  1.
       -1   -1    0    0    0  501  0.00000000000E+00  0.00000000000E+00 -0.17930096993E+03  0.17930097000E+03  0.50400001928E-02 0. -1.
    10030    2    1    2    0    0  0.00000000000E+00  0.00000000000E+00  0.23980775500E+04  0.27566794899E+04  0.13595976884E+04 0.  0.
        3    1    3    3  502    0  0.11526436560E+03  0.85786069112E+02  0.25462386411E+04  0.25502894642E+04  0.10100000352E+00 0.  1.
       -3    1    3    3    0  502 -0.11526436560E+03 -0.85786069112E+02 -0.14816109106E+03  0.20639002577E+03  0.10100000352E+00 0. -1.
</event>
<event>
 5   0  0.1199720E-03  0.1490188E+04  0.7818609E-02  0.8891004E-01
        1   -1    0    0  501    0  0.00000000000E+00  0.00000000000E+00  0.11194621396E+04  0.11194621396E+04  0.50400001928E-02 0.  1.
       -1   -1    0    0    0  501  0.00000000000E+00  0.00000000000E+00 -0.49592098493E+03  0.49592098495E+03  0.50400001928E-02 0. -1.
    10030    2    1    2    0    0  0.00000000000E+00  0.00000000000E+00  0.62354115469E+03  0.16153831246E+04  0.14901875948E+04 0.  0.
        5    1    3    3  502    0 -0.93800295465E+02  0.53668068088E+03  0.86272028428E+03  0.10203592640E+04  0.46999998093E+01 0.  1.
       -5    1    3    3    0  502  0.93800295465E+02 -0.53668068088E+03 -0.23917912959E+03  0.59502386061E+03  0.46999998093E+01 0. -1.
</event>
<event>
 5   0  0.2190704E-03  0.1458960E+04  0.7818609E-02  0.8912212E-01
        2   -1    0    0  501    0  0.00000000000E+00  0.00000000000E+00  0.17559689810E+04  0.17559689810E+04  0.25500000920E-02 0.  1.
       -2   -1    0    0    0  501  0.00000000000E+00  0.00000000000E+00 -0.30304699883E+03  0.30304699884E+03  0.25500000920E-02 0. -1.
    10030    2    1    2    0    0  0.00000000000E+00  0.00000000000E+00  0.14529219821E+04  0.20590159798E+04  0.14589600813E+04 0.  0.
        5    1    3    3  502    0  0.38295874856E+03  0.34699345525E+03  0.14530454314E+04  0.15422143096E+04  0.46999998093E+01 0.  1.
       -5    1    3    3    0  502 -0.38295874856E+03 -0.34699345525E+03 -0.12344924213E+00  0.51680167020E+03  0.46999998093E+01 0. -1.
</event>
<event>
 5   0  0.2236184E-03  0.1433487E+04  0.7818609E-02  0.8929929E-01
        2   -1    0    0  501    0  0.00000000000E+00  0.00000000000E+00  0.49139022968E+03  0.49139022969E+03  0.25500000920E-02 0.  1.
       -2   -1    0    0    0  501  0.00000000000E+00  0.00000000000E+00 -0.10454446165E+04  0.10454446165E+04  0.25500000920E-02 0. -1.
    10030    2    1    2    0    0  0.00000000000E+00  0.00000000000E+00 -0.55405438683E+03  0.15368348462E+04  0.14334870355E+04 0.  0.
        3    1    3    3  502    0  0.40258196734E+03 -0.59277611908E+03 -0.25955854291E+03  0.76211968560E+03  0.10100000352E+00 0.  1.
       -3    1    3    3    0  502 -0.40258196734E+03  0.59277611908E+03 -0.29449584392E+03  0.77471516061E+03  0.10100000352E+00 0. -1.
</event>
<event>
 5   0  0.1199720E-03  0.1414466E+04  0.7818609E-02  0.8943413E-01
       -1   -1    0    0    0  501  0.00000000000E+00  0.00000000000E+00  0.27786218128E+03  0.27786218132E+03  0.50400001928E-02 0.  1.
        1   -1    0    0  501    0  0.00000000000E+00  0.00000000000E+00 -0.18000965354E+04  0.18000965354E+04  0.50400001928E-02 0. -1.
    10030    2    1    2    0    0  0.00000000000E+00  0.00000000000E+00 -0.15222343541E+04  0.20779587167E+04  0.14144663303E+04 0.  0.
        5    1    3    3  502    0 -0.34988681384E+03  0.13084535264E+03  0.12108153262E+03  0.39271378425E+03  0.46999998093E+01 0.  1.
       -5    1    3    3    0  502  0.34988681384E+03 -0.13084535264E+03 -0.16433158867E+04  0.16852449325E+04  0.46999998093E+01 0. -1.
</event>
<event>
 5   0  0.2172901E-03  0.1399745E+04  0.7818609E-02  0.8954003E-01
        2   -1    0    0  501    0  0.00000000000E+00  0.00000000000E+00  0.97361409511E+03  0.97361409511E+03  0.25500000920E-02 0.  1.
       -2   -1    0    0    0  501  0.00000000000E+00  0.00000000000E+00 -0.50309584191E+03  0.50309584192E+03  0.25500000920E-02 0. -1.
    10030    2    1    2    0    0  0.00000000000E+00  0.00000000000E+00  0.47051825320E+03  0.14767099370E+04  0.13997445522E+04 0.  0.
        2    1    3    3  502    0  0.43025811554E+03  0.87635463259E+02  0.81022048857E+03  0.92155263578E+03  0.25500000920E-02 0.  1.
       -2    1    3    3    0  502 -0.43025811554E+03 -0.87635463259E+02 -0.33970223537E+03  0.55515730125E+03  0.25500000920E-02 0. -1.
</event>
<event>
 5   0  0.1210275E-03  0.1344482E+04  0.7818609E-02  0.8995015E-01
       -1   -1    0    0    0  501  0.00000000000E+00  0.00000000000E+00  0.25809134769E+03  0.25809134774E+03  0.50400001928E-02 0.  1.
        1   -1    0    0  501    0  0.00000000000E+00  0.00000000000E+00 -0.17509623350E+04  0.17509623350E+04  0.50400001928E-02 0. -1.
    10030    2    1    2    0    0  0.00000000000E+00  0.00000000000E+00 -0.14928709873E+04  0.20090536828E+04  0.13444823969E+04 0.  0.
        1    1    3    3  502    0 -0.30732185650E+03  0.51374702142E+03 -0.28945101664E+03  0.66495459737E+03  0.50400001928E-02 0.  1.
       -1    1    3    3    0  502  0.30732185650E+03 -0.51374702142E+03 -0.12034199707E+04  0.13440990854E+04  0.50400001928E-02 0. -1.
</event>
<event>
 5   0  0.8293000E-04  0.1415238E+04  0.7818609E-02  0.8942862E-01
        3   -1    0    0  501    0  0.00000000000E+00  0.00000000000E+00  0.92704579640E+03  0.92704580190E+03  0.10100000352E+00 0. -1.
       -3   -1    0    0    0  501  0.00000000000E+00  0.00000000000E+00 -0.54012959432E+03  0.54012960377E+03  0.10100000352E+00 0.  1.
    10030    2    1    2    0    0  0.00000000000E+00  0.00000000000E+00  0.38691620207E+03  0.14671754057E+04  0.14152383275E+04 0.  0.
        4    1    3    3  502    0 -0.98367104343E+02 -0.63585944687E+03  0.49876526227E+03  0.81410178918E+03  0.12699999809E+01 0. -1.
       -4    1    3    3    0  502  0.98367104343E+02  0.63585944687E+03 -0.11184906020E+03  0.65307361649E+03  0.12699999809E+01 0.  1.
</event>
<event>
 5   0  0.2083966E-03  0.1403058E+04  0.7818609E-02  0.8951608E-01
        2   -1    0    0  501    0  0.00000000000E+00  0.00000000000E+00  0.12549488759E+04  0.12549488759E+04  0.25500000920E-02 0. -1.
       -2   -1    0    0    0  501  0.00000000000E+00  0.00000000000E+00 -0.39216148701E+03  0.39216148702E+03  0.25500000920E-02 0.  1.
    10030    2    1    2    0    0  0.00000000000E+00  0.00000000000E+00  0.86278738884E+03  0.16471103629E+04  0.14030575431E+04 0.  0.
        1    1    3    3  502    0 -0.59200190673E+03 -0.36174956224E+03  0.55347035657E+03  0.88750123323E+03  0.50400001928E-02 0.  1.
       -1    1    3    3    0  502  0.59200190673E+03  0.36174956224E+03  0.30931703227E+03  0.75960912964E+03  0.50400001928E-02 0. -1.
</event>
<event>
 5   0  0.1238683E-03  0.1407111E+04  0.7818609E-02  0.8948687E-01
        1   -1    0    0  501    0  0.00000000000E+00  0.00000000000E+00  0.13971135974E+04  0.13971135974E+04  0.50400001928E-02 0.  1.
       -1   -1    0    0    0  501  0.00000000000E+00  0.00000000000E+00 -0.35429520185E+03  0.35429520188E+03  0.50400001928E-02 0. -1.
    10030    2    1    2    0    0  0.00000000000E+00  0.00000000000E+00  0.10428183956E+04  0.17514087993E+04  0.14071114299E+04 0.  0.
        2    1    3    3  502    0 -0.16710337883E+03  0.65531413802E+02 -0.32531685001E+03  0.37154940226E+03  0.25500000920E-02 0. -1.
       -2    1    3    3    0  502  0.16710337883E+03 -0.65531413802E+02  0.13681352456E+04  0.13798593971E+04  0.25500000920E-02 0.  1.
</event>
<event>
 5   0  0.1175374E-03  0.1360488E+04  0.7818609E-02  0.8982926E-01
       -1   -1    0    0    0  501  0.00000000000E+00  0.00000000000E+00  0.56862769022E+03  0.56862769025E+03  0.50400001928E-02 0. -1.
        1   -1    0    0  501    0  0.00000000000E+00  0.00000000000E+00 -0.81376996938E+03  0.81376996939E+03  0.50400001928E-02 0.  1.
    10030    2    1    2    0    0  0.00000000000E+00  0.00000000000E+00 -0.24514227915E+03  0.13823976596E+04  0.13604883507E+04 0.  0.
        3    1    3    3  502    0 -0.25765326496E+03  0.58980353717E+02  0.51431474484E+03  0.57825907173E+03  0.10100000352E+00 0. -1.
       -3    1    3    3    0  502  0.25765326496E+03 -0.58980353717E+02 -0.75945702400E+03  0.80413858791E+03  0.10100000352E+00 0.  1.
</event>
<event>
 5   0  0.1199720E-03  0.1391898E+04  0.7818609E-02  0.8959704E-01
       -1   -1    0    0    0  501  0.00000000000E+00  0.00000000000E+00  0.18818785183E+04  0.18818785183E+04  0.50400001928E-02 0.  1.
        1   -1    0    0  501    0  0.00000000000E+00  0.00000000000E+00 -0.25737317931E+03  0.25737317936E+03  0.50400001928E-02 0. -1.
    10030    2    1    2    0    0  0.00000000000E+00  0.00000000000E+00  0.16245053390E+04  0.21392516976E+04  0.13918980672E+04 0.  0.
        5    1    3    3  502    0 -0.19634980198E+03 -0.39845430917E+02 -0.21206570336E+03  0.29177877860E+03  0.46999998093E+01 0. -1.
       -5    1    3    3    0  502  0.19634980198E+03  0.39845430917E+02  0.18365710423E+04  0.18474729190E+04  0.46999998093E+01 0.  1.
</event>
<event>
 5   0  0.1238683E-03  0.1298563E+04  0.7818609E-02  0.9030706E-01
       -1   -1    0    0    0  501  0.00000000000E+00  0.00000000000E+00  0.61076327402E+03  0.61076327404E+03  0.50400001928E-02 0. -1.
        1   -1    0    0  501    0  0.00000000000E+00  0.00000000000E+00 -0.69022873281E+03  0.69022873283E+03  0.50400001928E-02 0.  1.
    10030    2    1    2    0    0  0.00000000000E+00  0.00000000000E+00 -0.79465458786E+02  0.13009920069E+04  0.12985628374E+04 0.  0.
        2    1    3    3  502    0 -0.46036982795E+03  0.29491266615E+03 -0.39060565936E+03  0.67192755583E+03  0.25500000920E-02 0.  1.
       -2    1    3    3    0  502  0.46036982795E+03 -0.29491266615E+03  0.31114020057E+03  0.62906445104E+03  0.25500000920E-02 0. -1.
</event>
<event>
 5   0  0.2195980E-03  0.1507157E+04  0.7818609E-02  0.8879707E-01
        2   -1    0    0  501    0  0.00000000000E+00  0.00000000000E+00  0.14887007746E+04  0.14887007746E+04  0.25500000920E-02 0.  1.
       -2   -1    0    0    0  501  0.00000000000E+00  0.00000000000E+00 -0.38146057871E+03  0.38146057871E+03  0.25500000920E-02 0. -1.
    10030    2    1    2    0    0  0.00000000000E+00  0.00000000000E+00  0.11072401959E+04  0.18701613533E+04  0.15071571371E+04 0.  0.
        4    1    3    3  502    0 -0.17361329971E+03  0.21680015640E+02  0.14631475391E+04  0.14735718290E+04  0.12699999809E+01 0.  1.
       -4    1    3    3    0  502  0.17361329971E+03 -0.21680015640E+02 -0.35590734327E+03  0.39658952433E+03  0.12699999809E+01 0. -1.
</event>
<event>
 5   0  0.1225690E-03  0.1394028E+04  0.7818609E-02  0.8958153E-01
        1   -1    0    0  501    0  0.00000000000E+00  0.00000000000E+00  0.45427879910E+03  0.45427879913E+03  0.50400001928E-02 0.  1.
       -1   -1    0    0    0  501  0.00000000000E+00  0.00000000000E+00 -0.10694499643E+04  0.10694499644E+04  0.50400001928E-02 0. -1.
    10030    2    1    2    0    0  0.00000000000E+00  0.00000000000E+00 -0.61517116524E+03  0.15237287635E+04  0.13940278986E+04 0.  0.
        4    1    3    3  502    0  0.24147549924E+03  0.22523615870E+03 -0.97852460890E+03  0.10327409003E+04  0.12699999809E+01 0. -1.
       -4    1    3    3    0  502 -0.24147549924E+03 -0.22523615870E+03  0.36335344366E+03  0.49098786323E+03  0.12699999809E+01 0.  1.
</event>
<event>
 5   0  0.1175374E-03  0.1364132E+04  0.7818609E-02  0.8980199E-01
       -1   -1    0    0    0  501  0.00000000000E+00  0.00000000000E+00  0.76724187451E+03  0.76724187453E+03  0.50400001928E-02 0. -1.
        1   -1    0    0  501    0  0.00000000000E+00  0.00000000000E+00 -0.60634555074E+03  0.60634555076E+03  0.50400001928E-02 0.  1.
    10030    2    1    2    0    0  0.00000000000E+00  0.00000000000E+00  0.16089632377E+03  0.13735874253E+04  0.13641315142E+04 0.  0.
        3    1    3    3  502    0  0.55749272202E+03  0.20461542481E+03 -0.25735919908E+03  0.64722436197E+03  0.10100000352E+00 0.  1.
       -3    1    3    3    0  502 -0.55749272202E+03 -0.20461542481E+03  0.41825552284E+03  0.72636306332E+03  0.10100000352E+00 0. -1.
</event>
<event>
 5   0  0.8293000E-04  0.1199027E+04  0.7818609E-02  0.9113709E-01
        4   -1    0    0  501    0  0.00000000000E+00  0.00000000000E+00  0.16640231025E+04  0.16640235872E+04  0.12699999809E+01 0.  1.
       -4   -1    0    0    0  501  0.00000000000E+00  0.00000000000E+00 -0.21598998617E+03  0.21599371988E+03  0.12699999809E+01 0. -1.
    10030    2    1    2    0    0  0.00000000000E+00  0.00000000000E+00  0.14480331163E+04  0.18800173070E+04  0.11990267590E+04 0.  0.
        4    1    3    3  502    0 -0.99981241225E+02 -0.39640287095E+03  0.36467587427E+02  0.41044242291E+03  0.12699999809E+01 0. -1.
       -4    1    3    3    0  502  0.99981241225E+02  0.39640287095E+03  0.14115655289E+04  0.14695748841E+04  0.12699999809E+01 0.  1.
</event>
<event>
 5   0  0.2083966E-03  0.1352543E+04  0.7818609E-02  0.8988905E-01
        2   -1    0    0  501    0  0.00000000000E+00  0.00000000000E+00  0.63635637812E+03  0.63635637812E+03  0.25500000920E-02 0. -1.
       -2   -1    0    0    0  501  0.00000000000E+00  0.00000000000E+00 -0.71869042815E+03  0.71869042816E+03  0.25500000920E-02 0.  1.
    10030    2    1    2    0    0  0.00000000000E+00  0.00000000000E+00 -0.82334050037E+02  0.13550468063E+04  0.13525431422E+04 0.  0.
        1    1    3    3  502    0  0.38473167844E+03  0.12820661600E+03 -0.58335994054E+03  0.71046760730E+03  0.50400001928E-02 0.  1.
       -1    1    3    3    0  502 -0.38473167844E+03 -0.12820661600E+03  0.50102589050E+03  0.64457919898E+03  0.50400001928E-02 0. -1.
</event>
<event>
 5   0  0.2236184E-03  0.1401267E+04  0.7818609E-02  0.8952902E-01
       -2   -1    0    0    0  501  0.00000000000E+00  0.00000000000E+00  0.11356105182E+04  0.11356105182E+04  0.25500000920E-02 0.  1.
        2   -1    0    0  501    0  0.00000000000E+00  0.00000000000E+00 -0.43226702489E+03  0.43226702490E+03  0.25500000920E-02 0. -1.
    10030    2    1    2    0    0  0.00000000000E+00  0.00000000000E+00  0.70334349329E+03  0.15678775431E+04  0.14012665416E+04 0.  0.
        3    1    3    3  502    0 -0.39329812366E+02 -0.28552780448E+03 -0.36286152693E+03  0.46340204919E+03  0.10100000352E+00 0. -1.
       -3    1    3    3    0  502  0.39329812366E+02  0.28552780448E+03  0.10662050202E+04  0.11044754939E+04  0.10100000352E+00 0.  1.
</event>
<event>
 5   0  0.2236184E-03  0.1062481E+04  0.7818609E-02  0.9242552E-01
        2   -1    0    0  501    0  0.00000000000E+00  0.00000000000E+00  0.56222321563E+03  0.56222321563E+03  0.25500000920E-02 0.  1.
       -2   -1    0    0    0  501  0.00000000000E+00  0.00000000000E+00 -0.50196503637E+03  0.50196503637E+03  0.25500000920E-02 0. -1.
    10030    2    1    2    0    0  0.00000000000E+00  0.00000000000E+00  0.60258179262E+02  0.10641882520E+04  0.10624808646E+04 0.  0.
        3    1    3    3  502    0  0.29060616271E+03  0.27441760327E+03  0.38063346945E+03  0.55194094889E+03  0.10100000352E+00 0.  1.
       -3    1    3    3    0  502 -0.29060616271E+03 -0.27441760327E+03 -0.32037529019E+03  0.51224730312E+03  0.10100000352E+00 0. -1.
</event>
<event>
 5   0  0.1225690E-03  0.1427426E+04  0.7818609E-02  0.8934202E-01
        1   -1    0    0  501    0  0.00000000000E+00  0.00000000000E+00  0.70859885868E+03  0.70859885869E+03  0.50400001928E-02 0. -1.
       -1   -1    0    0    0  501  0.00000000000E+00  0.00000000000E+00 -0.71886430590E+03  0.71886430592E+03  0.50400001928E-02 0.  1.
    10030    2    1    2    0    0  0.00000000000E+00  0.00000000000E+00 -0.10265447223E+02  0.14274631646E+04  0.14274262527E+04 0.  0.
        4    1    3    3  502    0  0.52209246846E+03  0.43833603182E+03 -0.21648101785E+03  0.71525147074E+03  0.12699999809E+01 0.  1.
       -4    1    3    3    0  502 -0.52209246846E+03 -0.43833603182E+03  0.20621557063E+03  0.71221169387E+03  0.12699999809E+01 0. -1.
</event>
<event>
 5   0  0.2083966E-03  0.1135294E+04  0.7818609E-02  0.9171459E-01
        2   -1    0    0  501    0  0.00000000000E+00  0.00000000000E+00  0.25218314380E+04  0.25218314380E+04  0.25500000920E-02 0.  1.
       -2   -1    0    0    0  501  0.00000000000E+00  0.00000000000E+00 -0.12777348069E+03  0.12777348072E+03  0.25500000920E-02 0. -1.
    10030    2    1    2    0    0  0.00000000000E+00  0.00000000000E+00  0.23940579573E+04  0.26496049187E+04  0.11352941127E+04 0.  0.
        1    1    3    3  502    0  0.25013932321E+02  0.72215655765E+02  0.25097694720E+04  0.25109328148E+04  0.50400001928E-02 0.  1.
       -1    1    3    3    0  502 -0.25013932321E+02 -0.72215655765E+02 -0.11571151470E+03  0.13867210393E+03  0.50400001928E-02 0. -1.
</event>
<event>
 5   0  0.1238683E-03  0.1411846E+04  0.7818609E-02  0.8945288E-01
       -1   -1    0    0    0  501  0.00000000000E+00  0.00000000000E+00  0.68187580814E+03  0.68187580816E+03  0.50400001928E-02 0.  1.
        1   -1    0    0  501    0  0.00000000000E+00  0.00000000000E+00 -0.73081786578E+03  0.73081786580E+03  0.50400001928E-02 0. -1.
    10030    2    1    2    0    0  0.00000000000E+00  0.00000000000E+00 -0.48942057641E+02  0.14126936740E+04  0.14118456330E+04 0.  0.
        2    1    3    3  502    0 -0.35485657882E+03 -0.14312662997E+03  0.56911257423E+03  0.68578243335E+03  0.25500000920E-02 0.  1.
       -2    1    3    3    0  502  0.35485657882E+03  0.14312662997E+03 -0.61805463187E+03  0.72691124061E+03  0.25500000920E-02 0. -1.
</event>
<event>
 5   0  0.1210275E-03  0.1416732E+04  0.7818609E-02  0.8941795E-01
        1   -1    0    0  501    0  0.00000000000E+00  0.00000000000E+00  0.18296650536E+04  0.18296650536E+04  0.50400001928E-02 0. -1.
       -1   -1    0    0    0  501  0.00000000000E+00  0.00000000000E+00 -0.27424832810E+03  0.27424832815E+03  0.50400001928E-02 0.  1.
    10030    2    1    2    0    0  0.00000000000E+00  0.00000000000E+00  0.15554167255E+04  0.21039133818E+04  0.14167322711E+04 0.  0.
        1    1    3    3  502    0  0.41730583719E+03  0.17258089771E+03  0.15881877478E+04  0.16511416203E+04  0.50400001928E-02 0. -1.
       -1    1    3    3    0  502 -0.41730583719E+03 -0.17258089771E+03 -0.32771022346E+02  0.45277176141E+03  0.50400001928E-02 0.  1.
</event>
<event>
 5   0  0.1199720E-03  0.1420307E+04  0.7818609E-02  0.8939249E-01
        1   -1    0    0  501    0  0.00000000000E+00  0.00000000000E+00  0.16672958583E+04  0.16672958583E+04  0.50400001928E-02 0. -1.
       -1   -1    0    0    0  501  0.00000000000E+00  0.00000000000E+00 -0.30247642503E+03  0.30247642507E+03  0.50400001928E-02 0.  1.
    10030    2    1    2    0    0  0.00000000000E+00  0.00000000000E+00  0.13648194332E+04  0.19697722834E+04  0.14203065736E+04 0.  0.
        5    1    3    3  502    0 -0.20409387870E+03 -0.92195443717E+02 -0.25219812280E+03  0.33731334736E+03  0.46999998093E+01 0.  1.
       -5    1    3    3    0  502  0.20409387870E+03  0.92195443717E+02  0.16170175560E+04  0.16324589360E+04  0.46999998093E+01 0. -1.
</event>
<event>
 5   0  0.2172901E-03  0.1375823E+04  0.7818609E-02  0.8971507E-01
       -2   -1    0    0    0  501  0.00000000000E+00  0.00000000000E+00  0.24296317633E+03  0.24296317634E+03  0.25500000920E-02 0. -1.
        2   -1    0    0  501    0  0.00000000000E+00  0.00000000000E+00 -0.19477117987E+04  0.19477117987E+04  0.25500000920E-02 0.  1.
    10030    2    1    2    0    0  0.00000000000E+00  0.00000000000E+00 -0.17047486224E+04  0.21906749751E+04  0.13758230194E+04 0.  0.
        2    1    3    3  502    0  0.56613050172E+02  0.33596740091E+03 -0.18039350519E+04  0.18358270080E+04  0.25500000920E-02 0.  1.
       -2    1    3    3    0  502 -0.56613050172E+02 -0.33596740091E+03  0.99186429486E+02  0.35484796706E+03  0.25500000920E-02 0. -1.
</event>
<event>
 5   0  0.2083966E-03  0.1399427E+04  0.7818609E-02  0.8954234E-01
        2   -1    0    0  501    0  0.00000000000E+00  0.00000000000E+00  0.83988017375E+03  0.83988017376E+03  0.25500000920E-02 0. -1.
       -2   -1    0    0    0  501  0.00000000000E+00  0.00000000000E+00 -0.58293871783E+03  0.58293871784E+03  0.25500000920E-02 0.  1.
    10030    2    1    2    0    0  0.00000000000E+00  0.00000000000E+00  0.25694145592E+03  0.14228188916E+04  0.13994265563E+04 0.  0.
        1    1    3    3  502    0 -0.47399424344E+03 -0.39473267481E+03 -0.20737531549E+03  0.65076028526E+03  0.50400001928E-02 0.  1.
       -1    1    3    3    0  502  0.47399424344E+03  0.39473267481E+03  0.46431677141E+03  0.77205860633E+03  0.50400001928E-02 0. -1.
</event>
<event>
 5   0  0.2236184E-03  0.1416740E+04  0.7818609E-02  0.8941789E-01
        2   -1    0    0  501    0  0.00000000000E+00  0.00000000000E+00  0.62609614681E+03  0.62609614682E+03  0.25500000920E-02 0. -1.
       -2   -1    0    0    0  501  0.00000000000E+00  0.00000000000E+00 -0.80145562943E+03  0.80145562943E+03  0.25500000920E-02 0.  1.
    10030    2    1    2    0    0  0.00000000000E+00  0.00000000000E+00 -0.17535948262E+03  0.14275517763E+04  0.14167403170E+04 0.  0.
        3    1    3    3  502    0 -0.47733275796E+03 -0.35249790541E+03 -0.47752617461E+03  0.76166435703E+03  0.10100000352E+00 0.  1.
       -3    1    3    3    0  502  0.47733275796E+03  0.35249790541E+03  0.30216669199E+03  0.66588741922E+03  0.10100000352E+00 0. -1.
</event>
<event>
 5   0  0.8293000E-04  0.1684700E+04  0.7818609E-02  0.8770139E-01
        3   -1    0    0  501    0  0.00000000000E+00  0.00000000000E+00  0.14123452188E+04  0.14123452225E+04  0.10100000352E+00 0. -1.
       -3   -1    0    0    0  501  0.00000000000E+00  0.00000000000E+00 -0.50239380769E+03  0.50239381785E+03  0.10100000352E+00 0.  1.
    10030    2    1    2    0    0  0.00000000000E+00  0.00000000000E+00  0.90995141115E+03  0.19147390403E+04  0.16846999798E+04 0.  0.
        2    1    3    3  502    0  0.58608511106E+02 -0.63821078599E+03  0.10762470816E+04  0.12526195534E+04  0.25500000920E-02 0. -1.
       -2    1    3    3    0  502 -0.58608511106E+02  0.63821078599E+03 -0.16629567043E+03  0.66211948691E+03  0.25500000920E-02 0.  1.
</event>
<event>
 5   0  0.8293000E-04  0.1414135E+04  0.7818609E-02  0.8943650E-01
        4   -1    0    0  501    0  0.00000000000E+00  0.00000000000E+00  0.11673612525E+04  0.11673619433E+04  0.12699999809E+01 0. -1.
       -4   -1    0    0    0  501  0.00000000000E+00  0.00000000000E+00 -0.42826720892E+03  0.42826909197E+03  0.12699999809E+01 0.  1.
    10030    2    1    2    0    0  0.00000000000E+00  0.00000000000E+00  0.73909404354E+03  0.15956310353E+04  0.14141352112E+04 0.  0.
        2    1    3    3  502    0 -0.33527544433E+03  0.11525538356E+03  0.10598235771E+04  0.11175506438E+04  0.25500000920E-02 0. -1.
       -2    1    3    3    0  502  0.33527544433E+03 -0.11525538356E+03 -0.32072953351E+03  0.47808039144E+03  0.25500000920E-02 0.  1.
</event>
<event>
 5   0  0.2195980E-03  0.1387971E+04  0.7818609E-02  0.8962572E-01
       -2   -1    0    0    0  501  0.00000000000E+00  0.00000000000E+00  0.26737617249E+03  0.26737617250E+03  0.25500000920E-02 0.  1.
        2   -1    0    0  501    0  0.00000000000E+00  0.00000000000E+00 -0.18012675978E+04  0.18012675978E+04  0.25500000920E-02 0. -1.
    10030    2    1    2    0    0  0.00000000000E+00  0.00000000000E+00 -0.15338914253E+04  0.20686437703E+04  0.13879712331E+04 0.  0.
        4    1    3    3  502    0 -0.33371117260E+03 -0.46322799843E+03 -0.13549889213E+04  0.14703536700E+04  0.12699999809E+01 0. -1.
       -4    1    3    3    0  502  0.33371117260E+03  0.46322799843E+03 -0.17890250402E+03  0.59829010028E+03  0.12699999809E+01 0.  1.
</event>
<event>
 5   0  0.2083966E-03  0.1400858E+04  0.7818609E-02  0.8953197E-01
        2   -1    0    0  501    0  0.00000000000E+00  0.00000000000E+00  0.92187223226E+03  0.92187223226E+03  0.25500000920E-02 0. -1.
       -2   -1    0    0    0  501  0.00000000000E+00  0.00000000000E+00 -0.53217898498E+03  0.53217898499E+03  0.25500000920E-02 0.  1.
    10030    2    1    2    0    0  0.00000000000E+00  0.00000000000E+00  0.38969324727E+03  0.14540512172E+04  0.14008583495E+04 0.  0.
        1    1    3    3  502    0  0.11623474799E+03  0.31089218797E+03  0.83506274229E+03  0.89860683993E+03  0.50400001928E-02 0. -1.
       -1    1    3    3    0  502 -0.11623474799E+03 -0.31089218797E+03 -0.44536949501E+03  0.55544437732E+03  0.50400001928E-02 0.  1.
</event>
<event>
 5   0  0.1210275E-03  0.1426406E+04  0.7818609E-02  0.8934923E-01
       -1   -1    0    0    0  501  0.00000000000E+00  0.00000000000E+00  0.83497156251E+03  0.83497156252E+03  0.50400001928E-02 0.  1.
        1   -1    0    0  501    0  0.00000000000E+00  0.00000000000E+00 -0.60919294576E+03  0.60919294578E+03  0.50400001928E-02 0. -1.
    10030    2    1    2    0    0  0.00000000000E+00  0.00000000000E+00  0.22577861675E+03  0.14441645083E+04  0.14264063738E+04 0.  0.
        1    1    3    3  502    0  0.41672611108E+03  0.44007322936E+03  0.49351337151E+03  0.78158847659E+03  0.50400001928E-02 0.  1.
       -1    1    3    3    0  502 -0.41672611108E+03 -0.44007322936E+03 -0.26773475477E+03  0.66257603171E+03  0.50400001928E-02 0. -1.
</event>
<event>
 5   0  0.1199720E-03  0.1387237E+04  0.7818609E-02  0.8963110E-01
        1   -1    0    0  501    0  0.00000000000E+00  0.00000000000E+00  0.72486015292E+03  0.72486015294E+03  0.50400001928E-02 0.  1.
       -1   -1    0    0    0  501  0.00000000000E+00  0.00000000000E+00 -0.66372295982E+03  0.66372295984E+03  0.50400001928E-02 0. -1.
    10030    2    1    2    0    0  0.00000000000E+00  0.00000000000E+00  0.61137193103E+02  0.13885831128E+04  0.13872365713E+04 0.  0.
        5    1    3    3  502    0  0.15457029598E+02  0.46157571792E+03 -0.48742107524E+03  0.67148526248E+03  0.46999998093E+01 0. -1.
       -5    1    3    3    0  502 -0.15457029598E+02 -0.46157571792E+03  0.54855826835E+03  0.71709785030E+03  0.46999998093E+01 0.  1.
</event>
<event>
 5   0  0.2190704E-03  0.1413699E+04  0.7818609E-02  0.8943962E-01
       -2   -1    0    0    0  501  0.00000000000E+00  0.00000000000E+00  0.45829562298E+03  0.45829562298E+03  0.25500000920E-02 0. -1.
        2   -1    0    0  501    0  0.00000000000E+00  0.00000000000E+00 -0.10902049846E+04  0.10902049846E+04  0.25500000920E-02 0.  1.
    10030    2    1    2    0    0  0.00000000000E+00  0.00000000000E+00 -0.63190936165E+03  0.15485006076E+04  0.14136989391E+04 0.  0.
        5    1    3    3  502    0 -0.76606758429E+02 -0.30695941526E+03 -0.10083027317E+04  0.10567824596E+04  0.46999998093E+01 0.  1.
       -5    1    3    3    0  502  0.76606758429E+02  0.30695941526E+03  0.37639337009E+03  0.49171814803E+03  0.46999998093E+01 0. -1.
</event>
<event>
 5   0  0.2190704E-03  0.1489063E+04  0.7818609E-02  0.8891758E-01
        2   -1    0    0  501    0  0.00000000000E+00  0.00000000000E+00  0.15307579428E+04  0.15307579428E+04  0.25500000920E-02 0.  1.
       -2   -1    0    0    0  501  0.00000000000E+00  0.00000000000E+00 -0.36212612430E+03  0.36212612431E+03  0.25500000920E-02 0. -1.
    10030    2    1    2    0    0  0.00000000000E+00  0.00000000000E+00  0.11686318185E+04  0.18928840671E+04  0.14890633849E+04 0.  0.
        5    1    3    3  502    0  0.23026256101E+03  0.11069680326E+03 -0.30463730077E+03  0.39761866691E+03  0.46999998093E+01 0. -1.
       -5    1    3    3    0  502 -0.23026256101E+03 -0.11069680326E+03  0.14732691192E+04  0.14952654002E+04  0.46999998093E+01 0.  1.
</event>
<event>
 5   0  0.2190704E-03  0.1405017E+04  0.7818609E-02  0.8950195E-01
       -2   -1    0    0    0  501  0.00000000000E+00  0.00000000000E+00  0.23311153616E+03  0.23311153617E+03  0.25500000920E-02 0. -1.
        2   -1    0    0  501    0  0.00000000000E+00  0.00000000000E+00 -0.21170913752E+04  0.21170913752E+04  0.25500000920E-02 0.  1.
    10030    2    1    2    0    0  0.00000000000E+00  0.00000000000E+00 -0.18839798391E+04  0.23502029114E+04  0.14050173276E+04 0.  0.
        5    1    3    3  502    0  0.14373424696E+03 -0.25386582493E+03 -0.20109479806E+04  0.20320042474E+04  0.46999998093E+01 0.  1.
       -5    1    3    3    0  502 -0.14373424696E+03  0.25386582493E+03  0.12696814151E+03  0.31819866401E+03  0.46999998093E+01 0. -1.
</event>
<event>
 5   0  0.2195980E-03  0.1399833E+04  0.7818609E-02  0.8953939E-01
        2   -1    0    0  501    0  0.00000000000E+00  0.00000000000E+00  0.26079389078E+04  0.26079389078E+04  0.25500000920E-02 0. -1.
       -2   -1    0    0    0  501  0.00000000000E+00  0.00000000000E+00 -0.18784301284E+03  0.18784301286E+03  0.25500000920E-02 0.  1.
    10030    2    1    2    0    0  0.00000000000E+00  0.00000000000E+00  0.24200958950E+04  0.27957819207E+04  0.13998329926E+04 0.  0.
        4    1    3    3  502    0 -0.17483299636E+03  0.41194769357E+03  0.13522519702E+03  0.46749860499E+03  0.12699999809E+01 0.  1.
       -4    1    3    3    0  502  0.17483299636E+03 -0.41194769357E+03  0.22848706979E+04  0.23282833157E+04  0.12699999809E+01 0. -1.
</event>
<event>
 5   0  0.2195980E-03  0.1436390E+04  0.7818609E-02  0.8927891E-01
        2   -1    0    0  501    0  0.00000000000E+00  0.00000000000E+00  0.13502458674E+04  0.13502458674E+04  0.25500000920E-02 0. -1.
       -2   -1    0    0    0  501  0.00000000000E+00  0.00000000000E+00 -0.38200760700E+03  0.38200760701E+03  0.25500000920E-02 0.  1.
    10030    2    1    2    0    0  0.00000000000E+00  0.00000000000E+00  0.96823826038E+03  0.17322534744E+04  0.14363901875E+04 0.  0.
        4    1    3    3  502    0 -0.62764125559E+03 -0.30786094377E+03  0.28562443193E+03  0.75517867782E+03  0.12699999809E+01 0. -1.
       -4    1    3    3    0  502  0.62764125559E+03  0.30786094377E+03  0.68261382845E+03  0.97707479658E+03  0.12699999809E+01 0.  1.
</event>
<event>
 5   0  0.1199720E-03  0.1373141E+04  0.7818609E-02  0.8973493E-01
        1   -1    0    0  501    0  0.00000000000E+00  0.00000000000E+00  0.11329804432E+04  0.11329804432E+04  0.50400001928E-02 0.  1.
       -1   -1    0    0    0  501  0.00000000000E+00  0.00000000000E+00 -0.41605235364E+03  0.41605235367E+03  0.50400001928E-02 0. -1.
    10030    2    1    2    0    0  0.00000000000E+00  0.00000000000E+00  0.71692808955E+03  0.15490327969E+04  0.13731411873E+04 0.  0.
        5    1    3    3  502    0  0.32664775370E+03 -0.33558648215E+03  0.92480790394E+03  0.10366333929E+04  0.46999998093E+01 0.  1.
       -5    1    3    3    0  502 -0.32664775370E+03  0.33558648215E+03 -0.20787981439E+03  0.51239940401E+03  0.46999998093E+01 0. -1.
</event>
<event>
 5   0  0.2236184E-03  0.1411681E+04  0.7818609E-02  0.8945406E-01
       -2   -1    0    0    0  501  0.00000000000E+00  0.00000000000E+00  0.68550141031E+03  0.68550141031E+03  0.25500000920E-02 0.  1.
        2   -1    0    0  501    0  0.00000000000E+00  0.00000000000E+00 -0.72678302271E+03  0.72678302272E+03  0.25500000920E-02 0. -1.
    10030    2    1    2    0    0  0.00000000000E+00  0.00000000000E+00 -0.41281612405E+02  0.14122844330E+04  0.14116809655E+04 0.  0.
        3    1    3    3  502    0 -0.62347523790E+03  0.22113951807E+03  0.22560810976E+03  0.69894426682E+03  0.10100000352E+00 0.  1.
       -3    1    3    3    0  502  0.62347523790E+03 -0.22113951807E+03 -0.26688972216E+03  0.71334016621E+03  0.10100000352E+00 0. -1.
</event>
<event>
 5   0  0.2172901E-03  0.1403440E+04  0.7818609E-02  0.8951332E-01
        2   -1    0    0  501    0  0.00000000000E+00  0.00000000000E+00  0.16535782931E+04  0.16535782931E+04  0.25500000920E-02 0.  1.
       -2   -1    0    0    0  501  0.00000000000E+00  0.00000000000E+00 -0.29778508119E+03  0.29778508120E+03  0.25500000920E-02 0. -1.
    10030    2    1    2    0    0  0.00000000000E+00  0.00000000000E+00  0.13557932119E+04  0.19513633743E+04  0.14034399827E+04 0.  0.
        2    1    3    3  502    0 -0.69329534080E+03  0.83927362061E+02  0.58248625602E+03  0.90939126350E+03  0.25500000920E-02 0.  1.
       -2    1    3    3    0  502  0.69329534080E+03 -0.83927362061E+02  0.77330695593E+03  0.10419721108E+04  0.25500000920E-02 0. -1.
</event>
<event>
 5   0  0.1210275E-03  0.1336032E+04  0.7818609E-02  0.9001469E-01
       -1   -1    0    0    0  501  0.00000000000E+00  0.00000000000E+00  0.55127236670E+03  0.55127236672E+03  0.50400001928E-02 0. -1.
        1   -1    0    0  501    0  0.00000000000E+00  0.00000000000E+00 -0.80948282347E+03  0.80948282348E+03  0.50400001928E-02 0.  1.
    10030    2    1    2    0    0  0.00000000000E+00  0.00000000000E+00 -0.25821045677E+03  0.13607551902E+04  0.13360322031E+04 0.  0.
        1    1    3    3  502    0 -0.75898850350E+02 -0.14806222463E+02  0.54669833219E+03  0.55214031383E+03  0.50400001928E-02 0. -1.
       -1    1    3    3    0  502  0.75898850350E+02  0.14806222463E+02 -0.80490878897E+03  0.80861487637E+03  0.50400001928E-02 0.  1.
</event>
<event>
 5   0  0.2190704E-03  0.1404462E+04  0.7818609E-02  0.8950595E-01
        2   -1    0    0  501    0  0.00000000000E+00  0.00000000000E+00  0.13579688481E+04  0.13579688481E+04  0.25500000920E-02 0. -1.
       -2   -1    0    0    0  501  0.00000000000E+00  0.00000000000E+00 -0.36313649098E+03  0.36313649098E+03  0.25500000920E-02 0.  1.
    10030    2    1    2    0    0  0.00000000000E+00  0.00000000000E+00  0.99483235717E+03  0.17211053391E+04  0.14044615230E+04 0.  0.
        5    1    3    3  502    0 -0.16583761463E+03  0.63513258321E+03  0.80306958600E+03  0.10372262832E+04  0.46999998093E+01 0.  1.
       -5    1    3    3    0  502  0.16583761463E+03 -0.63513258321E+03  0.19176277117E+03  0.68387905589E+03  0.46999998093E+01 0. -1.
</event>
<event>
 5   0  0.2172901E-03  0.1243266E+04  0.7818609E-02  0.9075807E-01
        2   -1    0    0  501    0  0.00000000000E+00  0.00000000000E+00  0.90988527667E+03  0.90988527667E+03  0.25500000920E-02 0.  1.
       -2   -1    0    0    0  501  0.00000000000E+00  0.00000000000E+00 -0.42469927433E+03  0.42469927434E+03  0.25500000920E-02 0. -1.
    10030    2    1    2    0    0  0.00000000000E+00  0.00000000000E+00  0.48518600233E+03  0.13345845510E+04  0.12432660483E+04 0.  0.
        2    1    3    3  502    0 -0.53438163189E+03 -0.10976737655E+02 -0.98121266251E+02  0.54342616809E+03  0.25500000920E-02 0. -1.
       -2    1    3    3    0  502  0.53438163189E+03  0.10976737655E+02  0.58330726858E+03  0.79115838292E+03  0.25500000920E-02 0.  1.
</event>
<event>
 5   0  0.1210275E-03  0.1403451E+04  0.7818609E-02  0.8951324E-01
        1   -1    0    0  501    0  0.00000000000E+00  0.00000000000E+00  0.15007171651E+04  0.15007171652E+04  0.50400001928E-02 0. -1.
       -1   -1    0    0    0  501  0.00000000000E+00  0.00000000000E+00 -0.32812237680E+03  0.32812237683E+03  0.50400001928E-02 0.  1.
    10030    2    1    2    0    0  0.00000000000E+00  0.00000000000E+00  0.11725947883E+04  0.18288395420E+04  0.14034512933E+04 0.  0.
        1    1    3    3  502    0  0.15892065304E+03  0.66850409608E+03  0.77180241258E+03  0.10333597943E+04  0.50400001928E-02 0. -1.
       -1    1    3    3    0  502 -0.15892065304E+03 -0.66850409608E+03  0.40079237577E+03  0.79547974766E+03  0.50400001928E-02 0.  1.
</event>
<event>
 5   0  0.2190704E-03  0.1495544E+04  0.7818609E-02  0.8887422E-01
       -2   -1    0    0    0  501  0.00000000000E+00  0.00000000000E+00  0.32314857284E+03  0.32314857285E+03  0.25500000920E-02 0.  1.
        2   -1    0    0  501    0  0.00000000000E+00  0.00000000000E+00 -0.17303585111E+04  0.17303585111E+04  0.25500000920E-02 0. -1.
    10030    2    1    2    0    0  0.00000000000E+00  0.00000000000E+00 -0.14072099383E+04  0.20535070840E+04  0.14955438922E+04 0.  0.
        5    1    3    3  502    0  0.22004865050E+03  0.13288756177E+03 -0.16677603985E+04  0.16874618068E+04  0.46999998093E+01 0. -1.
       -5    1    3    3    0  502 -0.22004865050E+03 -0.13288756177E+03  0.26055046018E+03  0.36604527720E+03  0.46999998093E+01 0.  1.
</event>
<event>
 5   0  0.2190704E-03  0.1371393E+04  0.7818609E-02  0.8974790E-01
        2   -1    0    0  501    0  0.00000000000E+00  0.00000000000E+00  0.12408925787E+04  0.12408925787E+04  0.25500000920E-02 0.  1.
       -2   -1    0    0    0  501  0.00000000000E+00  0.00000000000E+00 -0.37890463207E+03  0.37890463208E+03  0.25500000920E-02 0. -1.
    10030    2    1    2    0    0  0.00000000000E+00  0.00000000000E+00  0.86198794666E+03  0.16197972108E+04  0.13713933732E+04 0.  0.
        5    1    3    3  502    0 -0.47298649144E+03  0.47597799323E+03  0.26443090817E+03  0.72126074780E+03  0.46999998093E+01 0.  1.
       -5    1    3    3    0  502  0.47298649144E+03 -0.47597799323E+03  0.59755703850E+03  0.89853646302E+03  0.46999998093E+01 0. -1.
</event>
<event>
 5   0  0.2236184E-03  0.1414148E+04  0.7818609E-02  0.8943641E-01
       -2   -1    0    0    0  501  0.00000000000E+00  0.00000000000E+00  0.67420498471E+03  0.67420498471E+03  0.25500000920E-02 0. -1.
        2   -1    0    0  501    0  0.00000000000E+00  0.00000000000E+00 -0.74154564692E+03  0.74154564693E+03  0.25500000920E-02 0.  1.
    10030    2    1    2    0    0  0.00000000000E+00  0.00000000000E+00 -0.67340662214E+02  0.14157506316E+04  0.14141481840E+04 0.  0.
        3    1    3    3  502    0  0.11729290020E+03 -0.20876953909E+03  0.63237402071E+03  0.67619468880E+03  0.10100000352E+00 0. -1.
       -3    1    3    3    0  502 -0.11729290020E+03  0.20876953909E+03 -0.69971468293E+03  0.73955594284E+03  0.10100000352E+00 0.  1.
</event>
<event>
 5   0  0.8293000E-04  0.1396022E+04  0.7818609E-02  0.8956703E-01
       -4   -1    0    0    0  501  0.00000000000E+00  0.00000000000E+00  0.11403023070E+04  0.11403030142E+04  0.12699999809E+01 0. -1.
        4   -1    0    0  501    0  0.00000000000E+00  0.00000000000E+00 -0.42727034836E+03  0.42727223580E+03  0.12699999809E+01 0.  1.
    10030    2    1    2    0    0  0.00000000000E+00  0.00000000000E+00  0.71303195865E+03  0.15675752500E+04  0.13960220594E+04 0.  0.
        5    1    3    3  502    0  0.58012308709E+03  0.38089513338E+03  0.27268653895E+03  0.74565671547E+03  0.46999998093E+01 0.  1.
       -5    1    3    3    0  502 -0.58012308709E+03 -0.38089513338E+03  0.44034541970E+03  0.82191853456E+03  0.46999998093E+01 0. -1.
</event>
<event>
 5   0  0.1199720E-03  0.1402365E+04  0.7818609E-02  0.8952109E-01
       -1   -1    0    0    0  501  0.00000000000E+00  0.00000000000E+00  0.67933579842E+03  0.67933579844E+03  0.50400001928E-02 0. -1.
        1   -1    0    0  501    0  0.00000000000E+00  0.00000000000E+00 -0.72373136905E+03  0.72373136907E+03  0.50400001928E-02 0.  1.
    10030    2    1    2    0    0  0.00000000000E+00  0.00000000000E+00 -0.44395570631E+02  0.14030671675E+04  0.14023646137E+04 0.  0.
        5    1    3    3  502    0 -0.50361413770E+03 -0.18835116899E+03 -0.47245788021E+03  0.71578062360E+03  0.46999998093E+01 0.  1.
       -5    1    3    3    0  502  0.50361413770E+03  0.18835116899E+03  0.42806230958E+03  0.68728654391E+03  0.46999998093E+01 0. -1.
</event>
<event>
 5   0  0.2172901E-03  0.1381218E+04  0.7818609E-02  0.8967527E-01
        2   -1    0    0  501    0  0.00000000000E+00  0.00000000000E+00  0.56822770915E+03  0.56822770915E+03  0.25500000920E-02 0. -1.
       -2   -1    0    0    0  501  0.00000000000E+00  0.00000000000E+00 -0.83934814879E+03  0.83934814879E+03  0.25500000920E-02 0.  1.
    10030    2    1    2    0    0  0.00000000000E+00  0.00000000000E+00 -0.27112043964E+03  0.14075758579E+04  0.13812181229E+04 0.  0.
        2    1    3    3  502    0 -0.55741180944E+03 -0.32127160116E+03  0.12026311533E+03  0.65451247806E+03  0.25500000920E-02 0. -1.
       -2    1    3    3    0  502  0.55741180944E+03  0.32127160116E+03 -0.39138355497E+03  0.75306337989E+03  0.25500000920E-02 0.  1.
</event>
<event>
 5   0  0.2083966E-03  0.1418519E+04  0.7818609E-02  0.8940521E-01
       -2   -1    0    0    0  501  0.00000000000E+00  0.00000000000E+00  0.89895949485E+03  0.89895949486E+03  0.25500000920E-02 0.  1.
        2   -1    0    0  501    0  0.00000000000E+00  0.00000000000E+00 -0.55959052153E+03  0.55959052153E+03  0.25500000920E-02 0. -1.
    10030    2    1    2    0    0  0.00000000000E+00  0.00000000000E+00  0.33936897333E+03  0.14585500164E+04  0.14185192456E+04 0.  0.
        1    1    3    3  502    0  0.60472248285E+03  0.34834446134E+03  0.39558498769E+02  0.69899786828E+03  0.50400001928E-02 0. -1.
       -1    1    3    3    0  502 -0.60472248285E+03 -0.34834446134E+03  0.29981047456E+03  0.75955214811E+03  0.50400001928E-02 0.  1.
</event>
<event>
 5   0  0.1238683E-03  0.1383523E+04  0.7818609E-02  0.8965833E-01
       -1   -1    0    0    0  501  0.00000000000E+00  0.00000000000E+00  0.56305668404E+03  0.56305668406E+03  0.50400001928E-02 0. -1.
        1   -1    0    0  501    0  0.00000000000E+00  0.00000000000E+00 -0.84988567010E+03  0.84988567011E+03  0.50400001928E-02 0.  1.
    10030    2    1    2    0    0  0.00000000000E+00  0.00000000000E+00 -0.28682898606E+03  0.14129423542E+04  0.13835227606E+04 0.  0.
        2    1    3    3  502    0 -0.31812421278E+03 -0.12574669337E+03 -0.75746406881E+03  0.83112397463E+03  0.25500000920E-02 0.  1.
       -2    1    3    3    0  502  0.31812421278E+03  0.12574669337E+03  0.47063508275E+03  0.58181837954E+03  0.25500000920E-02 0. -1.
</event>
<event>
 5   0  0.1175374E-03  0.1343611E+04  0.7818609E-02  0.8995679E-01
        1   -1    0    0  501    0  0.00000000000E+00  0.00000000000E+00  0.71276119766E+03  0.71276119768E+03  0.50400001928E-02 0. -1.
       -1   -1    0    0    0  501  0.00000000000E+00  0.00000000000E+00 -0.63320296113E+03  0.63320296115E+03  0.50400001928E-02 0.  1.
    10030    2    1    2    0    0  0.00000000000E+00  0.00000000000E+00  0.79558236526E+02  0.13459641588E+04  0.13436108082E+04 0.  0.
        3    1    3    3  502    0 -0.43623434534E+03 -0.10430099376E+02  0.55147051529E+03  0.70322750975E+03  0.10100000352E+00 0. -1.
       -3    1    3    3    0  502  0.43623434534E+03  0.10430099376E+02 -0.47191227877E+03  0.64273664909E+03  0.10100000352E+00 0.  1.
</event>
<event>
 5   0  0.2172901E-03  0.1427113E+04  0.7818609E-02  0.8934424E-01
       -2   -1    0    0    0  501  0.00000000000E+00  0.00000000000E+00  0.22561337155E+03  0.22561337156E+03  0.25500000920E-02 0. -1.
        2   -1    0    0  501    0  0.00000000000E+00  0.00000000000E+00 -0.22567923255E+04  0.22567923255E+04  0.25500000920E-02 0.  1.
    10030    2    1    2    0    0  0.00000000000E+00  0.00000000000E+00 -0.20311789539E+04  0.24824056971E+04  0.14271125050E+04 0.  0.
        2    1    3    3  502    0 -0.59439111208E+03  0.32902169937E+03 -0.63605829886E+03  0.93065903118E+03  0.25500000920E-02 0. -1.
       -2    1    3    3    0  502  0.59439111208E+03 -0.32902169937E+03 -0.13951206551E+04  0.15517466659E+04  0.25500000920E-02 0.  1.
</event>
<event>
 5   0  0.1210275E-03  0.8740529E+03  0.7818609E-02  0.9458611E-01
       -1   -1    0    0    0  501  0.00000000000E+00  0.00000000000E+00  0.34379649355E+03  0.34379649359E+03  0.50400001928E-02 0. -1.
        1   -1    0    0  501    0  0.00000000000E+00  0.00000000000E+00 -0.55553833275E+03  0.55553833277E+03  0.50400001928E-02 0.  1.
    10030    2    1    2    0    0  0.00000000000E+00  0.00000000000E+00 -0.21174183920E+03  0.89933482636E+03  0.87405292943E+03 0.  0.
        1    1    3    3  502    0  0.12374085475E+03  0.10671623474E+03  0.31118266341E+03  0.35147518252E+03  0.50400001928E-02 0. -1.
       -1    1    3    3    0  502 -0.12374085475E+03 -0.10671623474E+03 -0.52292450261E+03  0.54785964384E+03  0.50400001928E-02 0.  1.
</event>
<event>
 5   0  0.1210275E-03  0.1373403E+04  0.7818609E-02  0.8973299E-01
       -1   -1    0    0    0  501  0.00000000000E+00  0.00000000000E+00  0.27155258275E+03  0.27155258279E+03  0.50400001928E-02 0. -1.
        1   -1    0    0  501    0  0.00000000000E+00  0.00000000000E+00 -0.17365297851E+04  0.17365297851E+04  0.50400001928E-02 0.  1.
    10030    2    1    2    0    0  0.00000000000E+00  0.00000000000E+00 -0.14649772024E+04  0.20080823679E+04  0.13734032885E+04 0.  0.
        1    1    3    3  502    0  0.58707324256E+03 -0.30797832450E+03 -0.47071778861E+03  0.81306880215E+03  0.50400001928E-02 0. -1.
       -1    1    3    3    0  502 -0.58707324256E+03  0.30797832450E+03 -0.99425941377E+03  0.11950135658E+04  0.50400001928E-02 0.  1.
</event>
<event>
 5   0  0.1238683E-03  0.1409240E+04  0.7818609E-02  0.8947157E-01
       -1   -1    0    0    0  501  0.00000000000E+00  0.00000000000E+00  0.19482598945E+03  0.19482598952E+03  0.50400001928E-02 0. -1.
        1   -1    0    0  501    0  0.00000000000E+00  0.00000000000E+00 -0.25483725623E+04  0.25483725623E+04  0.50400001928E-02 0.  1.
    10030    2    1    2    0    0  0.00000000000E+00  0.00000000000E+00 -0.23535465728E+04  0.27431985518E+04  0.14092398036E+04 0.  0.
        2    1    3    3  502    0  0.22609737773E+02 -0.10456721477E+03 -0.25324707302E+04  0.25347294731E+04  0.25500000920E-02 0.  1.
       -2    1    3    3    0  502 -0.22609737773E+02  0.10456721477E+03  0.17892415739E+03  0.20846907865E+03  0.25500000920E-02 0. -1.
</event>
<event>
 5   0  0.2195980E-03  0.1389141E+04  0.7818609E-02  0.8961716E-01
       -2   -1    0    0    0  501  0.00000000000E+00  0.00000000000E+00  0.56734906228E+03  0.56734906229E+03  0.25500000920E-02 0. -1.
        2   -1    0    0  501    0  0.00000000000E+00  0.00000000000E+00 -0.85031995828E+03  0.85031995828E+03  0.25500000920E-02 0.  1.
    10030    2    1    2    0    0  0.00000000000E+00  0.00000000000E+00 -0.28297089599E+03  0.14176690206E+04  0.13891410742E+04 0.  0.
        4    1    3    3  502    0  0.12520253361E+03  0.20854947772E+03  0.52245803800E+03  0.57630944245E+03  0.12699999809E+01 0. -1.
       -4    1    3    3    0  502 -0.12520253361E+03 -0.20854947772E+03 -0.80542893399E+03  0.84135957812E+03  0.12699999809E+01 0.  1.
</event>
<event>
 5   0  0.2190704E-03  0.1364181E+04  0.7818609E-02  0.8980162E-01
       -2   -1    0    0    0  501  0.00000000000E+00  0.00000000000E+00  0.24887090999E+03  0.24887091001E+03  0.25500000920E-02 0. -1.
        2   -1    0    0  501    0  0.00000000000E+00  0.00000000000E+00 -0.18694334677E+04  0.18694334677E+04  0.25500000920E-02 0.  1.
    10030    2    1    2    0    0  0.00000000000E+00  0.00000000000E+00 -0.16205625577E+04  0.21183043777E+04  0.13641812318E+04 0.  0.
        5    1    3    3  502    0  0.35656879687E+03 -0.34023403776E+03 -0.15424487914E+04  0.16192809736E+04  0.46999998093E+01 0.  1.
       -5    1    3    3    0  502 -0.35656879687E+03  0.34023403776E+03 -0.78113766282E+02  0.49902340409E+03  0.46999998093E+01 0. -1.
</event>
<event>
 5   0  0.2195980E-03  0.1388466E+04  0.7818609E-02  0.8962210E-01
       -2   -1    0    0    0  501  0.00000000000E+00  0.00000000000E+00  0.29627299977E+03  0.29627299978E+03  0.25500000920E-02 0.  1.
        2   -1    0    0  501    0  0.00000000000E+00  0.00000000000E+00 -0.16267404113E+04  0.16267404113E+04  0.25500000920E-02 0. -1.
    10030    2    1    2    0    0  0.00000000000E+00  0.00000000000E+00 -0.13304674115E+04  0.19230134111E+04  0.13884657166E+04 0.  0.
        4    1    3    3  502    0 -0.43109418787E+03 -0.52971972300E+03 -0.49273431814E+03  0.84216026083E+03  0.12699999809E+01 0.  1.
       -4    1    3    3    0  502  0.43109418787E+03  0.52971972300E+03 -0.83773309338E+03  0.10808531502E+04  0.12699999809E+01 0. -1.
</event>
<event>
 5   0  0.2083966E-03  0.1407285E+04  0.7818609E-02  0.8948562E-01
       -2   -1    0    0    0  501  0.00000000000E+00  0.00000000000E+00  0.33542931780E+03  0.33542931781E+03  0.25500000920E-02 0.  1.
        2   -1    0    0  501    0  0.00000000000E+00  0.00000000000E+00 -0.14760579223E+04  0.14760579223E+04  0.25500000920E-02 0. -1.
    10030    2    1    2    0    0  0.00000000000E+00  0.00000000000E+00 -0.11406286045E+04  0.18114872401E+04  0.14072854748E+04 0.  0.
        1    1    3    3  502    0 -0.46901495014E+03 -0.51919914448E+03 -0.66638554582E+03  0.96623623963E+03  0.50400001928E-02 0. -1.
       -1    1    3    3    0  502  0.46901495014E+03  0.51919914448E+03 -0.47424305867E+03  0.84525100048E+03  0.50400001928E-02 0.  1.
</event>
<event>
 5   0  0.2190704E-03  0.1399764E+04  0.7818609E-02  0.8953990E-01
       -2   -1    0    0    0  501  0.00000000000E+00  0.00000000000E+00  0.75126182593E+03  0.75126182594E+03  0.25500000920E-02 0. -1.
        2   -1    0    0  501    0  0.00000000000E+00  0.00000000000E+00 -0.65201580048E+03  0.65201580048E+03  0.25500000920E-02 0.  1.
    10030    2    1    2    0    0  0.00000000000E+00  0.00000000000E+00  0.99246025458E+02  0.14032776264E+04  0.13997636669E+04 0.  0.
        5    1    3    3  502    0 -0.10347986367E+03 -0.24626689898E+03  0.69812948529E+03  0.74750407086E+03  0.46999998093E+01 0. -1.
       -5    1    3    3    0  502  0.10347986367E+03  0.24626689898E+03 -0.59888345983E+03  0.65577355556E+03  0.46999998093E+01 0.  1.
</event>
<event>
 5   0  0.2236184E-03  0.1415439E+04  0.7818609E-02  0.8942718E-01
       -2   -1    0    0    0  501  0.00000000000E+00  0.00000000000E+00  0.27058438465E+03  0.27058438466E+03  0.25500000920E-02 0. -1.
        2   -1    0    0  501    0  0.00000000000E+00  0.00000000000E+00 -0.18510556425E+04  0.18510556425E+04  0.25500000920E-02 0.  1.
    10030    2    1    2    0    0  0.00000000000E+00  0.00000000000E+00 -0.15804712578E+04  0.21216400272E+04  0.14154388040E+04 0.  0.
        3    1    3    3  502    0  0.25954373284E+03  0.45406090888E+03 -0.75556085984E+02  0.52843447139E+03  0.10100000352E+00 0. -1.
       -3    1    3    3    0  502 -0.25954373284E+03 -0.45406090888E+03 -0.15049151719E+04  0.15932055558E+04  0.10100000352E+00 0.  1.
</event>
<event>
 5   0  0.2195980E-03  0.1398522E+04  0.7818609E-02  0.8954889E-01
        2   -1    0    0  501    0  0.00000000000E+00  0.00000000000E+00  0.34734517446E+03  0.34734517447E+03  0.25500000920E-02 0.  1.
       -2   -1    0    0    0  501  0.00000000000E+00  0.00000000000E+00 -0.14077226442E+04  0.14077226442E+04  0.25500000920E-02 0. -1.
    10030    2    1    2    0    0  0.00000000000E+00  0.00000000000E+00 -0.10603774698E+04  0.17550678187E+04  0.13985216015E+04 0.  0.
        4    1    3    3  502    0  0.63451001973E+03 -0.26591139044E+03 -0.37318401021E+03  0.78267474156E+03  0.12699999809E+01 0.  1.
       -4    1    3    3    0  502 -0.63451001973E+03  0.26591139044E+03 -0.68719345956E+03  0.97239307714E+03  0.12699999809E+01 0. -1.
</event>
<event>
 5   0  0.1175374E-03  0.1422724E+04  0.7818609E-02  0.8937532E-01
        1   -1    0    0  501    0  0.00000000000E+00  0.00000000000E+00  0.13920024529E+04  0.13920024529E+04  0.50400001928E-02 0. -1.
       -1   -1    0    0    0  501  0.00000000000E+00  0.00000000000E+00 -0.36353094862E+03  0.36353094866E+03  0.50400001928E-02 0.  1.
    10030    2    1    2    0    0  0.00000000000E+00  0.00000000000E+00  0.10284715043E+04  0.17555334016E+04  0.14227241085E+04 0.  0.
        3    1    3    3  502    0 -0.43391069928E+03 -0.50605251399E+03  0.20781408903E+03  0.69825092028E+03  0.10100000352E+00 0.  1.
       -3    1    3    3    0  502  0.43391069928E+03  0.50605251399E+03  0.82065741527E+03  0.10572824813E+04  0.10100000352E+00 0. -1.
</event>
<event>
 5   0  0.1238683E-03  0.1408077E+04  0.7818609E-02  0.8947993E-01
        1   -1    0    0  501    0  0.00000000000E+00  0.00000000000E+00  0.85926672373E+03  0.85926672374E+03  0.50400001928E-02 0.  1.
       -1   -1    0    0    0  501  0.00000000000E+00  0.00000000000E+00 -0.57685227829E+03  0.57685227832E+03  0.50400001928E-02 0. -1.
    10030    2    1    2    0    0  0.00000000000E+00  0.00000000000E+00  0.28241444543E+03  0.14361190021E+04  0.14080766560E+04 0.  0.
        2    1    3    3  502    0 -0.64762577552E+03 -0.11494141498E+02 -0.14018353630E+03  0.66272368621E+03  0.25500000920E-02 0. -1.
       -2    1    3    3    0  502  0.64762577552E+03  0.11494141498E+02  0.42259798173E+03  0.77339531585E+03  0.25500000920E-02 0.  1.
</event>
<event>
 5   0  0.1175374E-03  0.1411546E+04  0.7818609E-02  0.8945503E-01
       -1   -1    0    0    0  501  0.00000000000E+00  0.00000000000E+00  0.11107137025E+04  0.11107137025E+04  0.50400001928E-02 0.  1.
        1   -1    0    0  501    0  0.00000000000E+00  0.00000000000E+00 -0.44846441183E+03  0.44846441186E+03  0.50400001928E-02 0. -1.
    10030    2    1    2    0    0  0.00000000000E+00  0.00000000000E+00  0.66224929070E+03  0.15591781144E+04  0.14115460564E+04 0.  0.
        3    1    3    3  502    0  0.59820181513E+03  0.36288926179E+03  0.43344994364E+03  0.82305096549E+03  0.10100000352E+00 0. -1.
       -3    1    3    3    0  502 -0.59820181513E+03 -0.36288926179E+03  0.22879934706E+03  0.73612714891E+03  0.10100000352E+00 0.  1.
</event>
<event>
 5   0  0.2195980E-03  0.1249303E+04  0.7818609E-02  0.9070763E-01
       -2   -1    0    0    0  501  0.00000000000E+00  0.00000000000E+00  0.21851899960E+03  0.21851899962E+03  0.25500000920E-02 0. -1.
        2   -1    0    0  501    0  0.00000000000E+00  0.00000000000E+00 -0.17856096038E+04  0.17856096038E+04  0.25500000920E-02 0.  1.
    10030    2    1    2    0    0  0.00000000000E+00  0.00000000000E+00 -0.15670906042E+04  0.20041286034E+04  0.12493032047E+04 0.  0.
        4    1    3    3  502    0 -0.39800694408E+02 -0.21197799821E+03  0.15688814451E+03  0.26671008565E+03  0.12699999809E+01 0. -1.
       -4    1    3    3    0  502  0.39800694408E+02  0.21197799821E+03 -0.17239787487E+04  0.17374185178E+04  0.12699999809E+01 0.  1.
</event>
<event>
 5   0  0.1210275E-03  0.1291709E+04  0.7818609E-02  0.9036166E-01
       -1   -1    0    0    0  501  0.00000000000E+00  0.00000000000E+00  0.81740117295E+03  0.81740117297E+03  0.50400001928E-02 0.  1.
        1   -1    0    0  501    0  0.00000000000E+00  0.00000000000E+00 -0.51030969417E+03  0.51030969420E+03  0.50400001928E-02 0. -1.
    10030    2    1    2    0    0  0.00000000000E+00  0.00000000000E+00  0.30709147878E+03  0.13277108672E+04  0.12917085470E+04 0.  0.
        1    1    3    3  502    0  0.45537687708E+03  0.39596812952E+03  0.39011013610E+03  0.71857134516E+03  0.50400001928E-02 0.  1.
       -1    1    3    3    0  502 -0.45537687708E+03 -0.39596812952E+03 -0.83018657323E+02  0.60913952200E+03  0.50400001928E-02 0. -1.
</event>
<event>
 5   0  0.1199720E-03  0.1406710E+04  0.7818609E-02  0.8948976E-01
       -1   -1    0    0    0  501  0.00000000000E+00  0.00000000000E+00  0.64711494977E+03  0.64711494979E+03  0.50400001928E-02 0.  1.
        1   -1    0    0  501    0  0.00000000000E+00  0.00000000000E+00 -0.76448247346E+03  0.76448247348E+03  0.50400001928E-02 0. -1.
    10030    2    1    2    0    0  0.00000000000E+00  0.00000000000E+00 -0.11736752369E+03  0.14115974233E+04  0.14067096892E+04 0.  0.
        5    1    3    3  502    0 -0.44809378294E+03  0.53752781182E+03 -0.12936827701E+03  0.71167578846E+03  0.46999998093E+01 0. -1.
       -5    1    3    3    0  502  0.44809378294E+03 -0.53752781182E+03  0.12000753326E+02  0.69992163480E+03  0.46999998093E+01 0.  1.
</event>
<event>
 5   0  0.1210275E-03  0.1397557E+04  0.7818609E-02  0.8955589E-01
       -1   -1    0    0    0  501  0.00000000000E+00  0.00000000000E+00  0.34047471677E+03  0.34047471681E+03  0.50400001928E-02 0. -1.
        1   -1    0    0  501    0  0.00000000000E+00  0.00000000000E+00 -0.14341481308E+04  0.14341481308E+04  0.50400001928E-02 0.  1.
    10030    2    1    2    0    0  0.00000000000E+00  0.00000000000E+00 -0.10936734141E+04  0.17746228476E+04  0.13975566946E+04 0.  0.
        1    1    3    3  502    0 -0.53973342682E+03 -0.13167558243E+03 -0.10850306662E+04  0.12189922796E+04  0.50400001928E-02 0.  1.
       -1    1    3    3    0  502  0.53973342682E+03  0.13167558243E+03 -0.86427478329E+01  0.55563056805E+03  0.50400001928E-02 0. -1.
</event>
<event>
 5   0  0.1238683E-03  0.1395216E+04  0.7818609E-02  0.8957289E-01
        1   -1    0    0  501    0  0.00000000000E+00  0.00000000000E+00  0.39809243843E+03  0.39809243846E+03  0.50400001928E-02 0. -1.
       -1   -1    0    0    0  501  0.00000000000E+00  0.00000000000E+00 -0.12224714095E+04  0.12224714095E+04  0.50400001928E-02 0.  1.
    10030    2    1    2    0    0  0.00000000000E+00  0.00000000000E+00 -0.82437897110E+03  0.16205638480E+04  0.13952155738E+04 0.  0.
        2    1    3    3  502    0 -0.57992216079E+03 -0.40677651785E+02 -0.86007702848E+03  0.10381218035E+04  0.25500000920E-02 0. -1.
       -2    1    3    3    0  502  0.57992216079E+03  0.40677651785E+02  0.35698057381E+02  0.58244204453E+03  0.25500000920E-02 0.  1.
</event>
<event>
 5   0  0.2190704E-03  0.1398700E+04  0.7818609E-02  0.8954760E-01
        2   -1    0    0  501    0  0.00000000000E+00  0.00000000000E+00  0.88014112174E+03  0.88014112174E+03  0.25500000920E-02 0. -1.
       -2   -1    0    0    0  501  0.00000000000E+00  0.00000000000E+00 -0.55569508144E+03  0.55569508145E+03  0.25500000920E-02 0.  1.
    10030    2    1    2    0    0  0.00000000000E+00  0.00000000000E+00  0.32444604030E+03  0.14358362032E+04  0.13986995279E+04 0.  0.
        5    1    3    3  502    0  0.49909152174E+02  0.11624499704E+02  0.87819492631E+03  0.87970135333E+03  0.46999998093E+01 0. -1.
       -5    1    3    3    0  502 -0.49909152174E+02 -0.11624499704E+02 -0.55374888601E+03  0.55613484985E+03  0.46999998093E+01 0.  1.
</event>
<event>
 5   0  0.2195980E-03  0.1367550E+04  0.7818609E-02  0.8977648E-01
        2   -1    0    0  501    0  0.00000000000E+00  0.00000000000E+00  0.58619535203E+03  0.58619535204E+03  0.25500000920E-02 0.  1.
       -2   -1    0    0    0  501  0.00000000000E+00  0.00000000000E+00 -0.79759831093E+03  0.79759831094E+03  0.25500000920E-02 0. -1.
    10030    2    1    2    0    0  0.00000000000E+00  0.00000000000E+00 -0.21140295890E+03  0.13837936630E+04  0.13675502516E+04 0.  0.
        4    1    3    3  502    0 -0.17741055593E+03  0.33088490498E+03 -0.68396768471E+03  0.78023889440E+03  0.12699999809E+01 0. -1.
       -4    1    3    3    0  502  0.17741055593E+03 -0.33088490498E+03  0.47256472581E+03  0.60355476858E+03  0.12699999809E+01 0.  1.
</event>
<event>
 5   0  0.1175374E-03  0.1411384E+04  0.7818609E-02  0.8945619E-01
       -1   -1    0    0    0  501  0.00000000000E+00  0.00000000000E+00  0.32958074719E+03  0.32958074722E+03  0.50400001928E-02 0. -1.
        1   -1    0    0  501    0  0.00000000000E+00  0.00000000000E+00 -0.15110142998E+04  0.15110142998E+04  0.50400001928E-02 0.  1.
    10030    2    1    2    0    0  0.00000000000E+00  0.00000000000E+00 -0.11814335526E+04  0.18405950470E+04  0.14113840328E+04 0.  0.
        3    1    3    3  502    0 -0.35879869362E+03  0.19385366490E+03  0.16034605470E+03  0.43820841320E+03  0.10100000352E+00 0. -1.
       -3    1    3    3    0  502  0.35879869362E+03 -0.19385366490E+03 -0.13417796073E+04  0.14023866338E+04  0.10100000352E+00 0.  1.
</event>
<event>
 5   0  0.1238683E-03  0.1378925E+04  0.7818609E-02  0.8969217E-01
        1   -1    0    0  501    0  0.00000000000E+00  0.00000000000E+00  0.11191308385E+04  0.11191308385E+04  0.50400001928E-02 0.  1.
       -1   -1    0    0    0  501  0.00000000000E+00  0.00000000000E+00 -0.42475666414E+03  0.42475666417E+03  0.50400001928E-02 0. -1.
    10030    2    1    2    0    0  0.00000000000E+00  0.00000000000E+00  0.69437417432E+03  0.15438875026E+04  0.13789246270E+04 0.  0.
        2    1    3    3  502    0  0.82505338393E+02  0.56198476270E+03 -0.90364398866E+02  0.57515191816E+03  0.25500000920E-02 0. -1.
       -2    1    3    3    0  502 -0.82505338393E+02 -0.56198476270E+03  0.78473857318E+03  0.96873558447E+03  0.25500000920E-02 0.  1.
</event>
<event>
 5   0  0.2195980E-03  0.1388033E+04  0.7818609E-02  0.8962526E-01
        2   -1    0    0  501    0  0.00000000000E+00  0.00000000000E+00  0.17560871218E+04  0.17560871218E+04  0.25500000920E-02 0. -1.
       -2   -1    0    0    0  501  0.00000000000E+00  0.00000000000E+00 -0.27427972929E+03  0.27427972930E+03  0.25500000920E-02 0.  1.
    10030    2    1    2    0    0  0.00000000000E+00  0.00000000000E+00  0.14818073925E+04  0.20303668511E+04  0.13880332855E+04 0.  0.
        4    1    3    3  502    0  0.53117814032E+03 -0.41248386802E+03  0.99156348932E+03  0.11981205801E+04  0.12699999809E+01 0. -1.
       -4    1    3    3    0  502 -0.53117814032E+03  0.41248386802E+03  0.49024390319E+03  0.83224627103E+03  0.12699999809E+01 0.  1.
</event>
<event>
 5   0  0.1210275E-03  0.1452945E+04  0.7818609E-02  0.8916361E-01
        1   -1    0    0  501    0  0.00000000000E+00  0.00000000000E+00  0.15802817783E+04  0.15802817783E+04  0.50400001928E-02 0. -1.
       -1   -1    0    0    0  501  0.00000000000E+00  0.00000000000E+00 -0.33396740588E+03  0.33396740592E+03  0.50400001928E-02 0.  1.
    10030    2    1    2    0    0  0.00000000000E+00  0.00000000000E+00  0.12463143724E+04  0.19142491842E+04  0.14529454306E+04 0.  0.
        1    1    3    3  502    0 -0.12813273898E+03 -0.71370866384E+03  0.68155287136E+03  0.99514439763E+03  0.50400001928E-02 0. -1.
       -1    1    3    3    0  502  0.12813273898E+03  0.71370866384E+03  0.56476150105E+03  0.91910478659E+03  0.50400001928E-02 0.  1.
</event>
<event>
 5   0  0.2083966E-03  0.1319857E+04  0.7818609E-02  0.9013965E-01
        2   -1    0    0  501    0  0.00000000000E+00  0.00000000000E+00  0.11515097985E+04  0.11515097985E+04  0.25500000920E-02 0. -1.
       -2   -1    0    0    0  501  0.00000000000E+00  0.00000000000E+00 -0.37820391153E+03  0.37820391154E+03  0.25500000920E-02 0.  1.
    10030    2    1    2    0    0  0.00000000000E+00  0.00000000000E+00  0.77330588697E+03  0.15297137100E+04  0.13198568255E+04 0.  0.
        1    1    3    3  502    0  0.65008092790E+03  0.11049434678E+03  0.41712596372E+03  0.78026167606E+03  0.50400001928E-02 0.  1.
       -1    1    3    3    0  502 -0.65008092790E+03 -0.11049434678E+03  0.35617992325E+03  0.74945203398E+03  0.50400001928E-02 0. -1.
</event>
<event>
 5   0  0.1210275E-03  0.1478950E+04  0.7818609E-02  0.8898573E-01
       -1   -1    0    0    0  501  0.00000000000E+00  0.00000000000E+00  0.98875122056E+03  0.98875122057E+03  0.50400001928E-02 0.  1.
        1   -1    0    0  501    0  0.00000000000E+00  0.00000000000E+00 -0.55304412586E+03  0.55304412588E+03  0.50400001928E-02 0. -1.
    10030    2    1    2    0    0  0.00000000000E+00  0.00000000000E+00  0.43570709470E+03  0.15417953465E+04  0.14789497010E+04 0.  0.
        1    1    3    3  502    0 -0.26241069731E+03 -0.21257334737E+03 -0.46795838572E+03  0.57708912038E+03  0.50400001928E-02 0. -1.
       -1    1    3    3    0  502  0.26241069731E+03  0.21257334737E+03  0.90366548043E+03  0.96470622607E+03  0.50400001928E-02 0.  1.
</event>
<event>
 5   0  0.1210275E-03  0.1351197E+04  0.7818609E-02  0.8989923E-01
        1   -1    0    0  501    0  0.00000000000E+00  0.00000000000E+00  0.10596087847E+04  0.10596087847E+04  0.50400001928E-02 0. -1.
       -1   -1    0    0    0  501  0.00000000000E+00  0.00000000000E+00 -0.43075637448E+03  0.43075637451E+03  0.50400001928E-02 0.  1.
    10030    2    1    2    0    0  0.00000000000E+00  0.00000000000E+00  0.62885241020E+03  0.14903651592E+04  0.13511968598E+04 0.  0.
        1    1    3    3  502    0  0.62647508775E+03 -0.22866057733E+03  0.43361384181E+03  0.79547322961E+03  0.50400001928E-02 0. -1.
       -1    1    3    3    0  502 -0.62647508775E+03  0.22866057733E+03  0.19523856839E+03  0.69489192959E+03  0.50400001928E-02 0.  1.
</event>
<event>
 5   0  0.2236184E-03  0.1398066E+04  0.7818609E-02  0.8955219E-01
        2   -1    0    0  501    0  0.00000000000E+00  0.00000000000E+00  0.96505103423E+03  0.96505103424E+03  0.25500000920E-02 0. -1.
       -2   -1    0    0    0  501  0.00000000000E+00  0.00000000000E+00 -0.50634350063E+03  0.50634350063E+03  0.25500000920E-02 0.  1.
    10030    2    1    2    0    0  0.00000000000E+00  0.00000000000E+00  0.45870753361E+03  0.14713945349E+04  0.13980662630E+04 0.  0.
        3    1    3    3  502    0 -0.52474133684E+03  0.38955641342E+03 -0.31729389729E+02  0.65430454240E+03  0.10100000352E+00 0. -1.
       -3    1    3    3    0  502  0.52474133684E+03 -0.38955641342E+03  0.49043692334E+03  0.81708999247E+03  0.10100000352E+00 0.  1.
</event>
<event>
 5   0  0.1199720E-03  0.1377998E+04  0.7818609E-02  0.8969901E-01
        1   -1    0    0  501    0  0.00000000000E+00  0.00000000000E+00  0.20869056520E+04  0.20869056520E+04  0.50400001928E-02 0. -1.
       -1   -1    0    0    0  501  0.00000000000E+00  0.00000000000E+00 -0.22747524056E+03  0.22747524062E+03  0.50400001928E-02 0.  1.
    10030    2    1    2    0    0  0.00000000000E+00  0.00000000000E+00  0.18594304114E+04  0.23143808926E+04  0.13779976274E+04 0.  0.
        5    1    3    3  502    0  0.34537328242E+03  0.54995798345E+03  0.13162277402E+04  0.14677241028E+04  0.46999998093E+01 0. -1.
       -5    1    3    3    0  502 -0.34537328242E+03 -0.54995798345E+03  0.54320267120E+03  0.84665678983E+03  0.46999998093E+01 0.  1.
</event>
<event>
 5   0  0.2236184E-03  0.1406903E+04  0.7818609E-02  0.8948837E-01
        2   -1    0    0  501    0  0.00000000000E+00  0.00000000000E+00  0.89449838496E+03  0.89449838497E+03  0.25500000920E-02 0.  1.
       -2   -1    0    0    0  501  0.00000000000E+00  0.00000000000E+00 -0.55320810637E+03  0.55320810638E+03  0.25500000920E-02 0. -1.
    10030    2    1    2    0    0  0.00000000000E+00  0.00000000000E+00  0.34129027859E+03  0.14477064913E+04  0.14069026373E+04 0.  0.
        3    1    3    3  502    0  0.24308026118E+03 -0.47358984089E+03  0.64383912306E+03  0.83540659403E+03  0.10100000352E+00 0.  1.
       -3    1    3    3    0  502 -0.24308026118E+03  0.47358984089E+03 -0.30254884447E+03  0.61229989732E+03  0.10100000352E+00 0. -1.
</event>
<event>
 5   0  0.2195980E-03  0.1046148E+04  0.7818609E-02  0.9259330E-01
       -2   -1    0    0    0  501  0.00000000000E+00  0.00000000000E+00  0.18028300547E+03  0.18028300549E+03  0.25500000920E-02 0.  1.
        2   -1    0    0  501    0  0.00000000000E+00  0.00000000000E+00 -0.15176505691E+04  0.15176505691E+04  0.25500000920E-02 0. -1.
    10030    2    1    2    0    0  0.00000000000E+00  0.00000000000E+00 -0.13373675636E+04  0.16979335746E+04  0.10461483755E+04 0.  0.
        4    1    3    3  502    0 -0.14363636777E+03 -0.64034614387E+02 -0.14783694233E+04  0.14867110017E+04  0.12699999809E+01 0. -1.
       -4    1    3    3    0  502  0.14363636777E+03  0.64034614387E+02  0.14100185963E+03  0.21122257291E+03  0.12699999809E+01 0.  1.
</event>
<event>
 5   0  0.2236184E-03  0.1270249E+04  0.7818609E-02  0.9053496E-01
        2   -1    0    0  501    0  0.00000000000E+00  0.00000000000E+00  0.78396797057E+03  0.78396797057E+03  0.25500000920E-02 0. -1.
       -2   -1    0    0    0  501  0.00000000000E+00  0.00000000000E+00 -0.51454031062E+03  0.51454031062E+03  0.25500000920E-02 0.  1.
    10030    2    1    2    0    0  0.00000000000E+00  0.00000000000E+00  0.26942765995E+03  0.12985082812E+04  0.12702489883E+04 0.  0.
        3    1    3    3  502    0  0.33059297957E+03  0.31053965695E+03  0.58919033259E+03  0.74355353197E+03  0.10100000352E+00 0. -1.
       -3    1    3    3    0  502 -0.33059297957E+03 -0.31053965695E+03 -0.31976267264E+03  0.55495474923E+03  0.10100000352E+00 0.  1.
</event>
<event>
 5   0  0.2083966E-03  0.1398393E+04  0.7818609E-02  0.8954983E-01
        2   -1    0    0  501    0  0.00000000000E+00  0.00000000000E+00  0.18691491651E+04  0.18691491651E+04  0.25500000920E-02 0.  1.
       -2   -1    0    0    0  501  0.00000000000E+00  0.00000000000E+00 -0.26154989847E+03  0.26154989849E+03  0.25500000920E-02 0. -1.
    10030    2    1    2    0    0  0.00000000000E+00  0.00000000000E+00  0.16075992666E+04  0.21306990635E+04  0.13983930411E+04 0.  0.
        1    1    3    3  502    0 -0.16338689786E+03  0.36377569833E+03 -0.71284109198E+02  0.40510425984E+03  0.50400001928E-02 0. -1.
       -1    1    3    3    0  502  0.16338689786E+03 -0.36377569833E+03  0.16788833758E+04  0.17255948037E+04  0.50400001928E-02 0.  1.
</event>
<event>
 5   0  0.1238683E-03  0.1398088E+04  0.7818609E-02  0.8955204E-01
        1   -1    0    0  501    0  0.00000000000E+00  0.00000000000E+00  0.76274280652E+03  0.76274280654E+03  0.50400001928E-02 0. -1.
       -1   -1    0    0    0  501  0.00000000000E+00  0.00000000000E+00 -0.64066509097E+03  0.64066509099E+03  0.50400001928E-02 0.  1.
    10030    2    1    2    0    0  0.00000000000E+00  0.00000000000E+00  0.12207771555E+03  0.14034078975E+04  0.13980882512E+04 0.  0.
        2    1    3    3  502    0 -0.35603064816E+03 -0.99297295518E+02 -0.53455247254E+03  0.64989546946E+03  0.25500000920E-02 0.  1.
       -2    1    3    3    0  502  0.35603064816E+03  0.99297295518E+02  0.65663018809E+03  0.75351242806E+03  0.25500000920E-02 0. -1.
</event>
<event>
 5   0  0.1225690E-03  0.1410578E+04  0.7818609E-02  0.8946197E-01
       -1   -1    0    0    0  501  0.00000000000E+00  0.00000000000E+00  0.26792711015E+03  0.26792711020E+03  0.50400001928E-02 0. -1.
        1   -1    0    0  501    0  0.00000000000E+00  0.00000000000E+00 -0.18565967552E+04  0.18565967552E+04  0.50400001928E-02 0.  1.
    10030    2    1    2    0    0  0.00000000000E+00  0.00000000000E+00 -0.15886696450E+04  0.21245238654E+04  0.14105780423E+04 0.  0.
        4    1    3    3  502    0  0.13980700595E+03 -0.63806537266E+03 -0.11949717302E+04  0.13618489151E+04  0.12699999809E+01 0.  1.
       -4    1    3    3    0  502 -0.13980700595E+03  0.63806537266E+03 -0.39369791478E+03  0.76267495023E+03  0.12699999809E+01 0. -1.
</event>
<event>
 5   0  0.2190704E-03  0.1416378E+04  0.7818609E-02  0.8942048E-01
       -2   -1    0    0    0  501  0.00000000000E+00  0.00000000000E+00  0.36147044986E+03  0.36147044987E+03  0.25500000920E-02 0.  1.
        2   -1    0    0  501    0  0.00000000000E+00  0.00000000000E+00 -0.13874761200E+04  0.13874761200E+04  0.25500000920E-02 0. -1.
    10030    2    1    2    0    0  0.00000000000E+00  0.00000000000E+00 -0.10260056701E+04  0.17489465699E+04  0.14163779401E+04 0.  0.
        5    1    3    3  502    0  0.10418380445E+03  0.44032266165E+03 -0.11856824640E+04  0.12690954680E+04  0.46999998093E+01 0. -1.
       -5    1    3    3    0  502 -0.10418380445E+03 -0.44032266165E+03  0.15967679385E+03  0.47985110187E+03  0.46999998093E+01 0.  1.
</event>
<event>
 5   0  0.1210275E-03  0.1423237E+04  0.7818609E-02  0.8937168E-01
        1   -1    0    0  501    0  0.00000000000E+00  0.00000000000E+00  0.17334652360E+04  0.17334652360E+04  0.50400001928E-02 0. -1.
       -1   -1    0    0    0  501  0.00000000000E+00  0.00000000000E+00 -0.29213222106E+03  0.29213222111E+03  0.50400001928E-02 0.  1.
    10030    2    1    2    0    0  0.00000000000E+00  0.00000000000E+00  0.14413330149E+04  0.20255974571E+04  0.14232372249E+04 0.  0.
        1    1    3    3  502    0  0.44312563641E+03  0.12473167417E+03  0.14930015918E+04  0.15623610573E+04  0.50400001928E-02 0. -1.
       -1    1    3    3    0  502 -0.44312563641E+03 -0.12473167417E+03 -0.51668576944E+02  0.46323639975E+03  0.50400001928E-02 0.  1.
</event>
<event>
 5   0  0.1225690E-03  0.1433671E+04  0.7818609E-02  0.8929800E-01
        1   -1    0    0  501    0  0.00000000000E+00  0.00000000000E+00  0.37177261276E+03  0.37177261279E+03  0.50400001928E-02 0. -1.
       -1   -1    0    0    0  501  0.00000000000E+00  0.00000000000E+00 -0.13821699261E+04  0.13821699262E+04  0.50400001928E-02 0.  1.
    10030    2    1    2    0    0  0.00000000000E+00  0.00000000000E+00 -0.10103973134E+04  0.17539425389E+04  0.14336707080E+04 0.  0.
        4    1    3    3  502    0  0.35091118377E+03  0.32174098677E+03  0.15042509969E+03  0.49928473338E+03  0.12699999809E+01 0. -1.
       -4    1    3    3    0  502 -0.35091118377E+03 -0.32174098677E+03 -0.11608224131E+04  0.12546578056E+04  0.12699999809E+01 0.  1.
</event>
<event>
 5   0  0.1199720E-03  0.1409940E+04  0.7818609E-02  0.8946655E-01
       -1   -1    0    0    0  501  0.00000000000E+00  0.00000000000E+00  0.47268682945E+03  0.47268682948E+03  0.50400001928E-02 0. -1.
        1   -1    0    0  501    0  0.00000000000E+00  0.00000000000E+00 -0.10513996016E+04  0.10513996016E+04  0.50400001928E-02 0.  1.
    10030    2    1    2    0    0  0.00000000000E+00  0.00000000000E+00 -0.57871277212E+03  0.15240864311E+04  0.14099400614E+04 0.  0.
        5    1    3    3  502    0 -0.77047875738E+02 -0.56345890748E+03 -0.73966127666E+03  0.93302905087E+03  0.46999998093E+01 0.  1.
       -5    1    3    3    0  502  0.77047875738E+02  0.56345890748E+03  0.16094850453E+03  0.59105738020E+03  0.46999998093E+01 0. -1.
</event>
<event>
 5   0  0.2195980E-03  0.1392503E+04  0.7818609E-02  0.8959264E-01
        2   -1    0    0  501    0  0.00000000000E+00  0.00000000000E+00  0.51613056123E+03  0.51613056124E+03  0.25500000920E-02 0.  1.
       -2   -1    0    0    0  501  0.00000000000E+00  0.00000000000E+00 -0.93923102470E+03  0.93923102470E+03  0.25500000920E-02 0. -1.
    10030    2    1    2    0    0  0.00000000000E+00  0.00000000000E+00 -0.42310046347E+03  0.14553615859E+04  0.13925025471E+04 0.  0.
        4    1    3    3  502    0 -0.32991658071E+03  0.54121525648E+03  0.89561634588E+02  0.64014201812E+03  0.12699999809E+01 0.  1.
       -4    1    3    3    0  502  0.32991658071E+03 -0.54121525648E+03 -0.51266209805E+03  0.81521956782E+03  0.12699999809E+01 0. -1.
</event>
<event>
 5   0  0.1210275E-03  0.1462845E+04  0.7818609E-02  0.8909544E-01
       -1   -1    0    0    0  501  0.00000000000E+00  0.00000000000E+00  0.55426829973E+03  0.55426829975E+03  0.50400001928E-02 0. -1.
        1   -1    0    0  501    0  0.00000000000E+00  0.00000000000E+00 -0.96519827403E+03  0.96519827404E+03  0.50400001928E-02 0.  1.
    10030    2    1    2    0    0  0.00000000000E+00  0.00000000000E+00 -0.41092997429E+03  0.15194665738E+04  0.14628449081E+04 0.  0.
        1    1    3    3  502    0  0.10093010727E+03  0.21584621125E+03  0.51282317904E+03  0.56547686641E+03  0.50400001928E-02 0. -1.
       -1    1    3    3    0  502 -0.10093010727E+03 -0.21584621125E+03 -0.92375315333E+03  0.95398970738E+03  0.50400001928E-02 0.  1.
</event>
<event>
 5   0  0.2172901E-03  0.1384011E+04  0.7818609E-02  0.8965474E-01
       -2   -1    0    0    0  501  0.00000000000E+00  0.00000000000E+00  0.36496374980E+03  0.36496374981E+03  0.25500000920E-02 0.  1.
        2   -1    0    0  501    0  0.00000000000E+00  0.00000000000E+00 -0.13121074474E+04  0.13121074474E+04  0.25500000920E-02 0. -1.
    10030    2    1    2    0    0  0.00000000000E+00  0.00000000000E+00 -0.94714369758E+03  0.16770711972E+04  0.13840110609E+04 0.  0.
        2    1    3    3  502    0  0.45635166637E+03  0.46353238011E+03 -0.18745444129E+03  0.67694776635E+03  0.25500000920E-02 0. -1.
       -2    1    3    3    0  502 -0.45635166637E+03 -0.46353238011E+03 -0.75968925630E+03  0.10001234309E+04  0.25500000920E-02 0.  1.
</event>
<event>
 5   0  0.2190704E-03  0.1385318E+04  0.7818609E-02  0.8964515E-01
        2   -1    0    0  501    0  0.00000000000E+00  0.00000000000E+00  0.27760024137E+03  0.27760024139E+03  0.25500000920E-02 0. -1.
       -2   -1    0    0    0  501  0.00000000000E+00  0.00000000000E+00 -0.17282995776E+04  0.17282995776E+04  0.25500000920E-02 0.  1.
    10030    2    1    2    0    0  0.00000000000E+00  0.00000000000E+00 -0.14506993362E+04  0.20058998190E+04  0.13853178407E+04 0.  0.
        5    1    3    3  502    0  0.18878686193E+03  0.27055563960E+03  0.15650314920E+03  0.36517962575E+03  0.46999998093E+01 0. -1.
       -5    1    3    3    0  502 -0.18878686193E+03 -0.27055563960E+03 -0.16072024854E+04  0.16407201932E+04  0.46999998093E+01 0.  1.
</event>
<event>
 5   0  0.1175374E-03  0.1390334E+04  0.7818609E-02  0.8960845E-01
       -1   -1    0    0    0  501  0.00000000000E+00  0.00000000000E+00  0.35947496608E+03  0.35947496611E+03  0.50400001928E-02 0. -1.
        1   -1    0    0  501    0  0.00000000000E+00  0.00000000000E+00 -0.13443421269E+04  0.13443421269E+04  0.50400001928E-02 0.  1.
    10030    2    1    2    0    0  0.00000000000E+00  0.00000000000E+00 -0.98486716080E+03  0.17038170930E+04  0.13903342627E+04 0.  0.
        3    1    3    3  502    0  0.39222548642E+03  0.42286168250E+03 -0.96801262857E+03  0.11268102298E+04  0.10100000352E+00 0.  1.
       -3    1    3    3    0  502 -0.39222548642E+03 -0.42286168250E+03 -0.16854532232E+02  0.57700686320E+03  0.10100000352E+00 0. -1.
</event>
<event>
 5   0  0.8293000E-04  0.1404315E+04  0.7818609E-02  0.8950701E-01
       -3   -1    0    0    0  501  0.00000000000E+00  0.00000000000E+00  0.82926411122E+03  0.82926411737E+03  0.10100000352E+00 0. -1.
        3   -1    0    0  501    0  0.00000000000E+00  0.00000000000E+00 -0.59453325901E+03  0.59453326759E+03  0.10100000352E+00 0.  1.
    10030    2    1    2    0    0  0.00000000000E+00  0.00000000000E+00  0.23473085221E+03  0.14237973850E+04  0.14043149292E+04 0.  0.
        3    1    3    3  502    0 -0.22972133110E+03 -0.58900637979E+03  0.42709448646E+03  0.76296141184E+03  0.10100000352E+00 0. -1.
       -3    1    3    3    0  502  0.22972133110E+03  0.58900637979E+03 -0.19236363425E+03  0.66083597312E+03  0.10100000352E+00 0.  1.
</event>
<event>
 5   0  0.1199720E-03  0.1430240E+04  0.7818609E-02  0.8932216E-01
        1   -1    0    0  501    0  0.00000000000E+00  0.00000000000E+00  0.15130437798E+04  0.15130437798E+04  0.50400001928E-02 0.  1.
       -1   -1    0    0    0  501  0.00000000000E+00  0.00000000000E+00 -0.33799186863E+03  0.33799186866E+03  0.50400001928E-02 0. -1.
    10030    2    1    2    0    0  0.00000000000E+00  0.00000000000E+00  0.11750519112E+04  0.18510356485E+04  0.14302398323E+04 0.  0.
        5    1    3    3  502    0  0.37042457042E+03 -0.16629709681E+03 -0.17430894745E+03  0.44189906759E+03  0.46999998093E+01 0. -1.
       -5    1    3    3    0  502 -0.37042457042E+03  0.16629709681E+03  0.13493608586E+04  0.14091365809E+04  0.46999998093E+01 0.  1.
</event>
<event>
 5   0  0.2172901E-03  0.1390263E+04  0.7818609E-02  0.8960897E-01
        2   -1    0    0  501    0  0.00000000000E+00  0.00000000000E+00  0.19149241660E+04  0.19149241660E+04  0.25500000920E-02 0.  1.
       -2   -1    0    0    0  501  0.00000000000E+00  0.00000000000E+00 -0.25233784741E+03  0.25233784742E+03  0.25500000920E-02 0. -1.
    10030    2    1    2    0    0  0.00000000000E+00  0.00000000000E+00  0.16625863186E+04  0.21672620134E+04  0.13902630571E+04 0.  0.
        2    1    3    3  502    0 -0.68604526636E+03  0.11037683720E+03  0.86114444004E+03  0.11065310209E+04  0.25500000920E-02 0. -1.
       -2    1    3    3    0  502  0.68604526636E+03 -0.11037683720E+03  0.80144187852E+03  0.10607309924E+04  0.25500000920E-02 0.  1.
</event>
<event>
 5   0  0.1225690E-03  0.1303310E+04  0.7818609E-02  0.9026944E-01
       -1   -1    0    0    0  501  0.00000000000E+00  0.00000000000E+00  0.65026794445E+03  0.65026794447E+03  0.50400001928E-02 0. -1.
        1   -1    0    0  501    0  0.00000000000E+00  0.00000000000E+00 -0.65304504688E+03  0.65304504690E+03  0.50400001928E-02 0.  1.
    10030    2    1    2    0    0  0.00000000000E+00  0.00000000000E+00 -0.27771024356E+01  0.13033129914E+04  0.13033100326E+04 0.  0.
        4    1    3    3  502    0  0.60088345473E+03 -0.46199571089E+02 -0.24929498496E+03  0.65218473530E+03  0.12699999809E+01 0.  1.
       -4    1    3    3    0  502 -0.60088345473E+03  0.46199571089E+02  0.24651788252E+03  0.65112825606E+03  0.12699999809E+01 0. -1.
</event>
<event>
 5   0  0.2236184E-03  0.1383137E+04  0.7818609E-02  0.8966116E-01
        2   -1    0    0  501    0  0.00000000000E+00  0.00000000000E+00  0.28627694438E+04  0.28627694438E+04  0.25500000920E-02 0.  1.
       -2   -1    0    0    0  501  0.00000000000E+00  0.00000000000E+00 -0.16706448623E+03  0.16706448625E+03  0.25500000920E-02 0. -1.
    10030    2    1    2    0    0  0.00000000000E+00  0.00000000000E+00  0.26957049576E+04  0.30298339301E+04  0.13831371680E+04 0.  0.
        3    1    3    3  502    0  0.33131876739E+03  0.44187018542E+03  0.43608348930E+03  0.70369752467E+03  0.10100000352E+00 0. -1.
       -3    1    3    3    0  502 -0.33131876739E+03 -0.44187018542E+03  0.22596214683E+04  0.23261364054E+04  0.10100000352E+00 0.  1.
</event>
<event>
 5   0  0.2190704E-03  0.1400536E+04  0.7818609E-02  0.8953431E-01
       -2   -1    0    0    0  501  0.00000000000E+00  0.00000000000E+00  0.26162263881E+03  0.26162263882E+03  0.25500000920E-02 0.  1.
        2   -1    0    0  501    0  0.00000000000E+00  0.00000000000E+00 -0.18743599522E+04  0.18743599522E+04  0.25500000920E-02 0. -1.
    10030    2    1    2    0    0  0.00000000000E+00  0.00000000000E+00 -0.16127373134E+04  0.21359825910E+04  0.14005356072E+04 0.  0.
        5    1    3    3  502    0  0.65940262389E+03 -0.23363253644E+03 -0.85354696307E+03  0.11036124730E+04  0.46999998093E+01 0.  1.
       -5    1    3    3    0  502 -0.65940262389E+03  0.23363253644E+03 -0.75919035030E+03  0.10323701180E+04  0.46999998093E+01 0. -1.
</event>
<event>
 5   0  0.2083966E-03  0.1398825E+04  0.7818609E-02  0.8954669E-01
        2   -1    0    0  501    0  0.00000000000E+00  0.00000000000E+00  0.12826968217E+04  0.12826968217E+04  0.25500000920E-02 0. -1.
       -2   -1    0    0    0  501  0.00000000000E+00  0.00000000000E+00 -0.38136689776E+03  0.38136689776E+03  0.25500000920E-02 0.  1.
    10030    2    1    2    0    0  0.00000000000E+00  0.00000000000E+00  0.90132992395E+03  0.16640637195E+04  0.13988253753E+04 0.  0.
        1    1    3    3  502    0  0.40186466624E+03  0.25210039329E+03  0.10620487373E+04  0.11631841379E+04  0.50400001928E-02 0. -1.
       -1    1    3    3    0  502 -0.40186466624E+03 -0.25210039329E+03 -0.16071881332E+03  0.50087958159E+03  0.50400001928E-02 0.  1.
</event>
<event>
 5   0  0.1225690E-03  0.1389461E+04  0.7818609E-02  0.8961483E-01
        1   -1    0    0  501    0  0.00000000000E+00  0.00000000000E+00  0.95046449650E+03  0.95046449651E+03  0.50400001928E-02 0.  1.
       -1   -1    0    0    0  501  0.00000000000E+00  0.00000000000E+00 -0.50780497320E+03  0.50780497323E+03  0.50400001928E-02 0. -1.
    10030    2    1    2    0    0  0.00000000000E+00  0.00000000000E+00  0.44265952330E+03  0.14582694697E+04  0.13894611879E+04 0.  0.
        4    1    3    3  502    0 -0.39475851160E+03  0.62674914724E+02  0.81770052741E+03  0.91016382747E+03  0.12699999809E+01 0.  1.
       -4    1    3    3    0  502  0.39475851160E+03 -0.62674914724E+02 -0.37504100411E+03  0.54810564227E+03  0.12699999809E+01 0. -1.
</event>
<event>
 5   0  0.2083966E-03  0.1400625E+04  0.7818609E-02  0.8953366E-01
       -2   -1    0    0    0  501  0.00000000000E+00  0.00000000000E+00  0.39787279301E+03  0.39787279301E+03  0.25500000920E-02 0. -1.
        2   -1    0    0  501    0  0.00000000000E+00  0.00000000000E+00 -0.12326496287E+04  0.12326496287E+04  0.25500000920E-02 0.  1.
    10030    2    1    2    0    0  0.00000000000E+00  0.00000000000E+00 -0.83477683569E+03  0.16305224217E+04  0.14006252184E+04 0.  0.
        1    1    3    3  502    0  0.12388765422E+03  0.97948096904E+02  0.37687160350E+03  0.40862474974E+03  0.50400001928E-02 0. -1.
       -1    1    3    3    0  502 -0.12388765422E+03 -0.97948096904E+02 -0.12116484392E+04  0.12218976720E+04  0.50400001928E-02 0.  1.
</event>
<event>
 5   0  0.1225690E-03  0.1374564E+04  0.7818609E-02  0.8972439E-01
        1   -1    0    0  501    0  0.00000000000E+00  0.00000000000E+00  0.70610596275E+03  0.70610596276E+03  0.50400001928E-02 0. -1.
       -1   -1    0    0    0  501  0.00000000000E+00  0.00000000000E+00 -0.66895943479E+03  0.66895943481E+03  0.50400001928E-02 0.  1.
    10030    2    1    2    0    0  0.00000000000E+00  0.00000000000E+00  0.37146527957E+02  0.13750653976E+04  0.13745635609E+04 0.  0.
        4    1    3    3  502    0  0.17429766300E+03 -0.61106418531E+03  0.28053814770E+03  0.69460951557E+03  0.12699999809E+01 0. -1.
       -4    1    3    3    0  502 -0.17429766300E+03  0.61106418531E+03 -0.24339161974E+03  0.68045588201E+03  0.12699999809E+01 0.  1.
</event>
<event>
 5   0  0.2195980E-03  0.1376005E+04  0.7818609E-02  0.8971373E-01
        2   -1    0    0  501    0  0.00000000000E+00  0.00000000000E+00  0.90893084052E+03  0.90893084052E+03  0.25500000920E-02 0.  1.
       -2   -1    0    0    0  501  0.00000000000E+00  0.00000000000E+00 -0.52077391705E+03  0.52077391706E+03  0.25500000920E-02 0. -1.
    10030    2    1    2    0    0  0.00000000000E+00  0.00000000000E+00  0.38815692347E+03  0.14297047576E+04  0.13760050496E+04 0.  0.
        4    1    3    3  502    0  0.59923551886E+03 -0.15477247182E+03  0.50631935035E+03  0.79962405075E+03  0.12699999809E+01 0.  1.
       -4    1    3    3    0  502 -0.59923551886E+03  0.15477247182E+03 -0.11816242688E+03  0.63008070683E+03  0.12699999809E+01 0. -1.
</event>
<event>
 5   0  0.1210275E-03  0.1445642E+04  0.7818609E-02  0.8921428E-01
       -1   -1    0    0    0  501  0.00000000000E+00  0.00000000000E+00  0.15395875534E+04  0.15395875534E+04  0.50400001928E-02 0.  1.
        1   -1    0    0  501    0  0.00000000000E+00  0.00000000000E+00 -0.33935708228E+03  0.33935708232E+03  0.50400001928E-02 0. -1.
    10030    2    1    2    0    0  0.00000000000E+00  0.00000000000E+00  0.12002304711E+04  0.18789446357E+04  0.14456416431E+04 0.  0.
        1    1    3    3  502    0 -0.53740211564E+03 -0.12494546157E+03  0.12070456278E+04  0.13271667378E+04  0.50400001928E-02 0.  1.
       -1    1    3    3    0  502  0.53740211564E+03  0.12494546157E+03 -0.68151567055E+01  0.55177789793E+03  0.50400001928E-02 0. -1.
</event>
<event>
 5   0  0.2190704E-03  0.1381912E+04  0.7818609E-02  0.8967016E-01
        2   -1    0    0  501    0  0.00000000000E+00  0.00000000000E+00  0.14383713376E+04  0.14383713376E+04  0.25500000920E-02 0.  1.
       -2   -1    0    0    0  501  0.00000000000E+00  0.00000000000E+00 -0.33191739431E+03  0.33191739432E+03  0.25500000920E-02 0. -1.
    10030    2    1    2    0    0  0.00000000000E+00  0.00000000000E+00  0.11064539433E+04  0.17702887319E+04  0.13819123944E+04 0.  0.
        5    1    3    3  502    0  0.65099487114E+03 -0.25565895803E+02  0.84800721711E+03  0.10693859301E+04  0.46999998093E+01 0.  1.
       -5    1    3    3    0  502 -0.65099487114E+03  0.25565895803E+02  0.25844672617E+03  0.70090280178E+03  0.46999998093E+01 0. -1.
</event>
<event>
 5   0  0.2190704E-03  0.1406037E+04  0.7818609E-02  0.8949460E-01
       -2   -1    0    0    0  501  0.00000000000E+00  0.00000000000E+00  0.54164133642E+03  0.54164133643E+03  0.25500000920E-02 0. -1.
        2   -1    0    0  501    0  0.00000000000E+00  0.00000000000E+00 -0.91247618377E+03  0.91247618378E+03  0.25500000920E-02 0.  1.
    10030    2    1    2    0    0  0.00000000000E+00  0.00000000000E+00 -0.37083484735E+03  0.14541175202E+04  0.14060367273E+04 0.  0.
        5    1    3    3  502    0 -0.45254926761E+03 -0.53769059797E+03 -0.16748341344E+03  0.72248515731E+03  0.46999998093E+01 0.  1.
       -5    1    3    3    0  502  0.45254926761E+03  0.53769059797E+03 -0.20335143391E+03  0.73163236289E+03  0.46999998093E+01 0. -1.
</event>
<event>
 5   0  0.2172901E-03  0.1403126E+04  0.7818609E-02  0.8951559E-01
       -2   -1    0    0    0  501  0.00000000000E+00  0.00000000000E+00  0.64217044030E+03  0.64217044031E+03  0.25500000920E-02 0. -1.
        2   -1    0    0  501    0  0.00000000000E+00  0.00000000000E+00 -0.76644842446E+03  0.76644842446E+03  0.25500000920E-02 0.  1.
    10030    2    1    2    0    0  0.00000000000E+00  0.00000000000E+00 -0.12427798415E+03  0.14086188648E+04  0.14031258279E+04 0.  0.
        2    1    3    3  502    0 -0.38630148351E+03 -0.35355071490E+03  0.40655441627E+03  0.66295809638E+03  0.25500000920E-02 0. -1.
       -2    1    3    3    0  502  0.38630148351E+03  0.35355071490E+03 -0.53083240042E+03  0.74566076839E+03  0.25500000920E-02 0.  1.
</event>
<event>
 5   0  0.2172901E-03  0.1409776E+04  0.7818609E-02  0.8946772E-01
       -2   -1    0    0    0  501  0.00000000000E+00  0.00000000000E+00  0.46073580719E+03  0.46073580719E+03  0.25500000920E-02 0.  1.
        2   -1    0    0  501    0  0.00000000000E+00  0.00000000000E+00 -0.10784210146E+04  0.10784210146E+04  0.25500000920E-02 0. -1.
    10030    2    1    2    0    0  0.00000000000E+00  0.00000000000E+00 -0.61768520740E+03  0.15391568218E+04  0.14097761193E+04 0.  0.
        2    1    3    3  502    0 -0.30781712227E+03  0.27501915089E+03 -0.93266532285E+03  0.10199272124E+04  0.25500000920E-02 0. -1.
       -2    1    3    3    0  502  0.30781712227E+03 -0.27501915089E+03  0.31498011546E+03  0.51922960938E+03  0.25500000920E-02 0.  1.
</event>
<event>
 5   0  0.2083966E-03  0.1370362E+04  0.7818609E-02  0.8975556E-01
       -2   -1    0    0    0  501  0.00000000000E+00  0.00000000000E+00  0.37337709286E+03  0.37337709287E+03  0.25500000920E-02 0. -1.
        2   -1    0    0  501    0  0.00000000000E+00  0.00000000000E+00 -0.12573700716E+04  0.12573700716E+04  0.25500000920E-02 0.  1.
    10030    2    1    2    0    0  0.00000000000E+00  0.00000000000E+00 -0.88399297871E+03  0.16307471645E+04  0.13703622616E+04 0.  0.
        1    1    3    3  502    0  0.65691863135E+03 -0.16638616625E+03 -0.56245681854E+03  0.88067253692E+03  0.50400001928E-02 0.  1.
       -1    1    3    3    0  502 -0.65691863135E+03  0.16638616625E+03 -0.32153616017E+03  0.75007462753E+03  0.50400001928E-02 0. -1.
</event>
<event>
 5   0  0.1175374E-03  0.1422521E+04  0.7818609E-02  0.8937676E-01
        1   -1    0    0  501    0  0.00000000000E+00  0.00000000000E+00  0.69886291333E+03  0.69886291335E+03  0.50400001928E-02 0. -1.
       -1   -1    0    0    0  501  0.00000000000E+00  0.00000000000E+00 -0.72387792516E+03  0.72387792517E+03  0.50400001928E-02 0.  1.
    10030    2    1    2    0    0  0.00000000000E+00  0.00000000000E+00 -0.25015011825E+02  0.14227408385E+04  0.14225209112E+04 0.  0.
        3    1    3    3  502    0 -0.49188315576E+03  0.16445478915E+03 -0.49930342309E+03  0.71992939592E+03  0.10100000352E+00 0.  1.
       -3    1    3    3    0  502  0.49188315576E+03 -0.16445478915E+03  0.47428841127E+03  0.70281144261E+03  0.10100000352E+00 0. -1.
</event>
<event>
 5   0  0.1175374E-03  0.1455960E+04  0.7818609E-02  0.8914279E-01
        1   -1    0    0  501    0  0.00000000000E+00  0.00000000000E+00  0.61779942361E+03  0.61779942363E+03  0.50400001928E-02 0.  1.
       -1   -1    0    0    0  501  0.00000000000E+00  0.00000000000E+00 -0.85781096568E+03  0.85781096569E+03  0.50400001928E-02 0. -1.
    10030    2    1    2    0    0  0.00000000000E+00  0.00000000000E+00 -0.24001154207E+03  0.14756103893E+04  0.14559603294E+04 0.  0.
        3    1    3    3  502    0 -0.58595933520E+03 -0.23007299504E+03  0.25054208899E+03  0.67753470325E+03  0.10100000352E+00 0.  1.
       -3    1    3    3    0  502  0.58595933520E+03  0.23007299504E+03 -0.49055363106E+03  0.79807568607E+03  0.10100000352E+00 0. -1.
</event>
<event>
 5   0  0.8293000E-04  0.1389015E+04  0.7818609E-02  0.8961809E-01
        3   -1    0    0  501    0  0.00000000000E+00  0.00000000000E+00  0.59616178420E+03  0.59616179276E+03  0.10100000352E+00 0.  1.
       -3   -1    0    0    0  501  0.00000000000E+00  0.00000000000E+00 -0.80907679082E+03  0.80907679712E+03  0.10100000352E+00 0. -1.
    10030    2    1    2    0    0  0.00000000000E+00  0.00000000000E+00 -0.21291500662E+03  0.14052385899E+04  0.13890150087E+04 0.  0.
        1    1    3    3  502    0 -0.16062120145E+02 -0.58252101760E+03  0.27578074992E+03  0.64470438939E+03  0.50400001928E-02 0.  1.
       -1    1    3    3    0  502  0.16062120145E+02  0.58252101760E+03 -0.48869575653E+03  0.76053420050E+03  0.50400001928E-02 0. -1.
</event>
<event>
 5   0  0.2236184E-03  0.1407158E+04  0.7818609E-02  0.8948654E-01
       -2   -1    0    0    0  501  0.00000000000E+00  0.00000000000E+00  0.26510280323E+03  0.26510280324E+03  0.25500000920E-02 0. -1.
        2   -1    0    0  501    0  0.00000000000E+00  0.00000000000E+00 -0.18672881974E+04  0.18672881974E+04  0.25500000920E-02 0.  1.
    10030    2    1    2    0    0  0.00000000000E+00  0.00000000000E+00 -0.16021853942E+04  0.21323910007E+04  0.14071578953E+04 0.  0.
        3    1    3    3  502    0  0.18323791679E+03 -0.49957059512E+03 -0.14986265887E+04  0.15902919783E+04  0.10100000352E+00 0.  1.
       -3    1    3    3    0  502 -0.18323791679E+03  0.49957059512E+03 -0.10355880549E+03  0.54209902237E+03  0.10100000352E+00 0. -1.
</event>
<event>
 5   0  0.1210275E-03  0.1393835E+04  0.7818609E-02  0.8958293E-01
        1   -1    0    0  501    0  0.00000000000E+00  0.00000000000E+00  0.11130146378E+04  0.11130146378E+04  0.50400001928E-02 0.  1.
       -1   -1    0    0    0  501  0.00000000000E+00  0.00000000000E+00 -0.43637724960E+03  0.43637724963E+03  0.50400001928E-02 0. -1.
    10030    2    1    2    0    0  0.00000000000E+00  0.00000000000E+00  0.67663738823E+03  0.15493918875E+04  0.13938353797E+04 0.  0.
        1    1    3    3  502    0  0.21474700595E+03  0.58154030512E+03  0.69227114258E+03  0.92927107881E+03  0.50400001928E-02 0.  1.
       -1    1    3    3    0  502 -0.21474700595E+03 -0.58154030512E+03 -0.15633754345E+02  0.62012080867E+03  0.50400001928E-02 0. -1.
</event>
<event>
 5   0  0.2172901E-03  0.1417355E+04  0.7818609E-02  0.8941351E-01
       -2   -1    0    0    0  501  0.00000000000E+00  0.00000000000E+00  0.16549171691E+03  0.16549171693E+03  0.25500000920E-02 0. -1.
        2   -1    0    0  501    0  0.00000000000E+00  0.00000000000E+00 -0.30347368853E+04  0.30347368853E+04  0.25500000920E-02 0.  1.
    10030    2    1    2    0    0  0.00000000000E+00  0.00000000000E+00 -0.28692451684E+04  0.32002286023E+04  0.14173550262E+04 0.  0.
        2    1    3    3  502    0  0.33981170255E+03  0.61376595565E+03 -0.16608982711E+04  0.18029874399E+04  0.25500000920E-02 0.  1.
       -2    1    3    3    0  502 -0.33981170255E+03 -0.61376595565E+03 -0.12083468973E+04  0.13972411623E+04  0.25500000920E-02 0. -1.
</event>
<event>
 5   0  0.1225690E-03  0.1406518E+04  0.7818609E-02  0.8949114E-01
        1   -1    0    0  501    0  0.00000000000E+00  0.00000000000E+00  0.14753237638E+04  0.14753237638E+04  0.50400001928E-02 0.  1.
       -1   -1    0    0    0  501  0.00000000000E+00  0.00000000000E+00 -0.33523050951E+03  0.33523050955E+03  0.50400001928E-02 0. -1.
    10030    2    1    2    0    0  0.00000000000E+00  0.00000000000E+00  0.11400932543E+04  0.18105542733E+04  0.14065184493E+04 0.  0.
        4    1    3    3  502    0  0.69979595502E+02 -0.25918782231E+03 -0.26666855311E+03  0.37840348986E+03  0.12699999809E+01 0. -1.
       -4    1    3    3    0  502 -0.69979595502E+02  0.25918782231E+03  0.14067618074E+04  0.14321507835E+04  0.12699999809E+01 0.  1.
</event>
<event>
 5   0  0.1210275E-03  0.1339252E+04  0.7818609E-02  0.8999005E-01
       -1   -1    0    0    0  501  0.00000000000E+00  0.00000000000E+00  0.44983994627E+03  0.44983994630E+03  0.50400001928E-02 0. -1.
        1   -1    0    0  501    0  0.00000000000E+00  0.00000000000E+00 -0.99679623825E+03  0.99679623827E+03  0.50400001928E-02 0.  1.
    10030    2    1    2    0    0  0.00000000000E+00  0.00000000000E+00 -0.54695629198E+03  0.14466361846E+04  0.13392516810E+04 0.  0.
        1    1    3    3  502    0  0.62616865905E+03 -0.22990080291E+03 -0.20996564430E+03  0.69930475514E+03  0.50400001928E-02 0. -1.
       -1    1    3    3    0  502 -0.62616865905E+03  0.22990080291E+03 -0.33699064768E+03  0.74733142942E+03  0.50400001928E-02 0.  1.
</event>
<event>
 5   0  0.1238683E-03  0.1394873E+04  0.7818609E-02  0.8957538E-01
       -1   -1    0    0    0  501  0.00000000000E+00  0.00000000000E+00  0.74230121004E+03  0.74230121006E+03  0.50400001928E-02 0.  1.
        1   -1    0    0  501    0  0.00000000000E+00  0.00000000000E+00 -0.65528295783E+03  0.65528295785E+03  0.50400001928E-02 0. -1.
    10030    2    1    2    0    0  0.00000000000E+00  0.00000000000E+00  0.87018252210E+02  0.13975841679E+04  0.13948725139E+04 0.  0.
        2    1    3    3  502    0  0.40581471080E+03  0.15841621793E+03  0.58921097347E+03  0.73276930127E+03  0.25500000920E-02 0.  1.
       -2    1    3    3    0  502 -0.40581471080E+03 -0.15841621793E+03 -0.50219272126E+03  0.66481486664E+03  0.25500000920E-02 0. -1.
</event>
<event>
 5   0  0.1175374E-03  0.1432876E+04  0.7818609E-02  0.8930359E-01
        1   -1    0    0  501    0  0.00000000000E+00  0.00000000000E+00  0.71911601012E+03  0.71911601014E+03  0.50400001928E-02 0. -1.
       -1   -1    0    0    0  501  0.00000000000E+00  0.00000000000E+00 -0.71377003236E+03  0.71377003238E+03  0.50400001928E-02 0.  1.
    10030    2    1    2    0    0  0.00000000000E+00  0.00000000000E+00  0.53459777577E+01  0.14328860425E+04  0.14328760698E+04 0.  0.
        3    1    3    3  502    0 -0.12973866487E+03 -0.33514029443E+01 -0.70191696633E+03  0.71381425518E+03  0.10100000352E+00 0.  1.
       -3    1    3    3    0  502  0.12973866487E+03  0.33514029443E+01  0.70726294409E+03  0.71907178734E+03  0.10100000352E+00 0. -1.
</event>
<event>
 5   0  0.2195980E-03  0.1413701E+04  0.7818609E-02  0.8943960E-01
        2   -1    0    0  501    0  0.00000000000E+00  0.00000000000E+00  0.77187269000E+03  0.77187269000E+03  0.25500000920E-02 0.  1.
       -2   -1    0    0    0  501  0.00000000000E+00  0.00000000000E+00 -0.64730618541E+03  0.64730618541E+03  0.25500000920E-02 0. -1.
    10030    2    1    2    0    0  0.00000000000E+00  0.00000000000E+00  0.12456650459E+03  0.14191788754E+04  0.14137014771E+04 0.  0.
        4    1    3    3  502    0 -0.87879166747E+02  0.55153630153E+03  0.49723013124E+03  0.74776631120E+03  0.12699999809E+01 0. -1.
       -4    1    3    3    0  502  0.87879166747E+02 -0.55153630153E+03 -0.37266362665E+03  0.67141256421E+03  0.12699999809E+01 0.  1.
</event>
<event>
 5   0  0.2195980E-03  0.1408342E+04  0.7818609E-02  0.8947802E-01
        2   -1    0    0  501    0  0.00000000000E+00  0.00000000000E+00  0.77537539556E+03  0.77537539556E+03  0.25500000920E-02 0. -1.
       -2   -1    0    0    0  501  0.00000000000E+00  0.00000000000E+00 -0.63950563126E+03  0.63950563126E+03  0.25500000920E-02 0.  1.
    10030    2    1    2    0    0  0.00000000000E+00  0.00000000000E+00  0.13586976430E+03  0.14148810268E+04  0.14083421911E+04 0.  0.
        4    1    3    3  502    0  0.28927113735E+03 -0.22558726755E+03  0.67179792183E+03  0.76542894305E+03  0.12699999809E+01 0. -1.
       -4    1    3    3    0  502 -0.28927113735E+03  0.22558726755E+03 -0.53592815753E+03  0.64945208377E+03  0.12699999809E+01 0.  1.
</event>
<event>
 5   0  0.1238683E-03  0.1328475E+04  0.7818609E-02  0.9007284E-01
        1   -1    0    0  501    0  0.00000000000E+00  0.00000000000E+00  0.85225398696E+03  0.85225398697E+03  0.50400001928E-02 0.  1.
       -1   -1    0    0    0  501  0.00000000000E+00  0.00000000000E+00 -0.51769978500E+03  0.51769978502E+03  0.50400001928E-02 0. -1.
    10030    2    1    2    0    0  0.00000000000E+00  0.00000000000E+00  0.33455420196E+03  0.13699537720E+04  0.13284753755E+04 0.  0.
        2    1    3    3  502    0  0.37022057899E+03 -0.53524440938E+03  0.30229792290E+02  0.65150878369E+03  0.25500000920E-02 0.  1.
       -2    1    3    3    0  502 -0.37022057899E+03  0.53524440938E+03  0.30432440967E+03  0.71844498830E+03  0.25500000920E-02 0. -1.
</event>
<event>
 5   0  0.2195980E-03  0.1373827E+04  0.7818609E-02  0.8972985E-01
        2   -1    0    0  501    0  0.00000000000E+00  0.00000000000E+00  0.71740552637E+03  0.71740552637E+03  0.25500000920E-02 0. -1.
       -2   -1    0    0    0  501  0.00000000000E+00  0.00000000000E+00 -0.65771706376E+03  0.65771706376E+03  0.25500000920E-02 0.  1.
    10030    2    1    2    0    0  0.00000000000E+00  0.00000000000E+00  0.59688462614E+02  0.13751225901E+04  0.13738265630E+04 0.  0.
        4    1    3    3  502    0 -0.11134486042E+03  0.34943712868E+03 -0.55151713641E+03  0.66232676942E+03  0.12699999809E+01 0.  1.
       -4    1    3    3    0  502  0.11134486042E+03 -0.34943712868E+03  0.61120559903E+03  0.71279582071E+03  0.12699999809E+01 0. -1.
</event>
<event>
 5   0  0.2083966E-03  0.1378955E+04  0.7818609E-02  0.8969194E-01
        2   -1    0    0  501    0  0.00000000000E+00  0.00000000000E+00  0.16327859763E+04  0.16327859763E+04  0.25500000920E-02 0.  1.
       -2   -1    0    0    0  501  0.00000000000E+00  0.00000000000E+00 -0.29114622397E+03  0.29114622398E+03  0.25500000920E-02 0. -1.
    10030    2    1    2    0    0  0.00000000000E+00  0.00000000000E+00  0.13416397523E+04  0.19239322003E+04  0.13789553605E+04 0.  0.
        1    1    3    3  502    0  0.60543949687E+03  0.28022492828E+03  0.42797126793E+03  0.79261743673E+03  0.50400001928E-02 0. -1.
       -1    1    3    3    0  502 -0.60543949687E+03 -0.28022492828E+03  0.91366848438E+03  0.11313147635E+04  0.50400001928E-02 0.  1.
</event>
<event>
 5   0  0.2195980E-03  0.1432832E+04  0.7818609E-02  0.8930390E-01
       -2   -1    0    0    0  501  0.00000000000E+00  0.00000000000E+00  0.39556890007E+03  0.39556890008E+03  0.25500000920E-02 0. -1.
        2   -1    0    0  501    0  0.00000000000E+00  0.00000000000E+00 -0.12975023897E+04  0.12975023897E+04  0.25500000920E-02 0.  1.
    10030    2    1    2    0    0  0.00000000000E+00  0.00000000000E+00 -0.90193348965E+03  0.16930712898E+04  0.14328315926E+04 0.  0.
        4    1    3    3  502    0  0.33882833627E+03  0.52099937727E+03 -0.87207182901E+03  0.10708668827E+04  0.12699999809E+01 0.  1.
       -4    1    3    3    0  502 -0.33882833627E+03 -0.52099937727E+03 -0.29861660640E+02  0.62220440713E+03  0.12699999809E+01 0. -1.
</event>
<event>
 5   0  0.1175374E-03  0.1394979E+04  0.7818609E-02  0.8957461E-01
        1   -1    0    0  501    0  0.00000000000E+00  0.00000000000E+00  0.17596020107E+04  0.17596020107E+04  0.50400001928E-02 0. -1.
       -1   -1    0    0    0  501  0.00000000000E+00  0.00000000000E+00 -0.27647806607E+03  0.27647806612E+03  0.50400001928E-02 0.  1.
    10030    2    1    2    0    0  0.00000000000E+00  0.00000000000E+00  0.14831239446E+04  0.20360800768E+04  0.13949786536E+04 0.  0.
        3    1    3    3  502    0  0.25809619838E+02 -0.32967416078E+03 -0.15479021799E+03  0.36511807754E+03  0.10100000352E+00 0.  1.
       -3    1    3    3    0  502 -0.25809619838E+02  0.32967416078E+03  0.16379141626E+04  0.16709619992E+04  0.10100000352E+00 0. -1.
</event>
<event>
 5   0  0.2190704E-03  0.1396346E+04  0.7818609E-02  0.8956468E-01
       -2   -1    0    0    0  501  0.00000000000E+00  0.00000000000E+00  0.45116897254E+03  0.45116897254E+03  0.25500000920E-02 0.  1.
        2   -1    0    0  501    0  0.00000000000E+00  0.00000000000E+00 -0.10804060792E+04  0.10804060792E+04  0.25500000920E-02 0. -1.
    10030    2    1    2    0    0  0.00000000000E+00  0.00000000000E+00 -0.62923710671E+03  0.15315750518E+04  0.13963462331E+04 0.  0.
        5    1    3    3  502    0  0.12423317776E+03  0.14805757131E+02 -0.10679924427E+04  0.10753060218E+04  0.46999998093E+01 0. -1.
       -5    1    3    3    0  502 -0.12423317776E+03 -0.14805757131E+02  0.43875533596E+03  0.45626903000E+03  0.46999998093E+01 0.  1.
</event>
<event>
 5   0  0.1175374E-03  0.1404366E+04  0.7818609E-02  0.8950664E-01
       -1   -1    0    0    0  501  0.00000000000E+00  0.00000000000E+00  0.28684957952E+03  0.28684957956E+03  0.50400001928E-02 0. -1.
        1   -1    0    0  501    0  0.00000000000E+00  0.00000000000E+00 -0.17188838562E+04  0.17188838562E+04  0.50400001928E-02 0.  1.
    10030    2    1    2    0    0  0.00000000000E+00  0.00000000000E+00 -0.14320342767E+04  0.20057334358E+04  0.14043662079E+04 0.  0.
        3    1    3    3  502    0 -0.28429069503E+03 -0.62453170945E+02 -0.16286656326E+04  0.16544707162E+04  0.10100000352E+00 0.  1.
       -3    1    3    3    0  502  0.28429069503E+03  0.62453170945E+02  0.19663135589E+03  0.35126271957E+03  0.10100000352E+00 0. -1.
</event>
<event>
 5   0  0.1175374E-03  0.1291595E+04  0.7818609E-02  0.9036257E-01
       -1   -1    0    0    0  501  0.00000000000E+00  0.00000000000E+00  0.42581370992E+03  0.42581370995E+03  0.50400001928E-02 0. -1.
        1   -1    0    0  501    0  0.00000000000E+00  0.00000000000E+00 -0.97942949340E+03  0.97942949342E+03  0.50400001928E-02 0.  1.
    10030    2    1    2    0    0  0.00000000000E+00  0.00000000000E+00 -0.55361578348E+03  0.14052432034E+04  0.12915951474E+04 0.  0.
        3    1    3    3  502    0 -0.39601964884E+03  0.48332660509E+03 -0.99300900275E+02  0.63269016781E+03  0.10100000352E+00 0. -1.
       -3    1    3    3    0  502  0.39601964884E+03 -0.48332660509E+03 -0.45431488320E+03  0.77255303556E+03  0.10100000352E+00 0.  1.
</event>
<event>
 5   0  0.2236184E-03  0.1402218E+04  0.7818609E-02  0.8952215E-01
        2   -1    0    0  501    0  0.00000000000E+00  0.00000000000E+00  0.20850100557E+04  0.20850100557E+04  0.25500000920E-02 0.  1.
       -2   -1    0    0    0  501  0.00000000000E+00  0.00000000000E+00 -0.23575592951E+03  0.23575592953E+03  0.25500000920E-02 0. -1.
    10030    2    1    2    0    0  0.00000000000E+00  0.00000000000E+00  0.18492541262E+04  0.23207659852E+04  0.14022175063E+04 0.  0.
        3    1    3    3  502    0  0.44804538264E+03  0.53920127739E+03  0.93855238668E+03  0.11714790972E+04  0.10100000352E+00 0. -1.
       -3    1    3    3    0  502 -0.44804538264E+03 -0.53920127739E+03  0.91070173951E+03  0.11492868880E+04  0.10100000352E+00 0.  1.
</event>
<event>
 5   0  0.1210275E-03  0.1393534E+04  0.7818609E-02  0.8958513E-01
        1   -1    0    0  501    0  0.00000000000E+00  0.00000000000E+00  0.61808808002E+03  0.61808808004E+03  0.50400001928E-02 0. -1.
       -1   -1    0    0    0  501  0.00000000000E+00  0.00000000000E+00 -0.78546083466E+03  0.78546083467E+03  0.50400001928E-02 0.  1.
    10030    2    1    2    0    0  0.00000000000E+00  0.00000000000E+00 -0.16737275464E+03  0.14035489147E+04  0.13935336081E+04 0.  0.
        1    1    3    3  502    0  0.30342138982E+03  0.34718283612E+03 -0.60982327298E+03  0.76451611219E+03  0.50400001928E-02 0.  1.
       -1    1    3    3    0  502 -0.30342138982E+03 -0.34718283612E+03  0.44245051834E+03  0.63903280253E+03  0.50400001928E-02 0. -1.
</event>
<event>
 5   0  0.1225690E-03  0.1353375E+04  0.7818609E-02  0.8988277E-01
       -1   -1    0    0    0  501  0.00000000000E+00  0.00000000000E+00  0.51592495976E+03  0.51592495979E+03  0.50400001928E-02 0.  1.
        1   -1    0    0  501    0  0.00000000000E+00  0.00000000000E+00 -0.88754389305E+03  0.88754389307E+03  0.50400001928E-02 0. -1.
    10030    2    1    2    0    0  0.00000000000E+00  0.00000000000E+00 -0.37161893329E+03  0.14034688529E+04  0.13533751104E+04 0.  0.
        4    1    3    3  502    0  0.16208798496E+02 -0.56784355909E+02 -0.88486551290E+03  0.88683469544E+03  0.12699999809E+01 0. -1.
       -4    1    3    3    0  502 -0.16208798496E+02  0.56784355909E+02  0.51324657961E+03  0.51663415741E+03  0.12699999809E+01 0.  1.
</event>
<event>
 5   0  0.1199720E-03  0.1380057E+04  0.7818609E-02  0.8968382E-01
        1   -1    0    0  501    0  0.00000000000E+00  0.00000000000E+00  0.94356742159E+03  0.94356742160E+03  0.50400001928E-02 0.  1.
       -1   -1    0    0    0  501  0.00000000000E+00  0.00000000000E+00 -0.50461601926E+03  0.50461601929E+03  0.50400001928E-02 0. -1.
    10030    2    1    2    0    0  0.00000000000E+00  0.00000000000E+00  0.43895140233E+03  0.14481834409E+04  0.13800568629E+04 0.  0.
        5    1    3    3  502    0 -0.61485046866E+02 -0.79444874584E+02 -0.49688428410E+03  0.50695954559E+03  0.46999998093E+01 0. -1.
       -5    1    3    3    0  502  0.61485046866E+02  0.79444874584E+02  0.93583568643E+03  0.94122389530E+03  0.46999998093E+01 0.  1.
</event>
<event>
 5   0  0.1225690E-03  0.1389653E+04  0.7818609E-02  0.8961343E-01
        1   -1    0    0  501    0  0.00000000000E+00  0.00000000000E+00  0.41673888001E+03  0.41673888004E+03  0.50400001928E-02 0.  1.
       -1   -1    0    0    0  501  0.00000000000E+00  0.00000000000E+00 -0.11584800674E+04  0.11584800674E+04  0.50400001928E-02 0. -1.
    10030    2    1    2    0    0  0.00000000000E+00  0.00000000000E+00 -0.74174118737E+03  0.15752189474E+04  0.13896527420E+04 0.  0.
        4    1    3    3  502    0 -0.20092918943E+03 -0.15199988488E+03 -0.11048771742E+04  0.11332394660E+04  0.12699999809E+01 0. -1.
       -4    1    3    3    0  502  0.20092918943E+03  0.15199988488E+03  0.36313598687E+03  0.44197948146E+03  0.12699999809E+01 0.  1.
</event>
<event>
 5   0  0.1210275E-03  0.1385574E+04  0.7818609E-02  0.8964327E-01
       -1   -1    0    0    0  501  0.00000000000E+00  0.00000000000E+00  0.48894877765E+03  0.48894877768E+03  0.50400001928E-02 0.  1.
        1   -1    0    0  501    0  0.00000000000E+00  0.00000000000E+00 -0.98160371970E+03  0.98160371971E+03  0.50400001928E-02 0. -1.
    10030    2    1    2    0    0  0.00000000000E+00  0.00000000000E+00 -0.49265494205E+03  0.14705524974E+04  0.13855741610E+04 0.  0.
        1    1    3    3  502    0 -0.41653011732E+03 -0.23570070057E+03 -0.77794908360E+03  0.91337666687E+03  0.50400001928E-02 0. -1.
       -1    1    3    3    0  502  0.41653011732E+03  0.23570070057E+03  0.28529414155E+03  0.55717583052E+03  0.50400001928E-02 0.  1.
</event>
<event>
 5   0  0.2195980E-03  0.1241141E+04  0.7818609E-02  0.9077589E-01
        2   -1    0    0  501    0  0.00000000000E+00  0.00000000000E+00  0.19735137950E+03  0.19735137952E+03  0.25500000920E-02 0.  1.
       -2   -1    0    0    0  501  0.00000000000E+00  0.00000000000E+00 -0.19513805600E+04  0.19513805600E+04  0.25500000920E-02 0. -1.
    10030    2    1    2    0    0  0.00000000000E+00  0.00000000000E+00 -0.17540291805E+04  0.21487319395E+04  0.12411408389E+04 0.  0.
        4    1    3    3  502    0 -0.54049400157E+03 -0.15399295563E+03 -0.42140011361E+03  0.70244378050E+03  0.12699999809E+01 0.  1.
       -4    1    3    3    0  502  0.54049400157E+03  0.15399295563E+03 -0.13326290669E+04  0.14462881590E+04  0.12699999809E+01 0. -1.
</event>
<event>
 5   0  0.1225690E-03  0.1396948E+04  0.7818609E-02  0.8956031E-01
       -1   -1    0    0    0  501  0.00000000000E+00  0.00000000000E+00  0.47686803400E+03  0.47686803403E+03  0.50400001928E-02 0. -1.
        1   -1    0    0  501    0  0.00000000000E+00  0.00000000000E+00 -0.10230621291E+04  0.10230621291E+04  0.50400001928E-02 0.  1.
    10030    2    1    2    0    0  0.00000000000E+00  0.00000000000E+00 -0.54619409506E+03  0.14999301631E+04  0.13969475669E+04 0.  0.
        4    1    3    3  502    0 -0.11552805243E+03  0.56696625600E+03  0.14698205323E+03  0.59699481004E+03  0.12699999809E+01 0. -1.
       -4    1    3    3    0  502  0.11552805243E+03 -0.56696625600E+03 -0.69317614830E+03  0.90293535306E+03  0.12699999809E+01 0.  1.
</event>
<event>
 5   0  0.1225690E-03  0.9496675E+03  0.7818609E-02  0.9365539E-01
        1   -1    0    0  501    0  0.00000000000E+00  0.00000000000E+00  0.64553860486E+03  0.64553860488E+03  0.50400001928E-02 0.  1.
       -1   -1    0    0    0  501  0.00000000000E+00  0.00000000000E+00 -0.34926974706E+03  0.34926974709E+03  0.50400001928E-02 0. -1.
    10030    2    1    2    0    0  0.00000000000E+00  0.00000000000E+00  0.29626885781E+03  0.99480835197E+03  0.94966753185E+03 0.  0.
        4    1    3    3  502    0 -0.66192975106E+01  0.44848811354E+03  0.31136179482E+03  0.54601573536E+03  0.12699999809E+01 0.  1.
       -4    1    3    3    0  502  0.66192975106E+01 -0.44848811354E+03 -0.15092937014E+02  0.44879261662E+03  0.12699999809E+01 0. -1.
</event>
<event>
 5   0  0.1175374E-03  0.1413063E+04  0.7818609E-02  0.8944417E-01
        1   -1    0    0  501    0  0.00000000000E+00  0.00000000000E+00  0.89899387637E+03  0.89899387638E+03  0.50400001928E-02 0. -1.
       -1   -1    0    0    0  501  0.00000000000E+00  0.00000000000E+00 -0.55527242507E+03  0.55527242509E+03  0.50400001928E-02 0.  1.
    10030    2    1    2    0    0  0.00000000000E+00  0.00000000000E+00  0.34372145130E+03  0.14542663015E+04  0.14130626453E+04 0.  0.
        3    1    3    3  502    0  0.48810563683E+03 -0.28119871936E+03 -0.26703270355E+03  0.62339899538E+03  0.10100000352E+00 0.  1.
       -3    1    3    3    0  502 -0.48810563683E+03  0.28119871936E+03  0.61075415484E+03  0.83086730609E+03  0.10100000352E+00 0. -1.
</event>
<event>
 5   0  0.1175374E-03  0.1385010E+04  0.7818609E-02  0.8964741E-01
       -1   -1    0    0    0  501  0.00000000000E+00  0.00000000000E+00  0.17952502504E+04  0.17952502504E+04  0.50400001928E-02 0.  1.
        1   -1    0    0  501    0  0.00000000000E+00  0.00000000000E+00 -0.26712871787E+03  0.26712871792E+03  0.50400001928E-02 0. -1.
    10030    2    1    2    0    0  0.00000000000E+00  0.00000000000E+00  0.15281215325E+04  0.20623789683E+04  0.13850095995E+04 0.  0.
        3    1    3    3  502    0  0.22167776442E+03  0.28352205364E+03  0.16450543127E+04  0.16839624367E+04  0.10100000352E+00 0.  1.
       -3    1    3    3    0  502 -0.22167776442E+03 -0.28352205364E+03 -0.11693278020E+03  0.37841653165E+03  0.10100000352E+00 0. -1.
</event>
<event>
 5   0  0.2195980E-03  0.1415756E+04  0.7818609E-02  0.8942492E-01
        2   -1    0    0  501    0  0.00000000000E+00  0.00000000000E+00  0.98783428805E+03  0.98783428806E+03  0.25500000920E-02 0. -1.
       -2   -1    0    0    0  501  0.00000000000E+00  0.00000000000E+00 -0.50726234680E+03  0.50726234681E+03  0.25500000920E-02 0.  1.
    10030    2    1    2    0    0  0.00000000000E+00  0.00000000000E+00  0.48057194126E+03  0.14950966349E+04  0.14157558253E+04 0.  0.
        4    1    3    3  502    0  0.41463738344E+02 -0.48147502726E+03  0.78652795212E+03  0.92312798454E+03  0.12699999809E+01 0.  1.
       -4    1    3    3    0  502 -0.41463738344E+02  0.48147502726E+03 -0.30595601087E+03  0.57196865032E+03  0.12699999809E+01 0. -1.
</event>
<event>
 5   0  0.1238683E-03  0.1379368E+04  0.7818609E-02  0.8968890E-01
       -1   -1    0    0    0  501  0.00000000000E+00  0.00000000000E+00  0.40260422248E+03  0.40260422251E+03  0.50400001928E-02 0.  1.
        1   -1    0    0  501    0  0.00000000000E+00  0.00000000000E+00 -0.11814683946E+04  0.11814683946E+04  0.50400001928E-02 0. -1.
    10030    2    1    2    0    0  0.00000000000E+00  0.00000000000E+00 -0.77886417215E+03  0.15840726171E+04  0.13793682096E+04 0.  0.
        2    1    3    3  502    0 -0.60407012885E+03 -0.32407644225E+03 -0.47642251894E+03  0.83480816812E+03  0.25500000920E-02 0.  1.
       -2    1    3    3    0  502  0.60407012885E+03  0.32407644225E+03 -0.30244165320E+03  0.74926444903E+03  0.25500000920E-02 0. -1.
</event>
<event>
 5   0  0.1225690E-03  0.1369165E+04  0.7818609E-02  0.8976446E-01
        1   -1    0    0  501    0  0.00000000000E+00  0.00000000000E+00  0.95276621244E+03  0.95276621245E+03  0.50400001928E-02 0. -1.
       -1   -1    0    0    0  501  0.00000000000E+00  0.00000000000E+00 -0.49188720700E+03  0.49188720702E+03  0.50400001928E-02 0.  1.
    10030    2    1    2    0    0  0.00000000000E+00  0.00000000000E+00  0.46087900544E+03  0.14446534195E+04  0.13691654556E+04 0.  0.
        4    1    3    3  502    0  0.39116707159E+03 -0.23242403388E+03  0.77012732311E+03  0.89450003696E+03  0.12699999809E+01 0. -1.
       -4    1    3    3    0  502 -0.39116707159E+03  0.23242403388E+03 -0.30924831767E+03  0.55015338252E+03  0.12699999809E+01 0.  1.
</event>
<event>
 5   0  0.2195980E-03  0.1415693E+04  0.7818609E-02  0.8942537E-01
       -2   -1    0    0    0  501  0.00000000000E+00  0.00000000000E+00  0.20564609388E+04  0.20564609388E+04  0.25500000920E-02 0.  1.
        2   -1    0    0  501    0  0.00000000000E+00  0.00000000000E+00 -0.24364524865E+03  0.24364524866E+03  0.25500000920E-02 0. -1.
    10030    2    1    2    0    0  0.00000000000E+00  0.00000000000E+00  0.18128156902E+04  0.23001061875E+04  0.14156933804E+04 0.  0.
        4    1    3    3  502    0  0.22319478515E+03  0.51715798457E+03  0.16029129441E+04  0.16989996505E+04  0.12699999809E+01 0.  1.
       -4    1    3    3    0  502 -0.22319478515E+03 -0.51715798457E+03  0.20990274609E+03  0.60110653701E+03  0.12699999809E+01 0. -1.
</event>
<event>
 5   0  0.2190704E-03  0.1410420E+04  0.7818609E-02  0.8946310E-01
        2   -1    0    0  501    0  0.00000000000E+00  0.00000000000E+00  0.10298139553E+04  0.10298139553E+04  0.25500000920E-02 0.  1.
       -2   -1    0    0    0  501  0.00000000000E+00  0.00000000000E+00 -0.48292322902E+03  0.48292322903E+03  0.25500000920E-02 0. -1.
    10030    2    1    2    0    0  0.00000000000E+00  0.00000000000E+00  0.54689072630E+03  0.15127371844E+04  0.14104199100E+04 0.  0.
        5    1    3    3  502    0 -0.27437351927E+03  0.46407827728E+03 -0.21411932871E+03  0.58010227757E+03  0.46999998093E+01 0. -1.
       -5    1    3    3    0  502  0.27437351927E+03 -0.46407827728E+03  0.76101005501E+03  0.93263490678E+03  0.46999998093E+01 0.  1.
</event>
<event>
 5   0  0.1225690E-03  0.1418666E+04  0.7818609E-02  0.8940417E-01
        1   -1    0    0  501    0  0.00000000000E+00  0.00000000000E+00  0.13042658986E+04  0.13042658986E+04  0.50400001928E-02 0. -1.
       -1   -1    0    0    0  501  0.00000000000E+00  0.00000000000E+00 -0.38577527969E+03  0.38577527973E+03  0.50400001928E-02 0.  1.
    10030    2    1    2    0    0  0.00000000000E+00  0.00000000000E+00  0.91849061892E+03  0.16900411784E+04  0.14186663341E+04 0.  0.
        4    1    3    3  502    0  0.20566084485E+03 -0.67371871069E+03  0.35986980280E+03  0.79101275091E+03  0.12699999809E+01 0. -1.
       -4    1    3    3    0  502 -0.20566084485E+03  0.67371871069E+03  0.55862081612E+03  0.89902842744E+03  0.12699999809E+01 0.  1.
</event>
<event>
 5   0  0.2195980E-03  0.1424375E+04  0.7818609E-02  0.8936361E-01
       -2   -1    0    0    0  501  0.00000000000E+00  0.00000000000E+00  0.28975633802E+03  0.28975633803E+03  0.25500000920E-02 0. -1.
        2   -1    0    0  501    0  0.00000000000E+00  0.00000000000E+00 -0.17504755585E+04  0.17504755585E+04  0.25500000920E-02 0.  1.
    10030    2    1    2    0    0  0.00000000000E+00  0.00000000000E+00 -0.14607192205E+04  0.20402318965E+04  0.14243754949E+04 0.  0.
        4    1    3    3  502    0  0.66555512556E+03 -0.24171501144E+03 -0.83963355899E+03  0.10983514457E+04  0.12699999809E+01 0.  1.
       -4    1    3    3    0  502 -0.66555512556E+03  0.24171501144E+03 -0.62108566149E+03  0.94188045087E+03  0.12699999809E+01 0. -1.
</event>
<event>
 5   0  0.2236184E-03  0.1403120E+04  0.7818609E-02  0.8951563E-01
        2   -1    0    0  501    0  0.00000000000E+00  0.00000000000E+00  0.37660470472E+03  0.37660470473E+03  0.25500000920E-02 0. -1.
       -2   -1    0    0    0  501  0.00000000000E+00  0.00000000000E+00 -0.13069040370E+04  0.13069040370E+04  0.25500000920E-02 0.  1.
    10030    2    1    2    0    0  0.00000000000E+00  0.00000000000E+00 -0.93029933232E+03  0.16835087418E+04  0.14031196798E+04 0.  0.
        3    1    3    3  502    0 -0.28004072879E+02  0.63126516921E+03 -0.83086497580E+03  0.10438470004E+04  0.10100000352E+00 0.  1.
       -3    1    3    3    0  502  0.28004072879E+02 -0.63126516921E+03 -0.99434356524E+02  0.63966174141E+03  0.10100000352E+00 0. -1.
</event>
<event>
 5   0  0.1199720E-03  0.1379083E+04  0.7818609E-02  0.8969100E-01
        1   -1    0    0  501    0  0.00000000000E+00  0.00000000000E+00  0.17108895306E+04  0.17108895306E+04  0.50400001928E-02 0. -1.
       -1   -1    0    0    0  501  0.00000000000E+00  0.00000000000E+00 -0.27790651860E+03  0.27790651864E+03  0.50400001928E-02 0.  1.
    10030    2    1    2    0    0  0.00000000000E+00  0.00000000000E+00  0.14329830120E+04  0.19887960492E+04  0.13790828158E+04 0.  0.
        5    1    3    3  502    0 -0.70427538220E+02 -0.66306085543E+03  0.96972759032E+03  0.11768616850E+04  0.46999998093E+01 0. -1.
       -5    1    3    3    0  502  0.70427538220E+02  0.66306085543E+03  0.46325542164E+03  0.81193436423E+03  0.46999998093E+01 0.  1.
</event>
<event>
 5   0  0.2172901E-03  0.1393719E+04  0.7818609E-02  0.8958378E-01
        2   -1    0    0  501    0  0.00000000000E+00  0.00000000000E+00  0.10873415699E+04  0.10873415699E+04  0.25500000920E-02 0. -1.
       -2   -1    0    0    0  501  0.00000000000E+00  0.00000000000E+00 -0.44660579694E+03  0.44660579695E+03  0.25500000920E-02 0.  1.
    10030    2    1    2    0    0  0.00000000000E+00  0.00000000000E+00  0.64073577294E+03  0.15339473668E+04  0.13937188359E+04 0.  0.
        2    1    3    3  502    0  0.49663234927E+03 -0.40776437493E+03  0.23614800763E+02  0.64301876693E+03  0.25500000920E-02 0.  1.
       -2    1    3    3    0  502 -0.49663234927E+03  0.40776437493E+03  0.61712097218E+03  0.89092859989E+03  0.25500000920E-02 0. -1.
</event>
<event>
 5   0  0.1199720E-03  0.1397448E+04  0.7818609E-02  0.8955668E-01
        1   -1    0    0  501    0  0.00000000000E+00  0.00000000000E+00  0.14605390523E+04  0.14605390523E+04  0.50400001928E-02 0.  1.
       -1   -1    0    0    0  501  0.00000000000E+00  0.00000000000E+00 -0.33427062340E+03  0.33427062344E+03  0.50400001928E-02 0. -1.
    10030    2    1    2    0    0  0.00000000000E+00  0.00000000000E+00  0.11262684289E+04  0.17948096758E+04  0.13974481022E+04 0.  0.
        5    1    3    3  502    0 -0.34093596701E+03 -0.60491123913E+03  0.66293614280E+03  0.96003195793E+03  0.46999998093E+01 0.  1.
       -5    1    3    3    0  502  0.34093596701E+03  0.60491123913E+03  0.46333228612E+03  0.83477771783E+03  0.46999998093E+01 0. -1.
</event>
<event>
 5   0  0.2172901E-03  0.1332557E+04  0.7818609E-02  0.9004138E-01
       -2   -1    0    0    0  501  0.00000000000E+00  0.00000000000E+00  0.26024341835E+03  0.26024341836E+03  0.25500000920E-02 0.  1.
        2   -1    0    0  501    0  0.00000000000E+00  0.00000000000E+00 -0.17058143300E+04  0.17058143300E+04  0.25500000920E-02 0. -1.
    10030    2    1    2    0    0  0.00000000000E+00  0.00000000000E+00 -0.14455709117E+04  0.19660577484E+04  0.13325568691E+04 0.  0.
        2    1    3    3  502    0 -0.56805926356E+03 -0.72147332323E+02 -0.12253552580E+04  0.13525502109E+04  0.25500000920E-02 0. -1.
       -2    1    3    3    0  502  0.56805926356E+03  0.72147332323E+02 -0.22021565361E+03  0.61350753751E+03  0.25500000920E-02 0.  1.
</event>
<event>
 5   0  0.1175374E-03  0.1354338E+04  0.7818609E-02  0.8987551E-01
        1   -1    0    0  501    0  0.00000000000E+00  0.00000000000E+00  0.10018126011E+04  0.10018126011E+04  0.50400001928E-02 0. -1.
       -1   -1    0    0    0  501  0.00000000000E+00  0.00000000000E+00 -0.45772785414E+03  0.45772785416E+03  0.50400001928E-02 0.  1.
    10030    2    1    2    0    0  0.00000000000E+00  0.00000000000E+00  0.54408474692E+03  0.14595404552E+04  0.13543375239E+04 0.  0.
        3    1    3    3  502    0  0.41727760961E+03 -0.47413147816E+03  0.88674985863E+01  0.63166439254E+03  0.10100000352E+00 0.  1.
       -3    1    3    3    0  502 -0.41727760961E+03  0.47413147816E+03  0.53521724833E+03  0.82787606269E+03  0.10100000352E+00 0. -1.
</event>
<event>
 5   0  0.2236184E-03  0.1394319E+04  0.7818609E-02  0.8957941E-01
       -2   -1    0    0    0  501  0.00000000000E+00  0.00000000000E+00  0.24155700316E+03  0.24155700317E+03  0.25500000920E-02 0.  1.
        2   -1    0    0  501    0  0.00000000000E+00  0.00000000000E+00 -0.20120784035E+04  0.20120784035E+04  0.25500000920E-02 0. -1.
    10030    2    1    2    0    0  0.00000000000E+00  0.00000000000E+00 -0.17705214003E+04  0.22536354066E+04  0.13943193741E+04 0.  0.
        3    1    3    3  502    0  0.19847455467E+03 -0.46535328723E+03 -0.10996693316E+03  0.51772441257E+03  0.10100000352E+00 0.  1.
       -3    1    3    3    0  502 -0.19847455467E+03  0.46535328723E+03 -0.16605544671E+04  0.17359109941E+04  0.10100000352E+00 0. -1.
</event>
<event>
 5   0  0.1238683E-03  0.1414306E+04  0.7818609E-02  0.8943528E-01
        1   -1    0    0  501    0  0.00000000000E+00  0.00000000000E+00  0.78232455691E+03  0.78232455692E+03  0.50400001928E-02 0.  1.
       -1   -1    0    0    0  501  0.00000000000E+00  0.00000000000E+00 -0.63920416808E+03  0.63920416810E+03  0.50400001928E-02 0. -1.
    10030    2    1    2    0    0  0.00000000000E+00  0.00000000000E+00  0.14312038883E+03  0.14215287250E+04  0.14143056496E+04 0.  0.
        2    1    3    3  502    0 -0.38151534357E+03 -0.40395257653E+03 -0.36809058220E+03  0.66650005115E+03  0.25500000920E-02 0. -1.
       -2    1    3    3    0  502  0.38151534357E+03  0.40395257653E+03  0.51121097103E+03  0.75502867387E+03  0.25500000920E-02 0.  1.
</event>
<event>
 5   0  0.1210275E-03  0.1376827E+04  0.7818609E-02  0.8970765E-01
        1   -1    0    0  501    0  0.00000000000E+00  0.00000000000E+00  0.72770121121E+03  0.72770121122E+03  0.50400001928E-02 0.  1.
       -1   -1    0    0    0  501  0.00000000000E+00  0.00000000000E+00 -0.65124727985E+03  0.65124727987E+03  0.50400001928E-02 0. -1.
    10030    2    1    2    0    0  0.00000000000E+00  0.00000000000E+00  0.76453931356E+02  0.13789484911E+04  0.13768274175E+04 0.  0.
        1    1    3    3  502    0  0.17834655327E+03  0.15117532264E+03 -0.61026722601E+03  0.65351936345E+03  0.50400001928E-02 0. -1.
       -1    1    3    3    0  502 -0.17834655327E+03 -0.15117532264E+03  0.68672115736E+03  0.72542912764E+03  0.50400001928E-02 0.  1.
</event>
<event>
 5   0  0.2172901E-03  0.1389241E+04  0.7818609E-02  0.8961643E-01
       -2   -1    0    0    0  501  0.00000000000E+00  0.00000000000E+00  0.64774825794E+03  0.64774825794E+03  0.25500000920E-02 0. -1.
        2   -1    0    0  501    0  0.00000000000E+00  0.00000000000E+00 -0.74488471603E+03  0.74488471604E+03  0.25500000920E-02 0.  1.
    10030    2    1    2    0    0  0.00000000000E+00  0.00000000000E+00 -0.97136458095E+02  0.13926329740E+04  0.13892411989E+04 0.  0.
        2    1    3    3  502    0 -0.45656156566E+03  0.29149099557E+03  0.38732936655E+03  0.66591253324E+03  0.25500000920E-02 0. -1.
       -2    1    3    3    0  502  0.45656156566E+03 -0.29149099557E+03 -0.48446582464E+03  0.72672044074E+03  0.25500000920E-02 0.  1.
</event>
<event>
 5   0  0.1175374E-03  0.1353448E+04  0.7818609E-02  0.8988222E-01
       -1   -1    0    0    0  501  0.00000000000E+00  0.00000000000E+00  0.65614964944E+03  0.65614964946E+03  0.50400001928E-02 0. -1.
        1   -1    0    0  501    0  0.00000000000E+00  0.00000000000E+00 -0.69794333500E+03  0.69794333502E+03  0.50400001928E-02 0.  1.
    10030    2    1    2    0    0  0.00000000000E+00  0.00000000000E+00 -0.41793685565E+02  0.13540929845E+04  0.13534478558E+04 0.  0.
        3    1    3    3  502    0  0.65791103456E+03 -0.11821157890E+03  0.84672919359E+02  0.67378811228E+03  0.10100000352E+00 0. -1.
       -3    1    3    3    0  502 -0.65791103456E+03  0.11821157890E+03 -0.12646660492E+03  0.68030487220E+03  0.10100000352E+00 0.  1.
</event>
<event>
 5   0  0.2195980E-03  0.1455290E+04  0.7818609E-02  0.8914741E-01
        2   -1    0    0  501    0  0.00000000000E+00  0.00000000000E+00  0.10935072390E+04  0.10935072390E+04  0.25500000920E-02 0.  1.
       -2   -1    0    0    0  501  0.00000000000E+00  0.00000000000E+00 -0.48419160430E+03  0.48419160431E+03  0.25500000920E-02 0. -1.
    10030    2    1    2    0    0  0.00000000000E+00  0.00000000000E+00  0.60931563469E+03  0.15776988433E+04  0.14552896954E+04 0.  0.
        4    1    3    3  502    0 -0.16673068730E+02  0.20585129347E+03  0.10610649008E+04  0.10809778365E+04  0.12699999809E+01 0.  1.
       -4    1    3    3    0  502  0.16673068730E+02 -0.20585129347E+03 -0.45174926616E+03  0.49672100683E+03  0.12699999809E+01 0. -1.
</event>
<event>
 5   0  0.2236184E-03  0.1422919E+04  0.7818609E-02  0.8937394E-01
        2   -1    0    0  501    0  0.00000000000E+00  0.00000000000E+00  0.14446959479E+04  0.14446959479E+04  0.25500000920E-02 0.  1.
       -2   -1    0    0    0  501  0.00000000000E+00  0.00000000000E+00 -0.35036755823E+03  0.35036755824E+03  0.25500000920E-02 0. -1.
    10030    2    1    2    0    0  0.00000000000E+00  0.00000000000E+00  0.10943283897E+04  0.17950635061E+04  0.14229189600E+04 0.  0.
        3    1    3    3  502    0  0.16676577912E+03  0.64859771722E+03  0.24417287463E+03  0.71281850900E+03  0.10100000352E+00 0. -1.
       -3    1    3    3    0  502 -0.16676577912E+03 -0.64859771722E+03  0.85015551503E+03  0.10822449971E+04  0.10100000352E+00 0.  1.
</event>
<event>
 5   0  0.2190704E-03  0.1407143E+04  0.7818609E-02  0.8948664E-01
       -2   -1    0    0    0  501  0.00000000000E+00  0.00000000000E+00  0.76950027538E+03  0.76950027539E+03  0.25500000920E-02 0. -1.
        2   -1    0    0  501    0  0.00000000000E+00  0.00000000000E+00 -0.64329134951E+03  0.64329134952E+03  0.25500000920E-02 0.  1.
    10030    2    1    2    0    0  0.00000000000E+00  0.00000000000E+00  0.12620892587E+03  0.14127916249E+04  0.14071430213E+04 0.  0.
        5    1    3    3  502    0  0.40131184124E+03 -0.11537980272E+02  0.64318359223E+03  0.75821602609E+03  0.46999998093E+01 0. -1.
       -5    1    3    3    0  502 -0.40131184124E+03  0.11537980272E+02 -0.51697466636E+03  0.65457559881E+03  0.46999998093E+01 0.  1.
</event>
<event>
 5   0  0.1225690E-03  0.1395303E+04  0.7818609E-02  0.8957226E-01
        1   -1    0    0  501    0  0.00000000000E+00  0.00000000000E+00  0.88681088179E+03  0.88681088181E+03  0.50400001928E-02 0. -1.
       -1   -1    0    0    0  501  0.00000000000E+00  0.00000000000E+00 -0.54884022520E+03  0.54884022522E+03  0.50400001928E-02 0.  1.
    10030    2    1    2    0    0  0.00000000000E+00  0.00000000000E+00  0.33797065659E+03  0.14356511070E+04  0.13953028117E+04 0.  0.
        4    1    3    3  502    0 -0.55398183278E+02  0.36691141579E+03 -0.43888006350E+03  0.57472625552E+03  0.12699999809E+01 0.  1.
       -4    1    3    3    0  502  0.55398183278E+02 -0.36691141579E+03  0.77685072009E+03  0.86092485151E+03  0.12699999809E+01 0. -1.
</event>
<event>
 5   0  0.1175374E-03  0.1395062E+04  0.7818609E-02  0.8957401E-01
       -1   -1    0    0    0  501  0.00000000000E+00  0.00000000000E+00  0.31187778360E+03  0.31187778364E+03  0.50400001928E-02 0.  1.
        1   -1    0    0  501    0  0.00000000000E+00  0.00000000000E+00 -0.15600635596E+04  0.15600635596E+04  0.50400001928E-02 0. -1.
    10030    2    1    2    0    0  0.00000000000E+00  0.00000000000E+00 -0.12481857760E+04  0.18719413432E+04  0.13950615259E+04 0.  0.
        3    1    3    3  502    0  0.87445354292E+02 -0.51054391091E+03 -0.12509569811E+04  0.13539553736E+04  0.10100000352E+00 0. -1.
       -3    1    3    3    0  502 -0.87445354292E+02  0.51054391091E+03  0.27712051141E+01  0.51798596963E+03  0.10100000352E+00 0.  1.
</event>
<event>
 5   0  0.1199720E-03  0.1410906E+04  0.7818609E-02  0.8945962E-01
        1   -1    0    0  501    0  0.00000000000E+00  0.00000000000E+00  0.24485057372E+04  0.24485057372E+04  0.50400001928E-02 0. -1.
       -1   -1    0    0    0  501  0.00000000000E+00  0.00000000000E+00 -0.20325210005E+03  0.20325210011E+03  0.50400001928E-02 0.  1.
    10030    2    1    2    0    0  0.00000000000E+00  0.00000000000E+00  0.22452536371E+04  0.26517578373E+04  0.14109059971E+04 0.  0.
        5    1    3    3  502    0 -0.19166803372E+03 -0.57472322441E+03  0.44341575952E+03  0.75078828282E+03  0.46999998093E+01 0.  1.
       -5    1    3    3    0  502  0.19166803372E+03  0.57472322441E+03  0.18018378776E+04  0.19009695545E+04  0.46999998093E+01 0. -1.
</event>
<event>
 5   0  0.2195980E-03  0.1226830E+04  0.7818609E-02  0.9089691E-01
       -2   -1    0    0    0  501  0.00000000000E+00  0.00000000000E+00  0.32588928881E+03  0.32588928882E+03  0.25500000920E-02 0.  1.
        2   -1    0    0  501    0  0.00000000000E+00  0.00000000000E+00 -0.11546183011E+04  0.11546183011E+04  0.25500000920E-02 0. -1.
    10030    2    1    2    0    0  0.00000000000E+00  0.00000000000E+00 -0.82872901225E+03  0.14805075899E+04  0.12268296328E+04 0.  0.
        4    1    3    3  502    0  0.19634370119E+03  0.74645651023E+02  0.28113314532E+03  0.35094199023E+03  0.12699999809E+01 0.  1.
       -4    1    3    3    0  502 -0.19634370119E+03 -0.74645651023E+02 -0.11098621576E+04  0.11295655997E+04  0.12699999809E+01 0. -1.
</event>
<event>
 5   0  0.2083966E-03  0.1376229E+04  0.7818609E-02  0.8971207E-01
       -2   -1    0    0    0  501  0.00000000000E+00  0.00000000000E+00  0.17154552695E+04  0.17154552695E+04  0.25500000920E-02 0. -1.
        2   -1    0    0  501    0  0.00000000000E+00  0.00000000000E+00 -0.27602093799E+03  0.27602093801E+03  0.25500000920E-02 0.  1.
    10030    2    1    2    0    0  0.00000000000E+00  0.00000000000E+00  0.14394343315E+04  0.19914762075E+04  0.13762290109E+04 0.  0.
        1    1    3    3  502    0 -0.35834037015E+03  0.49619976755E+03  0.26468967298E+03  0.66684529931E+03  0.50400001928E-02 0.  1.
       -1    1    3    3    0  502  0.35834037015E+03 -0.49619976755E+03  0.11747446585E+04  0.13246309082E+04  0.50400001928E-02 0. -1.
</event>
<event>
 5   0  0.2190704E-03  0.1382256E+04  0.7818609E-02  0.8966764E-01
        2   -1    0    0  501    0  0.00000000000E+00  0.00000000000E+00  0.15794502149E+04  0.15794502149E+04  0.25500000920E-02 0. -1.
       -2   -1    0    0    0  501  0.00000000000E+00  0.00000000000E+00 -0.30242040557E+03  0.30242040558E+03  0.25500000920E-02 0.  1.
    10030    2    1    2    0    0  0.00000000000E+00  0.00000000000E+00  0.12770298093E+04  0.18818706205E+04  0.13822560900E+04 0.  0.
        5    1    3    3  502    0  0.21588266172E+03  0.15099068822E+03  0.15083861418E+04  0.15312264217E+04  0.46999998093E+01 0. -1.
       -5    1    3    3    0  502 -0.21588266172E+03 -0.15099068822E+03 -0.23135633251E+03  0.35064419880E+03  0.46999998093E+01 0.  1.
</event>
<event>
 5   0  0.2195980E-03  0.1390662E+04  0.7818609E-02  0.8960606E-01
        2   -1    0    0  501    0  0.00000000000E+00  0.00000000000E+00  0.13173343576E+04  0.13173343576E+04  0.25500000920E-02 0. -1.
       -2   -1    0    0    0  501  0.00000000000E+00  0.00000000000E+00 -0.36701784114E+03  0.36701784115E+03  0.25500000920E-02 0.  1.
    10030    2    1    2    0    0  0.00000000000E+00  0.00000000000E+00  0.95031651646E+03  0.16843521988E+04  0.13906620179E+04 0.  0.
        4    1    3    3  502    0  0.15773185936E+03  0.29652287432E+03 -0.26225336813E+03  0.42612626819E+03  0.12699999809E+01 0.  1.
       -4    1    3    3    0  502 -0.15773185936E+03 -0.29652287432E+03  0.12125698846E+04  0.12582259306E+04  0.12699999809E+01 0. -1.
</event>
<event>
 5   0  0.2172901E-03  0.1399005E+04  0.7818609E-02  0.8954539E-01
       -2   -1    0    0    0  501  0.00000000000E+00  0.00000000000E+00  0.61511138262E+03  0.61511138262E+03  0.25500000920E-02 0. -1.
        2   -1    0    0  501    0  0.00000000000E+00  0.00000000000E+00 -0.79547147089E+03  0.79547147090E+03  0.25500000920E-02 0.  1.
    10030    2    1    2    0    0  0.00000000000E+00  0.00000000000E+00 -0.18036008828E+03  0.14105828535E+04  0.13990047267E+04 0.  0.
        2    1    3    3  502    0  0.11947090882E+03  0.94317465032E+02 -0.77857080094E+03  0.79331051572E+03  0.25500000920E-02 0.  1.
       -2    1    3    3    0  502 -0.11947090882E+03 -0.94317465032E+02  0.59821071266E+03  0.61727233780E+03  0.25500000920E-02 0. -1.
</event>
<event>
 5   0  0.2190704E-03  0.1383089E+04  0.7818609E-02  0.8966152E-01
        2   -1    0    0  501    0  0.00000000000E+00  0.00000000000E+00  0.11884637114E+04  0.11884637114E+04  0.25500000920E-02 0.  1.
       -2   -1    0    0    0  501  0.00000000000E+00  0.00000000000E+00 -0.40239634233E+03  0.40239634233E+03  0.25500000920E-02 0. -1.
    10030    2    1    2    0    0  0.00000000000E+00  0.00000000000E+00  0.78606736910E+03  0.15908600538E+04  0.13830885011E+04 0.  0.
        5    1    3    3  502    0 -0.16196010833E+03 -0.53745249805E+02  0.11638475816E+04  0.11763005194E+04  0.46999998093E+01 0.  1.
       -5    1    3    3    0  502  0.16196010833E+03  0.53745249805E+02 -0.37778021255E+03  0.41455953439E+03  0.46999998093E+01 0. -1.
</event>
<event>
 5   0  0.2190704E-03  0.1416939E+04  0.7818609E-02  0.8941648E-01
       -2   -1    0    0    0  501  0.00000000000E+00  0.00000000000E+00  0.34664678529E+03  0.34664678530E+03  0.25500000920E-02 0. -1.
        2   -1    0    0  501    0  0.00000000000E+00  0.00000000000E+00 -0.14479553661E+04  0.14479553661E+04  0.25500000920E-02 0.  1.
    10030    2    1    2    0    0  0.00000000000E+00  0.00000000000E+00 -0.11013085808E+04  0.17946021514E+04  0.14169390572E+04 0.  0.
        5    1    3    3  502    0 -0.59003642364E+03 -0.21245041444E+03 -0.13321862735E+03  0.64112982499E+03  0.46999998093E+01 0. -1.
       -5    1    3    3    0  502  0.59003642364E+03  0.21245041444E+03 -0.96808995349E+03  0.11534723264E+04  0.46999998093E+01 0.  1.
</event>
<event>
 5   0  0.1238683E-03  0.1850364E+04  0.7818609E-02  0.8679966E-01
        1   -1    0    0  501    0  0.00000000000E+00  0.00000000000E+00  0.72205441698E+03  0.72205441700E+03  0.50400001928E-02 0. -1.
       -1   -1    0    0    0  501  0.00000000000E+00  0.00000000000E+00 -0.11854531337E+04  0.11854531337E+04  0.50400001928E-02 0.  1.
    10030    2    1    2    0    0  0.00000000000E+00  0.00000000000E+00 -0.46339871667E+03  0.19075075507E+04  0.18503639332E+04 0.  0.
        2    1    3    3  502    0 -0.43742889712E+03 -0.16407854105E+03  0.59152063795E+03  0.75376552906E+03  0.25500000920E-02 0. -1.
       -2    1    3    3    0  502  0.43742889712E+03  0.16407854105E+03 -0.10549193546E+04  0.11537420216E+04  0.25500000920E-02 0.  1.
</event>
<event>
 5   0  0.1238683E-03  0.1363153E+04  0.7818609E-02  0.8980931E-01
       -1   -1    0    0    0  501  0.00000000000E+00  0.00000000000E+00  0.56581971027E+03  0.56581971029E+03  0.50400001928E-02 0.  1.
        1   -1    0    0  501    0  0.00000000000E+00  0.00000000000E+00 -0.82101503062E+03  0.82101503064E+03  0.50400001928E-02 0. -1.
    10030    2    1    2    0    0  0.00000000000E+00  0.00000000000E+00 -0.25519532035E+03  0.13868347409E+04  0.13631529434E+04 0.  0.
        2    1    3    3  502    0 -0.16097010392E+03  0.54259742108E+03 -0.51396251701E+03  0.76451344306E+03  0.25500000920E-02 0. -1.
       -2    1    3    3    0  502  0.16097010392E+03 -0.54259742108E+03  0.25876719666E+03  0.62232129788E+03  0.25500000920E-02 0.  1.
</event>
<event>
 5   0  0.8293000E-04  0.1404347E+04  0.7818609E-02  0.8950678E-01
       -4   -1    0    0    0  501  0.00000000000E+00  0.00000000000E+00  0.10962576633E+04  0.10962583990E+04  0.12699999809E+01 0.  1.
        4   -1    0    0  501    0  0.00000000000E+00  0.00000000000E+00 -0.44975368316E+03  0.44975547625E+03  0.12699999809E+01 0. -1.
    10030    2    1    2    0    0  0.00000000000E+00  0.00000000000E+00  0.64650398015E+03  0.15460138752E+04  0.14043473594E+04 0.  0.
        4    1    3    3  502    0 -0.32810830827E+03  0.61056693312E+03  0.44682132418E+03  0.82468051415E+03  0.12699999809E+01 0.  1.
       -4    1    3    3    0  502  0.32810830827E+03 -0.61056693312E+03  0.19968265597E+03  0.72133336105E+03  0.12699999809E+01 0. -1.
</event>
<event>
 5   0  0.1199720E-03  0.1393666E+04  0.7818609E-02  0.8958416E-01
       -1   -1    0    0    0  501  0.00000000000E+00  0.00000000000E+00  0.86716818621E+03  0.86716818623E+03  0.50400001928E-02 0.  1.
        1   -1    0    0  501    0  0.00000000000E+00  0.00000000000E+00 -0.55995649610E+03  0.55995649612E+03  0.50400001928E-02 0. -1.
    10030    2    1    2    0    0  0.00000000000E+00  0.00000000000E+00  0.30721169012E+03  0.14271246823E+04  0.13936663289E+04 0.  0.
        5    1    3    3  502    0  0.91784332609E+02  0.51462370211E+03  0.62541936875E+03  0.81512783985E+03  0.46999998093E+01 0.  1.
       -5    1    3    3    0  502 -0.91784332609E+02 -0.51462370211E+03 -0.31820767864E+03  0.61199684250E+03  0.46999998093E+01 0. -1.
</event>
<event>
 5   0  0.2236184E-03  0.1363140E+04  0.7818609E-02  0.8980941E-01
        2   -1    0    0  501    0  0.00000000000E+00  0.00000000000E+00  0.17518675142E+04  0.17518675142E+04  0.25500000920E-02 0.  1.
       -2   -1    0    0    0  501  0.00000000000E+00  0.00000000000E+00 -0.26516699583E+03  0.26516699584E+03  0.25500000920E-02 0. -1.
    10030    2    1    2    0    0  0.00000000000E+00  0.00000000000E+00  0.14867005183E+04  0.20170345100E+04  0.13631396786E+04 0.  0.
        3    1    3    3  502    0 -0.53888160684E+03 -0.41306455733E+03  0.65553895299E+03  0.94379396258E+03  0.10100000352E+00 0.  1.
       -3    1    3    3    0  502  0.53888160684E+03  0.41306455733E+03  0.83116156535E+03  0.10732405474E+04  0.10100000352E+00 0. -1.
</event>
<event>
 5   0  0.1210275E-03  0.1398082E+04  0.7818609E-02  0.8955208E-01
       -1   -1    0    0    0  501  0.00000000000E+00  0.00000000000E+00  0.44683464654E+03  0.44683464657E+03  0.50400001928E-02 0.  1.
        1   -1    0    0  501    0  0.00000000000E+00  0.00000000000E+00 -0.10935991657E+04  0.10935991657E+04  0.50400001928E-02 0. -1.
    10030    2    1    2    0    0  0.00000000000E+00  0.00000000000E+00 -0.64676451914E+03  0.15404338123E+04  0.13980815379E+04 0.  0.
        1    1    3    3  502    0 -0.40893659037E+03 -0.12308402218E+02  0.30114385993E+03  0.50800418906E+03  0.50400001928E-02 0.  1.
       -1    1    3    3    0  502  0.40893659037E+03  0.12308402218E+02 -0.94790837907E+03  0.10324296232E+04  0.50400001928E-02 0. -1.
</event>
<event>
 5   0  0.1238683E-03  0.1241309E+04  0.7818609E-02  0.9077448E-01
        1   -1    0    0  501    0  0.00000000000E+00  0.00000000000E+00  0.21152220376E+04  0.21152220376E+04  0.50400001928E-02 0.  1.
       -1   -1    0    0    0  501  0.00000000000E+00  0.00000000000E+00 -0.18211429371E+03  0.18211429378E+03  0.50400001928E-02 0. -1.
    10030    2    1    2    0    0  0.00000000000E+00  0.00000000000E+00  0.19331077439E+04  0.22973363314E+04  0.12413092564E+04 0.  0.
        2    1    3    3  502    0 -0.54068651084E+03  0.13518344463E+03  0.14720309729E+04  0.15740049720E+04  0.25500000920E-02 0.  1.
       -2    1    3    3    0  502  0.54068651084E+03 -0.13518344463E+03  0.46107677100E+03  0.72333135938E+03  0.25500000920E-02 0. -1.
</event>
<event>
 5   0  0.1199720E-03  0.1326179E+04  0.7818609E-02  0.9009059E-01
       -1   -1    0    0    0  501  0.00000000000E+00  0.00000000000E+00  0.42302569213E+03  0.42302569216E+03  0.50400001928E-02 0. -1.
        1   -1    0    0  501    0  0.00000000000E+00  0.00000000000E+00 -0.10393877502E+04  0.10393877502E+04  0.50400001928E-02 0.  1.
    10030    2    1    2    0    0  0.00000000000E+00  0.00000000000E+00 -0.61636205811E+03  0.14624134424E+04  0.13261790565E+04 0.  0.
        5    1    3    3  502    0  0.56968603663E+03 -0.83661399797E+01 -0.68222085557E+03  0.88885294531E+03  0.46999998093E+01 0.  1.
       -5    1    3    3    0  502 -0.56968603663E+03  0.83661399797E+01  0.65858797459E+02  0.57356049709E+03  0.46999998093E+01 0. -1.
</event>
<event>
 5   0  0.2172901E-03  0.1309727E+04  0.7818609E-02  0.9021887E-01
       -2   -1    0    0    0  501  0.00000000000E+00  0.00000000000E+00  0.64115218357E+03  0.64115218357E+03  0.25500000920E-02 0. -1.
        2   -1    0    0  501    0  0.00000000000E+00  0.00000000000E+00 -0.66886805343E+03  0.66886805344E+03  0.25500000920E-02 0.  1.
    10030    2    1    2    0    0  0.00000000000E+00  0.00000000000E+00 -0.27715869868E+02  0.13100202370E+04  0.13097270143E+04 0.  0.
        2    1    3    3  502    0 -0.59168671502E+02 -0.50698388524E+03 -0.42420899654E+03  0.66369184441E+03  0.25500000920E-02 0.  1.
       -2    1    3    3    0  502  0.59168671502E+02  0.50698388524E+03  0.39649312667E+03  0.64632839260E+03  0.25500000920E-02 0. -1.
</event>
<event>
 5   0  0.2195980E-03  0.1375831E+04  0.7818609E-02  0.8971501E-01
       -2   -1    0    0    0  501  0.00000000000E+00  0.00000000000E+00  0.45524547397E+03  0.45524547398E+03  0.25500000920E-02 0.  1.
        2   -1    0    0  501    0  0.00000000000E+00  0.00000000000E+00 -0.10395007794E+04  0.10395007794E+04  0.25500000920E-02 0. -1.
    10030    2    1    2    0    0  0.00000000000E+00  0.00000000000E+00 -0.58425530545E+03  0.14947462534E+04  0.13758314214E+04 0.  0.
        4    1    3    3  502    0  0.48178602658E+03 -0.34938841904E+03 -0.66696433567E+03  0.89388650326E+03  0.12699999809E+01 0. -1.
       -4    1    3    3    0  502 -0.48178602658E+03  0.34938841904E+03  0.82709030216E+02  0.60085975015E+03  0.12699999809E+01 0.  1.
</event>
<event>
 5   0  0.1175374E-03  0.1416015E+04  0.7818609E-02  0.8942307E-01
       -1   -1    0    0    0  501  0.00000000000E+00  0.00000000000E+00  0.17170608244E+03  0.17170608252E+03  0.50400001928E-02 0.  1.
        1   -1    0    0  501    0  0.00000000000E+00  0.00000000000E+00 -0.29193769646E+04  0.29193769646E+04  0.50400001928E-02 0. -1.
    10030    2    1    2    0    0  0.00000000000E+00  0.00000000000E+00 -0.27476708822E+04  0.30910830471E+04  0.14160152286E+04 0.  0.
        3    1    3    3  502    0  0.63865547957E+03 -0.28033146104E+03 -0.16394758917E+04  0.17816699356E+04  0.10100000352E+00 0. -1.
       -3    1    3    3    0  502 -0.63865547957E+03  0.28033146104E+03 -0.11081949904E+04  0.13094131115E+04  0.10100000352E+00 0.  1.
</event>
<event>
 5   0  0.2172901E-03  0.1409835E+04  0.7818609E-02  0.8946730E-01
        2   -1    0    0  501    0  0.00000000000E+00  0.00000000000E+00  0.15217028279E+04  0.15217028279E+04  0.25500000920E-02 0.  1.
       -2   -1    0    0    0  501  0.00000000000E+00  0.00000000000E+00 -0.32654794351E+03  0.32654794352E+03  0.25500000920E-02 0. -1.
    10030    2    1    2    0    0  0.00000000000E+00  0.00000000000E+00  0.11951548844E+04  0.18482507714E+04  0.14098353508E+04 0.  0.
        2    1    3    3  502    0  0.55613483921E+03  0.39679240406E+02  0.32112585792E+02  0.55847257737E+03  0.25500000920E-02 0. -1.
       -2    1    3    3    0  502 -0.55613483921E+03 -0.39679240406E+02  0.11630422986E+04  0.12897781940E+04  0.25500000920E-02 0.  1.
</event>
<event>
 5   0  0.1199720E-03  0.1414888E+04  0.7818609E-02  0.8943112E-01
        1   -1    0    0  501    0  0.00000000000E+00  0.00000000000E+00  0.11583504482E+04  0.11583504482E+04  0.50400001928E-02 0.  1.
       -1   -1    0    0    0  501  0.00000000000E+00  0.00000000000E+00 -0.43206032637E+03  0.43206032640E+03  0.50400001928E-02 0. -1.
    10030    2    1    2    0    0  0.00000000000E+00  0.00000000000E+00  0.72629012187E+03  0.15904107746E+04  0.14148883670E+04 0.  0.
        5    1    3    3  502    0 -0.27823216070E+03  0.28958304472E+03 -0.29149808476E+03  0.49625064076E+03  0.46999998093E+01 0. -1.
       -5    1    3    3    0  502  0.27823216070E+03 -0.28958304472E+03  0.10177882066E+04  0.10941601339E+04  0.46999998093E+01 0.  1.
</event>
<event>
 5   0  0.8293000E-04  0.1396550E+04  0.7818609E-02  0.8956320E-01
       -3   -1    0    0    0  501  0.00000000000E+00  0.00000000000E+00  0.63532176020E+03  0.63532176823E+03  0.10100000352E+00 0. -1.
        3   -1    0    0  501    0  0.00000000000E+00  0.00000000000E+00 -0.76746580215E+03  0.76746580880E+03  0.10100000352E+00 0.  1.
    10030    2    1    2    0    0  0.00000000000E+00  0.00000000000E+00 -0.13214404195E+03  0.14027875770E+04  0.13965496548E+04 0.  0.
        1    1    3    3  502    0 -0.14186142646E+03  0.48138674389E+02  0.61899025405E+03  0.63686021302E+03  0.50400001928E-02 0. -1.
       -1    1    3    3    0  502  0.14186142646E+03 -0.48138674389E+02 -0.75113429600E+03  0.76592736401E+03  0.50400001928E-02 0.  1.
</event>
<event>
 5   0  0.1225690E-03  0.1367893E+04  0.7818609E-02  0.8977393E-01
        1   -1    0    0  501    0  0.00000000000E+00  0.00000000000E+00  0.12559030776E+04  0.12559030776E+04  0.50400001928E-02 0.  1.
       -1   -1    0    0    0  501  0.00000000000E+00  0.00000000000E+00 -0.37246742018E+03  0.37246742021E+03  0.50400001928E-02 0. -1.
    10030    2    1    2    0    0  0.00000000000E+00  0.00000000000E+00  0.88343565737E+03  0.16283704978E+04  0.13678932405E+04 0.  0.
        4    1    3    3  502    0  0.30698457349E+03  0.79609730065E+02  0.11630823851E+04  0.12055453061E+04  0.12699999809E+01 0.  1.
       -4    1    3    3    0  502 -0.30698457349E+03 -0.79609730065E+02 -0.27964672777E+03  0.42282519170E+03  0.12699999809E+01 0. -1.
</event>
<event>
 5   0  0.1238683E-03  0.1417129E+04  0.7818609E-02  0.8941513E-01
        1   -1    0    0  501    0  0.00000000000E+00  0.00000000000E+00  0.13365257037E+04  0.13365257038E+04  0.50400001928E-02 0.  1.
       -1   -1    0    0    0  501  0.00000000000E+00  0.00000000000E+00 -0.37564807996E+03  0.37564807999E+03  0.50400001928E-02 0. -1.
    10030    2    1    2    0    0  0.00000000000E+00  0.00000000000E+00  0.96087762379E+03  0.17121737837E+04  0.14171285255E+04 0.  0.
        2    1    3    3  502    0  0.30391257578E+03  0.62906373758E+03  0.33758858846E+03  0.77591887123E+03  0.25500000920E-02 0. -1.
       -2    1    3    3    0  502 -0.30391257578E+03 -0.62906373758E+03  0.62328903532E+03  0.93625491252E+03  0.25500000920E-02 0.  1.
</event>
<event>
 5   0  0.1199720E-03  0.1402280E+04  0.7818609E-02  0.8952170E-01
        1   -1    0    0  501    0  0.00000000000E+00  0.00000000000E+00  0.74645116573E+03  0.74645116575E+03  0.50400001928E-02 0.  1.
       -1   -1    0    0    0  501  0.00000000000E+00  0.00000000000E+00 -0.65857968957E+03  0.65857968959E+03  0.50400001928E-02 0. -1.
    10030    2    1    2    0    0  0.00000000000E+00  0.00000000000E+00  0.87871476166E+02  0.14050308553E+04  0.14022803957E+04 0.  0.
        5    1    3    3  502    0 -0.55356755016E+02  0.33405708714E+03  0.65907557071E+03  0.74098664340E+03  0.46999998093E+01 0.  1.
       -5    1    3    3    0  502  0.55356755016E+02 -0.33405708714E+03 -0.57120409454E+03  0.66404421194E+03  0.46999998093E+01 0. -1.
</event>
<event>
 5   0  0.1210275E-03  0.1413874E+04  0.7818609E-02  0.8943837E-01
       -1   -1    0    0    0  501  0.00000000000E+00  0.00000000000E+00  0.50142249330E+03  0.50142249332E+03  0.50400001928E-02 0.  1.
        1   -1    0    0  501    0  0.00000000000E+00  0.00000000000E+00 -0.99668389368E+03  0.99668389369E+03  0.50400001928E-02 0. -1.
    10030    2    1    2    0    0  0.00000000000E+00  0.00000000000E+00 -0.49526140038E+03  0.14981063870E+04  0.14138737186E+04 0.  0.
        1    1    3    3  502    0 -0.14746489669E+03  0.38385038923E+02 -0.97907608437E+03  0.99086289969E+03  0.50400001928E-02 0. -1.
       -1    1    3    3    0  502  0.14746489669E+03 -0.38385038923E+02  0.48381468399E+03  0.50724348733E+03  0.50400001928E-02 0.  1.
</event>
<event>
 5   0  0.2236184E-03  0.1391135E+04  0.7818609E-02  0.8960260E-01
       -2   -1    0    0    0  501  0.00000000000E+00  0.00000000000E+00  0.45862059291E+03  0.45862059292E+03  0.25500000920E-02 0. -1.
        2   -1    0    0  501    0  0.00000000000E+00  0.00000000000E+00 -0.10549340144E+04  0.10549340144E+04  0.25500000920E-02 0.  1.
    10030    2    1    2    0    0  0.00000000000E+00  0.00000000000E+00 -0.59631342149E+03  0.15135546073E+04  0.13911354545E+04 0.  0.
        3    1    3    3  502    0 -0.63088797221E+03 -0.26891230372E+03 -0.42448179809E+03  0.80654712676E+03  0.10100000352E+00 0.  1.
       -3    1    3    3    0  502  0.63088797221E+03  0.26891230372E+03 -0.17183162339E+03  0.70700748056E+03  0.10100000352E+00 0. -1.
</event>
<event>
 5   0  0.2236184E-03  0.1347871E+04  0.7818609E-02  0.8992441E-01
       -2   -1    0    0    0  501  0.00000000000E+00  0.00000000000E+00  0.99773195511E+03  0.99773195512E+03  0.25500000920E-02 0. -1.
        2   -1    0    0  501    0  0.00000000000E+00  0.00000000000E+00 -0.45522159509E+03  0.45522159509E+03  0.25500000920E-02 0.  1.
    10030    2    1    2    0    0  0.00000000000E+00  0.00000000000E+00  0.54251036003E+03  0.14529535502E+04  0.13478711097E+04 0.  0.
        3    1    3    3  502    0  0.27573450851E+03  0.27460984021E+02 -0.39097272403E+03  0.47921112880E+03  0.10100000352E+00 0.  1.
       -3    1    3    3    0  502 -0.27573450851E+03 -0.27460984021E+02  0.93348308406E+03  0.97374242141E+03  0.10100000352E+00 0. -1.
</event>
<event>
 5   0  0.1199720E-03  0.1502787E+04  0.7818609E-02  0.8882602E-01
        1   -1    0    0  501    0  0.00000000000E+00  0.00000000000E+00  0.63564459262E+03  0.63564459264E+03  0.50400001928E-02 0.  1.
       -1   -1    0    0    0  501  0.00000000000E+00  0.00000000000E+00 -0.88822005328E+03  0.88822005329E+03  0.50400001928E-02 0. -1.
    10030    2    1    2    0    0  0.00000000000E+00  0.00000000000E+00 -0.25257546066E+03  0.15238646459E+04  0.15027871093E+04 0.  0.
        5    1    3    3  502    0  0.21000872350E+03 -0.66832963002E+03 -0.40176328954E+03  0.80759147416E+03  0.46999998093E+01 0. -1.
       -5    1    3    3    0  502 -0.21000872350E+03  0.66832963002E+03  0.14918782888E+03  0.71627317177E+03  0.46999998093E+01 0.  1.
</event>
<event>
 5   0  0.1175374E-03  0.1352886E+04  0.7818609E-02  0.8988646E-01
       -1   -1    0    0    0  501  0.00000000000E+00  0.00000000000E+00  0.53148219993E+03  0.53148219995E+03  0.50400001928E-02 0.  1.
        1   -1    0    0  501    0  0.00000000000E+00  0.00000000000E+00 -0.86094140603E+03  0.86094140605E+03  0.50400001928E-02 0. -1.
    10030    2    1    2    0    0  0.00000000000E+00  0.00000000000E+00 -0.32945920610E+03  0.13924236060E+04  0.13528858526E+04 0.  0.
        3    1    3    3  502    0 -0.38397528249E+03 -0.16431508846E+03  0.38292876612E+03  0.56663119926E+03  0.10100000352E+00 0.  1.
       -3    1    3    3    0  502  0.38397528249E+03  0.16431508846E+03 -0.71238797222E+03  0.82579240674E+03  0.10100000352E+00 0. -1.
</event>
<event>
 5   0  0.1175374E-03  0.1417909E+04  0.7818609E-02  0.8940956E-01
       -1   -1    0    0    0  501  0.00000000000E+00  0.00000000000E+00  0.49243077588E+03  0.49243077591E+03  0.50400001928E-02 0. -1.
        1   -1    0    0  501    0  0.00000000000E+00  0.00000000000E+00 -0.10206846412E+04  0.10206846412E+04  0.50400001928E-02 0.  1.
    10030    2    1    2    0    0  0.00000000000E+00  0.00000000000E+00 -0.52825386529E+03  0.15131154171E+04  0.14179090659E+04 0.  0.
        3    1    3    3  502    0 -0.61621495489E+03  0.17398581982E+03 -0.58890508814E+03  0.86994318732E+03  0.10100000352E+00 0.  1.
       -3    1    3    3    0  502  0.61621495489E+03 -0.17398581982E+03  0.60651222842E+02  0.64317222978E+03  0.10100000352E+00 0. -1.
</event>
<event>
 5   0  0.2172901E-03  0.1334761E+04  0.7818609E-02  0.9002444E-01
        2   -1    0    0  501    0  0.00000000000E+00  0.00000000000E+00  0.21770851318E+04  0.21770851318E+04  0.25500000920E-02 0. -1.
       -2   -1    0    0    0  501  0.00000000000E+00  0.00000000000E+00 -0.20458404584E+03  0.20458404586E+03  0.25500000920E-02 0.  1.
    10030    2    1    2    0    0  0.00000000000E+00  0.00000000000E+00  0.19725010860E+04  0.23816691777E+04  0.13347612287E+04 0.  0.
        2    1    3    3  502    0  0.13980161626E+03  0.48204532199E+03  0.17711267564E+04  0.18408699497E+04  0.25500000920E-02 0. -1.
       -2    1    3    3    0  502 -0.13980161626E+03 -0.48204532199E+03  0.20137432952E+03  0.54079922796E+03  0.25500000920E-02 0.  1.
</event>
<event>
 5   0  0.2172901E-03  0.1397625E+04  0.7818609E-02  0.8955539E-01
        2   -1    0    0  501    0  0.00000000000E+00  0.00000000000E+00  0.11918520134E+04  0.11918520134E+04  0.25500000920E-02 0.  1.
       -2   -1    0    0    0  501  0.00000000000E+00  0.00000000000E+00 -0.40973116420E+03  0.40973116421E+03  0.25500000920E-02 0. -1.
    10030    2    1    2    0    0  0.00000000000E+00  0.00000000000E+00  0.78212084919E+03  0.16015831776E+04  0.13976250041E+04 0.  0.
        2    1    3    3  502    0  0.49430461867E+02  0.53817573026E+03 -0.11660480350E+03  0.55287717208E+03  0.25500000920E-02 0. -1.
       -2    1    3    3    0  502 -0.49430461867E+02 -0.53817573026E+03  0.89872565269E+03  0.10487060055E+04  0.25500000920E-02 0.  1.
</event>
<event>
 5   0  0.1225690E-03  0.1246469E+04  0.7818609E-02  0.9073127E-01
        1   -1    0    0  501    0  0.00000000000E+00  0.00000000000E+00  0.43204504630E+03  0.43204504633E+03  0.50400001928E-02 0.  1.
       -1   -1    0    0    0  501  0.00000000000E+00  0.00000000000E+00 -0.89902923935E+03  0.89902923936E+03  0.50400001928E-02 0. -1.
    10030    2    1    2    0    0  0.00000000000E+00  0.00000000000E+00 -0.46698419305E+03  0.13310742857E+04  0.12464688193E+04 0.  0.
        4    1    3    3  502    0  0.44309346889E+03  0.32106255308E+02 -0.70026132569E+03  0.82929498429E+03  0.12699999809E+01 0. -1.
       -4    1    3    3    0  502 -0.44309346889E+03 -0.32106255308E+02  0.23327713264E+03  0.50177930141E+03  0.12699999809E+01 0.  1.
</event>
<event>
 5   0  0.2083966E-03  0.1416970E+04  0.7818609E-02  0.8941626E-01
        2   -1    0    0  501    0  0.00000000000E+00  0.00000000000E+00  0.28920955164E+03  0.28920955165E+03  0.25500000920E-02 0. -1.
       -2   -1    0    0    0  501  0.00000000000E+00  0.00000000000E+00 -0.17355951652E+04  0.17355951652E+04  0.25500000920E-02 0.  1.
    10030    2    1    2    0    0  0.00000000000E+00  0.00000000000E+00 -0.14463856136E+04  0.20248047169E+04  0.14169695827E+04 0.  0.
        1    1    3    3  502    0  0.68614792130E+03  0.16860789728E+03 -0.79776122641E+03  0.10656690703E+04  0.50400001928E-02 0. -1.
       -1    1    3    3    0  502 -0.68614792130E+03 -0.16860789728E+03 -0.64862438717E+03  0.95913564660E+03  0.50400001928E-02 0.  1.
</event>
<event>
 5   0  0.8293000E-04  0.1332012E+04  0.7818609E-02  0.9004558E-01
       -3   -1    0    0    0  501  0.00000000000E+00  0.00000000000E+00  0.10788105130E+04  0.10788105177E+04  0.10100000352E+00 0. -1.
        3   -1    0    0  501    0  0.00000000000E+00  0.00000000000E+00 -0.41116011301E+03  0.41116012541E+03  0.10100000352E+00 0.  1.
    10030    2    1    2    0    0  0.00000000000E+00  0.00000000000E+00  0.66765040000E+03  0.14899706431E+04  0.13320118096E+04 0.  0.
        4    1    3    3  502    0 -0.31605131372E+02  0.66498561616E+03  0.31267538298E+03  0.73550816586E+03  0.12699999809E+01 0. -1.
       -4    1    3    3    0  502  0.31605131372E+02 -0.66498561616E+03  0.35497501702E+03  0.75446247729E+03  0.12699999809E+01 0.  1.
</event>
<event>
 5   0  0.2190704E-03  0.1434495E+04  0.7818609E-02  0.8929221E-01
        2   -1    0    0  501    0  0.00000000000E+00  0.00000000000E+00  0.10926125637E+04  0.10926125637E+04  0.25500000920E-02 0.  1.
       -2   -1    0    0    0  501  0.00000000000E+00  0.00000000000E+00 -0.47083813551E+03  0.47083813551E+03  0.25500000920E-02 0. -1.
    10030    2    1    2    0    0  0.00000000000E+00  0.00000000000E+00  0.62177442818E+03  0.15634506992E+04  0.14344945623E+04 0.  0.
        5    1    3    3  502    0  0.61225766497E+03  0.23416006381E+03  0.62814108801E+03  0.90789520334E+03  0.46999998093E+01 0.  1.
       -5    1    3    3    0  502 -0.61225766497E+03 -0.23416006381E+03 -0.63666598243E+01  0.65555549587E+03  0.46999998093E+01 0. -1.
</event>
<event>
 5   0  0.2190704E-03  0.1379346E+04  0.7818609E-02  0.8968906E-01
       -2   -1    0    0    0  501  0.00000000000E+00  0.00000000000E+00  0.47158779354E+03  0.47158779355E+03  0.25500000920E-02 0. -1.
        2   -1    0    0  501    0  0.00000000000E+00  0.00000000000E+00 -0.10086118207E+04  0.10086118207E+04  0.25500000920E-02 0.  1.
    10030    2    1    2    0    0  0.00000000000E+00  0.00000000000E+00 -0.53702402718E+03  0.14801996143E+04  0.13793462554E+04 0.  0.
        5    1    3    3  502    0  0.59127318512E+03 -0.27995621461E+03 -0.34268854691E+02  0.65511518525E+03  0.46999998093E+01 0. -1.
       -5    1    3    3    0  502 -0.59127318512E+03  0.27995621461E+03 -0.50275517249E+03  0.82508442902E+03  0.46999998093E+01 0.  1.
</event>
<event>
 5   0  0.2172901E-03  0.1400662E+04  0.7818609E-02  0.8953339E-01
       -2   -1    0    0    0  501  0.00000000000E+00  0.00000000000E+00  0.46339836982E+03  0.46339836982E+03  0.25500000920E-02 0. -1.
        2   -1    0    0  501    0  0.00000000000E+00  0.00000000000E+00 -0.10584058708E+04  0.10584058708E+04  0.25500000920E-02 0.  1.
    10030    2    1    2    0    0  0.00000000000E+00  0.00000000000E+00 -0.59500750101E+03  0.15218042407E+04  0.14006620651E+04 0.  0.
        2    1    3    3  502    0 -0.20787521024E+03  0.66362996650E+03 -0.38740520061E+03  0.79605252649E+03  0.25500000920E-02 0.  1.
       -2    1    3    3    0  502  0.20787521024E+03 -0.66362996650E+03 -0.20760230040E+03  0.72575171416E+03  0.25500000920E-02 0. -1.
</event>
<event>
 5   0  0.1199720E-03  0.1363772E+04  0.7818609E-02  0.8980468E-01
        1   -1    0    0  501    0  0.00000000000E+00  0.00000000000E+00  0.65693975428E+03  0.65693975430E+03  0.50400001928E-02 0. -1.
       -1   -1    0    0    0  501  0.00000000000E+00  0.00000000000E+00 -0.70777979679E+03  0.70777979680E+03  0.50400001928E-02 0.  1.
    10030    2    1    2    0    0  0.00000000000E+00  0.00000000000E+00 -0.50840042503E+02  0.13647195511E+04  0.13637722476E+04 0.  0.
        5    1    3    3  502    0 -0.49210605201E+03 -0.99085556041E+02  0.43637672807E+03  0.66515641216E+03  0.46999998093E+01 0. -1.
       -5    1    3    3    0  502  0.49210605201E+03  0.99085556041E+02 -0.48721677057E+03  0.69956313894E+03  0.46999998093E+01 0.  1.
</event>
<event>
 5   0  0.2236184E-03  0.1333447E+04  0.7818609E-02  0.9003454E-01
       -2   -1    0    0    0  501  0.00000000000E+00  0.00000000000E+00  0.60843249113E+03  0.60843249113E+03  0.25500000920E-02 0. -1.
        2   -1    0    0  501    0  0.00000000000E+00  0.00000000000E+00 -0.73059955926E+03  0.73059955927E+03  0.25500000920E-02 0.  1.
    10030    2    1    2    0    0  0.00000000000E+00  0.00000000000E+00 -0.12216706814E+03  0.13390320504E+04  0.13334474266E+04 0.  0.
        3    1    3    3  502    0  0.55919448158E+03 -0.70428279649E+02 -0.41875200767E+03  0.70214803634E+03  0.10100000352E+00 0.  1.
       -3    1    3    3    0  502 -0.55919448158E+03  0.70428279649E+02  0.29658493954E+03  0.63688401406E+03  0.10100000352E+00 0. -1.
</event>
<event>
 5   0  0.1175374E-03  0.1401648E+04  0.7818609E-02  0.8952627E-01
        1   -1    0    0  501    0  0.00000000000E+00  0.00000000000E+00  0.12964434059E+04  0.12964434059E+04  0.50400001928E-02 0.  1.
       -1   -1    0    0    0  501  0.00000000000E+00  0.00000000000E+00 -0.37884725969E+03  0.37884725972E+03  0.50400001928E-02 0. -1.
    10030    2    1    2    0    0  0.00000000000E+00  0.00000000000E+00  0.91759614623E+03  0.16752906657E+04  0.14016476472E+04 0.  0.
        3    1    3    3  502    0  0.54164791898E+03  0.33241023002E+03  0.81189686047E+03  0.10310458532E+04  0.10100000352E+00 0.  1.
       -3    1    3    3    0  502 -0.54164791898E+03 -0.33241023002E+03  0.10569928576E+03  0.64424481245E+03  0.10100000352E+00 0. -1.
</event>
<event>
 5   0  0.2195980E-03  0.1405611E+04  0.7818609E-02  0.8949767E-01
        2   -1    0    0  501    0  0.00000000000E+00  0.00000000000E+00  0.72167770839E+03  0.72167770840E+03  0.25500000920E-02 0.  1.
       -2   -1    0    0    0  501  0.00000000000E+00  0.00000000000E+00 -0.68442673967E+03  0.68442673968E+03  0.25500000920E-02 0. -1.
    10030    2    1    2    0    0  0.00000000000E+00  0.00000000000E+00  0.37250968722E+02  0.14061044481E+04  0.14056109292E+04 0.  0.
        4    1    3    3  502    0  0.33481844876E+03 -0.49693228506E+03 -0.34877559873E+03  0.69331891705E+03  0.12699999809E+01 0. -1.
       -4    1    3    3    0  502 -0.33481844876E+03  0.49693228506E+03  0.38602656745E+03  0.71278553103E+03  0.12699999809E+01 0.  1.
</event>
<event>
 5   0  0.1238683E-03  0.1398523E+04  0.7818609E-02  0.8954888E-01
       -1   -1    0    0    0  501  0.00000000000E+00  0.00000000000E+00  0.66055554317E+03  0.66055554319E+03  0.50400001928E-02 0.  1.
        1   -1    0    0  501    0  0.00000000000E+00  0.00000000000E+00 -0.74023547134E+03  0.74023547136E+03  0.50400001928E-02 0. -1.
    10030    2    1    2    0    0  0.00000000000E+00  0.00000000000E+00 -0.79679928175E+02  0.14007910145E+04  0.13985229978E+04 0.  0.
        2    1    3    3  502    0 -0.20427150619E+03 -0.19227638510E+03  0.60172168805E+03  0.66390213615E+03  0.25500000920E-02 0.  1.
       -2    1    3    3    0  502  0.20427150619E+03  0.19227638510E+03 -0.68140161622E+03  0.73688887840E+03  0.25500000920E-02 0. -1.
</event>
<event>
 5   0  0.1210275E-03  0.1366664E+04  0.7818609E-02  0.8978309E-01
       -1   -1    0    0    0  501  0.00000000000E+00  0.00000000000E+00  0.52203576979E+03  0.52203576981E+03  0.50400001928E-02 0. -1.
        1   -1    0    0  501    0  0.00000000000E+00  0.00000000000E+00 -0.89446453799E+03  0.89446453801E+03  0.50400001928E-02 0.  1.
    10030    2    1    2    0    0  0.00000000000E+00  0.00000000000E+00 -0.37242876821E+03  0.14165003078E+04  0.13666637972E+04 0.  0.
        1    1    3    3  502    0  0.18879008197E+03 -0.48968386744E+03  0.26736287939E+03  0.58899481694E+03  0.50400001928E-02 0. -1.
       -1    1    3    3    0  502 -0.18879008197E+03  0.48968386744E+03 -0.63979164759E+03  0.82750549088E+03  0.50400001928E-02 0.  1.
</event>
<event>
 5   0  0.2190704E-03  0.1406331E+04  0.7818609E-02  0.8949249E-01
        2   -1    0    0  501    0  0.00000000000E+00  0.00000000000E+00  0.12418536370E+04  0.12418536370E+04  0.25500000920E-02 0. -1.
       -2   -1    0    0    0  501  0.00000000000E+00  0.00000000000E+00 -0.39814800811E+03  0.39814800812E+03  0.25500000920E-02 0.  1.
    10030    2    1    2    0    0  0.00000000000E+00  0.00000000000E+00  0.84370562891E+03  0.16400016451E+04  0.14063307605E+04 0.  0.
        5    1    3    3  502    0 -0.15691928378E+03  0.59688907631E+02 -0.37441347247E+03  0.41035833814E+03  0.46999998093E+01 0.  1.
       -5    1    3    3    0  502  0.15691928378E+03 -0.59688907631E+02  0.12181191014E+04  0.12296433070E+04  0.46999998093E+01 0. -1.
</event>
<event>
 5   0  0.1199720E-03  0.1513794E+04  0.7818609E-02  0.8875331E-01
       -1   -1    0    0    0  501  0.00000000000E+00  0.00000000000E+00  0.52042981660E+03  0.52042981662E+03  0.50400001928E-02 0.  1.
        1   -1    0    0  501    0  0.00000000000E+00  0.00000000000E+00 -0.11008079849E+04  0.11008079849E+04  0.50400001928E-02 0. -1.
    10030    2    1    2    0    0  0.00000000000E+00  0.00000000000E+00 -0.58037816833E+03  0.16212378016E+04  0.15137943027E+04 0.  0.
        5    1    3    3  502    0 -0.78946730424E+02 -0.73495107985E+03 -0.46448379293E+03  0.87301372264E+03  0.46999998093E+01 0.  1.
       -5    1    3    3    0  502  0.78946730424E+02  0.73495107985E+03 -0.11589437539E+03  0.74822407891E+03  0.46999998093E+01 0. -1.
</event>
<event>
 5   0  0.2236184E-03  0.1305509E+04  0.7818609E-02  0.9025208E-01
        2   -1    0    0  501    0  0.00000000000E+00  0.00000000000E+00  0.12054114625E+04  0.12054114625E+04  0.25500000920E-02 0. -1.
       -2   -1    0    0    0  501  0.00000000000E+00  0.00000000000E+00 -0.35347978442E+03  0.35347978443E+03  0.25500000920E-02 0.  1.
    10030    2    1    2    0    0  0.00000000000E+00  0.00000000000E+00  0.85193167809E+03  0.15588912469E+04  0.13055092247E+04 0.  0.
        3    1    3    3  502    0 -0.30379101363E+03 -0.57743770182E+03  0.44878802856E+03  0.79191791508E+03  0.10100000352E+00 0.  1.
       -3    1    3    3    0  502  0.30379101363E+03  0.57743770182E+03  0.40314364952E+03  0.76697333187E+03  0.10100000352E+00 0. -1.
</event>
<event>
 5   0  0.2083966E-03  0.1395545E+04  0.7818609E-02  0.8957049E-01
       -2   -1    0    0    0  501  0.00000000000E+00  0.00000000000E+00  0.74777614401E+03  0.74777614402E+03  0.25500000920E-02 0.  1.
        2   -1    0    0  501    0  0.00000000000E+00  0.00000000000E+00 -0.65111301575E+03  0.65111301576E+03  0.25500000920E-02 0. -1.
    10030    2    1    2    0    0  0.00000000000E+00  0.00000000000E+00  0.96663128265E+02  0.13988891598E+04  0.13955454564E+04 0.  0.
        1    1    3    3  502    0 -0.78229214747E+02  0.27015643138E+01  0.74336121512E+03  0.74747107279E+03  0.50400001928E-02 0.  1.
       -1    1    3    3    0  502  0.78229214747E+02 -0.27015643138E+01 -0.64669808685E+03  0.65141808699E+03  0.50400001928E-02 0. -1.
</event>
<event>
 5   0  0.1238683E-03  0.1408791E+04  0.7818609E-02  0.8947480E-01
        1   -1    0    0  501    0  0.00000000000E+00  0.00000000000E+00  0.62281273717E+03  0.62281273719E+03  0.50400001928E-02 0.  1.
       -1   -1    0    0    0  501  0.00000000000E+00  0.00000000000E+00 -0.79666438489E+03  0.79666438491E+03  0.50400001928E-02 0. -1.
    10030    2    1    2    0    0  0.00000000000E+00  0.00000000000E+00 -0.17385164772E+03  0.14194771221E+04  0.14087905823E+04 0.  0.
        2    1    3    3  502    0 -0.42612784002E+03  0.21368187733E+02 -0.65165143991E+03  0.77890380319E+03  0.25500000920E-02 0. -1.
       -2    1    3    3    0  502  0.42612784002E+03 -0.21368187733E+02  0.47779979218E+03  0.64057331891E+03  0.25500000920E-02 0.  1.
</event>
<event>
 5   0  0.1238683E-03  0.1318078E+04  0.7818609E-02  0.9015351E-01
        1   -1    0    0  501    0  0.00000000000E+00  0.00000000000E+00  0.31411006588E+03  0.31411006592E+03  0.50400001928E-02 0.  1.
       -1   -1    0    0    0  501  0.00000000000E+00  0.00000000000E+00 -0.13827396455E+04  0.13827396455E+04  0.50400001928E-02 0. -1.
    10030    2    1    2    0    0  0.00000000000E+00  0.00000000000E+00 -0.10686295796E+04  0.16968497114E+04  0.13180780571E+04 0.  0.
        2    1    3    3  502    0  0.50904257256E+03  0.41845299617E+03 -0.54751833256E+03  0.85674008613E+03  0.25500000920E-02 0. -1.
       -2    1    3    3    0  502 -0.50904257256E+03 -0.41845299617E+03 -0.52111124705E+03  0.84010962529E+03  0.25500000920E-02 0.  1.
</event>
<event>
 5   0  0.2236184E-03  0.1373121E+04  0.7818609E-02  0.8973508E-01
       -2   -1    0    0    0  501  0.00000000000E+00  0.00000000000E+00  0.72270930624E+03  0.72270930624E+03  0.25500000920E-02 0. -1.
        2   -1    0    0  501    0  0.00000000000E+00  0.00000000000E+00 -0.65221965652E+03  0.65221965653E+03  0.25500000920E-02 0.  1.
    10030    2    1    2    0    0  0.00000000000E+00  0.00000000000E+00  0.70489649717E+02  0.13749289628E+04  0.13731208475E+04 0.  0.
        3    1    3    3  502    0 -0.51285400952E+03  0.87321113046E+02  0.48385373834E+03  0.71046369518E+03  0.10100000352E+00 0. -1.
       -3    1    3    3    0  502  0.51285400952E+03 -0.87321113046E+02 -0.41336408863E+03  0.66446526759E+03  0.10100000352E+00 0.  1.
</event>
<event>
 5   0  0.2236184E-03  0.1429487E+04  0.7818609E-02  0.8932746E-01
       -2   -1    0    0    0  501  0.00000000000E+00  0.00000000000E+00  0.56723504652E+03  0.56723504653E+03  0.25500000920E-02 0.  1.
        2   -1    0    0  501    0  0.00000000000E+00  0.00000000000E+00 -0.90061161451E+03  0.90061161451E+03  0.25500000920E-02 0. -1.
    10030    2    1    2    0    0  0.00000000000E+00  0.00000000000E+00 -0.33337656799E+03  0.14678466610E+04  0.14294872802E+04 0.  0.
        3    1    3    3  502    0 -0.14302330741E+03  0.66549885077E+03 -0.39051479704E+03  0.78475869141E+03  0.10100000352E+00 0.  1.
       -3    1    3    3    0  502  0.14302330741E+03 -0.66549885077E+03  0.57138229050E+02  0.68308796963E+03  0.10100000352E+00 0. -1.
</event>
<event>
 5   0  0.1225690E-03  0.1430986E+04  0.7818609E-02  0.8931690E-01
       -1   -1    0    0    0  501  0.00000000000E+00  0.00000000000E+00  0.58938566406E+03  0.58938566408E+03  0.50400001928E-02 0. -1.
        1   -1    0    0  501    0  0.00000000000E+00  0.00000000000E+00 -0.86858226300E+03  0.86858226302E+03  0.50400001928E-02 0.  1.
    10030    2    1    2    0    0  0.00000000000E+00  0.00000000000E+00 -0.27919659894E+03  0.14579679271E+04  0.14309855819E+04 0.  0.
        4    1    3    3  502    0  0.25219569770E+03  0.23987514676E+03 -0.77651402081E+03  0.85095146359E+03  0.12699999809E+01 0.  1.
       -4    1    3    3    0  502 -0.25219569770E+03 -0.23987514676E+03  0.49731742186E+03  0.60701646350E+03  0.12699999809E+01 0. -1.
</event>
<event>
 5   0  0.1225690E-03  0.1402999E+04  0.7818609E-02  0.8951651E-01
        1   -1    0    0  501    0  0.00000000000E+00  0.00000000000E+00  0.13964129822E+04  0.13964129822E+04  0.50400001928E-02 0. -1.
       -1   -1    0    0    0  501  0.00000000000E+00  0.00000000000E+00 -0.35240394786E+03  0.35240394790E+03  0.50400001928E-02 0.  1.
    10030    2    1    2    0    0  0.00000000000E+00  0.00000000000E+00  0.10440090343E+04  0.17488169301E+04  0.14029988565E+04 0.  0.
        4    1    3    3  502    0  0.53221151683E+03  0.45549756725E+03  0.56818678383E+03  0.90197836262E+03  0.12699999809E+01 0.  1.
       -4    1    3    3    0  502 -0.53221151683E+03 -0.45549756725E+03  0.47582225050E+03  0.84683856749E+03  0.12699999809E+01 0. -1.
</event>
<event>
 5   0  0.1210275E-03  0.1338892E+04  0.7818609E-02  0.8999280E-01
        1   -1    0    0  501    0  0.00000000000E+00  0.00000000000E+00  0.19673096220E+04  0.19673096220E+04  0.50400001928E-02 0.  1.
       -1   -1    0    0    0  501  0.00000000000E+00  0.00000000000E+00 -0.22780231022E+03  0.22780231028E+03  0.50400001928E-02 0. -1.
    10030    2    1    2    0    0  0.00000000000E+00  0.00000000000E+00  0.17395073118E+04  0.21951119323E+04  0.13388915966E+04 0.  0.
        1    1    3    3  502    0 -0.31562932352E+03 -0.30980951039E+03  0.45827533457E+02  0.44463914069E+03  0.50400001928E-02 0. -1.
       -1    1    3    3    0  502  0.31562932352E+03  0.30980951039E+03  0.16936797783E+04  0.17504727916E+04  0.50400001928E-02 0.  1.
</event>
<event>
 5   0  0.1210275E-03  0.1399174E+04  0.7818609E-02  0.8954416E-01
       -1   -1    0    0    0  501  0.00000000000E+00  0.00000000000E+00  0.39383383784E+03  0.39383383787E+03  0.50400001928E-02 0.  1.
        1   -1    0    0  501    0  0.00000000000E+00  0.00000000000E+00 -0.12427126344E+04  0.12427126344E+04  0.50400001928E-02 0. -1.
    10030    2    1    2    0    0  0.00000000000E+00  0.00000000000E+00 -0.84887879653E+03  0.16365464722E+04  0.13991744511E+04 0.  0.
        1    1    3    3  502    0  0.29318760583E+03 -0.11642568801E+03 -0.11548007046E+04  0.11971126014E+04  0.50400001928E-02 0. -1.
       -1    1    3    3    0  502 -0.29318760583E+03  0.11642568801E+03  0.30592190803E+03  0.43943387089E+03  0.50400001928E-02 0.  1.
</event>
<event>
 5   0  0.1238683E-03  0.9776530E+03  0.7818609E-02  0.9333400E-01
        1   -1    0    0  501    0  0.00000000000E+00  0.00000000000E+00  0.45324878627E+03  0.45324878630E+03  0.50400001928E-02 0.  1.
       -1   -1    0    0    0  501  0.00000000000E+00  0.00000000000E+00 -0.52719688215E+03  0.52719688217E+03  0.50400001928E-02 0. -1.
    10030    2    1    2    0    0  0.00000000000E+00  0.00000000000E+00 -0.73948095880E+02  0.98044566847E+03  0.97765299976E+03 0.  0.
        2    1    3    3  502    0  0.13098699242E+03 -0.42627819613E+03  0.16379936254E+03  0.47507991313E+03  0.25500000920E-02 0.  1.
       -2    1    3    3    0  502 -0.13098699242E+03  0.42627819613E+03 -0.23774745842E+03  0.50536575534E+03  0.25500000920E-02 0. -1.
</event>
<event>
 5   0  0.1199720E-03  0.1417344E+04  0.7818609E-02  0.8941359E-01
        1   -1    0    0  501    0  0.00000000000E+00  0.00000000000E+00  0.46404661120E+03  0.46404661123E+03  0.50400001928E-02 0.  1.
       -1   -1    0    0    0  501  0.00000000000E+00  0.00000000000E+00 -0.10822535685E+04  0.10822535685E+04  0.50400001928E-02 0. -1.
    10030    2    1    2    0    0  0.00000000000E+00  0.00000000000E+00 -0.61820695731E+03  0.15463001797E+04  0.14173441374E+04 0.  0.
        5    1    3    3  502    0 -0.35066248512E+03 -0.34502067331E+03 -0.86560232564E+03  0.99563694168E+03  0.46999998093E+01 0. -1.
       -5    1    3    3    0  502  0.35066248512E+03  0.34502067331E+03  0.24739536833E+03  0.55066323806E+03  0.46999998093E+01 0.  1.
</event>
<event>
 5   0  0.1238683E-03  0.1414479E+04  0.7818609E-02  0.8943404E-01
        1   -1    0    0  501    0  0.00000000000E+00  0.00000000000E+00  0.15509179376E+04  0.15509179376E+04  0.50400001928E-02 0. -1.
       -1   -1    0    0    0  501  0.00000000000E+00  0.00000000000E+00 -0.32251087646E+03  0.32251087650E+03  0.50400001928E-02 0.  1.
    10030    2    1    2    0    0  0.00000000000E+00  0.00000000000E+00  0.12284070612E+04  0.18734288141E+04  0.14144792730E+04 0.  0.
        2    1    3    3  502    0  0.61308536530E+03  0.16703633129E+03  0.20295094976E+03  0.66705613642E+03  0.25500000920E-02 0.  1.
       -2    1    3    3    0  502 -0.61308536530E+03 -0.16703633129E+03  0.10254561114E+04  0.12063726777E+04  0.25500000920E-02 0. -1.
</event>
<event>
 5   0  0.2083966E-03  0.1375202E+04  0.7818609E-02  0.8971967E-01
        2   -1    0    0  501    0  0.00000000000E+00  0.00000000000E+00  0.64364734274E+03  0.64364734274E+03  0.25500000920E-02 0. -1.
       -2   -1    0    0    0  501  0.00000000000E+00  0.00000000000E+00 -0.73455571267E+03  0.73455571268E+03  0.25500000920E-02 0.  1.
    10030    2    1    2    0    0  0.00000000000E+00  0.00000000000E+00 -0.90908369938E+02  0.13782030554E+04  0.13752015599E+04 0.  0.
        1    1    3    3  502    0  0.14153835681E+01 -0.24639857356E+03 -0.68879028508E+03  0.73153695546E+03  0.50400001928E-02 0.  1.
       -1    1    3    3    0  502 -0.14153835681E+01  0.24639857356E+03  0.59788191514E+03  0.64666609996E+03  0.50400001928E-02 0. -1.
</event>
<event>
 5   0  0.2083966E-03  0.1302093E+04  0.7818609E-02  0.9027907E-01
        2   -1    0    0  501    0  0.00000000000E+00  0.00000000000E+00  0.15689332848E+04  0.15689332848E+04  0.25500000920E-02 0. -1.
       -2   -1    0    0    0  501  0.00000000000E+00  0.00000000000E+00 -0.27015907204E+03  0.27015907205E+03  0.25500000920E-02 0.  1.
    10030    2    1    2    0    0  0.00000000000E+00  0.00000000000E+00  0.12987742128E+04  0.18390923569E+04  0.13020930233E+04 0.  0.
        1    1    3    3  502    0  0.43330368727E+03 -0.48514766822E+03  0.61093380708E+03  0.89239030813E+03  0.50400001928E-02 0. -1.
       -1    1    3    3    0  502 -0.43330368727E+03  0.48514766822E+03  0.68784040572E+03  0.94670204877E+03  0.50400001928E-02 0.  1.
</event>
<event>
 5   0  0.2172901E-03  0.1407459E+04  0.7818609E-02  0.8948437E-01
        2   -1    0    0  501    0  0.00000000000E+00  0.00000000000E+00  0.42517384101E+03  0.42517384102E+03  0.25500000920E-02 0.  1.
       -2   -1    0    0    0  501  0.00000000000E+00  0.00000000000E+00 -0.11647822485E+04  0.11647822485E+04  0.25500000920E-02 0. -1.
    10030    2    1    2    0    0  0.00000000000E+00  0.00000000000E+00 -0.73960840747E+03  0.15899560895E+04  0.14074586211E+04 0.  0.
        2    1    3    3  502    0  0.39227188639E+03  0.66644652611E+02 -0.10255121423E+04  0.10999972257E+04  0.25500000920E-02 0. -1.
       -2    1    3    3    0  502 -0.39227188639E+03 -0.66644652611E+02  0.28590373486E+03  0.48995886377E+03  0.25500000920E-02 0.  1.
</event>
<event>
 5   0  0.1225690E-03  0.1379383E+04  0.7818609E-02  0.8968879E-01
        1   -1    0    0  501    0  0.00000000000E+00  0.00000000000E+00  0.16176214539E+04  0.16176214539E+04  0.50400001928E-02 0.  1.
       -1   -1    0    0    0  501  0.00000000000E+00  0.00000000000E+00 -0.29405783461E+03  0.29405783465E+03  0.50400001928E-02 0. -1.
    10030    2    1    2    0    0  0.00000000000E+00  0.00000000000E+00  0.13235636193E+04  0.19116792885E+04  0.13793828504E+04 0.  0.
        4    1    3    3  502    0  0.64043856517E+03 -0.25384358211E+03  0.70721145161E+03  0.98729315308E+03  0.12699999809E+01 0.  1.
       -4    1    3    3    0  502 -0.64043856517E+03  0.25384358211E+03  0.61635216767E+03  0.92438613546E+03  0.12699999809E+01 0. -1.
</event>
<event>
 5   0  0.1225690E-03  0.1257917E+04  0.7818609E-02  0.9063620E-01
        1   -1    0    0  501    0  0.00000000000E+00  0.00000000000E+00  0.20843386545E+03  0.20843386551E+03  0.50400001928E-02 0.  1.
       -1   -1    0    0    0  501  0.00000000000E+00  0.00000000000E+00 -0.18979089233E+04  0.18979089233E+04  0.50400001928E-02 0. -1.
    10030    2    1    2    0    0  0.00000000000E+00  0.00000000000E+00 -0.16894750579E+04  0.21063427889E+04  0.12579165206E+04 0.  0.
        4    1    3    3  502    0 -0.21595981477E+03  0.27799837270E+03 -0.17174962332E+04  0.17532018312E+04  0.12699999809E+01 0. -1.
       -4    1    3    3    0  502  0.21595981477E+03 -0.27799837270E+03  0.28021175335E+02  0.35314095767E+03  0.12699999809E+01 0.  1.
</event>
<event>
 5   0  0.1210275E-03  0.1387213E+04  0.7818609E-02  0.8963127E-01
       -1   -1    0    0    0  501  0.00000000000E+00  0.00000000000E+00  0.32890261781E+03  0.32890261785E+03  0.50400001928E-02 0. -1.
        1   -1    0    0  501    0  0.00000000000E+00  0.00000000000E+00 -0.14627116139E+04  0.14627116139E+04  0.50400001928E-02 0.  1.
    10030    2    1    2    0    0  0.00000000000E+00  0.00000000000E+00 -0.11338089961E+04  0.17916142317E+04  0.13872125705E+04 0.  0.
        1    1    3    3  502    0 -0.41604373586E+03  0.38963885314E+03 -0.10773067741E+04  0.12188111878E+04  0.50400001928E-02 0.  1.
       -1    1    3    3    0  502  0.41604373586E+03 -0.38963885314E+03 -0.56502222001E+02  0.57280304394E+03  0.50400001928E-02 0. -1.
</event>
<event>
 5   0  0.1238683E-03  0.1360739E+04  0.7818609E-02  0.8982739E-01
        1   -1    0    0  501    0  0.00000000000E+00  0.00000000000E+00  0.20375253594E+04  0.20375253594E+04  0.50400001928E-02 0.  1.
       -1   -1    0    0    0  501  0.00000000000E+00  0.00000000000E+00 -0.22718859344E+03  0.22718859350E+03  0.50400001928E-02 0. -1.
    10030    2    1    2    0    0  0.00000000000E+00  0.00000000000E+00  0.18103367660E+04  0.22647139529E+04  0.13607388002E+04 0.  0.
        2    1    3    3  502    0  0.27344114159E+03  0.56257232717E+03  0.45968547704E+03  0.77625280613E+03  0.25500000920E-02 0. -1.
       -2    1    3    3    0  502 -0.27344114159E+03 -0.56257232717E+03  0.13506512889E+04  0.14884611468E+04  0.25500000920E-02 0.  1.
</event>
<event>
 5   0  0.8293000E-04  0.1384525E+04  0.7818609E-02  0.8965097E-01
        4   -1    0    0  501    0  0.00000000000E+00  0.00000000000E+00  0.15274605070E+04  0.15274610349E+04  0.12699999809E+01 0.  1.
       -4   -1    0    0    0  501  0.00000000000E+00  0.00000000000E+00 -0.31373923798E+03  0.31374180841E+03  0.12699999809E+01 0. -1.
    10030    2    1    2    0    0  0.00000000000E+00  0.00000000000E+00  0.12137212690E+04  0.18412028433E+04  0.13845246807E+04 0.  0.
        5    1    3    3  502    0 -0.27131052758E+03  0.15110269192E+03  0.14296075606E+04  0.14629563539E+04  0.46999998093E+01 0.  1.
       -5    1    3    3    0  502  0.27131052758E+03 -0.15110269192E+03 -0.21588629166E+03  0.37824648948E+03  0.46999998093E+01 0. -1.
</event>
<event>
 5   0  0.2236184E-03  0.1393746E+04  0.7818609E-02  0.8958358E-01
       -2   -1    0    0    0  501  0.00000000000E+00  0.00000000000E+00  0.31825316282E+03  0.31825316283E+03  0.25500000920E-02 0. -1.
        2   -1    0    0  501    0  0.00000000000E+00  0.00000000000E+00 -0.15259294998E+04  0.15259294998E+04  0.25500000920E-02 0.  1.
    10030    2    1    2    0    0  0.00000000000E+00  0.00000000000E+00 -0.12076763369E+04  0.18441826626E+04  0.13937458729E+04 0.  0.
        3    1    3    3  502    0  0.74333356601E+02  0.31492959076E+03 -0.14204967418E+04  0.14568860967E+04  0.10100000352E+00 0.  1.
       -3    1    3    3    0  502 -0.74333356601E+02 -0.31492959076E+03  0.21282040486E+03  0.38729656591E+03  0.10100000352E+00 0. -1.
</event>
<event>
 5   0  0.2083966E-03  0.1384338E+04  0.7818609E-02  0.8965234E-01
       -2   -1    0    0    0  501  0.00000000000E+00  0.00000000000E+00  0.10724472402E+04  0.10724472402E+04  0.25500000920E-02 0. -1.
        2   -1    0    0  501    0  0.00000000000E+00  0.00000000000E+00 -0.44673363119E+03  0.44673363119E+03  0.25500000920E-02 0.  1.
    10030    2    1    2    0    0  0.00000000000E+00  0.00000000000E+00  0.62571360903E+03  0.15191808714E+04  0.13843384700E+04 0.  0.
        1    1    3    3  502    0  0.29632990706E+03 -0.22461989906E+03 -0.32781829728E+03  0.49571196165E+03  0.50400001928E-02 0.  1.
       -1    1    3    3    0  502 -0.29632990706E+03  0.22461989906E+03  0.95353190631E+03  0.10234689098E+04  0.50400001928E-02 0. -1.
</event>
<event>
 5   0  0.2236184E-03  0.1459897E+04  0.7818609E-02  0.8911568E-01
       -2   -1    0    0    0  501  0.00000000000E+00  0.00000000000E+00  0.59280510385E+03  0.59280510385E+03  0.25500000920E-02 0. -1.
        2   -1    0    0  501    0  0.00000000000E+00  0.00000000000E+00 -0.89881967553E+03  0.89881967553E+03  0.25500000920E-02 0.  1.
    10030    2    1    2    0    0  0.00000000000E+00  0.00000000000E+00 -0.30601457168E+03  0.14916247794E+04  0.14598971075E+04 0.  0.
        3    1    3    3  502    0 -0.16235565867E+03 -0.41069796010E+03 -0.74683775251E+03  0.86763979456E+03  0.10100000352E+00 0.  1.
       -3    1    3    3    0  502  0.16235565867E+03  0.41069796010E+03  0.44082318083E+03  0.62398498483E+03  0.10100000352E+00 0. -1.
</event>
<event>
 5   0  0.1210275E-03  0.1418009E+04  0.7818609E-02  0.8940885E-01
        1   -1    0    0  501    0  0.00000000000E+00  0.00000000000E+00  0.16287723978E+04  0.16287723978E+04  0.50400001928E-02 0. -1.
       -1   -1    0    0    0  501  0.00000000000E+00  0.00000000000E+00 -0.30862961790E+03  0.30862961794E+03  0.50400001928E-02 0.  1.
    10030    2    1    2    0    0  0.00000000000E+00  0.00000000000E+00  0.13201427799E+04  0.19374020158E+04  0.14180090308E+04 0.  0.
        1    1    3    3  502    0 -0.52422835313E+02  0.23652874895E+03 -0.25032181541E+03  0.34836046566E+03  0.50400001928E-02 0.  1.
       -1    1    3    3    0  502  0.52422835313E+02 -0.23652874895E+03  0.15704645954E+04  0.15890415501E+04  0.50400001928E-02 0. -1.
</event>
<event>
 5   0  0.2172901E-03  0.1036508E+04  0.7818609E-02  0.9269385E-01
       -2   -1    0    0    0  501  0.00000000000E+00  0.00000000000E+00  0.42421921638E+03  0.42421921639E+03  0.25500000920E-02 0.  1.
        2   -1    0    0  501    0  0.00000000000E+00  0.00000000000E+00 -0.63313332684E+03  0.63313332685E+03  0.25500000920E-02 0. -1.
    10030    2    1    2    0    0  0.00000000000E+00  0.00000000000E+00 -0.20891411046E+03  0.10573525432E+04  0.10365082224E+04 0.  0.
        2    1    3    3  502    0 -0.11820522514E+02  0.51407376472E+03 -0.38537387858E+02  0.51565171443E+03  0.25500000920E-02 0. -1.
       -2    1    3    3    0  502  0.11820522514E+02 -0.51407376472E+03 -0.17037672261E+03  0.54170082881E+03  0.25500000920E-02 0.  1.
</event>
<event>
 5   0  0.2172901E-03  0.1422367E+04  0.7818609E-02  0.8937786E-01
        2   -1    0    0  501    0  0.00000000000E+00  0.00000000000E+00  0.56480899914E+03  0.56480899915E+03  0.25500000920E-02 0.  1.
       -2   -1    0    0    0  501  0.00000000000E+00  0.00000000000E+00 -0.89549154394E+03  0.89549154395E+03  0.25500000920E-02 0. -1.
    10030    2    1    2    0    0  0.00000000000E+00  0.00000000000E+00 -0.33068254480E+03  0.14603005431E+04  0.14223665951E+04 0.  0.
        2    1    3    3  502    0  0.41924967612E+03  0.20371865335E+03  0.38611517003E+03  0.60527390922E+03  0.25500000920E-02 0.  1.
       -2    1    3    3    0  502 -0.41924967612E+03 -0.20371865335E+03 -0.71679771483E+03  0.85502663388E+03  0.25500000920E-02 0. -1.
</event>
<event>
 5   0  0.1225690E-03  0.1415600E+04  0.7818609E-02  0.8942603E-01
       -1   -1    0    0    0  501  0.00000000000E+00  0.00000000000E+00  0.51938201530E+03  0.51938201532E+03  0.50400001928E-02 0.  1.
        1   -1    0    0  501    0  0.00000000000E+00  0.00000000000E+00 -0.96457068477E+03  0.96457068478E+03  0.50400001928E-02 0. -1.
    10030    2    1    2    0    0  0.00000000000E+00  0.00000000000E+00 -0.44518866947E+03  0.14839527001E+04  0.14155997544E+04 0.  0.
        4    1    3    3  502    0 -0.36581511563E+02 -0.67440616108E+03 -0.44451708421E+03  0.80855360252E+03  0.12699999809E+01 0. -1.
       -4    1    3    3    0  502  0.36581511563E+02  0.67440616108E+03 -0.67158525848E+00  0.67539909759E+03  0.12699999809E+01 0.  1.
</event>
<event>
 5   0  0.1238683E-03  0.1383521E+04  0.7818609E-02  0.8965834E-01
       -1   -1    0    0    0  501  0.00000000000E+00  0.00000000000E+00  0.63962439083E+03  0.63962439085E+03  0.50400001928E-02 0.  1.
        1   -1    0    0  501    0  0.00000000000E+00  0.00000000000E+00 -0.74814661662E+03  0.74814661664E+03  0.50400001928E-02 0. -1.
    10030    2    1    2    0    0  0.00000000000E+00  0.00000000000E+00 -0.10852222580E+03  0.13877710075E+04  0.13835213391E+04 0.  0.
        2    1    3    3  502    0  0.52056601536E+03  0.45270890620E+03 -0.10539311436E+03  0.69788397221E+03  0.25500000920E-02 0. -1.
       -2    1    3    3    0  502 -0.52056601536E+03 -0.45270890620E+03 -0.31291114353E+01  0.68988703528E+03  0.25500000920E-02 0.  1.
</event>
<event>
 5   0  0.1199720E-03  0.1226010E+04  0.7818609E-02  0.9090390E-01
        1   -1    0    0  501    0  0.00000000000E+00  0.00000000000E+00  0.13048803997E+04  0.13048803997E+04  0.50400001928E-02 0. -1.
       -1   -1    0    0    0  501  0.00000000000E+00  0.00000000000E+00 -0.28797654806E+03  0.28797654811E+03  0.50400001928E-02 0.  1.
    10030    2    1    2    0    0  0.00000000000E+00  0.00000000000E+00  0.10169038517E+04  0.15928569479E+04  0.12260097115E+04 0.  0.
        5    1    3    3  502    0 -0.28545931649E+02  0.59853604212E+03  0.34059284231E+03  0.68926470834E+03  0.46999998093E+01 0.  1.
       -5    1    3    3    0  502  0.28545931649E+02 -0.59853604212E+03  0.67631100936E+03  0.90359223952E+03  0.46999998093E+01 0. -1.
</event>
<event>
 5   0  0.2195980E-03  0.1389696E+04  0.7818609E-02  0.8961311E-01
        2   -1    0    0  501    0  0.00000000000E+00  0.00000000000E+00  0.75066476827E+03  0.75066476828E+03  0.25500000920E-02 0.  1.
       -2   -1    0    0    0  501  0.00000000000E+00  0.00000000000E+00 -0.64318202430E+03  0.64318202431E+03  0.25500000920E-02 0. -1.
    10030    2    1    2    0    0  0.00000000000E+00  0.00000000000E+00  0.10748274397E+03  0.13938467926E+04  0.13896964924E+04 0.  0.
        4    1    3    3  502    0 -0.55401898189E+03 -0.41893937898E+03  0.34573127805E+02  0.69544528873E+03  0.12699999809E+01 0. -1.
       -4    1    3    3    0  502  0.55401898189E+03  0.41893937898E+03  0.72909616166E+02  0.69840150385E+03  0.12699999809E+01 0.  1.
</event>
<event>
 5   0  0.1199720E-03  0.1425318E+04  0.7818609E-02  0.8935694E-01
       -1   -1    0    0    0  501  0.00000000000E+00  0.00000000000E+00  0.80450625392E+03  0.80450625394E+03  0.50400001928E-02 0.  1.
        1   -1    0    0  501    0  0.00000000000E+00  0.00000000000E+00 -0.63129721109E+03  0.63129721111E+03  0.50400001928E-02 0. -1.
    10030    2    1    2    0    0  0.00000000000E+00  0.00000000000E+00  0.17320904283E+03  0.14358034651E+04  0.14253175849E+04 0.  0.
        5    1    3    3  502    0 -0.61737924997E+03 -0.15619696456E+03  0.40881047044E+03  0.75677124732E+03  0.46999998093E+01 0.  1.
       -5    1    3    3    0  502  0.61737924997E+03  0.15619696456E+03 -0.23560142761E+03  0.67903221773E+03  0.46999998093E+01 0. -1.
</event>
<event>
 5   0  0.2083966E-03  0.1346367E+04  0.7818609E-02  0.8993583E-01
       -2   -1    0    0    0  501  0.00000000000E+00  0.00000000000E+00  0.97436021294E+03  0.97436021294E+03  0.25500000920E-02 0.  1.
        2   -1    0    0  501    0  0.00000000000E+00  0.00000000000E+00 -0.46510108007E+03  0.46510108008E+03  0.25500000920E-02 0. -1.
    10030    2    1    2    0    0  0.00000000000E+00  0.00000000000E+00  0.50925913287E+03  0.14394612930E+04  0.13463669447E+04 0.  0.
        1    1    3    3  502    0 -0.27844214328E+03  0.61196399601E+03  0.29082336240E+03  0.73253545150E+03  0.50400001928E-02 0.  1.
       -1    1    3    3    0  502  0.27844214328E+03 -0.61196399601E+03  0.21843577046E+03  0.70692584152E+03  0.50400001928E-02 0. -1.
</event>
<event>
 5   0  0.1199720E-03  0.1398909E+04  0.7818609E-02  0.8954609E-01
        1   -1    0    0  501    0  0.00000000000E+00  0.00000000000E+00  0.14066750713E+04  0.14066750713E+04  0.50400001928E-02 0. -1.
       -1   -1    0    0    0  501  0.00000000000E+00  0.00000000000E+00 -0.34779639847E+03  0.34779639851E+03  0.50400001928E-02 0.  1.
    10030    2    1    2    0    0  0.00000000000E+00  0.00000000000E+00  0.10588786728E+04  0.17544714698E+04  0.13989088943E+04 0.  0.
        5    1    3    3  502    0  0.58560917295E+03 -0.37242624981E+03  0.42028305491E+03  0.81135648838E+03  0.46999998093E+01 0.  1.
       -5    1    3    3    0  502 -0.58560917295E+03  0.37242624981E+03  0.63859561791E+03  0.94311498143E+03  0.46999998093E+01 0. -1.
</event>
<event>
 5   0  0.1175374E-03  0.1201456E+04  0.7818609E-02  0.9111583E-01
        1   -1    0    0  501    0  0.00000000000E+00  0.00000000000E+00  0.15830562456E+04  0.15830562456E+04  0.50400001928E-02 0. -1.
       -1   -1    0    0    0  501  0.00000000000E+00  0.00000000000E+00 -0.22796022634E+03  0.22796022639E+03  0.50400001928E-02 0.  1.
    10030    2    1    2    0    0  0.00000000000E+00  0.00000000000E+00  0.13550960192E+04  0.18110164720E+04  0.12014555507E+04 0.  0.
        3    1    3    3  502    0  0.29369254278E+03 -0.47220477668E+03  0.10200892051E+04  0.11618152424E+04  0.10100000352E+00 0. -1.
       -3    1    3    3    0  502 -0.29369254278E+03  0.47220477668E+03  0.33500681409E+03  0.64920122959E+03  0.10100000352E+00 0.  1.
</event>
<event>
 5   0  0.1175374E-03  0.1392512E+04  0.7818609E-02  0.8959257E-01
        1   -1    0    0  501    0  0.00000000000E+00  0.00000000000E+00  0.12006812897E+04  0.12006812897E+04  0.50400001928E-02 0. -1.
       -1   -1    0    0    0  501  0.00000000000E+00  0.00000000000E+00 -0.40374789866E+03  0.40374789870E+03  0.50400001928E-02 0.  1.
    10030    2    1    2    0    0  0.00000000000E+00  0.00000000000E+00  0.79693339104E+03  0.16044291884E+04  0.13925121870E+04 0.  0.
        3    1    3    3  502    0  0.17247925548E+03 -0.31248057569E+03 -0.29032240625E+03  0.46008728903E+03  0.10100000352E+00 0.  1.
       -3    1    3    3    0  502 -0.17247925548E+03  0.31248057569E+03  0.10872557973E+04  0.11443418994E+04  0.10100000352E+00 0. -1.
</event>
<event>
 5   0  0.1199720E-03  0.1412145E+04  0.7818609E-02  0.8945074E-01
       -1   -1    0    0    0  501  0.00000000000E+00  0.00000000000E+00  0.43245042811E+03  0.43245042814E+03  0.50400001928E-02 0. -1.
        1   -1    0    0  501    0  0.00000000000E+00  0.00000000000E+00 -0.11528214649E+04  0.11528214650E+04  0.50400001928E-02 0.  1.
    10030    2    1    2    0    0  0.00000000000E+00  0.00000000000E+00 -0.72037103683E+03  0.15852718931E+04  0.14121446613E+04 0.  0.
        5    1    3    3  502    0 -0.60277421291E+03  0.32510146699E+03 -0.55296005326E+03  0.88023555148E+03  0.46999998093E+01 0.  1.
       -5    1    3    3    0  502  0.60277421291E+03 -0.32510146699E+03 -0.16741098357E+03  0.70503634162E+03  0.46999998093E+01 0. -1.
</event>
<event>
 5   0  0.2195980E-03  0.1470696E+04  0.7818609E-02  0.8904177E-01
        2   -1    0    0  501    0  0.00000000000E+00  0.00000000000E+00  0.13411756452E+04  0.13411756452E+04  0.25500000920E-02 0. -1.
       -2   -1    0    0    0  501  0.00000000000E+00  0.00000000000E+00 -0.40318137161E+03  0.40318137162E+03  0.25500000920E-02 0.  1.
    10030    2    1    2    0    0  0.00000000000E+00  0.00000000000E+00  0.93799427363E+03  0.17443570169E+04  0.14706964829E+04 0.  0.
        4    1    3    3  502    0 -0.41280556171E+03 -0.11999913639E+03  0.11766054249E+04  0.12526811898E+04  0.12699999809E+01 0. -1.
       -4    1    3    3    0  502  0.41280556171E+03  0.11999913639E+03 -0.23861115126E+03  0.49167582706E+03  0.12699999809E+01 0.  1.
</event>
<event>
 5   0  0.2236184E-03  0.1435174E+04  0.7818609E-02  0.8928744E-01
        2   -1    0    0  501    0  0.00000000000E+00  0.00000000000E+00  0.12242864618E+04  0.12242864619E+04  0.25500000920E-02 0.  1.
       -2   -1    0    0    0  501  0.00000000000E+00  0.00000000000E+00 -0.42059708753E+03  0.42059708753E+03  0.25500000920E-02 0. -1.
    10030    2    1    2    0    0  0.00000000000E+00  0.00000000000E+00  0.80368937432E+03  0.16448835494E+04  0.14351743032E+04 0.  0.
        3    1    3    3  502    0 -0.11454411838E+03 -0.43633466894E+03  0.10414408617E+04  0.11349481826E+04  0.10100000352E+00 0.  1.
       -3    1    3    3    0  502  0.11454411838E+03  0.43633466894E+03 -0.23775148742E+03  0.50993536683E+03  0.10100000352E+00 0. -1.
</event>
<event>
 5   0  0.2172901E-03  0.1386041E+04  0.7818609E-02  0.8963985E-01
       -2   -1    0    0    0  501  0.00000000000E+00  0.00000000000E+00  0.12457755769E+04  0.12457755769E+04  0.25500000920E-02 0.  1.
        2   -1    0    0  501    0  0.00000000000E+00  0.00000000000E+00 -0.38552493653E+03  0.38552493654E+03  0.25500000920E-02 0. -1.
    10030    2    1    2    0    0  0.00000000000E+00  0.00000000000E+00  0.86025064038E+03  0.16313005134E+04  0.13860411974E+04 0.  0.
        2    1    3    3  502    0  0.28808694902E+03  0.44327513652E+02  0.11701248105E+04  0.12058818726E+04  0.25500000920E-02 0.  1.
       -2    1    3    3    0  502 -0.28808694902E+03 -0.44327513652E+02 -0.30987417009E+03  0.42541864082E+03  0.25500000920E-02 0. -1.
</event>
<event>
 5   0  0.2083966E-03  0.1392433E+04  0.7818609E-02  0.8959314E-01
       -2   -1    0    0    0  501  0.00000000000E+00  0.00000000000E+00  0.40983798412E+03  0.40983798413E+03  0.25500000920E-02 0. -1.
        2   -1    0    0  501    0  0.00000000000E+00  0.00000000000E+00 -0.11827054137E+04  0.11827054137E+04  0.25500000920E-02 0.  1.
    10030    2    1    2    0    0  0.00000000000E+00  0.00000000000E+00 -0.77286742956E+03  0.15925433978E+04  0.13924332696E+04 0.  0.
        1    1    3    3  502    0  0.63012447075E+03 -0.25419345943E+03 -0.21280609949E+03  0.71200955012E+03  0.50400001928E-02 0. -1.
       -1    1    3    3    0  502 -0.63012447075E+03  0.25419345943E+03 -0.56006133007E+03  0.88053384769E+03  0.50400001928E-02 0.  1.
</event>
<event>
 5   0  0.2190704E-03  0.1355223E+04  0.7818609E-02  0.8986884E-01
       -2   -1    0    0    0  501  0.00000000000E+00  0.00000000000E+00  0.40508335578E+03  0.40508335579E+03  0.25500000920E-02 0.  1.
        2   -1    0    0  501    0  0.00000000000E+00  0.00000000000E+00 -0.11334885813E+04  0.11334885814E+04  0.25500000920E-02 0. -1.
    10030    2    1    2    0    0  0.00000000000E+00  0.00000000000E+00 -0.72840522556E+03  0.15385719371E+04  0.13552230197E+04 0.  0.
        5    1    3    3  502    0  0.35681411553E+03 -0.47570909828E+03  0.45830555339E+01  0.59469198214E+03  0.46999998093E+01 0.  1.
       -5    1    3    3    0  502 -0.35681411553E+03  0.47570909828E+03 -0.73298828110E+03  0.94387995500E+03  0.46999998093E+01 0. -1.
</event>
<event>
 5   0  0.2236184E-03  0.1441129E+04  0.7818609E-02  0.8924574E-01
        2   -1    0    0  501    0  0.00000000000E+00  0.00000000000E+00  0.12791731739E+04  0.12791731739E+04  0.25500000920E-02 0.  1.
       -2   -1    0    0    0  501  0.00000000000E+00  0.00000000000E+00 -0.40589767900E+03  0.40589767901E+03  0.25500000920E-02 0. -1.
    10030    2    1    2    0    0  0.00000000000E+00  0.00000000000E+00  0.87327549492E+03  0.16850708529E+04  0.14411293104E+04 0.  0.
        3    1    3    3  502    0  0.85713557633E+02  0.25101809922E+02  0.12726759844E+04  0.12758060536E+04  0.10100000352E+00 0.  1.
       -3    1    3    3    0  502 -0.85713557633E+02 -0.25101809922E+02 -0.39940048948E+03  0.40926479939E+03  0.10100000352E+00 0. -1.
</event>
<event>
 5   0  0.1210275E-03  0.1404500E+04  0.7818609E-02  0.8950568E-01
       -1   -1    0    0    0  501  0.00000000000E+00  0.00000000000E+00  0.11992782284E+04  0.11992782284E+04  0.50400001928E-02 0.  1.
        1   -1    0    0  501    0  0.00000000000E+00  0.00000000000E+00 -0.41120965776E+03  0.41120965779E+03  0.50400001928E-02 0. -1.
    10030    2    1    2    0    0  0.00000000000E+00  0.00000000000E+00  0.78806857059E+03  0.16104878862E+04  0.14044996118E+04 0.  0.
        1    1    3    3  502    0  0.24190451621E+03  0.32672656429E+03  0.10506295867E+04  0.11265392009E+04  0.50400001928E-02 0.  1.
       -1    1    3    3    0  502 -0.24190451621E+03 -0.32672656429E+03 -0.26256101607E+03  0.48394868526E+03  0.50400001928E-02 0. -1.
</event>
<event>
 5   0  0.1175374E-03  0.1386323E+04  0.7818609E-02  0.8963779E-01
       -1   -1    0    0    0  501  0.00000000000E+00  0.00000000000E+00  0.32993448866E+03  0.32993448870E+03  0.50400001928E-02 0. -1.
        1   -1    0    0  501    0  0.00000000000E+00  0.00000000000E+00 -0.14562675743E+04  0.14562675743E+04  0.50400001928E-02 0.  1.
    10030    2    1    2    0    0  0.00000000000E+00  0.00000000000E+00 -0.11263330856E+04  0.17862020630E+04  0.13863230468E+04 0.  0.
        3    1    3    3  502    0 -0.23840681329E+03  0.13047464227E+03  0.25842496861E+03  0.37502655306E+03  0.10100000352E+00 0. -1.
       -3    1    3    3    0  502  0.23840681329E+03 -0.13047464227E+03 -0.13847580542E+04  0.14111755099E+04  0.10100000352E+00 0.  1.
</event>
<event>
 5   0  0.1199720E-03  0.1427279E+04  0.7818609E-02  0.8934306E-01
       -1   -1    0    0    0  501  0.00000000000E+00  0.00000000000E+00  0.44302093445E+03  0.44302093448E+03  0.50400001928E-02 0.  1.
        1   -1    0    0  501    0  0.00000000000E+00  0.00000000000E+00 -0.11495643741E+04  0.11495643741E+04  0.50400001928E-02 0. -1.
    10030    2    1    2    0    0  0.00000000000E+00  0.00000000000E+00 -0.70654343965E+03  0.15925853086E+04  0.14272786459E+04 0.  0.
        5    1    3    3  502    0 -0.59768809310E+03 -0.28866272601E+03 -0.60804032303E+02  0.66654065620E+03  0.46999998093E+01 0.  1.
       -5    1    3    3    0  502  0.59768809310E+03  0.28866272601E+03 -0.64573940734E+03  0.92604465239E+03  0.46999998093E+01 0. -1.
</event>
<event>
 5   0  0.1175374E-03  0.1397943E+04  0.7818609E-02  0.8955309E-01
        1   -1    0    0  501    0  0.00000000000E+00  0.00000000000E+00  0.88214798976E+03  0.88214798978E+03  0.50400001928E-02 0.  1.
       -1   -1    0    0    0  501  0.00000000000E+00  0.00000000000E+00 -0.55383111659E+03  0.55383111662E+03  0.50400001928E-02 0. -1.
    10030    2    1    2    0    0  0.00000000000E+00  0.00000000000E+00  0.32831687317E+03  0.14359791064E+04  0.13979427831E+04 0.  0.
        3    1    3    3  502    0  0.20244022660E+03  0.49927907494E+03 -0.29326601537E+03  0.61340574337E+03  0.10100000352E+00 0.  1.
       -3    1    3    3    0  502 -0.20244022660E+03 -0.49927907494E+03  0.62158288854E+03  0.82257336302E+03  0.10100000352E+00 0. -1.
</event>
<event>
 5   0  0.2172901E-03  0.1463784E+04  0.7818609E-02  0.8908900E-01
       -2   -1    0    0    0  501  0.00000000000E+00  0.00000000000E+00  0.27514539241E+03  0.27514539242E+03  0.25500000920E-02 0. -1.
        2   -1    0    0  501    0  0.00000000000E+00  0.00000000000E+00 -0.19468459218E+04  0.19468459218E+04  0.25500000920E-02 0.  1.
    10030    2    1    2    0    0  0.00000000000E+00  0.00000000000E+00 -0.16717005294E+04  0.22219913143E+04  0.14637837069E+04 0.  0.
        2    1    3    3  502    0  0.39986420096E+03  0.31585551660E+03 -0.38356050636E+02  0.51100613812E+03  0.25500000920E-02 0. -1.
       -2    1    3    3    0  502 -0.39986420096E+03 -0.31585551660E+03 -0.16333444788E+04  0.17109851761E+04  0.25500000920E-02 0.  1.
</event>
<event>
 5   0  0.2236184E-03  0.1408123E+04  0.7818609E-02  0.8947959E-01
        2   -1    0    0  501    0  0.00000000000E+00  0.00000000000E+00  0.62719508465E+03  0.62719508466E+03  0.25500000920E-02 0. -1.
       -2   -1    0    0    0  501  0.00000000000E+00  0.00000000000E+00 -0.79034854941E+03  0.79034854941E+03  0.25500000920E-02 0.  1.
    10030    2    1    2    0    0  0.00000000000E+00  0.00000000000E+00 -0.16315346475E+03  0.14175436341E+04  0.14081231840E+04 0.  0.
        3    1    3    3  502    0 -0.13032690638E+03  0.44576610286E+03  0.45112328184E+03  0.64746022782E+03  0.10100000352E+00 0. -1.
       -3    1    3    3    0  502  0.13032690638E+03 -0.44576610286E+03 -0.61427674659E+03  0.77008340626E+03  0.10100000352E+00 0.  1.
</event>
<event>
 5   0  0.1175374E-03  0.1432640E+04  0.7818609E-02  0.8930525E-01
        1   -1    0    0  501    0  0.00000000000E+00  0.00000000000E+00  0.25615125262E+04  0.25615125262E+04  0.50400001928E-02 0.  1.
       -1   -1    0    0    0  501  0.00000000000E+00  0.00000000000E+00 -0.20031685977E+03  0.20031685983E+03  0.50400001928E-02 0. -1.
    10030    2    1    2    0    0  0.00000000000E+00  0.00000000000E+00  0.23611956664E+04  0.27618293860E+04  0.14326397253E+04 0.  0.
        3    1    3    3  502    0 -0.36456648519E+03  0.50580087304E+03  0.18604574233E+04  0.19621531743E+04  0.10100000352E+00 0. -1.
       -3    1    3    3    0  502  0.36456648519E+03 -0.50580087304E+03  0.50073824314E+03  0.79967621175E+03  0.10100000352E+00 0.  1.
</event>
<event>
 5   0  0.1238683E-03  0.1334093E+04  0.7818609E-02  0.9002957E-01
       -1   -1    0    0    0  501  0.00000000000E+00  0.00000000000E+00  0.92043599656E+03  0.92043599658E+03  0.50400001928E-02 0.  1.
        1   -1    0    0  501    0  0.00000000000E+00  0.00000000000E+00 -0.48341356628E+03  0.48341356631E+03  0.50400001928E-02 0. -1.
    10030    2    1    2    0    0  0.00000000000E+00  0.00000000000E+00  0.43702243028E+03  0.14038495629E+04  0.13340933216E+04 0.  0.
        2    1    3    3  502    0  0.57103617725E+02 -0.32686217828E+03  0.82743159818E+03  0.89148345830E+03  0.25500000920E-02 0.  1.
       -2    1    3    3    0  502 -0.57103617725E+02  0.32686217828E+03 -0.39040916790E+03  0.51236610459E+03  0.25500000920E-02 0. -1.
</event>
<event>
 5   0  0.2172901E-03  0.1414085E+04  0.7818609E-02  0.8943686E-01
        2   -1    0    0  501    0  0.00000000000E+00  0.00000000000E+00  0.98611229535E+03  0.98611229535E+03  0.25500000920E-02 0. -1.
       -2   -1    0    0    0  501  0.00000000000E+00  0.00000000000E+00 -0.50694940006E+03  0.50694940006E+03  0.25500000920E-02 0.  1.
    10030    2    1    2    0    0  0.00000000000E+00  0.00000000000E+00  0.47916289529E+03  0.14930616954E+04  0.14140849147E+04 0.  0.
        2    1    3    3  502    0  0.55800372423E+03 -0.54067383912E+00 -0.21888197572E+03  0.59939783774E+03  0.25500000920E-02 0.  1.
       -2    1    3    3    0  502 -0.55800372423E+03  0.54067383912E+00  0.69804487101E+03  0.89366385768E+03  0.25500000920E-02 0. -1.
</event>
<event>
 5   0  0.1225690E-03  0.1397079E+04  0.7818609E-02  0.8955936E-01
       -1   -1    0    0    0  501  0.00000000000E+00  0.00000000000E+00  0.71011859792E+03  0.71011859794E+03  0.50400001928E-02 0. -1.
        1   -1    0    0  501    0  0.00000000000E+00  0.00000000000E+00 -0.68714924198E+03  0.68714924200E+03  0.50400001928E-02 0.  1.
    10030    2    1    2    0    0  0.00000000000E+00  0.00000000000E+00  0.22969355940E+02  0.13972678399E+04  0.13970790333E+04 0.  0.
        4    1    3    3  502    0  0.26469981203E+03 -0.37059145543E+03  0.54122769201E+03  0.70734224023E+03  0.12699999809E+01 0. -1.
       -4    1    3    3    0  502 -0.26469981203E+03  0.37059145543E+03 -0.51825833607E+03  0.68992559970E+03  0.12699999809E+01 0.  1.
</event>
<event>
 5   0  0.8293000E-04  0.1404845E+04  0.7818609E-02  0.8950319E-01
        3   -1    0    0  501    0  0.00000000000E+00  0.00000000000E+00  0.12104223877E+04  0.12104223919E+04  0.10100000352E+00 0. -1.
       -3   -1    0    0    0  501  0.00000000000E+00  0.00000000000E+00 -0.40762424517E+03  0.40762425768E+03  0.10100000352E+00 0.  1.
    10030    2    1    2    0    0  0.00000000000E+00  0.00000000000E+00  0.80279814254E+03  0.16180466496E+04  0.14048452237E+04 0.  0.
        1    1    3    3  502    0  0.30929418138E+03  0.48115980267E+03  0.87097306936E+03  0.10420037111E+04  0.50400001928E-02 0. -1.
       -1    1    3    3    0  502 -0.30929418138E+03 -0.48115980267E+03 -0.68174926822E+02  0.57604293852E+03  0.50400001928E-02 0.  1.
</event>
<event>
 5   0  0.2083966E-03  0.1398234E+04  0.7818609E-02  0.8955098E-01
        2   -1    0    0  501    0  0.00000000000E+00  0.00000000000E+00  0.90065312544E+03  0.90065312545E+03  0.25500000920E-02 0.  1.
       -2   -1    0    0    0  501  0.00000000000E+00  0.00000000000E+00 -0.54267822776E+03  0.54267822777E+03  0.25500000920E-02 0. -1.
    10030    2    1    2    0    0  0.00000000000E+00  0.00000000000E+00  0.35797489768E+03  0.14433313532E+04  0.13982343751E+04 0.  0.
        1    1    3    3  502    0 -0.42146838369E+02  0.47765283272E+03  0.70415589776E+03  0.85191790271E+03  0.50400001928E-02 0.  1.
       -1    1    3    3    0  502  0.42146838369E+02 -0.47765283272E+03 -0.34618100007E+03  0.59141345050E+03  0.50400001928E-02 0. -1.
</event>
<event>
 5   0  0.1225690E-03  0.1474964E+04  0.7818609E-02  0.8901274E-01
        1   -1    0    0  501    0  0.00000000000E+00  0.00000000000E+00  0.44879736127E+03  0.44879736130E+03  0.50400001928E-02 0. -1.
       -1   -1    0    0    0  501  0.00000000000E+00  0.00000000000E+00 -0.12118606709E+04  0.12118606709E+04  0.50400001928E-02 0.  1.
    10030    2    1    2    0    0  0.00000000000E+00  0.00000000000E+00 -0.76306330964E+03  0.16606580322E+04  0.14749642319E+04 0.  0.
        4    1    3    3  502    0 -0.60876501088E+03 -0.16912405365E+03 -0.80978787921E+03  0.10271104158E+04  0.12699999809E+01 0.  1.
       -4    1    3    3    0  502  0.60876501088E+03  0.16912405365E+03  0.46724569568E+02  0.63354761644E+03  0.12699999809E+01 0. -1.
</event>
<event>
 5   0  0.1210275E-03  0.1404552E+04  0.7818609E-02  0.8950530E-01
       -1   -1    0    0    0  501  0.00000000000E+00  0.00000000000E+00  0.11473578068E+04  0.11473578069E+04  0.50400001928E-02 0. -1.
        1   -1    0    0  501    0  0.00000000000E+00  0.00000000000E+00 -0.42984979853E+03  0.42984979856E+03  0.50400001928E-02 0.  1.
    10030    2    1    2    0    0  0.00000000000E+00  0.00000000000E+00  0.71750800831E+03  0.15772076054E+04  0.14045519174E+04 0.  0.
        1    1    3    3  502    0  0.18404837529E+03 -0.83297914221E+02 -0.39651622781E+03  0.44501400641E+03  0.50400001928E-02 0.  1.
       -1    1    3    3    0  502 -0.18404837529E+03  0.83297914221E+02  0.11140242361E+04  0.11321935990E+04  0.50400001928E-02 0. -1.
</event>
<event>
 5   0  0.1238683E-03  0.1405151E+04  0.7818609E-02  0.8950098E-01
        1   -1    0    0  501    0  0.00000000000E+00  0.00000000000E+00  0.11364649891E+04  0.11364649891E+04  0.50400001928E-02 0. -1.
       -1   -1    0    0    0  501  0.00000000000E+00  0.00000000000E+00 -0.43434032498E+03  0.43434032501E+03  0.50400001928E-02 0.  1.
    10030    2    1    2    0    0  0.00000000000E+00  0.00000000000E+00  0.70212466408E+03  0.15708053141E+04  0.14051513409E+04 0.  0.
        2    1    3    3  502    0  0.27613362460E+03 -0.42027338715E+03  0.89955034488E+03  0.10305679607E+04  0.25500000920E-02 0. -1.
       -2    1    3    3    0  502 -0.27613362460E+03  0.42027338715E+03 -0.19742568080E+03  0.54023735342E+03  0.25500000920E-02 0.  1.
</event>
<event>
 5   0  0.2083966E-03  0.1419097E+04  0.7818609E-02  0.8940110E-01
        2   -1    0    0  501    0  0.00000000000E+00  0.00000000000E+00  0.74366155494E+03  0.74366155494E+03  0.25500000920E-02 0.  1.
       -2   -1    0    0    0  501  0.00000000000E+00  0.00000000000E+00 -0.67700005041E+03  0.67700005042E+03  0.25500000920E-02 0. -1.
    10030    2    1    2    0    0  0.00000000000E+00  0.00000000000E+00  0.66661504522E+02  0.14206616054E+04  0.14190967693E+04 0.  0.
        1    1    3    3  502    0 -0.49125819058E+03  0.31109414594E+03  0.44040517369E+03  0.72943189845E+03  0.50400001928E-02 0.  1.
       -1    1    3    3    0  502  0.49125819058E+03 -0.31109414594E+03 -0.37374366917E+03  0.69122970691E+03  0.50400001928E-02 0. -1.
</event>
<event>
 5   0  0.2190704E-03  0.1400480E+04  0.7818609E-02  0.8953471E-01
        2   -1    0    0  501    0  0.00000000000E+00  0.00000000000E+00  0.12864865424E+04  0.12864865424E+04  0.25500000920E-02 0.  1.
       -2   -1    0    0    0  501  0.00000000000E+00  0.00000000000E+00 -0.38114350244E+03  0.38114350245E+03  0.25500000920E-02 0. -1.
    10030    2    1    2    0    0  0.00000000000E+00  0.00000000000E+00  0.90534303993E+03  0.16676300448E+04  0.14004798986E+04 0.  0.
        5    1    3    3  502    0  0.34141518649E+03 -0.60452361731E+03  0.56115955486E+03  0.89271231058E+03  0.46999998093E+01 0. -1.
       -5    1    3    3    0  502 -0.34141518649E+03  0.60452361731E+03  0.34418348506E+03  0.77491773424E+03  0.46999998093E+01 0.  1.
</event>
<event>
 5   0  0.1175374E-03  0.1380613E+04  0.7818609E-02  0.8967973E-01
        1   -1    0    0  501    0  0.00000000000E+00  0.00000000000E+00  0.49750622092E+03  0.49750622094E+03  0.50400001928E-02 0. -1.
       -1   -1    0    0    0  501  0.00000000000E+00  0.00000000000E+00 -0.95782265997E+03  0.95782265998E+03  0.50400001928E-02 0.  1.
    10030    2    1    2    0    0  0.00000000000E+00  0.00000000000E+00 -0.46031643905E+03  0.14553288809E+04  0.13806125190E+04 0.  0.
        3    1    3    3  502    0 -0.23144771801E+03  0.42202527561E+03  0.29144325654E+03  0.56268335803E+03  0.10100000352E+00 0. -1.
       -3    1    3    3    0  502  0.23144771801E+03 -0.42202527561E+03 -0.75175969559E+03  0.89264552289E+03  0.10100000352E+00 0.  1.
</event>
<event>
 5   0  0.2195980E-03  0.1387713E+04  0.7818609E-02  0.8962761E-01
       -2   -1    0    0    0  501  0.00000000000E+00  0.00000000000E+00  0.50662876799E+03  0.50662876800E+03  0.25500000920E-02 0. -1.
        2   -1    0    0  501    0  0.00000000000E+00  0.00000000000E+00 -0.95027568022E+03  0.95027568022E+03  0.25500000920E-02 0.  1.
    10030    2    1    2    0    0  0.00000000000E+00  0.00000000000E+00 -0.44364691222E+03  0.14569044482E+04  0.13877132227E+04 0.  0.
        4    1    3    3  502    0 -0.24934564662E+02  0.69061792283E+03 -0.28705462603E+03  0.74831598878E+03  0.12699999809E+01 0. -1.
       -4    1    3    3    0  502  0.24934564662E+02 -0.69061792283E+03 -0.15659228619E+03  0.70858845943E+03  0.12699999809E+01 0.  1.
</event>
<event>
 5   0  0.1225690E-03  0.1385658E+04  0.7818609E-02  0.8964266E-01
        1   -1    0    0  501    0  0.00000000000E+00  0.00000000000E+00  0.13543745799E+04  0.13543745799E+04  0.50400001928E-02 0. -1.
       -1   -1    0    0    0  501  0.00000000000E+00  0.00000000000E+00 -0.35441608308E+03  0.35441608312E+03  0.50400001928E-02 0.  1.
    10030    2    1    2    0    0  0.00000000000E+00  0.00000000000E+00  0.99995849685E+03  0.17087906631E+04  0.13856581594E+04 0.  0.
        4    1    3    3  502    0  0.12092851735E+03  0.65820290017E+03  0.72111661111E+03  0.98380157746E+03  0.12699999809E+01 0. -1.
       -4    1    3    3    0  502 -0.12092851735E+03 -0.65820290017E+03  0.27884188574E+03  0.72498908560E+03  0.12699999809E+01 0.  1.
</event>
<event>
 5   0  0.1199720E-03  0.1351090E+04  0.7818609E-02  0.8990004E-01
       -1   -1    0    0    0  501  0.00000000000E+00  0.00000000000E+00  0.80898293848E+03  0.80898293849E+03  0.50400001928E-02 0.  1.
        1   -1    0    0  501    0  0.00000000000E+00  0.00000000000E+00 -0.56411662826E+03  0.56411662828E+03  0.50400001928E-02 0. -1.
    10030    2    1    2    0    0  0.00000000000E+00  0.00000000000E+00  0.24486631022E+03  0.13730995668E+04  0.13510895272E+04 0.  0.
        5    1    3    3  502    0 -0.25789195904E+02  0.28438647300E+03  0.74461376249E+03  0.79750391469E+03  0.46999998093E+01 0.  1.
       -5    1    3    3    0  502  0.25789195904E+02 -0.28438647300E+03 -0.49974745227E+03  0.57559565209E+03  0.46999998093E+01 0. -1.
</event>
<event>
 5   0  0.1238683E-03  0.1560890E+04  0.7818609E-02  0.8844942E-01
       -1   -1    0    0    0  501  0.00000000000E+00  0.00000000000E+00  0.74582459662E+03  0.74582459664E+03  0.50400001928E-02 0. -1.
        1   -1    0    0  501    0  0.00000000000E+00  0.00000000000E+00 -0.81667262202E+03  0.81667262204E+03  0.50400001928E-02 0.  1.
    10030    2    1    2    0    0  0.00000000000E+00  0.00000000000E+00 -0.70848025402E+02  0.15624972187E+04  0.15608901677E+04 0.  0.
        2    1    3    3  502    0  0.10391446953E+03  0.67471184357E+03 -0.41404648134E+03  0.79841641863E+03  0.25500000920E-02 0.  1.
       -2    1    3    3    0  502 -0.10391446953E+03 -0.67471184357E+03  0.34319845594E+03  0.76408080004E+03  0.25500000920E-02 0. -1.
</event>
<event>
 5   0  0.1238683E-03  0.1477154E+04  0.7818609E-02  0.8899789E-01
       -1   -1    0    0    0  501  0.00000000000E+00  0.00000000000E+00  0.88318843477E+03  0.88318843478E+03  0.50400001928E-02 0. -1.
        1   -1    0    0  501    0  0.00000000000E+00  0.00000000000E+00 -0.61764421571E+03  0.61764421573E+03  0.50400001928E-02 0.  1.
    10030    2    1    2    0    0  0.00000000000E+00  0.00000000000E+00  0.26554421906E+03  0.15008326505E+04  0.14771543293E+04 0.  0.
        2    1    3    3  502    0  0.69838672848E+03  0.22395491840E+03  0.22132654402E+03  0.76608437335E+03  0.25500000920E-02 0.  1.
       -2    1    3    3    0  502 -0.69838672848E+03 -0.22395491840E+03  0.44217675031E+02  0.73474827716E+03  0.25500000920E-02 0. -1.
</event>
<event>
 5   0  0.1199720E-03  0.1423025E+04  0.7818609E-02  0.8937319E-01
        1   -1    0    0  501    0  0.00000000000E+00  0.00000000000E+00  0.10096256275E+04  0.10096256275E+04  0.50400001928E-02 0.  1.
       -1   -1    0    0    0  501  0.00000000000E+00  0.00000000000E+00 -0.50142327924E+03  0.50142327926E+03  0.50400001928E-02 0. -1.
    10030    2    1    2    0    0  0.00000000000E+00  0.00000000000E+00  0.50820234823E+03  0.15110489067E+04  0.14230246561E+04 0.  0.
        5    1    3    3  502    0 -0.54097506598E+03  0.32055436476E+03 -0.99384963282E+02  0.63663850316E+03  0.46999998093E+01 0. -1.
       -5    1    3    3    0  502  0.54097506598E+03 -0.32055436476E+03  0.60758731152E+03  0.87441040358E+03  0.46999998093E+01 0.  1.
</event>
<event>
 5   0  0.1199720E-03  0.1338591E+04  0.7818609E-02  0.8999510E-01
       -1   -1    0    0    0  501  0.00000000000E+00  0.00000000000E+00  0.55016805595E+03  0.55016805597E+03  0.50400001928E-02 0. -1.
        1   -1    0    0  501    0  0.00000000000E+00  0.00000000000E+00 -0.81421707782E+03  0.81421707783E+03  0.50400001928E-02 0.  1.
    10030    2    1    2    0    0  0.00000000000E+00  0.00000000000E+00 -0.26404902187E+03  0.13643851338E+04  0.13385906422E+04 0.  0.
        5    1    3    3  502    0  0.24745439568E+03  0.60127854167E+03 -0.29371481867E+03  0.71348444084E+03  0.46999998093E+01 0.  1.
       -5    1    3    3    0  502 -0.24745439568E+03 -0.60127854167E+03  0.29665796798E+02  0.65090069297E+03  0.46999998093E+01 0. -1.
</event>
<event>
 5   0  0.1238683E-03  0.1263225E+04  0.7818609E-02  0.9059247E-01
        1   -1    0    0  501    0  0.00000000000E+00  0.00000000000E+00  0.68493905032E+03  0.68493905034E+03  0.50400001928E-02 0.  1.
       -1   -1    0    0    0  501  0.00000000000E+00  0.00000000000E+00 -0.58243799805E+03  0.58243799807E+03  0.50400001928E-02 0. -1.
    10030    2    1    2    0    0  0.00000000000E+00  0.00000000000E+00  0.10250105227E+03  0.12673770484E+04  0.12632252836E+04 0.  0.
        2    1    3    3  502    0 -0.55936163281E+03  0.15275500889E+03 -0.20000217691E+03  0.61336807854E+03  0.25500000920E-02 0.  1.
       -2    1    3    3    0  502  0.55936163281E+03 -0.15275500889E+03  0.30250322918E+03  0.65400896987E+03  0.25500000920E-02 0. -1.
</event>
<event>
 5   0  0.1238683E-03  0.1404102E+04  0.7818609E-02  0.8950854E-01
       -1   -1    0    0    0  501  0.00000000000E+00  0.00000000000E+00  0.32526013916E+03  0.32526013920E+03  0.50400001928E-02 0. -1.
        1   -1    0    0  501    0  0.00000000000E+00  0.00000000000E+00 -0.15153282027E+04  0.15153282027E+04  0.50400001928E-02 0.  1.
    10030    2    1    2    0    0  0.00000000000E+00  0.00000000000E+00 -0.11900680636E+04  0.18405883419E+04  0.14041023640E+04 0.  0.
        2    1    3    3  502    0 -0.33709429061E+03 -0.22463034317E+03 -0.13466804129E+04  0.14062857058E+04  0.25500000920E-02 0.  1.
       -2    1    3    3    0  502  0.33709429061E+03  0.22463034317E+03  0.15661234929E+03  0.43430263618E+03  0.25500000920E-02 0. -1.
</event>
<event>
 5   0  0.8293000E-04  0.1283766E+04  0.7818609E-02  0.9042539E-01
       -4   -1    0    0    0  501  0.00000000000E+00  0.00000000000E+00  0.60088297760E+03  0.60088431971E+03  0.12699999809E+01 0.  1.
        4   -1    0    0  501    0  0.00000000000E+00  0.00000000000E+00 -0.68567825551E+03  0.68567943164E+03  0.12699999809E+01 0. -1.
    10030    2    1    2    0    0  0.00000000000E+00  0.00000000000E+00 -0.84795277911E+02  0.12865637514E+04  0.12837663522E+04 0.  0.
        4    1    3    3  502    0  0.22188406975E+02  0.44677148593E+03 -0.50374335516E+03  0.67368840483E+03  0.12699999809E+01 0. -1.
       -4    1    3    3    0  502 -0.22188406975E+02 -0.44677148593E+03  0.41894807725E+03  0.61287534652E+03  0.12699999809E+01 0.  1.
</event>
<event>
 5   0  0.2083966E-03  0.1383556E+04  0.7818609E-02  0.8965808E-01
       -2   -1    0    0    0  501  0.00000000000E+00  0.00000000000E+00  0.96524222183E+03  0.96524222184E+03  0.25500000920E-02 0.  1.
        2   -1    0    0  501    0  0.00000000000E+00  0.00000000000E+00 -0.49578942611E+03  0.49578942611E+03  0.25500000920E-02 0. -1.
    10030    2    1    2    0    0  0.00000000000E+00  0.00000000000E+00  0.46945279572E+03  0.14610316479E+04  0.13835561242E+04 0.  0.
        1    1    3    3  502    0  0.17034761350E+03 -0.54128334155E+03  0.65254777593E+03  0.86476850380E+03  0.50400001928E-02 0.  1.
       -1    1    3    3    0  502 -0.17034761350E+03  0.54128334155E+03 -0.18309498021E+03  0.59626314415E+03  0.50400001928E-02 0. -1.
</event>
<event>
 5   0  0.1199720E-03  0.1419806E+04  0.7818609E-02  0.8939605E-01
        1   -1    0    0  501    0  0.00000000000E+00  0.00000000000E+00  0.67543402653E+03  0.67543402655E+03  0.50400001928E-02 0. -1.
       -1   -1    0    0    0  501  0.00000000000E+00  0.00000000000E+00 -0.74613145600E+03  0.74613145602E+03  0.50400001928E-02 0.  1.
    10030    2    1    2    0    0  0.00000000000E+00  0.00000000000E+00 -0.70697429470E+02  0.14215654826E+04  0.14198064286E+04 0.  0.
        5    1    3    3  502    0  0.42374308527E+03  0.26363673697E+03 -0.54082858587E+03  0.73592131420E+03  0.46999998093E+01 0.  1.
       -5    1    3    3    0  502 -0.42374308527E+03 -0.26363673697E+03  0.47013115640E+03  0.68564416837E+03  0.46999998093E+01 0. -1.
</event>
<event>
 5   0  0.1238683E-03  0.1425668E+04  0.7818609E-02  0.8935445E-01
        1   -1    0    0  501    0  0.00000000000E+00  0.00000000000E+00  0.17322331813E+04  0.17322331813E+04  0.50400001928E-02 0.  1.
       -1   -1    0    0    0  501  0.00000000000E+00  0.00000000000E+00 -0.29333947566E+03  0.29333947570E+03  0.50400001928E-02 0. -1.
    10030    2    1    2    0    0  0.00000000000E+00  0.00000000000E+00  0.14388937056E+04  0.20255726570E+04  0.14256680864E+04 0.  0.
        2    1    3    3  502    0  0.30246536432E+03  0.50979157830E+03  0.12819779082E+04  0.14123880866E+04  0.25500000920E-02 0.  1.
       -2    1    3    3    0  502 -0.30246536432E+03 -0.50979157830E+03  0.15691579740E+03  0.61318457042E+03  0.25500000920E-02 0. -1.
</event>
<event>
 5   0  0.1210275E-03  0.1408065E+04  0.7818609E-02  0.8948001E-01
        1   -1    0    0  501    0  0.00000000000E+00  0.00000000000E+00  0.92268045456E+03  0.92268045458E+03  0.50400001928E-02 0. -1.
       -1   -1    0    0    0  501  0.00000000000E+00  0.00000000000E+00 -0.53719799395E+03  0.53719799397E+03  0.50400001928E-02 0.  1.
    10030    2    1    2    0    0  0.00000000000E+00  0.00000000000E+00  0.38548246061E+03  0.14598784486E+04  0.14080654662E+04 0.  0.
        1    1    3    3  502    0  0.27723788503E+02  0.37547481434E+03  0.80953727920E+03  0.89280487851E+03  0.50400001928E-02 0. -1.
       -1    1    3    3    0  502 -0.27723788503E+02 -0.37547481434E+03 -0.42405481859E+03  0.56707357004E+03  0.50400001928E-02 0.  1.
</event>
<event>
 5   0  0.2190704E-03  0.1425943E+04  0.7818609E-02  0.8935251E-01
        2   -1    0    0  501    0  0.00000000000E+00  0.00000000000E+00  0.23296299537E+04  0.23296299537E+04  0.25500000920E-02 0.  1.
       -2   -1    0    0    0  501  0.00000000000E+00  0.00000000000E+00 -0.21820126531E+03  0.21820126533E+03  0.25500000920E-02 0. -1.
    10030    2    1    2    0    0  0.00000000000E+00  0.00000000000E+00  0.21114286884E+04  0.25478312191E+04  0.14259427810E+04 0.  0.
        5    1    3    3  502    0  0.20502861678E+02 -0.69200788511E+02  0.23230580683E+04  0.23241837266E+04  0.46999998093E+01 0.  1.
       -5    1    3    3    0  502 -0.20502861678E+02  0.69200788511E+02 -0.21162937985E+03  0.22364749246E+03  0.46999998093E+01 0. -1.
</event>
<event>
 5   0  0.2190704E-03  0.1374955E+04  0.7818609E-02  0.8972150E-01
        2   -1    0    0  501    0  0.00000000000E+00  0.00000000000E+00  0.54943935548E+03  0.54943935549E+03  0.25500000920E-02 0.  1.
       -2   -1    0    0    0  501  0.00000000000E+00  0.00000000000E+00 -0.86019503279E+03  0.86019503280E+03  0.25500000920E-02 0. -1.
    10030    2    1    2    0    0  0.00000000000E+00  0.00000000000E+00 -0.31075567731E+03  0.14096343883E+04  0.13749545511E+04 0.  0.
        5    1    3    3  502    0  0.19827214225E+03 -0.62660001966E+03  0.51360229626E+02  0.65924152646E+03  0.46999998093E+01 0. -1.
       -5    1    3    3    0  502 -0.19827214225E+03  0.62660001966E+03 -0.36211590694E+03  0.75039286183E+03  0.46999998093E+01 0.  1.
</event>
<event>
 5   0  0.2195980E-03  0.1373231E+04  0.7818609E-02  0.8973426E-01
       -2   -1    0    0    0  501  0.00000000000E+00  0.00000000000E+00  0.44802973028E+03  0.44802973028E+03  0.25500000920E-02 0.  1.
        2   -1    0    0  501    0  0.00000000000E+00  0.00000000000E+00 -0.10522539719E+04  0.10522539719E+04  0.25500000920E-02 0. -1.
    10030    2    1    2    0    0  0.00000000000E+00  0.00000000000E+00 -0.60422424162E+03  0.15002837022E+04  0.13732313180E+04 0.  0.
        4    1    3    3  502    0 -0.92727158031E+02  0.37859327768E+03 -0.91966014055E+03  0.99885313373E+03  0.12699999809E+01 0. -1.
       -4    1    3    3    0  502  0.92727158031E+02 -0.37859327768E+03  0.31543589893E+03  0.50143056845E+03  0.12699999809E+01 0.  1.
</event>
<event>
 5   0  0.1199720E-03  0.1400061E+04  0.7818609E-02  0.8953775E-01
        1   -1    0    0  501    0  0.00000000000E+00  0.00000000000E+00  0.25698015205E+04  0.25698015205E+04  0.50400001928E-02 0. -1.
       -1   -1    0    0    0  501  0.00000000000E+00  0.00000000000E+00 -0.19069270032E+03  0.19069270038E+03  0.50400001928E-02 0.  1.
    10030    2    1    2    0    0  0.00000000000E+00  0.00000000000E+00  0.23791088202E+04  0.27604942209E+04  0.14000605577E+04 0.  0.
        5    1    3    3  502    0 -0.25222766414E+03  0.55067436941E+03  0.18815025265E+04  0.19765967983E+04  0.46999998093E+01 0. -1.
       -5    1    3    3    0  502  0.25222766414E+03 -0.55067436941E+03  0.49760629370E+03  0.78389742263E+03  0.46999998093E+01 0.  1.
</event>
<event>
 5   0  0.2172901E-03  0.1451237E+04  0.7818609E-02  0.8917543E-01
        2   -1    0    0  501    0  0.00000000000E+00  0.00000000000E+00  0.78323899393E+03  0.78323899394E+03  0.25500000920E-02 0.  1.
       -2   -1    0    0    0  501  0.00000000000E+00  0.00000000000E+00 -0.67223715538E+03  0.67223715538E+03  0.25500000920E-02 0. -1.
    10030    2    1    2    0    0  0.00000000000E+00  0.00000000000E+00  0.11100183856E+03  0.14554761493E+04  0.14512372008E+04 0.  0.
        2    1    3    3  502    0 -0.13644430589E+02 -0.72545611298E+03  0.62564993924E+02  0.72827681607E+03  0.25500000920E-02 0.  1.
       -2    1    3    3    0  502  0.13644430589E+02  0.72545611298E+03  0.48436844635E+02  0.72719933325E+03  0.25500000920E-02 0. -1.
</event>
<event>
 5   0  0.1238683E-03  0.1393996E+04  0.7818609E-02  0.8958176E-01
        1   -1    0    0  501    0  0.00000000000E+00  0.00000000000E+00  0.74019413905E+03  0.74019413907E+03  0.50400001928E-02 0.  1.
       -1   -1    0    0    0  501  0.00000000000E+00  0.00000000000E+00 -0.65632257995E+03  0.65632257997E+03  0.50400001928E-02 0. -1.
    10030    2    1    2    0    0  0.00000000000E+00  0.00000000000E+00  0.83871559098E+02  0.13965167190E+04  0.13939958781E+04 0.  0.
        2    1    3    3  502    0  0.22379899273E+02  0.48178002269E+02  0.73816314279E+03  0.74007216214E+03  0.25500000920E-02 0.  1.
       -2    1    3    3    0  502 -0.22379899273E+02 -0.48178002269E+02 -0.65429158369E+03  0.65644455690E+03  0.25500000920E-02 0. -1.
</event>
<event>
 5   0  0.2172901E-03  0.1770918E+04  0.7818609E-02  0.8721920E-01
        2   -1    0    0  501    0  0.00000000000E+00  0.00000000000E+00  0.60047720371E+03  0.60047720372E+03  0.25500000920E-02 0. -1.
       -2   -1    0    0    0  501  0.00000000000E+00  0.00000000000E+00 -0.13056909852E+04  0.13056909852E+04  0.25500000920E-02 0.  1.
    10030    2    1    2    0    0  0.00000000000E+00  0.00000000000E+00 -0.70521378151E+03  0.19061681889E+04  0.17709180351E+04 0.  0.
        2    1    3    3  502    0 -0.23455867083E+03  0.30131009339E+03  0.50730130527E+03  0.63494894029E+03  0.25500000920E-02 0. -1.
       -2    1    3    3    0  502  0.23455867083E+03 -0.30131009339E+03 -0.12125150868E+04  0.12712192486E+04  0.25500000920E-02 0.  1.
</event>
<event>
 5   0  0.1199720E-03  0.1610327E+04  0.7818609E-02  0.8814229E-01
       -1   -1    0    0    0  501  0.00000000000E+00  0.00000000000E+00  0.39682373899E+03  0.39682373902E+03  0.50400001928E-02 0. -1.
        1   -1    0    0  501    0  0.00000000000E+00  0.00000000000E+00 -0.16336924379E+04  0.16336924379E+04  0.50400001928E-02 0.  1.
    10030    2    1    2    0    0  0.00000000000E+00  0.00000000000E+00 -0.12368686989E+04  0.20305161769E+04  0.16103266024E+04 0.  0.
        5    1    3    3  502    0 -0.33227467469E+03 -0.13776649214E+03 -0.15267271302E+04  0.15685355864E+04  0.46999998093E+01 0.  1.
       -5    1    3    3    0  502  0.33227467469E+03  0.13776649214E+03  0.28985843130E+03  0.46198059049E+03  0.46999998093E+01 0. -1.
</event>
<event>
 5   0  0.2195980E-03  0.1443548E+04  0.7818609E-02  0.8922885E-01
        2   -1    0    0  501    0  0.00000000000E+00  0.00000000000E+00  0.11683769711E+04  0.11683769711E+04  0.25500000920E-02 0. -1.
       -2   -1    0    0    0  501  0.00000000000E+00  0.00000000000E+00 -0.44588178357E+03  0.44588178358E+03  0.25500000920E-02 0.  1.
    10030    2    1    2    0    0  0.00000000000E+00  0.00000000000E+00  0.72249518749E+03  0.16142587547E+04  0.14435484166E+04 0.  0.
        4    1    3    3  502    0 -0.28548837069E+03 -0.66288006443E+03  0.35393131479E+03  0.80385482402E+03  0.12699999809E+01 0.  1.
       -4    1    3    3    0  502  0.28548837069E+03  0.66288006443E+03  0.36856387270E+03  0.81040393063E+03  0.12699999809E+01 0. -1.
</event>
<event>
 5   0  0.1210275E-03  0.1448841E+04  0.7818609E-02  0.8919205E-01
        1   -1    0    0  501    0  0.00000000000E+00  0.00000000000E+00  0.81006398262E+03  0.81006398264E+03  0.50400001928E-02 0. -1.
       -1   -1    0    0    0  501  0.00000000000E+00  0.00000000000E+00 -0.64783126718E+03  0.64783126720E+03  0.50400001928E-02 0.  1.
    10030    2    1    2    0    0  0.00000000000E+00  0.00000000000E+00  0.16223271544E+03  0.14578952498E+04  0.14488406074E+04 0.  0.
        1    1    3    3  502    0 -0.88917667644E+02 -0.15696888965E+03 -0.62486593132E+03  0.65038682035E+03  0.50400001928E-02 0.  1.
       -1    1    3    3    0  502  0.88917667644E+02  0.15696888965E+03  0.78709864676E+03  0.80750842949E+03  0.50400001928E-02 0. -1.
</event>
<event>
 5   0  0.1199720E-03  0.1366848E+04  0.7818609E-02  0.8978171E-01
        1   -1    0    0  501    0  0.00000000000E+00  0.00000000000E+00  0.87374528954E+03  0.87374528956E+03  0.50400001928E-02 0. -1.
       -1   -1    0    0    0  501  0.00000000000E+00  0.00000000000E+00 -0.53455933148E+03  0.53455933151E+03  0.50400001928E-02 0.  1.
    10030    2    1    2    0    0  0.00000000000E+00  0.00000000000E+00  0.33918595806E+03  0.14083046211E+04  0.13668484889E+04 0.  0.
        5    1    3    3  502    0  0.25352865024E+03  0.41792362481E+03 -0.32250103304E+03  0.58563293877E+03  0.46999998093E+01 0.  1.
       -5    1    3    3    0  502 -0.25352865024E+03 -0.41792362481E+03  0.66168699110E+03  0.82267168230E+03  0.46999998093E+01 0. -1.
</event>
<event>
 5   0  0.1225690E-03  0.1299543E+04  0.7818609E-02  0.9029928E-01
        1   -1    0    0  501    0  0.00000000000E+00  0.00000000000E+00  0.52450990003E+03  0.52450990006E+03  0.50400001928E-02 0. -1.
       -1   -1    0    0    0  501  0.00000000000E+00  0.00000000000E+00 -0.80494743559E+03  0.80494743560E+03  0.50400001928E-02 0.  1.
    10030    2    1    2    0    0  0.00000000000E+00  0.00000000000E+00 -0.28043753555E+03  0.13294573357E+04  0.12995428412E+04 0.  0.
        4    1    3    3  502    0  0.54559390347E+03 -0.15985401483E+03  0.18162652134E+03  0.59683818553E+03  0.12699999809E+01 0. -1.
       -4    1    3    3    0  502 -0.54559390347E+03  0.15985401483E+03 -0.46206405689E+03  0.73261915013E+03  0.12699999809E+01 0.  1.
</event>
<event>
 5   0  0.2172901E-03  0.1382292E+04  0.7818609E-02  0.8966737E-01
        2   -1    0    0  501    0  0.00000000000E+00  0.00000000000E+00  0.58204305827E+03  0.58204305828E+03  0.25500000920E-02 0. -1.
       -2   -1    0    0    0  501  0.00000000000E+00  0.00000000000E+00 -0.82070032855E+03  0.82070032855E+03  0.25500000920E-02 0.  1.
    10030    2    1    2    0    0  0.00000000000E+00  0.00000000000E+00 -0.23865727027E+03  0.14027433868E+04  0.13822921965E+04 0.  0.
        2    1    3    3  502    0 -0.72545845427E+02 -0.32409611895E+03  0.49575922300E+03  0.59672305234E+03  0.25500000920E-02 0. -1.
       -2    1    3    3    0  502  0.72545845427E+02  0.32409611895E+03 -0.73441649327E+03  0.80602033448E+03  0.25500000920E-02 0.  1.
</event>
<event>
 5   0  0.2083966E-03  0.1387152E+04  0.7818609E-02  0.8963172E-01
       -2   -1    0    0    0  501  0.00000000000E+00  0.00000000000E+00  0.32725690710E+03  0.32725690711E+03  0.25500000920E-02 0.  1.
        2   -1    0    0  501    0  0.00000000000E+00  0.00000000000E+00 -0.14699382569E+04  0.14699382569E+04  0.25500000920E-02 0. -1.
    10030    2    1    2    0    0  0.00000000000E+00  0.00000000000E+00 -0.11426813498E+04  0.17971951640E+04  0.13871516825E+04 0.  0.
        1    1    3    3  502    0  0.14493881995E+03  0.18346970756E+03  0.27465709530E+03  0.36070058933E+03  0.50400001928E-02 0.  1.
       -1    1    3    3    0  502 -0.14493881995E+03 -0.18346970756E+03 -0.14173384450E+04  0.14364945746E+04  0.50400001928E-02 0. -1.
</event>
<event>
 5   0  0.1199720E-03  0.1381237E+04  0.7818609E-02  0.8967513E-01
        1   -1    0    0  501    0  0.00000000000E+00  0.00000000000E+00  0.37823563895E+03  0.37823563898E+03  0.50400001928E-02 0. -1.
       -1   -1    0    0    0  501  0.00000000000E+00  0.00000000000E+00 -0.12609961325E+04  0.12609961325E+04  0.50400001928E-02 0.  1.
    10030    2    1    2    0    0  0.00000000000E+00  0.00000000000E+00 -0.88276049355E+03  0.16392317715E+04  0.13812366603E+04 0.  0.
        5    1    3    3  502    0  0.53763935803E+02  0.32026643978E+03  0.28194628136E+03  0.43008946606E+03  0.46999998093E+01 0. -1.
       -5    1    3    3    0  502 -0.53763935803E+02 -0.32026643978E+03 -0.11647067749E+04  0.12091423054E+04  0.46999998093E+01 0.  1.
</event>
<event>
 5   0  0.2190704E-03  0.1401121E+04  0.7818609E-02  0.8953008E-01
       -2   -1    0    0    0  501  0.00000000000E+00  0.00000000000E+00  0.72619978523E+03  0.72619978524E+03  0.25500000920E-02 0. -1.
        2   -1    0    0  501    0  0.00000000000E+00  0.00000000000E+00 -0.67582609125E+03  0.67582609126E+03  0.25500000920E-02 0.  1.
    10030    2    1    2    0    0  0.00000000000E+00  0.00000000000E+00  0.50373693983E+02  0.14020258765E+04  0.14011206405E+04 0.  0.
        5    1    3    3  502    0 -0.94598716509E+02  0.14746574275E+03  0.70390791109E+03  0.72539885562E+03  0.46999998093E+01 0. -1.
       -5    1    3    3    0  502  0.94598716509E+02 -0.14746574275E+03 -0.65353421710E+03  0.67662702087E+03  0.46999998093E+01 0.  1.
</event>
<event>
 5   0  0.2190704E-03  0.1364211E+04  0.7818609E-02  0.8980140E-01
        2   -1    0    0  501    0  0.00000000000E+00  0.00000000000E+00  0.56539283125E+03  0.56539283125E+03  0.25500000920E-02 0.  1.
       -2   -1    0    0    0  501  0.00000000000E+00  0.00000000000E+00 -0.82291074586E+03  0.82291074587E+03  0.25500000920E-02 0. -1.
    10030    2    1    2    0    0  0.00000000000E+00  0.00000000000E+00 -0.25751791462E+03  0.13883035771E+04  0.13642108876E+04 0.  0.
        5    1    3    3  502    0 -0.59108030421E+03 -0.31547408343E+03 -0.25886805278E+03  0.71828586377E+03  0.46999998093E+01 0.  1.
       -5    1    3    3    0  502  0.59108030421E+03  0.31547408343E+03  0.13501381683E+01  0.67001771336E+03  0.46999998093E+01 0. -1.
</event>
<event>
 5   0  0.2190704E-03  0.1414614E+04  0.7818609E-02  0.8943308E-01
        2   -1    0    0  501    0  0.00000000000E+00  0.00000000000E+00  0.17936152247E+04  0.17936152247E+04  0.25500000920E-02 0. -1.
       -2   -1    0    0    0  501  0.00000000000E+00  0.00000000000E+00 -0.27892431189E+03  0.27892431190E+03  0.25500000920E-02 0.  1.
    10030    2    1    2    0    0  0.00000000000E+00  0.00000000000E+00  0.15146909128E+04  0.20725395366E+04  0.14146135760E+04 0.  0.
        5    1    3    3  502    0 -0.64538179923E+03  0.25130982716E+03  0.54713402587E+03  0.88263924015E+03  0.46999998093E+01 0.  1.
       -5    1    3    3    0  502  0.64538179923E+03 -0.25130982716E+03  0.96755688695E+03  0.11899002964E+04  0.46999998093E+01 0. -1.
</event>
<event>
 5   0  0.1225690E-03  0.1457250E+04  0.7818609E-02  0.8913390E-01
        1   -1    0    0  501    0  0.00000000000E+00  0.00000000000E+00  0.17057122054E+04  0.17057122054E+04  0.50400001928E-02 0.  1.
       -1   -1    0    0    0  501  0.00000000000E+00  0.00000000000E+00 -0.31124479890E+03  0.31124479894E+03  0.50400001928E-02 0. -1.
    10030    2    1    2    0    0  0.00000000000E+00  0.00000000000E+00  0.13944674065E+04  0.20169570044E+04  0.14572495358E+04 0.  0.
        4    1    3    3  502    0  0.44625172981E+03 -0.11985830824E+03  0.14769856613E+04  0.15475770989E+04  0.12699999809E+01 0.  1.
       -4    1    3    3    0  502 -0.44625172981E+03  0.11985830824E+03 -0.82518254772E+02  0.46937990550E+03  0.12699999809E+01 0. -1.
</event>
<event>
 5   0  0.2195980E-03  0.1409834E+04  0.7818609E-02  0.8946731E-01
        2   -1    0    0  501    0  0.00000000000E+00  0.00000000000E+00  0.35736741809E+03  0.35736741810E+03  0.25500000920E-02 0.  1.
       -2   -1    0    0    0  501  0.00000000000E+00  0.00000000000E+00 -0.13904685054E+04  0.13904685054E+04  0.25500000920E-02 0. -1.
    10030    2    1    2    0    0  0.00000000000E+00  0.00000000000E+00 -0.10331010873E+04  0.17478359235E+04  0.14098342310E+04 0.  0.
        4    1    3    3  502    0 -0.67985563289E+03  0.15082385253E+03 -0.65210306366E+03  0.95403958754E+03  0.12699999809E+01 0.  1.
       -4    1    3    3    0  502  0.67985563289E+03 -0.15082385253E+03 -0.38099802363E+03  0.79379633595E+03  0.12699999809E+01 0. -1.
</event>
<event>
 5   0  0.1210275E-03  0.1363961E+04  0.7818609E-02  0.8980327E-01
        1   -1    0    0  501    0  0.00000000000E+00  0.00000000000E+00  0.61510712846E+03  0.61510712849E+03  0.50400001928E-02 0. -1.
       -1   -1    0    0    0  501  0.00000000000E+00  0.00000000000E+00 -0.75612384130E+03  0.75612384132E+03  0.50400001928E-02 0.  1.
    10030    2    1    2    0    0  0.00000000000E+00  0.00000000000E+00 -0.14101671284E+03  0.13712309698E+04  0.13639606516E+04 0.  0.
        1    1    3    3  502    0  0.47241877148E+03  0.25042874116E+03  0.35507197519E+03  0.64184901468E+03  0.50400001928E-02 0. -1.
       -1    1    3    3    0  502 -0.47241877148E+03 -0.25042874116E+03 -0.49608868803E+03  0.72938195513E+03  0.50400001928E-02 0.  1.
</event>
<event>
 5   0  0.1210275E-03  0.1363437E+04  0.7818609E-02  0.8980719E-01
       -1   -1    0    0    0  501  0.00000000000E+00  0.00000000000E+00  0.34556989672E+03  0.34556989676E+03  0.50400001928E-02 0. -1.
        1   -1    0    0  501    0  0.00000000000E+00  0.00000000000E+00 -0.13448502971E+04  0.13448502971E+04  0.50400001928E-02 0.  1.
    10030    2    1    2    0    0  0.00000000000E+00  0.00000000000E+00 -0.99928040038E+03  0.16904201939E+04  0.13634365087E+04 0.  0.
        1    1    3    3  502    0 -0.29679179506E+03  0.52671905299E+03 -0.89017751275E+03  0.10760735731E+04  0.50400001928E-02 0.  1.
       -1    1    3    3    0  502  0.29679179506E+03 -0.52671905299E+03 -0.10910288763E+03  0.61434662082E+03  0.50400001928E-02 0. -1.
</event>
<event>
 5   0  0.1238683E-03  0.1382667E+04  0.7818609E-02  0.8966461E-01
        1   -1    0    0  501    0  0.00000000000E+00  0.00000000000E+00  0.53245820995E+03  0.53245820997E+03  0.50400001928E-02 0.  1.
       -1   -1    0    0    0  501  0.00000000000E+00  0.00000000000E+00 -0.89761430397E+03  0.89761430398E+03  0.50400001928E-02 0. -1.
    10030    2    1    2    0    0  0.00000000000E+00  0.00000000000E+00 -0.36515609402E+03  0.14300725140E+04  0.13826671408E+04 0.  0.
        2    1    3    3  502    0  0.62721416688E+03 -0.26811453543E+03 -0.29894821639E+03  0.74475032818E+03  0.25500000920E-02 0. -1.
       -2    1    3    3    0  502 -0.62721416688E+03  0.26811453543E+03 -0.66207877630E+02  0.68532218577E+03  0.25500000920E-02 0.  1.
</event>
<event>
 5   0  0.2195980E-03  0.1415617E+04  0.7818609E-02  0.8942591E-01
       -2   -1    0    0    0  501  0.00000000000E+00  0.00000000000E+00  0.29233177322E+03  0.29233177323E+03  0.25500000920E-02 0.  1.
        2   -1    0    0  501    0  0.00000000000E+00  0.00000000000E+00 -0.17137817845E+04  0.17137817845E+04  0.25500000920E-02 0. -1.
    10030    2    1    2    0    0  0.00000000000E+00  0.00000000000E+00 -0.14214500113E+04  0.20061135578E+04  0.14156169934E+04 0.  0.
        4    1    3    3  502    0 -0.32763491122E+03  0.58454847484E+03 -0.10337240744E+04  0.12319207074E+04  0.12699999809E+01 0. -1.
       -4    1    3    3    0  502  0.32763491122E+03 -0.58454847484E+03 -0.38772593696E+03  0.77419285038E+03  0.12699999809E+01 0.  1.
</event>
<event>
 5   0  0.1225690E-03  0.1408087E+04  0.7818609E-02  0.8947985E-01
        1   -1    0    0  501    0  0.00000000000E+00  0.00000000000E+00  0.13730774036E+04  0.13730774036E+04  0.50400001928E-02 0.  1.
       -1   -1    0    0    0  501  0.00000000000E+00  0.00000000000E+00 -0.36099754969E+03  0.36099754972E+03  0.50400001928E-02 0. -1.
    10030    2    1    2    0    0  0.00000000000E+00  0.00000000000E+00  0.10120798539E+04  0.17340749533E+04  0.14080874664E+04 0.  0.
        4    1    3    3  502    0  0.21531760553E+03  0.66768769053E+03  0.43310534744E+03  0.82446975579E+03  0.12699999809E+01 0.  1.
       -4    1    3    3    0  502 -0.21531760553E+03 -0.66768769053E+03  0.57897450644E+03  0.90960519751E+03  0.12699999809E+01 0. -1.
</event>
<event>
 5   0  0.1175374E-03  0.1167852E+04  0.7818609E-02  0.9141470E-01
        1   -1    0    0  501    0  0.00000000000E+00  0.00000000000E+00  0.72745705560E+03  0.72745705562E+03  0.50400001928E-02 0. -1.
       -1   -1    0    0    0  501  0.00000000000E+00  0.00000000000E+00 -0.46871468258E+03  0.46871468261E+03  0.50400001928E-02 0.  1.
    10030    2    1    2    0    0  0.00000000000E+00  0.00000000000E+00  0.25874237302E+03  0.11961717382E+04  0.11678523930E+04 0.  0.
        3    1    3    3  502    0  0.73421548895E+02  0.40602565843E+03 -0.29383365191E+03  0.50654297384E+03  0.10100000352E+00 0.  1.
       -3    1    3    3    0  502 -0.73421548895E+02 -0.40602565843E+03  0.55257602493E+03  0.68962876439E+03  0.10100000352E+00 0. -1.
</event>
<event>
 5   0  0.2083966E-03  0.1368836E+04  0.7818609E-02  0.8976691E-01
       -2   -1    0    0    0  501  0.00000000000E+00  0.00000000000E+00  0.52811324214E+03  0.52811324215E+03  0.25500000920E-02 0.  1.
        2   -1    0    0  501    0  0.00000000000E+00  0.00000000000E+00 -0.88698410874E+03  0.88698410875E+03  0.25500000920E-02 0. -1.
    10030    2    1    2    0    0  0.00000000000E+00  0.00000000000E+00 -0.35887086660E+03  0.14150973509E+04  0.13688360799E+04 0.  0.
        1    1    3    3  502    0 -0.57526299913E+03 -0.12451129804E+02 -0.56256185082E+03  0.80471012472E+03  0.50400001928E-02 0. -1.
       -1    1    3    3    0  502  0.57526299913E+03  0.12451129804E+02  0.20369098422E+03  0.61038722617E+03  0.50400001928E-02 0.  1.
</event>
<event>
 5   0  0.2190704E-03  0.1442435E+04  0.7818609E-02  0.8923662E-01
        2   -1    0    0  501    0  0.00000000000E+00  0.00000000000E+00  0.87976915585E+03  0.87976915586E+03  0.25500000920E-02 0. -1.
       -2   -1    0    0    0  501  0.00000000000E+00  0.00000000000E+00 -0.59124026296E+03  0.59124026296E+03  0.25500000920E-02 0.  1.
    10030    2    1    2    0    0  0.00000000000E+00  0.00000000000E+00  0.28852889290E+03  0.14710094188E+04  0.14424353671E+04 0.  0.
        5    1    3    3  502    0  0.36384304914E+03  0.19213951847E+03  0.74830989746E+03  0.85398428065E+03  0.46999998093E+01 0. -1.
       -5    1    3    3    0  502 -0.36384304914E+03 -0.19213951847E+03 -0.45978100457E+03  0.61702513816E+03  0.46999998093E+01 0.  1.
</event>
<event>
 5   0  0.1225690E-03  0.1401739E+04  0.7818609E-02  0.8952560E-01
       -1   -1    0    0    0  501  0.00000000000E+00  0.00000000000E+00  0.60663096048E+03  0.60663096050E+03  0.50400001928E-02 0. -1.
        1   -1    0    0  501    0  0.00000000000E+00  0.00000000000E+00 -0.80974821066E+03  0.80974821068E+03  0.50400001928E-02 0.  1.
    10030    2    1    2    0    0  0.00000000000E+00  0.00000000000E+00 -0.20311725018E+03  0.14163791712E+04  0.14017393978E+04 0.  0.
        4    1    3    3  502    0 -0.67753928319E+03  0.90673652580E+02  0.54768297686E+02  0.68577136924E+03  0.12699999809E+01 0. -1.
       -4    1    3    3    0  502  0.67753928319E+03 -0.90673652580E+02 -0.25788554787E+03  0.73060780193E+03  0.12699999809E+01 0.  1.
</event>
<event>
 5   0  0.2195980E-03  0.1379762E+04  0.7818609E-02  0.8968600E-01
       -2   -1    0    0    0  501  0.00000000000E+00  0.00000000000E+00  0.11439227855E+04  0.11439227855E+04  0.25500000920E-02 0. -1.
        2   -1    0    0  501    0  0.00000000000E+00  0.00000000000E+00 -0.41605568353E+03  0.41605568354E+03  0.25500000920E-02 0.  1.
    10030    2    1    2    0    0  0.00000000000E+00  0.00000000000E+00  0.72786710196E+03  0.15599784690E+04  0.13797616844E+04 0.  0.
        4    1    3    3  502    0  0.16307977630E-02 -0.17021629239E+03  0.11198069055E+04  0.11326706073E+04  0.12699999809E+01 0. -1.
       -4    1    3    3    0  502 -0.16307977630E-02  0.17021629239E+03 -0.39193980353E+03  0.42730786172E+03  0.12699999809E+01 0.  1.
</event>
<event>
 5   0  0.2172901E-03  0.1359190E+04  0.7818609E-02  0.8983901E-01
       -2   -1    0    0    0  501  0.00000000000E+00  0.00000000000E+00  0.68387506547E+03  0.68387506547E+03  0.25500000920E-02 0. -1.
        2   -1    0    0  501    0  0.00000000000E+00  0.00000000000E+00 -0.67534149521E+03  0.67534149521E+03  0.25500000920E-02 0.  1.
    10030    2    1    2    0    0  0.00000000000E+00  0.00000000000E+00  0.85335702627E+01  0.13592165607E+04  0.13591897723E+04 0.  0.
        2    1    3    3  502    0  0.60767372733E+03 -0.54813453440E+02  0.30356741442E+03  0.68148737969E+03  0.25500000920E-02 0. -1.
       -2    1    3    3    0  502 -0.60767372733E+03  0.54813453440E+02 -0.29503384416E+03  0.67772918100E+03  0.25500000920E-02 0.  1.
</event>
<event>
 5   0  0.1210275E-03  0.1387070E+04  0.7818609E-02  0.8963231E-01
       -1   -1    0    0    0  501  0.00000000000E+00  0.00000000000E+00  0.39297145593E+03  0.39297145597E+03  0.50400001928E-02 0.  1.
        1   -1    0    0  501    0  0.00000000000E+00  0.00000000000E+00 -0.12239846763E+04  0.12239846763E+04  0.50400001928E-02 0. -1.
    10030    2    1    2    0    0  0.00000000000E+00  0.00000000000E+00 -0.83101322032E+03  0.16169561322E+04  0.13870703519E+04 0.  0.
        1    1    3    3  502    0 -0.39777595122E+03 -0.60101694597E+02 -0.10740725949E+04  0.11469393446E+04  0.50400001928E-02 0. -1.
       -1    1    3    3    0  502  0.39777595122E+03  0.60101694597E+02  0.24305937457E+03  0.47001678763E+03  0.50400001928E-02 0.  1.
</event>
<event>
 5   0  0.2172901E-03  0.1392780E+04  0.7818609E-02  0.8959061E-01
        2   -1    0    0  501    0  0.00000000000E+00  0.00000000000E+00  0.12986942195E+04  0.12986942195E+04  0.25500000920E-02 0. -1.
       -2   -1    0    0    0  501  0.00000000000E+00  0.00000000000E+00 -0.37342055259E+03  0.37342055259E+03  0.25500000920E-02 0.  1.
    10030    2    1    2    0    0  0.00000000000E+00  0.00000000000E+00  0.92527366687E+03  0.16721147721E+04  0.13927801163E+04 0.  0.
        2    1    3    3  502    0  0.30731253330E+03  0.59668409875E+03  0.68558619659E+03  0.95942761050E+03  0.25500000920E-02 0. -1.
       -2    1    3    3    0  502 -0.30731253330E+03 -0.59668409875E+03  0.23968747028E+03  0.71268716155E+03  0.25500000920E-02 0.  1.
</event>
<event>
 5   0  0.1238683E-03  0.1393364E+04  0.7818609E-02  0.8958636E-01
       -1   -1    0    0    0  501  0.00000000000E+00  0.00000000000E+00  0.37106260080E+03  0.37106260083E+03  0.50400001928E-02 0. -1.
        1   -1    0    0  501    0  0.00000000000E+00  0.00000000000E+00 -0.13080431061E+04  0.13080431061E+04  0.50400001928E-02 0.  1.
    10030    2    1    2    0    0  0.00000000000E+00  0.00000000000E+00 -0.93698050528E+03  0.16791057069E+04  0.13933640973E+04 0.  0.
        2    1    3    3  502    0  0.28776421976E+03 -0.50452829433E+03 -0.93210499336E+03  0.10982607908E+04  0.25500000920E-02 0.  1.
       -2    1    3    3    0  502 -0.28776421976E+03  0.50452829433E+03 -0.48755119214E+01  0.58084491612E+03  0.25500000920E-02 0. -1.
</event>
<event>
 5   0  0.1225690E-03  0.1406631E+04  0.7818609E-02  0.8949032E-01
        1   -1    0    0  501    0  0.00000000000E+00  0.00000000000E+00  0.21833192547E+04  0.21833192548E+04  0.50400001928E-02 0. -1.
       -1   -1    0    0    0  501  0.00000000000E+00  0.00000000000E+00 -0.22656010539E+03  0.22656010545E+03  0.50400001928E-02 0.  1.
    10030    2    1    2    0    0  0.00000000000E+00  0.00000000000E+00  0.19567591494E+04  0.24098793602E+04  0.14066314948E+04 0.  0.
        4    1    3    3  502    0  0.31945463206E+03  0.19409023766E+03 -0.42291475039E+02  0.37618142440E+03  0.12699999809E+01 0.  1.
       -4    1    3    3    0  502 -0.31945463206E+03 -0.19409023766E+03  0.19990506244E+04  0.20336979358E+04  0.12699999809E+01 0. -1.
</event>
<event>
 5   0  0.2083966E-03  0.1475244E+04  0.7818609E-02  0.8901085E-01
        2   -1    0    0  501    0  0.00000000000E+00  0.00000000000E+00  0.13202010971E+04  0.13202010971E+04  0.25500000920E-02 0. -1.
       -2   -1    0    0    0  501  0.00000000000E+00  0.00000000000E+00 -0.41212356722E+03  0.41212356723E+03  0.25500000920E-02 0.  1.
    10030    2    1    2    0    0  0.00000000000E+00  0.00000000000E+00  0.90807752985E+03  0.17323246643E+04  0.14752436891E+04 0.  0.
        1    1    3    3  502    0 -0.34695446715E+03  0.55834687997E+03  0.61129908176E+02  0.66020111054E+03  0.50400001928E-02 0.  1.
       -1    1    3    3    0  502  0.34695446715E+03 -0.55834687997E+03  0.84694762167E+03  0.10721235538E+04  0.50400001928E-02 0. -1.
</event>
<event>
 5   0  0.2172901E-03  0.1408622E+04  0.7818609E-02  0.8947601E-01
        2   -1    0    0  501    0  0.00000000000E+00  0.00000000000E+00  0.11526412708E+04  0.11526412708E+04  0.25500000920E-02 0. -1.
       -2   -1    0    0    0  501  0.00000000000E+00  0.00000000000E+00 -0.43036254697E+03  0.43036254698E+03  0.25500000920E-02 0.  1.
    10030    2    1    2    0    0  0.00000000000E+00  0.00000000000E+00  0.72227872386E+03  0.15830038178E+04  0.14086215007E+04 0.  0.
        2    1    3    3  502    0  0.48287403900E+03 -0.47722189213E+03  0.15045956533E+03  0.69537482891E+03  0.25500000920E-02 0.  1.
       -2    1    3    3    0  502 -0.48287403900E+03  0.47722189213E+03  0.57181915854E+03  0.88762898891E+03  0.25500000920E-02 0. -1.
</event>
<event>
 5   0  0.1210275E-03  0.1381671E+04  0.7818609E-02  0.8967194E-01
       -1   -1    0    0    0  501  0.00000000000E+00  0.00000000000E+00  0.15863616717E+04  0.15863616717E+04  0.50400001928E-02 0.  1.
        1   -1    0    0  501    0  0.00000000000E+00  0.00000000000E+00 -0.30084813800E+03  0.30084813804E+03  0.50400001928E-02 0. -1.
    10030    2    1    2    0    0  0.00000000000E+00  0.00000000000E+00  0.12855135337E+04  0.18872098098E+04  0.13816713867E+04 0.  0.
        1    1    3    3  502    0  0.36290860929E+03  0.58580449833E+03  0.57606016314E+03  0.89817307939E+03  0.50400001928E-02 0. -1.
       -1    1    3    3    0  502 -0.36290860929E+03 -0.58580449833E+03  0.70945337058E+03  0.98903673037E+03  0.50400001928E-02 0.  1.
</event>
<event>
 5   0  0.1238683E-03  0.1410652E+04  0.7818609E-02  0.8946144E-01
       -1   -1    0    0    0  501  0.00000000000E+00  0.00000000000E+00  0.45658486390E+03  0.45658486392E+03  0.50400001928E-02 0. -1.
        1   -1    0    0  501    0  0.00000000000E+00  0.00000000000E+00 -0.10895780536E+04  0.10895780536E+04  0.50400001928E-02 0.  1.
    10030    2    1    2    0    0  0.00000000000E+00  0.00000000000E+00 -0.63299318972E+03  0.15461629176E+04  0.14106521149E+04 0.  0.
        2    1    3    3  502    0  0.21314657786E+03 -0.48178989068E+03 -0.83051589622E+03  0.98351899641E+03  0.25500000920E-02 0.  1.
       -2    1    3    3    0  502 -0.21314657786E+03  0.48178989068E+03  0.19752270649E+03  0.56264392115E+03  0.25500000920E-02 0. -1.
</event>
<event>
 5   0  0.2083966E-03  0.1387478E+04  0.7818609E-02  0.8962933E-01
       -2   -1    0    0    0  501  0.00000000000E+00  0.00000000000E+00  0.63305206036E+03  0.63305206036E+03  0.25500000920E-02 0. -1.
        2   -1    0    0  501    0  0.00000000000E+00  0.00000000000E+00 -0.76024384337E+03  0.76024384337E+03  0.25500000920E-02 0.  1.
    10030    2    1    2    0    0  0.00000000000E+00  0.00000000000E+00 -0.12719178301E+03  0.13932959037E+04  0.13874781893E+04 0.  0.
        1    1    3    3  502    0  0.54234011857E+03  0.35935624636E+03  0.17825459964E+03  0.67456980242E+03  0.50400001928E-02 0. -1.
       -1    1    3    3    0  502 -0.54234011857E+03 -0.35935624636E+03 -0.30544638265E+03  0.71872610132E+03  0.50400001928E-02 0.  1.
</event>
<event>
 5   0  0.1238683E-03  0.1404395E+04  0.7818609E-02  0.8950643E-01
        1   -1    0    0  501    0  0.00000000000E+00  0.00000000000E+00  0.11343496551E+04  0.11343496551E+04  0.50400001928E-02 0. -1.
       -1   -1    0    0    0  501  0.00000000000E+00  0.00000000000E+00 -0.43468203792E+03  0.43468203795E+03  0.50400001928E-02 0.  1.
    10030    2    1    2    0    0  0.00000000000E+00  0.00000000000E+00  0.69966761718E+03  0.15690316931E+04  0.14043951293E+04 0.  0.
        2    1    3    3  502    0  0.22802977477E+03  0.33497588866E+03 -0.29087077232E+03  0.49881081621E+03  0.25500000920E-02 0.  1.
       -2    1    3    3    0  502 -0.22802977477E+03 -0.33497588866E+03  0.99053838950E+03  0.10702208769E+04  0.25500000920E-02 0. -1.
</event>
<event>
 5   0  0.1175374E-03  0.1389308E+04  0.7818609E-02  0.8961595E-01
       -1   -1    0    0    0  501  0.00000000000E+00  0.00000000000E+00  0.15783194648E+04  0.15783194648E+04  0.50400001928E-02 0. -1.
        1   -1    0    0  501    0  0.00000000000E+00  0.00000000000E+00 -0.30573284207E+03  0.30573284211E+03  0.50400001928E-02 0.  1.
    10030    2    1    2    0    0  0.00000000000E+00  0.00000000000E+00  0.12725866228E+04  0.18840523069E+04  0.13893078791E+04 0.  0.
        3    1    3    3  502    0  0.30882551595E+03 -0.40174738019E+03 -0.80651045444E+01  0.50679306714E+03  0.10100000352E+00 0.  1.
       -3    1    3    3    0  502 -0.30882551595E+03  0.40174738019E+03  0.12806517273E+04  0.13772592398E+04  0.10100000352E+00 0. -1.
</event>
<event>
 5   0  0.2195980E-03  0.1388279E+04  0.7818609E-02  0.8962347E-01
        2   -1    0    0  501    0  0.00000000000E+00  0.00000000000E+00  0.85244836765E+03  0.85244836765E+03  0.25500000920E-02 0. -1.
       -2   -1    0    0    0  501  0.00000000000E+00  0.00000000000E+00 -0.56523007678E+03  0.56523007678E+03  0.25500000920E-02 0.  1.
    10030    2    1    2    0    0  0.00000000000E+00  0.00000000000E+00  0.28721829087E+03  0.14176784444E+04  0.13882787275E+04 0.  0.
        4    1    3    3  502    0  0.13060660933E+02 -0.24032750060E+03  0.80847304458E+03  0.84353907149E+03  0.12699999809E+01 0. -1.
       -4    1    3    3    0  502 -0.13060660933E+02  0.24032750060E+03 -0.52125475371E+03  0.57413937295E+03  0.12699999809E+01 0.  1.
</event>
<event>
 5   0  0.2195980E-03  0.1393068E+04  0.7818609E-02  0.8958852E-01
        2   -1    0    0  501    0  0.00000000000E+00  0.00000000000E+00  0.11006706681E+04  0.11006706681E+04  0.25500000920E-02 0.  1.
       -2   -1    0    0    0  501  0.00000000000E+00  0.00000000000E+00 -0.44078552030E+03  0.44078552031E+03  0.25500000920E-02 0. -1.
    10030    2    1    2    0    0  0.00000000000E+00  0.00000000000E+00  0.65988514781E+03  0.15414561884E+04  0.13930681148E+04 0.  0.
        4    1    3    3  502    0 -0.11756624922E+03  0.68131477724E+03  0.23640126257E+03  0.73068380199E+03  0.12699999809E+01 0.  1.
       -4    1    3    3    0  502  0.11756624922E+03 -0.68131477724E+03  0.42348388524E+03  0.81077238643E+03  0.12699999809E+01 0. -1.
</event>
<event>
 5   0  0.2195980E-03  0.1393412E+04  0.7818609E-02  0.8958601E-01
        2   -1    0    0  501    0  0.00000000000E+00  0.00000000000E+00  0.54828709129E+03  0.54828709129E+03  0.25500000920E-02 0.  1.
       -2   -1    0    0    0  501  0.00000000000E+00  0.00000000000E+00 -0.88530142369E+03  0.88530142370E+03  0.25500000920E-02 0. -1.
    10030    2    1    2    0    0  0.00000000000E+00  0.00000000000E+00 -0.33701433240E+03  0.14335885150E+04  0.13934121322E+04 0.  0.
        4    1    3    3  502    0  0.54012428076E+03 -0.43806025194E+03 -0.21175129410E+03  0.72696027846E+03  0.12699999809E+01 0.  1.
       -4    1    3    3    0  502 -0.54012428076E+03  0.43806025194E+03 -0.12526303830E+03  0.70662823653E+03  0.12699999809E+01 0. -1.
</event>
<event>
 5   0  0.2236184E-03  0.1413145E+04  0.7818609E-02  0.8944358E-01
       -2   -1    0    0    0  501  0.00000000000E+00  0.00000000000E+00  0.37947267356E+03  0.37947267356E+03  0.25500000920E-02 0. -1.
        2   -1    0    0  501    0  0.00000000000E+00  0.00000000000E+00 -0.13156267145E+04  0.13156267145E+04  0.25500000920E-02 0.  1.
    10030    2    1    2    0    0  0.00000000000E+00  0.00000000000E+00 -0.93615404090E+03  0.16950993880E+04  0.14131445598E+04 0.  0.
        3    1    3    3  502    0  0.15665134306E+03  0.63058558690E+03 -0.13507908776E+03  0.66364463068E+03  0.10100000352E+00 0. -1.
       -3    1    3    3    0  502 -0.15665134306E+03 -0.63058558690E+03 -0.80107495314E+03  0.10314547573E+04  0.10100000352E+00 0.  1.
</event>
<event>
 5   0  0.1210275E-03  0.1396524E+04  0.7818609E-02  0.8956338E-01
        1   -1    0    0  501    0  0.00000000000E+00  0.00000000000E+00  0.84845541780E+03  0.84845541781E+03  0.50400001928E-02 0. -1.
       -1   -1    0    0    0  501  0.00000000000E+00  0.00000000000E+00 -0.57465619064E+03  0.57465619067E+03  0.50400001928E-02 0.  1.
    10030    2    1    2    0    0  0.00000000000E+00  0.00000000000E+00  0.27379922715E+03  0.14231116085E+04  0.13965244836E+04 0.  0.
        1    1    3    3  502    0  0.24384430622E+02 -0.45101555313E+03  0.67954147758E+03  0.81595725954E+03  0.50400001928E-02 0. -1.
       -1    1    3    3    0  502 -0.24384430622E+02  0.45101555313E+03 -0.40574225043E+03  0.60715434893E+03  0.50400001928E-02 0.  1.
</event>
<event>
 5   0  0.2172901E-03  0.1392596E+04  0.7818609E-02  0.8959195E-01
        2   -1    0    0  501    0  0.00000000000E+00  0.00000000000E+00  0.45195170029E+03  0.45195170029E+03  0.25500000920E-02 0. -1.
       -2   -1    0    0    0  501  0.00000000000E+00  0.00000000000E+00 -0.10727501221E+04  0.10727501221E+04  0.25500000920E-02 0.  1.
    10030    2    1    2    0    0  0.00000000000E+00  0.00000000000E+00 -0.62079842185E+03  0.15247018224E+04  0.13925964838E+04 0.  0.
        2    1    3    3  502    0 -0.98842652542E+02  0.68824743404E+03 -0.35102497669E+03  0.77889212006E+03  0.25500000920E-02 0.  1.
       -2    1    3    3    0  502  0.98842652542E+02 -0.68824743404E+03 -0.26977344516E+03  0.74580970237E+03  0.25500000920E-02 0. -1.
</event>
<event>
 5   0  0.2083966E-03  0.1379412E+04  0.7818609E-02  0.8968857E-01
       -2   -1    0    0    0  501  0.00000000000E+00  0.00000000000E+00  0.84316451532E+03  0.84316451532E+03  0.25500000920E-02 0.  1.
        2   -1    0    0  501    0  0.00000000000E+00  0.00000000000E+00 -0.56417771758E+03  0.56417771759E+03  0.25500000920E-02 0. -1.
    10030    2    1    2    0    0  0.00000000000E+00  0.00000000000E+00  0.27898679774E+03  0.14073422329E+04  0.13794123848E+04 0.  0.
        1    1    3    3  502    0  0.55441279948E+03 -0.76984504920E+01 -0.27900941489E+03  0.62070852418E+03  0.50400001928E-02 0. -1.
       -1    1    3    3    0  502 -0.55441279948E+03  0.76984504920E+01  0.55799621263E+03  0.78663370873E+03  0.50400001928E-02 0.  1.
</event>
<event>
 5   0  0.1238683E-03  0.1409124E+04  0.7818609E-02  0.8947241E-01
        1   -1    0    0  501    0  0.00000000000E+00  0.00000000000E+00  0.92257202514E+03  0.92257202515E+03  0.50400001928E-02 0.  1.
       -1   -1    0    0    0  501  0.00000000000E+00  0.00000000000E+00 -0.53806908815E+03  0.53806908817E+03  0.50400001928E-02 0. -1.
    10030    2    1    2    0    0  0.00000000000E+00  0.00000000000E+00  0.38450293699E+03  0.14606411133E+04  0.14091238247E+04 0.  0.
        2    1    3    3  502    0 -0.67929269622E+03 -0.13295211182E+03  0.55942249746E+02  0.69443816606E+03  0.25500000920E-02 0. -1.
       -2    1    3    3    0  502  0.67929269622E+03  0.13295211182E+03  0.32856068724E+03  0.76620294725E+03  0.25500000920E-02 0.  1.
</event>
<event>
 5   0  0.1238683E-03  0.1408966E+04  0.7818609E-02  0.8947354E-01
        1   -1    0    0  501    0  0.00000000000E+00  0.00000000000E+00  0.16924996703E+04  0.16924996703E+04  0.50400001928E-02 0.  1.
       -1   -1    0    0    0  501  0.00000000000E+00  0.00000000000E+00 -0.29323257129E+03  0.29323257133E+03  0.50400001928E-02 0. -1.
    10030    2    1    2    0    0  0.00000000000E+00  0.00000000000E+00  0.13992670990E+04  0.19857322416E+04  0.14089656210E+04 0.  0.
        2    1    3    3  502    0  0.42164035310E+03  0.39184666129E+03  0.12720669061E+04  0.13962373032E+04  0.25500000920E-02 0.  1.
       -2    1    3    3    0  502 -0.42164035310E+03 -0.39184666129E+03  0.12720019292E+03  0.58949493841E+03  0.25500000920E-02 0. -1.
</event>
<event>
 5   0  0.2083966E-03  0.1384334E+04  0.7818609E-02  0.8965237E-01
        2   -1    0    0  501    0  0.00000000000E+00  0.00000000000E+00  0.15770081893E+04  0.15770081893E+04  0.25500000920E-02 0. -1.
       -2   -1    0    0    0  501  0.00000000000E+00  0.00000000000E+00 -0.30379994747E+03  0.30379994748E+03  0.25500000920E-02 0.  1.
    10030    2    1    2    0    0  0.00000000000E+00  0.00000000000E+00  0.12732082418E+04  0.18808081368E+04  0.13843337821E+04 0.  0.
        1    1    3    3  502    0  0.62957599335E+03  0.16279882151E+03  0.31444473101E+03  0.72231909609E+03  0.50400001928E-02 0.  1.
       -1    1    3    3    0  502 -0.62957599335E+03 -0.16279882151E+03  0.95876351081E+03  0.11584890407E+04  0.50400001928E-02 0. -1.
</event>
<event>
 5   0  0.2195980E-03  0.1479198E+04  0.7818609E-02  0.8898405E-01
       -2   -1    0    0    0  501  0.00000000000E+00  0.00000000000E+00  0.22354456666E+03  0.22354456668E+03  0.25500000920E-02 0.  1.
        2   -1    0    0  501    0  0.00000000000E+00  0.00000000000E+00 -0.24469680872E+04  0.24469680872E+04  0.25500000920E-02 0. -1.
    10030    2    1    2    0    0  0.00000000000E+00  0.00000000000E+00 -0.22234235206E+04  0.26705126539E+04  0.14791976483E+04 0.  0.
        4    1    3    3  502    0  0.28491380167E+03 -0.68238981819E+03 -0.10879609371E+04  0.13154817946E+04  0.12699999809E+01 0.  1.
       -4    1    3    3    0  502 -0.28491380167E+03  0.68238981819E+03 -0.11354625835E+04  0.13550308593E+04  0.12699999809E+01 0. -1.
</event>
<event>
 5   0  0.2195980E-03  0.1317390E+04  0.7818609E-02  0.9015887E-01
       -2   -1    0    0    0  501  0.00000000000E+00  0.00000000000E+00  0.14856013203E+04  0.14856013203E+04  0.25500000920E-02 0.  1.
        2   -1    0    0  501    0  0.00000000000E+00  0.00000000000E+00 -0.29205643833E+03  0.29205643834E+03  0.25500000920E-02 0. -1.
    10030    2    1    2    0    0  0.00000000000E+00  0.00000000000E+00  0.11935448820E+04  0.17776577586E+04  0.13173904970E+04 0.  0.
        4    1    3    3  502    0 -0.81696686669E+02 -0.10085919300E+03 -0.27462792875E+03  0.30375818932E+03  0.12699999809E+01 0. -1.
       -4    1    3    3    0  502  0.81696686669E+02  0.10085919300E+03  0.14681728107E+04  0.14738995693E+04  0.12699999809E+01 0.  1.
</event>
<event>
 5   0  0.1175374E-03  0.1025304E+04  0.7818609E-02  0.9281220E-01
       -1   -1    0    0    0  501  0.00000000000E+00  0.00000000000E+00  0.65252829016E+03  0.65252829018E+03  0.50400001928E-02 0.  1.
        1   -1    0    0  501    0  0.00000000000E+00  0.00000000000E+00 -0.40275933081E+03  0.40275933084E+03  0.50400001928E-02 0. -1.
    10030    2    1    2    0    0  0.00000000000E+00  0.00000000000E+00  0.24976895935E+03  0.10552876210E+04  0.10253035794E+04 0.  0.
        3    1    3    3  502    0  0.40943045828E+03 -0.11059847541E+03 -0.17154232094E+03  0.45748453636E+03  0.10100000352E+00 0. -1.
       -3    1    3    3    0  502 -0.40943045828E+03  0.11059847541E+03  0.42131128029E+03  0.59780308466E+03  0.10100000352E+00 0.  1.
</event>
<event>
 5   0  0.8293000E-04  0.1400097E+04  0.7818609E-02  0.8953748E-01
       -3   -1    0    0    0  501  0.00000000000E+00  0.00000000000E+00  0.42555318853E+03  0.42555320051E+03  0.10100000352E+00 0. -1.
        3   -1    0    0  501    0  0.00000000000E+00  0.00000000000E+00 -0.11516016268E+04  0.11516016312E+04  0.10100000352E+00 0.  1.
    10030    2    1    2    0    0  0.00000000000E+00  0.00000000000E+00 -0.72604843823E+03  0.15771548317E+04  0.14000967925E+04 0.  0.
        5    1    3    3  502    0 -0.24814861437E+02  0.23560604026E+03  0.37900489526E+03  0.44698186113E+03  0.46999998093E+01 0. -1.
       -5    1    3    3    0  502  0.24814861437E+02 -0.23560604026E+03 -0.11050533335E+04  0.11301729706E+04  0.46999998093E+01 0.  1.
</event>
<event>
 5   0  0.1175374E-03  0.1434861E+04  0.7818609E-02  0.8928964E-01
       -1   -1    0    0    0  501  0.00000000000E+00  0.00000000000E+00  0.52716803536E+03  0.52716803538E+03  0.50400001928E-02 0.  1.
        1   -1    0    0  501    0  0.00000000000E+00  0.00000000000E+00 -0.97636080687E+03  0.97636080688E+03  0.50400001928E-02 0. -1.
    10030    2    1    2    0    0  0.00000000000E+00  0.00000000000E+00 -0.44919277151E+03  0.15035288423E+04  0.14348605624E+04 0.  0.
        3    1    3    3  502    0 -0.64891975216E+03 -0.20921912065E+03 -0.45852145131E+03  0.82165163950E+03  0.10100000352E+00 0.  1.
       -3    1    3    3    0  502  0.64891975216E+03  0.20921912065E+03  0.93286797981E+01  0.68187720277E+03  0.10100000352E+00 0. -1.
</event>
<event>
 5   0  0.2172901E-03  0.1406327E+04  0.7818609E-02  0.8949251E-01
       -2   -1    0    0    0  501  0.00000000000E+00  0.00000000000E+00  0.12762115913E+04  0.12762115913E+04  0.25500000920E-02 0. -1.
        2   -1    0    0  501    0  0.00000000000E+00  0.00000000000E+00 -0.38742733147E+03  0.38742733148E+03  0.25500000920E-02 0.  1.
    10030    2    1    2    0    0  0.00000000000E+00  0.00000000000E+00  0.88878425984E+03  0.16636389228E+04  0.14063274885E+04 0.  0.
        2    1    3    3  502    0  0.26708837022E+03  0.35586646070E+03 -0.19971366859E+03  0.48771168202E+03  0.25500000920E-02 0.  1.
       -2    1    3    3    0  502 -0.26708837022E+03 -0.35586646070E+03  0.10884979284E+04  0.11759272408E+04  0.25500000920E-02 0. -1.
</event>
<event>
 5   0  0.1238683E-03  0.1397157E+04  0.7818609E-02  0.8955879E-01
       -1   -1    0    0    0  501  0.00000000000E+00  0.00000000000E+00  0.27397617549E+03  0.27397617554E+03  0.50400001928E-02 0. -1.
        1   -1    0    0  501    0  0.00000000000E+00  0.00000000000E+00 -0.17812204511E+04  0.17812204511E+04  0.50400001928E-02 0.  1.
    10030    2    1    2    0    0  0.00000000000E+00  0.00000000000E+00 -0.15072442756E+04  0.20551966267E+04  0.13971570663E+04 0.  0.
        2    1    3    3  502    0  0.42911638987E+03 -0.27983120348E+03 -0.54996418544E+02  0.51523876461E+03  0.25500000920E-02 0. -1.
       -2    1    3    3    0  502 -0.42911638987E+03  0.27983120348E+03 -0.14522478571E+04  0.15399578620E+04  0.25500000920E-02 0.  1.
</event>
<event>
 5   0  0.1238683E-03  0.1400126E+04  0.7818609E-02  0.8953727E-01
       -1   -1    0    0    0  501  0.00000000000E+00  0.00000000000E+00  0.50898811984E+03  0.50898811987E+03  0.50400001928E-02 0. -1.
        1   -1    0    0  501    0  0.00000000000E+00  0.00000000000E+00 -0.96286782364E+03  0.96286782366E+03  0.50400001928E-02 0.  1.
    10030    2    1    2    0    0  0.00000000000E+00  0.00000000000E+00 -0.45387970380E+03  0.14718559435E+04  0.14001261132E+04 0.  0.
        2    1    3    3  502    0 -0.34773565814E+03 -0.18767806870E+03 -0.83442506713E+03  0.92325962658E+03  0.25500000920E-02 0.  1.
       -2    1    3    3    0  502  0.34773565814E+03  0.18767806870E+03  0.38054536333E+03  0.54859631695E+03  0.25500000920E-02 0. -1.
</event>
<event>
 5   0  0.1210275E-03  0.1378830E+04  0.7818609E-02  0.8969287E-01
       -1   -1    0    0    0  501  0.00000000000E+00  0.00000000000E+00  0.93464523195E+03  0.93464523196E+03  0.50400001928E-02 0. -1.
        1   -1    0    0  501    0  0.00000000000E+00  0.00000000000E+00 -0.50852750765E+03  0.50852750768E+03  0.50400001928E-02 0.  1.
    10030    2    1    2    0    0  0.00000000000E+00  0.00000000000E+00  0.42611772430E+03  0.14431727396E+04  0.13788296637E+04 0.  0.
        1    1    3    3  502    0 -0.35271858091E+03  0.37565285067E+03 -0.26631753092E+03  0.58004352322E+03  0.50400001928E-02 0.  1.
       -1    1    3    3    0  502  0.35271858091E+03 -0.37565285067E+03  0.69243525522E+03  0.86312921642E+03  0.50400001928E-02 0. -1.
</event>
<event>
 5   0  0.2172901E-03  0.1347577E+04  0.7818609E-02  0.8992664E-01
       -2   -1    0    0    0  501  0.00000000000E+00  0.00000000000E+00  0.94705056409E+03  0.94705056409E+03  0.25500000920E-02 0. -1.
        2   -1    0    0  501    0  0.00000000000E+00  0.00000000000E+00 -0.47937350670E+03  0.47937350671E+03  0.25500000920E-02 0.  1.
    10030    2    1    2    0    0  0.00000000000E+00  0.00000000000E+00  0.46767705739E+03  0.14264240708E+04  0.13475770107E+04 0.  0.
        2    1    3    3  502    0  0.39629668574E+03 -0.31139107992E+03 -0.23951262699E+03  0.55801591937E+03  0.25500000920E-02 0.  1.
       -2    1    3    3    0  502 -0.39629668574E+03  0.31139107992E+03  0.70718968437E+03  0.86840815143E+03  0.25500000920E-02 0. -1.
</event>
<event>
 5   0  0.2195980E-03  0.1344888E+04  0.7818609E-02  0.8994707E-01
        2   -1    0    0  501    0  0.00000000000E+00  0.00000000000E+00  0.95428087483E+03  0.95428087483E+03  0.25500000920E-02 0. -1.
       -2   -1    0    0    0  501  0.00000000000E+00  0.00000000000E+00 -0.47384481971E+03  0.47384481972E+03  0.25500000920E-02 0.  1.
    10030    2    1    2    0    0  0.00000000000E+00  0.00000000000E+00  0.48043605512E+03  0.14281256945E+04  0.13448881724E+04 0.  0.
        4    1    3    3  502    0 -0.35144443172E+01 -0.27496267322E+02  0.95367263501E+03  0.95407625675E+03  0.12699999809E+01 0. -1.
       -4    1    3    3    0  502  0.35144443172E+01  0.27496267322E+02 -0.47323657989E+03  0.47404943780E+03  0.12699999809E+01 0.  1.
</event>
<event>
 5   0  0.1210275E-03  0.1380563E+04  0.7818609E-02  0.8968010E-01
        1   -1    0    0  501    0  0.00000000000E+00  0.00000000000E+00  0.71637761572E+03  0.71637761574E+03  0.50400001928E-02 0. -1.
       -1   -1    0    0    0  501  0.00000000000E+00  0.00000000000E+00 -0.66513562763E+03  0.66513562765E+03  0.50400001928E-02 0.  1.
    10030    2    1    2    0    0  0.00000000000E+00  0.00000000000E+00  0.51241988097E+02  0.13815132434E+04  0.13805626028E+04 0.  0.
        1    1    3    3  502    0 -0.14932198221E+03  0.53726445685E+03 -0.38152293398E+03  0.67565516363E+03  0.50400001928E-02 0.  1.
       -1    1    3    3    0  502  0.14932198221E+03 -0.53726445685E+03  0.43276492207E+03  0.70585807976E+03  0.50400001928E-02 0. -1.
</event>
<event>
 5   0  0.2083966E-03  0.1406819E+04  0.7818609E-02  0.8948897E-01
       -2   -1    0    0    0  501  0.00000000000E+00  0.00000000000E+00  0.11370730602E+04  0.11370730602E+04  0.25500000920E-02 0. -1.
        2   -1    0    0  501    0  0.00000000000E+00  0.00000000000E+00 -0.43513901098E+03  0.43513901099E+03  0.25500000920E-02 0.  1.
    10030    2    1    2    0    0  0.00000000000E+00  0.00000000000E+00  0.70193404923E+03  0.15722120712E+04  0.14068188893E+04 0.  0.
        1    1    3    3  502    0  0.41326693465E+03 -0.39638959892E+03  0.80749018446E+03  0.98992659901E+03  0.50400001928E-02 0. -1.
       -1    1    3    3    0  502 -0.41326693465E+03  0.39638959892E+03 -0.10555613523E+03  0.58228547219E+03  0.50400001928E-02 0.  1.
</event>
<event>
 5   0  0.1238683E-03  0.1339055E+04  0.7818609E-02  0.8999155E-01
       -1   -1    0    0    0  501  0.00000000000E+00  0.00000000000E+00  0.40180798817E+03  0.40180798820E+03  0.50400001928E-02 0. -1.
        1   -1    0    0  501    0  0.00000000000E+00  0.00000000000E+00 -0.11156250290E+04  0.11156250290E+04  0.50400001928E-02 0.  1.
    10030    2    1    2    0    0  0.00000000000E+00  0.00000000000E+00 -0.71381704081E+03  0.15174330172E+04  0.13390549630E+04 0.  0.
        2    1    3    3  502    0 -0.56943028792E+03  0.31590717751E+03 -0.53326356717E+03  0.84167584596E+03  0.25500000920E-02 0.  1.
       -2    1    3    3    0  502  0.56943028792E+03 -0.31590717751E+03 -0.18055347364E+03  0.67575717122E+03  0.25500000920E-02 0. -1.
</event>
<event>
 5   0  0.1210275E-03  0.1421595E+04  0.7818609E-02  0.8938334E-01
       -1   -1    0    0    0  501  0.00000000000E+00  0.00000000000E+00  0.24531354644E+03  0.24531354649E+03  0.50400001928E-02 0. -1.
        1   -1    0    0  501    0  0.00000000000E+00  0.00000000000E+00 -0.20595388664E+04  0.20595388664E+04  0.50400001928E-02 0.  1.
    10030    2    1    2    0    0  0.00000000000E+00  0.00000000000E+00 -0.18142253199E+04  0.23048524129E+04  0.14215945743E+04 0.  0.
        1    1    3    3  502    0  0.13747437304E+03  0.55912707838E+03 -0.15828538421E+04  0.16843243685E+04  0.50400001928E-02 0.  1.
       -1    1    3    3    0  502 -0.13747437304E+03 -0.55912707838E+03 -0.23137147787E+03  0.62052804434E+03  0.50400001928E-02 0. -1.
</event>
<event>
 5   0  0.1210275E-03  0.1405346E+04  0.7818609E-02  0.8949958E-01
        1   -1    0    0  501    0  0.00000000000E+00  0.00000000000E+00  0.45088191165E+03  0.45088191168E+03  0.50400001928E-02 0.  1.
       -1   -1    0    0    0  501  0.00000000000E+00  0.00000000000E+00 -0.10950749953E+04  0.10950749953E+04  0.50400001928E-02 0. -1.
    10030    2    1    2    0    0  0.00000000000E+00  0.00000000000E+00 -0.64419308363E+03  0.15459569070E+04  0.14053462311E+04 0.  0.
        1    1    3    3  502    0 -0.27545295180E+02 -0.54432342358E+03 -0.80998359491E+03  0.97627872905E+03  0.50400001928E-02 0. -1.
       -1    1    3    3    0  502  0.27545295180E+02  0.54432342358E+03  0.16579051128E+03  0.56967817792E+03  0.50400001928E-02 0.  1.
</event>
<event>
 5   0  0.1210275E-03  0.1248045E+04  0.7818609E-02  0.9071812E-01
        1   -1    0    0  501    0  0.00000000000E+00  0.00000000000E+00  0.39460559877E+03  0.39460559880E+03  0.50400001928E-02 0. -1.
       -1   -1    0    0    0  501  0.00000000000E+00  0.00000000000E+00 -0.98681894243E+03  0.98681894244E+03  0.50400001928E-02 0.  1.
    10030    2    1    2    0    0  0.00000000000E+00  0.00000000000E+00 -0.59221334367E+03  0.13814245412E+04  0.12480453192E+04 0.  0.
        1    1    3    3  502    0  0.30477684488E+03 -0.38411278204E+03  0.13111196748E+03  0.50756467818E+03  0.50400001928E-02 0. -1.
       -1    1    3    3    0  502 -0.30477684488E+03  0.38411278204E+03 -0.72332531114E+03  0.87385986306E+03  0.50400001928E-02 0.  1.
</event>
<event>
 5   0  0.1210275E-03  0.1388928E+04  0.7818609E-02  0.8961872E-01
        1   -1    0    0  501    0  0.00000000000E+00  0.00000000000E+00  0.12286414383E+04  0.12286414383E+04  0.50400001928E-02 0. -1.
       -1   -1    0    0    0  501  0.00000000000E+00  0.00000000000E+00 -0.39253151751E+03  0.39253151754E+03  0.50400001928E-02 0.  1.
    10030    2    1    2    0    0  0.00000000000E+00  0.00000000000E+00  0.83610992080E+03  0.16211729559E+04  0.13889283470E+04 0.  0.
        1    1    3    3  502    0  0.53636806333E+03 -0.36008161672E+03  0.71547869003E+03  0.96398092614E+03  0.50400001928E-02 0. -1.
       -1    1    3    3    0  502 -0.53636806333E+03  0.36008161672E+03  0.12063123078E+03  0.65719202972E+03  0.50400001928E-02 0.  1.
</event>
<event>
 5   0  0.1238683E-03  0.1479908E+04  0.7818609E-02  0.8897925E-01
        1   -1    0    0  501    0  0.00000000000E+00  0.00000000000E+00  0.12397660995E+04  0.12397660995E+04  0.50400001928E-02 0.  1.
       -1   -1    0    0    0  501  0.00000000000E+00  0.00000000000E+00 -0.44164113742E+03  0.44164113745E+03  0.50400001928E-02 0. -1.
    10030    2    1    2    0    0  0.00000000000E+00  0.00000000000E+00  0.79812496204E+03  0.16814072369E+04  0.14799077138E+04 0.  0.
        2    1    3    3  502    0  0.71316816710E+03  0.19179935615E+03  0.34655429908E+03  0.81577920408E+03  0.25500000920E-02 0. -1.
       -2    1    3    3    0  502 -0.71316816710E+03 -0.19179935615E+03  0.45157066296E+03  0.86562803284E+03  0.25500000920E-02 0.  1.
</event>
<event>
 5   0  0.1225690E-03  0.1418998E+04  0.7818609E-02  0.8940180E-01
        1   -1    0    0  501    0  0.00000000000E+00  0.00000000000E+00  0.10658024655E+04  0.10658024655E+04  0.50400001928E-02 0.  1.
       -1   -1    0    0    0  501  0.00000000000E+00  0.00000000000E+00 -0.47230976248E+03  0.47230976251E+03  0.50400001928E-02 0. -1.
    10030    2    1    2    0    0  0.00000000000E+00  0.00000000000E+00  0.59349270301E+03  0.15381122280E+04  0.14189981104E+04 0.  0.
        4    1    3    3  502    0  0.59124616035E+03  0.35878538721E+03  0.12505753770E+03  0.70280863458E+03  0.12699999809E+01 0. -1.
       -4    1    3    3    0  502 -0.59124616035E+03 -0.35878538721E+03  0.46843516530E+03  0.83530359343E+03  0.12699999809E+01 0.  1.
</event>
<event>
 5   0  0.2172901E-03  0.1349213E+04  0.7818609E-02  0.8991424E-01
        2   -1    0    0  501    0  0.00000000000E+00  0.00000000000E+00  0.14173138031E+04  0.14173138031E+04  0.25500000920E-02 0. -1.
       -2   -1    0    0    0  501  0.00000000000E+00  0.00000000000E+00 -0.32109623724E+03  0.32109623725E+03  0.25500000920E-02 0.  1.
    10030    2    1    2    0    0  0.00000000000E+00  0.00000000000E+00  0.10962175659E+04  0.17384100404E+04  0.13492132955E+04 0.  0.
        2    1    3    3  502    0  0.32392082680E+03  0.24748475168E+03  0.12406744485E+04  0.13059274450E+04  0.25500000920E-02 0. -1.
       -2    1    3    3    0  502 -0.32392082680E+03 -0.24748475168E+03 -0.14445688265E+03  0.43248259537E+03  0.25500000920E-02 0.  1.
</event>
<event>
 5   0  0.1238683E-03  0.1376696E+04  0.7818609E-02  0.8970862E-01
       -1   -1    0    0    0  501  0.00000000000E+00  0.00000000000E+00  0.45091345202E+03  0.45091345205E+03  0.50400001928E-02 0.  1.
        1   -1    0    0  501    0  0.00000000000E+00  0.00000000000E+00 -0.10508071892E+04  0.10508071892E+04  0.50400001928E-02 0. -1.
    10030    2    1    2    0    0  0.00000000000E+00  0.00000000000E+00 -0.59989373717E+03  0.15017206413E+04  0.13766961860E+04 0.  0.
        2    1    3    3  502    0 -0.23578241224E+03  0.10910005670E+03 -0.99527346854E+03  0.10286230823E+04  0.25500000920E-02 0. -1.
       -2    1    3    3    0  502  0.23578241224E+03 -0.10910005670E+03  0.39537973137E+03  0.47309755894E+03  0.25500000920E-02 0.  1.
</event>
<event>
 5   0  0.1199720E-03  0.1371362E+04  0.7818609E-02  0.8974813E-01
        1   -1    0    0  501    0  0.00000000000E+00  0.00000000000E+00  0.39399648801E+03  0.39399648804E+03  0.50400001928E-02 0. -1.
       -1   -1    0    0    0  501  0.00000000000E+00  0.00000000000E+00 -0.11933055963E+04  0.11933055963E+04  0.50400001928E-02 0.  1.
    10030    2    1    2    0    0  0.00000000000E+00  0.00000000000E+00 -0.79930910827E+03  0.15873020843E+04  0.13713616796E+04 0.  0.
        5    1    3    3  502    0 -0.51265069812E+03 -0.24989953933E+03  0.40905594228E+02  0.57180055586E+03  0.46999998093E+01 0.  1.
       -5    1    3    3    0  502  0.51265069812E+03  0.24989953933E+03 -0.84021470250E+03  0.10155015285E+04  0.46999998093E+01 0. -1.
</event>
<event>
 5   0  0.2083966E-03  0.1432165E+04  0.7818609E-02  0.8930859E-01
       -2   -1    0    0    0  501  0.00000000000E+00  0.00000000000E+00  0.11664810546E+04  0.11664810546E+04  0.25500000920E-02 0.  1.
        2   -1    0    0  501    0  0.00000000000E+00  0.00000000000E+00 -0.43959068535E+03  0.43959068536E+03  0.25500000920E-02 0. -1.
    10030    2    1    2    0    0  0.00000000000E+00  0.00000000000E+00  0.72689036921E+03  0.16060717399E+04  0.14321650830E+04 0.  0.
        1    1    3    3  502    0 -0.22067632024E+03 -0.53319390316E+03  0.83893702216E+03  0.10182382353E+04  0.50400001928E-02 0.  1.
       -1    1    3    3    0  502  0.22067632024E+03  0.53319390316E+03 -0.11204665295E+03  0.58783350461E+03  0.50400001928E-02 0. -1.
</event>
<event>
 5   0  0.2083966E-03  0.1348503E+04  0.7818609E-02  0.8991962E-01
       -2   -1    0    0    0  501  0.00000000000E+00  0.00000000000E+00  0.36101365601E+03  0.36101365602E+03  0.25500000920E-02 0.  1.
        2   -1    0    0  501    0  0.00000000000E+00  0.00000000000E+00 -0.12592747381E+04  0.12592747381E+04  0.25500000920E-02 0. -1.
    10030    2    1    2    0    0  0.00000000000E+00  0.00000000000E+00 -0.89826108206E+03  0.16202883941E+04  0.13485034329E+04 0.  0.
        1    1    3    3  502    0 -0.45445637763E+03  0.96161677483E+02  0.13807712112E+03  0.48460598303E+03  0.50400001928E-02 0.  1.
       -1    1    3    3    0  502  0.45445637763E+03 -0.96161677483E+02 -0.10363382032E+04  0.11356824111E+04  0.50400001928E-02 0. -1.
</event>
<event>
 5   0  0.2172901E-03  0.1408876E+04  0.7818609E-02  0.8947419E-01
        2   -1    0    0  501    0  0.00000000000E+00  0.00000000000E+00  0.11385053678E+04  0.11385053678E+04  0.25500000920E-02 0.  1.
       -2   -1    0    0    0  501  0.00000000000E+00  0.00000000000E+00 -0.43586352514E+03  0.43586352515E+03  0.25500000920E-02 0. -1.
    10030    2    1    2    0    0  0.00000000000E+00  0.00000000000E+00  0.70264184261E+03  0.15743688929E+04  0.14088760953E+04 0.  0.
        2    1    3    3  502    0  0.16813783674E+02 -0.30936449273E+03 -0.35564103617E+03  0.47166687323E+03  0.25500000920E-02 0. -1.
       -2    1    3    3    0  502 -0.16813783674E+02  0.30936449273E+03  0.10582828788E+04  0.11027020197E+04  0.25500000920E-02 0.  1.
</event>
<event>
 5   0  0.2190704E-03  0.1391457E+04  0.7818609E-02  0.8960026E-01
       -2   -1    0    0    0  501  0.00000000000E+00  0.00000000000E+00  0.96660501357E+03  0.96660501357E+03  0.25500000920E-02 0.  1.
        2   -1    0    0  501    0  0.00000000000E+00  0.00000000000E+00 -0.50076123204E+03  0.50076123205E+03  0.25500000920E-02 0. -1.
    10030    2    1    2    0    0  0.00000000000E+00  0.00000000000E+00  0.46584378152E+03  0.14673662456E+04  0.13914572469E+04 0.  0.
        5    1    3    3  502    0  0.50916393055E+03 -0.41264630726E+03  0.47909035665E+03  0.81183406119E+03  0.46999998093E+01 0. -1.
       -5    1    3    3    0  502 -0.50916393055E+03  0.41264630726E+03 -0.13246575130E+02  0.65553218443E+03  0.46999998093E+01 0.  1.
</event>
<event>
 5   0  0.1225690E-03  0.1420963E+04  0.7818609E-02  0.8938783E-01
        1   -1    0    0  501    0  0.00000000000E+00  0.00000000000E+00  0.14484473639E+04  0.14484473639E+04  0.50400001928E-02 0.  1.
       -1   -1    0    0    0  501  0.00000000000E+00  0.00000000000E+00 -0.34850011499E+03  0.34850011502E+03  0.50400001928E-02 0. -1.
    10030    2    1    2    0    0  0.00000000000E+00  0.00000000000E+00  0.10999472489E+04  0.17969474790E+04  0.14209631563E+04 0.  0.
        4    1    3    3  502    0  0.12757337711E+03  0.46415044664E+03  0.12108055829E+04  0.13029821089E+04  0.12699999809E+01 0.  1.
       -4    1    3    3    0  502 -0.12757337711E+03 -0.46415044664E+03 -0.11085833399E+03  0.49396537002E+03  0.12699999809E+01 0. -1.
</event>
<event>
 5   0  0.2083966E-03  0.1357252E+04  0.7818609E-02  0.8985356E-01
        2   -1    0    0  501    0  0.00000000000E+00  0.00000000000E+00  0.10943747955E+04  0.10943747955E+04  0.25500000920E-02 0. -1.
       -2   -1    0    0    0  501  0.00000000000E+00  0.00000000000E+00 -0.42081884788E+03  0.42081884789E+03  0.25500000920E-02 0.  1.
    10030    2    1    2    0    0  0.00000000000E+00  0.00000000000E+00  0.67355594757E+03  0.15151936433E+04  0.13572524313E+04 0.  0.
        1    1    3    3  502    0 -0.62346776635E+03  0.20449761847E+03  0.53014576070E+03  0.84355548677E+03  0.50400001928E-02 0. -1.
       -1    1    3    3    0  502  0.62346776635E+03 -0.20449761847E+03  0.14341018687E+03  0.67163815657E+03  0.50400001928E-02 0.  1.
</event>
<event>
 5   0  0.1210275E-03  0.9138883E+03  0.7818609E-02  0.9408385E-01
        1   -1    0    0  501    0  0.00000000000E+00  0.00000000000E+00  0.66681740932E+03  0.66681740934E+03  0.50400001928E-02 0.  1.
       -1   -1    0    0    0  501  0.00000000000E+00  0.00000000000E+00 -0.31312610845E+03  0.31312610849E+03  0.50400001928E-02 0. -1.
    10030    2    1    2    0    0  0.00000000000E+00  0.00000000000E+00  0.35369130087E+03  0.97994351783E+03  0.91388826550E+03 0.  0.
        1    1    3    3  502    0 -0.35674036556E+03 -0.27139178756E+03  0.27203573428E+03  0.52432874375E+03  0.50400001928E-02 0. -1.
       -1    1    3    3    0  502  0.35674036556E+03  0.27139178756E+03  0.81655566589E+02  0.45561477408E+03  0.50400001928E-02 0.  1.
</event>
<event>
 5   0  0.8293000E-04  0.1520145E+04  0.7818609E-02  0.8871166E-01
        4   -1    0    0  501    0  0.00000000000E+00  0.00000000000E+00  0.42097729889E+03  0.42097921455E+03  0.12699999809E+01 0. -1.
       -4   -1    0    0    0  501  0.00000000000E+00  0.00000000000E+00 -0.13723025221E+04  0.13723031098E+04  0.12699999809E+01 0.  1.
    10030    2    1    2    0    0  0.00000000000E+00  0.00000000000E+00 -0.95132522325E+03  0.17932823243E+04  0.15201453267E+04 0.  0.
        3    1    3    3  502    0 -0.80028479225E+02 -0.61568472706E+03  0.41567032701E+02  0.62225402292E+03  0.10100000352E+00 0. -1.
       -3    1    3    3    0  502  0.80028479225E+02  0.61568472706E+03 -0.99289225595E+03  0.11710283014E+04  0.10100000352E+00 0.  1.
</event>
<event>
 5   0  0.1210275E-03  0.1387004E+04  0.7818609E-02  0.8963280E-01
       -1   -1    0    0    0  501  0.00000000000E+00  0.00000000000E+00  0.34879827606E+03  0.34879827609E+03  0.50400001928E-02 0.  1.
        1   -1    0    0  501    0  0.00000000000E+00  0.00000000000E+00 -0.13788622901E+04  0.13788622901E+04  0.50400001928E-02 0. -1.
    10030    2    1    2    0    0  0.00000000000E+00  0.00000000000E+00 -0.10300640140E+04  0.17276605662E+04  0.13870036622E+04 0.  0.
        1    1    3    3  502    0 -0.14791740272E+02 -0.54522293016E+02  0.34592738265E+03  0.35050995722E+03  0.50400001928E-02 0.  1.
       -1    1    3    3    0  502  0.14791740272E+02  0.54522293016E+02 -0.13759913967E+04  0.13771506089E+04  0.50400001928E-02 0. -1.
</event>
<event>
 5   0  0.1199720E-03  0.1410468E+04  0.7818609E-02  0.8946276E-01
        1   -1    0    0  501    0  0.00000000000E+00  0.00000000000E+00  0.49377616686E+03  0.49377616689E+03  0.50400001928E-02 0. -1.
       -1   -1    0    0    0  501  0.00000000000E+00  0.00000000000E+00 -0.10072472261E+04  0.10072472261E+04  0.50400001928E-02 0.  1.
    10030    2    1    2    0    0  0.00000000000E+00  0.00000000000E+00 -0.51347105921E+03  0.15010233930E+04  0.14104675457E+04 0.  0.
        5    1    3    3  502    0 -0.30756093594E+03  0.49383212758E+03 -0.68090901049E+03  0.89561323690E+03  0.46999998093E+01 0. -1.
       -5    1    3    3    0  502  0.30756093594E+03 -0.49383212758E+03  0.16743795128E+03  0.60541015607E+03  0.46999998093E+01 0.  1.
</event>
<event>
 5   0  0.1238683E-03  0.1366231E+04  0.7818609E-02  0.8978631E-01
       -1   -1    0    0    0  501  0.00000000000E+00  0.00000000000E+00  0.14407329413E+04  0.14407329413E+04  0.50400001928E-02 0. -1.
        1   -1    0    0  501    0  0.00000000000E+00  0.00000000000E+00 -0.32389551773E+03  0.32389551777E+03  0.50400001928E-02 0.  1.
    10030    2    1    2    0    0  0.00000000000E+00  0.00000000000E+00  0.11168374235E+04  0.17646284590E+04  0.13662312278E+04 0.  0.
        2    1    3    3  502    0  0.55481187474E+03  0.31900203457E+03  0.24986766479E+03  0.68703155992E+03  0.25500000920E-02 0.  1.
       -2    1    3    3    0  502 -0.55481187474E+03 -0.31900203457E+03  0.86696975873E+03  0.10775968991E+04  0.25500000920E-02 0. -1.
</event>
<event>
 5   0  0.2083966E-03  0.1430973E+04  0.7818609E-02  0.8931699E-01
       -2   -1    0    0    0  501  0.00000000000E+00  0.00000000000E+00  0.37485939674E+03  0.37485939675E+03  0.25500000920E-02 0.  1.
        2   -1    0    0  501    0  0.00000000000E+00  0.00000000000E+00 -0.13656342148E+04  0.13656342149E+04  0.25500000920E-02 0. -1.
    10030    2    1    2    0    0  0.00000000000E+00  0.00000000000E+00 -0.99077481811E+03  0.17404936116E+04  0.14309728410E+04 0.  0.
        1    1    3    3  502    0  0.14084897116E+03 -0.42937389201E+03  0.17932581010E+03  0.48616675947E+03  0.50400001928E-02 0.  1.
       -1    1    3    3    0  502 -0.14084897116E+03  0.42937389201E+03 -0.11701006282E+04  0.12543268521E+04  0.50400001928E-02 0. -1.
</event>
<event>
 5   0  0.2236184E-03  0.1397948E+04  0.7818609E-02  0.8955305E-01
        2   -1    0    0  501    0  0.00000000000E+00  0.00000000000E+00  0.45878246536E+03  0.45878246537E+03  0.25500000920E-02 0.  1.
       -2   -1    0    0    0  501  0.00000000000E+00  0.00000000000E+00 -0.10649155262E+04  0.10649155262E+04  0.25500000920E-02 0. -1.
    10030    2    1    2    0    0  0.00000000000E+00  0.00000000000E+00 -0.60613306082E+03  0.15236979915E+04  0.13979478824E+04 0.  0.
        3    1    3    3  502    0  0.68597933360E+03 -0.61242954090E+02 -0.17297241334E+03  0.71009704374E+03  0.10100000352E+00 0. -1.
       -3    1    3    3    0  502 -0.68597933360E+03  0.61242954090E+02 -0.43316064748E+03  0.81360094781E+03  0.10100000352E+00 0.  1.
</event>
<event>
 5   0  0.1210275E-03  0.1413329E+04  0.7818609E-02  0.8944227E-01
       -1   -1    0    0    0  501  0.00000000000E+00  0.00000000000E+00  0.10345371299E+04  0.10345371300E+04  0.50400001928E-02 0. -1.
        1   -1    0    0  501    0  0.00000000000E+00  0.00000000000E+00 -0.48270343403E+03  0.48270343406E+03  0.50400001928E-02 0.  1.
    10030    2    1    2    0    0  0.00000000000E+00  0.00000000000E+00  0.55183369591E+03  0.15172405640E+04  0.14133288723E+04 0.  0.
        1    1    3    3  502    0  0.64989119788E+03  0.27677136213E+03  0.25408261939E+03  0.75067898164E+03  0.50400001928E-02 0.  1.
       -1    1    3    3    0  502 -0.64989119788E+03 -0.27677136213E+03  0.29775107652E+03  0.76656158238E+03  0.50400001928E-02 0. -1.
</event>
<event>
 5   0  0.1238683E-03  0.1408257E+04  0.7818609E-02  0.8947863E-01
        1   -1    0    0  501    0  0.00000000000E+00  0.00000000000E+00  0.40355733728E+03  0.40355733731E+03  0.50400001928E-02 0. -1.
       -1   -1    0    0    0  501  0.00000000000E+00  0.00000000000E+00 -0.12285658974E+04  0.12285658974E+04  0.50400001928E-02 0.  1.
    10030    2    1    2    0    0  0.00000000000E+00  0.00000000000E+00 -0.82500856015E+03  0.16321232347E+04  0.14082567696E+04 0.  0.
        2    1    3    3  502    0 -0.44176934253E+03  0.48545682529E+03 -0.11709655052E+03  0.66673839200E+03  0.25500000920E-02 0. -1.
       -2    1    3    3    0  502  0.44176934253E+03 -0.48545682529E+03 -0.70791200963E+03  0.96538484275E+03  0.25500000920E-02 0.  1.
</event>
<event>
 5   0  0.8293000E-04  0.1406752E+04  0.7818609E-02  0.8948945E-01
       -3   -1    0    0    0  501  0.00000000000E+00  0.00000000000E+00  0.10258874074E+04  0.10258874124E+04  0.10100000352E+00 0. -1.
        3   -1    0    0  501    0  0.00000000000E+00  0.00000000000E+00 -0.48225357789E+03  0.48225358847E+03  0.10100000352E+00 0.  1.
    10030    2    1    2    0    0  0.00000000000E+00  0.00000000000E+00  0.54363382955E+03  0.15081410009E+04  0.14067521238E+04 0.  0.
        1    1    3    3  502    0 -0.67906628392E+03 -0.17099856833E+03  0.20097603522E+03  0.72853475901E+03  0.50400001928E-02 0.  1.
       -1    1    3    3    0  502  0.67906628392E+03  0.17099856833E+03  0.34265779433E+03  0.77960624187E+03  0.50400001928E-02 0. -1.
</event>
<event>
 5   0  0.1225690E-03  0.1407943E+04  0.7818609E-02  0.8948089E-01
       -1   -1    0    0    0  501  0.00000000000E+00  0.00000000000E+00  0.32359921954E+03  0.32359921958E+03  0.50400001928E-02 0.  1.
        1   -1    0    0  501    0  0.00000000000E+00  0.00000000000E+00 -0.15314493880E+04  0.15314493880E+04  0.50400001928E-02 0. -1.
    10030    2    1    2    0    0  0.00000000000E+00  0.00000000000E+00 -0.12078501685E+04  0.18550486076E+04  0.14079429346E+04 0.  0.
        4    1    3    3  502    0 -0.33494088074E+02  0.85154555135E+02 -0.15235788512E+04  0.15263247626E+04  0.12699999809E+01 0. -1.
       -4    1    3    3    0  502  0.33494088074E+02 -0.85154555135E+02  0.31572868279E+03  0.32872384494E+03  0.12699999809E+01 0.  1.
</event>
<event>
 5   0  0.1238683E-03  0.1446097E+04  0.7818609E-02  0.8921111E-01
       -1   -1    0    0    0  501  0.00000000000E+00  0.00000000000E+00  0.60426573070E+03  0.60426573073E+03  0.50400001928E-02 0. -1.
        1   -1    0    0  501    0  0.00000000000E+00  0.00000000000E+00 -0.86518081858E+03  0.86518081860E+03  0.50400001928E-02 0.  1.
    10030    2    1    2    0    0  0.00000000000E+00  0.00000000000E+00 -0.26091508788E+03  0.14694465493E+04  0.14460969809E+04 0.  0.
        2    1    3    3  502    0  0.30991623443E+03  0.45586080032E+03 -0.60592510516E+03  0.81914734614E+03  0.25500000920E-02 0.  1.
       -2    1    3    3    0  502 -0.30991623443E+03 -0.45586080032E+03  0.34501001728E+03  0.65029920318E+03  0.25500000920E-02 0. -1.
</event>
<event>
 5   0  0.1175374E-03  0.1483937E+04  0.7818609E-02  0.8895205E-01
       -1   -1    0    0    0  501  0.00000000000E+00  0.00000000000E+00  0.13602350773E+04  0.13602350773E+04  0.50400001928E-02 0. -1.
        1   -1    0    0  501    0  0.00000000000E+00  0.00000000000E+00 -0.40472209256E+03  0.40472209260E+03  0.50400001928E-02 0.  1.
    10030    2    1    2    0    0  0.00000000000E+00  0.00000000000E+00  0.95551298473E+03  0.17649571699E+04  0.14839369082E+04 0.  0.
        3    1    3    3  502    0 -0.42288427570E+03 -0.11710032634E+03 -0.23385707809E+03  0.49722503983E+03  0.10100000352E+00 0.  1.
       -3    1    3    3    0  502  0.42288427570E+03  0.11710032634E+03  0.11893700628E+04  0.12677321301E+04  0.10100000352E+00 0. -1.
</event>
<event>
 5   0  0.2083966E-03  0.1424245E+04  0.7818609E-02  0.8936453E-01
        2   -1    0    0  501    0  0.00000000000E+00  0.00000000000E+00  0.15203294157E+04  0.15203294157E+04  0.25500000920E-02 0. -1.
       -2   -1    0    0    0  501  0.00000000000E+00  0.00000000000E+00 -0.33355845811E+03  0.33355845812E+03  0.25500000920E-02 0.  1.
    10030    2    1    2    0    0  0.00000000000E+00  0.00000000000E+00  0.11867709576E+04  0.18538878738E+04  0.14242453942E+04 0.  0.
        1    1    3    3  502    0  0.18986589910E+03 -0.41011928414E+03 -0.12296918783E+03  0.46836770602E+03  0.50400001928E-02 0.  1.
       -1    1    3    3    0  502 -0.18986589910E+03  0.41011928414E+03  0.13097401454E+04  0.13855201678E+04  0.50400001928E-02 0. -1.
</event>
<event>
 5   0  0.1199720E-03  0.1383340E+04  0.7818609E-02  0.8965967E-01
       -1   -1    0    0    0  501  0.00000000000E+00  0.00000000000E+00  0.69263530221E+03  0.69263530223E+03  0.50400001928E-02 0.  1.
        1   -1    0    0  501    0  0.00000000000E+00  0.00000000000E+00 -0.69070597213E+03  0.69070597215E+03  0.50400001928E-02 0. -1.
    10030    2    1    2    0    0  0.00000000000E+00  0.00000000000E+00  0.19293300775E+01  0.13833412744E+04  0.13833399290E+04 0.  0.
        5    1    3    3  502    0  0.10032952040E+03  0.36276028189E+03  0.58124465778E+03  0.69247994698E+03  0.46999998093E+01 0.  1.
       -5    1    3    3    0  502 -0.10032952040E+03 -0.36276028189E+03 -0.57931532770E+03  0.69086132739E+03  0.46999998093E+01 0. -1.
</event>
<event>
 5   0  0.2172901E-03  0.1395475E+04  0.7818609E-02  0.8957100E-01
        2   -1    0    0  501    0  0.00000000000E+00  0.00000000000E+00  0.16479147697E+04  0.16479147697E+04  0.25500000920E-02 0.  1.
       -2   -1    0    0    0  501  0.00000000000E+00  0.00000000000E+00 -0.29542660429E+03  0.29542660430E+03  0.25500000920E-02 0. -1.
    10030    2    1    2    0    0  0.00000000000E+00  0.00000000000E+00  0.13524881654E+04  0.19433413740E+04  0.13954753521E+04 0.  0.
        2    1    3    3  502    0 -0.67524824013E+03  0.17568774859E+03  0.67152281849E+03  0.96838487523E+03  0.25500000920E-02 0. -1.
       -2    1    3    3    0  502  0.67524824013E+03 -0.17568774859E+03  0.68096534692E+03  0.97495649878E+03  0.25500000920E-02 0.  1.
</event>
<event>
 5   0  0.1238683E-03  0.1450982E+04  0.7818609E-02  0.8917720E-01
        1   -1    0    0  501    0  0.00000000000E+00  0.00000000000E+00  0.81588320518E+03  0.81588320519E+03  0.50400001928E-02 0.  1.
       -1   -1    0    0    0  501  0.00000000000E+00  0.00000000000E+00 -0.64511345438E+03  0.64511345440E+03  0.50400001928E-02 0. -1.
    10030    2    1    2    0    0  0.00000000000E+00  0.00000000000E+00  0.17076975080E+03  0.14609966596E+04  0.14509820576E+04 0.  0.
        2    1    3    3  502    0  0.53549960474E+03 -0.27412083216E+03  0.49368973044E+03  0.77822336591E+03  0.25500000920E-02 0.  1.
       -2    1    3    3    0  502 -0.53549960474E+03  0.27412083216E+03 -0.32291997964E+03  0.68277329368E+03  0.25500000920E-02 0. -1.
</event>
<event>
 5   0  0.2236184E-03  0.1397990E+04  0.7818609E-02  0.8955275E-01
       -2   -1    0    0    0  501  0.00000000000E+00  0.00000000000E+00  0.42105377364E+03  0.42105377364E+03  0.25500000920E-02 0. -1.
        2   -1    0    0  501    0  0.00000000000E+00  0.00000000000E+00 -0.11604081865E+04  0.11604081865E+04  0.25500000920E-02 0.  1.
    10030    2    1    2    0    0  0.00000000000E+00  0.00000000000E+00 -0.73935441286E+03  0.15814619601E+04  0.13979903374E+04 0.  0.
        3    1    3    3  502    0  0.42901269471E+03 -0.14455805683E+02  0.25438713807E+03  0.49897263327E+03  0.10100000352E+00 0. -1.
       -3    1    3    3    0  502 -0.42901269471E+03  0.14455805683E+02 -0.99374155093E+03  0.10824893269E+04  0.10100000352E+00 0.  1.
</event>
<event>
 5   0  0.1210275E-03  0.1399264E+04  0.7818609E-02  0.8954352E-01
        1   -1    0    0  501    0  0.00000000000E+00  0.00000000000E+00  0.43534373076E+03  0.43534373079E+03  0.50400001928E-02 0. -1.
       -1   -1    0    0    0  501  0.00000000000E+00  0.00000000000E+00 -0.11243636028E+04  0.11243636028E+04  0.50400001928E-02 0.  1.
    10030    2    1    2    0    0  0.00000000000E+00  0.00000000000E+00 -0.68901987200E+03  0.15597073336E+04  0.13992635857E+04 0.  0.
        1    1    3    3  502    0  0.10063648463E+03  0.91281324165E+02 -0.11095169303E+04  0.11178049029E+04  0.50400001928E-02 0.  1.
       -1    1    3    3    0  502 -0.10063648463E+03 -0.91281324165E+02  0.42049705832E+03  0.44190243070E+03  0.50400001928E-02 0. -1.
</event>
<event>
 5   0  0.2236184E-03  0.1421426E+04  0.7818609E-02  0.8938454E-01
        2   -1    0    0  501    0  0.00000000000E+00  0.00000000000E+00  0.10463922339E+04  0.10463922339E+04  0.25500000920E-02 0. -1.
       -2   -1    0    0    0  501  0.00000000000E+00  0.00000000000E+00 -0.48271848154E+03  0.48271848154E+03  0.25500000920E-02 0.  1.
    10030    2    1    2    0    0  0.00000000000E+00  0.00000000000E+00  0.56367375234E+03  0.15291107154E+04  0.14214258619E+04 0.  0.
        3    1    3    3  502    0  0.66317465674E+03  0.39764764654E+02  0.10261694261E+02  0.66444501234E+03  0.10100000352E+00 0. -1.
       -3    1    3    3    0  502 -0.66317465674E+03 -0.39764764654E+02  0.55341205808E+03  0.86466570308E+03  0.10100000352E+00 0.  1.
</event>
<event>
 5   0  0.1175374E-03  0.1417457E+04  0.7818609E-02  0.8941279E-01
        1   -1    0    0  501    0  0.00000000000E+00  0.00000000000E+00  0.14615403264E+04  0.14615403264E+04  0.50400001928E-02 0. -1.
       -1   -1    0    0    0  501  0.00000000000E+00  0.00000000000E+00 -0.34367559083E+03  0.34367559087E+03  0.50400001928E-02 0.  1.
    10030    2    1    2    0    0  0.00000000000E+00  0.00000000000E+00  0.11178647355E+04  0.18052159172E+04  0.14174565041E+04 0.  0.
        3    1    3    3  502    0  0.49230792616E+03 -0.22225124384E+03 -0.25426338110E+02  0.54074875720E+03  0.10100000352E+00 0.  1.
       -3    1    3    3    0  502 -0.49230792616E+03  0.22225124384E+03  0.11432910736E+04  0.12644671600E+04  0.10100000352E+00 0. -1.
</event>
<event>
 5   0  0.1199720E-03  0.1405112E+04  0.7818609E-02  0.8950126E-01
        1   -1    0    0  501    0  0.00000000000E+00  0.00000000000E+00  0.15522909733E+04  0.15522909733E+04  0.50400001928E-02 0.  1.
       -1   -1    0    0    0  501  0.00000000000E+00  0.00000000000E+00 -0.31797204777E+03  0.31797204781E+03  0.50400001928E-02 0. -1.
    10030    2    1    2    0    0  0.00000000000E+00  0.00000000000E+00  0.12343189255E+04  0.18702630211E+04  0.14051122938E+04 0.  0.
        5    1    3    3  502    0 -0.15456627206E+03  0.53697839359E+03  0.11839496452E+04  0.13091964635E+04  0.46999998093E+01 0.  1.
       -5    1    3    3    0  502  0.15456627206E+03 -0.53697839359E+03  0.50369280269E+02  0.56106655758E+03  0.46999998093E+01 0. -1.
</event>
<event>
 5   0  0.1175374E-03  0.1410326E+04  0.7818609E-02  0.8946378E-01
        1   -1    0    0  501    0  0.00000000000E+00  0.00000000000E+00  0.42913609984E+03  0.42913609987E+03  0.50400001928E-02 0.  1.
       -1   -1    0    0    0  501  0.00000000000E+00  0.00000000000E+00 -0.11587344421E+04  0.11587344421E+04  0.50400001928E-02 0. -1.
    10030    2    1    2    0    0  0.00000000000E+00  0.00000000000E+00 -0.72959834226E+03  0.15878705420E+04  0.14103258904E+04 0.  0.
        3    1    3    3  502    0 -0.35628279125E+03  0.37640193181E+03  0.17355824525E+03  0.54656958963E+03  0.10100000352E+00 0.  1.
       -3    1    3    3    0  502  0.35628279125E+03 -0.37640193181E+03 -0.90315658751E+03  0.10413009524E+04  0.10100000352E+00 0. -1.
</event>
<event>
 5   0  0.2190704E-03  0.1397512E+04  0.7818609E-02  0.8955621E-01
        2   -1    0    0  501    0  0.00000000000E+00  0.00000000000E+00  0.86309228244E+03  0.86309228244E+03  0.25500000920E-02 0.  1.
       -2   -1    0    0    0  501  0.00000000000E+00  0.00000000000E+00 -0.56571025697E+03  0.56571025698E+03  0.25500000920E-02 0. -1.
    10030    2    1    2    0    0  0.00000000000E+00  0.00000000000E+00  0.29738202546E+03  0.14288025394E+04  0.13975122996E+04 0.  0.
        5    1    3    3  502    0  0.21162321808E+03 -0.49535588391E+02 -0.53025590805E+03  0.57308950345E+03  0.46999998093E+01 0. -1.
       -5    1    3    3    0  502 -0.21162321808E+03  0.49535588391E+02  0.82763793351E+03  0.85571303597E+03  0.46999998093E+01 0.  1.
</event>
<event>
 5   0  0.2083966E-03  0.1398988E+04  0.7818609E-02  0.8954551E-01
        2   -1    0    0  501    0  0.00000000000E+00  0.00000000000E+00  0.65731978698E+03  0.65731978699E+03  0.25500000920E-02 0. -1.
       -2   -1    0    0    0  501  0.00000000000E+00  0.00000000000E+00 -0.74437411191E+03  0.74437411191E+03  0.25500000920E-02 0.  1.
    10030    2    1    2    0    0  0.00000000000E+00  0.00000000000E+00 -0.87054324923E+02  0.14016938989E+04  0.13989879666E+04 0.  0.
        1    1    3    3  502    0 -0.61525463993E+03  0.26850402232E+01  0.28990225782E+03  0.68013880974E+03  0.50400001928E-02 0. -1.
       -1    1    3    3    0  502  0.61525463993E+03 -0.26850402232E+01 -0.37695658274E+03  0.72155508916E+03  0.50400001928E-02 0.  1.
</event>
<event>
 5   0  0.2083966E-03  0.1335847E+04  0.7818609E-02  0.9001611E-01
       -2   -1    0    0    0  501  0.00000000000E+00  0.00000000000E+00  0.23355184565E+03  0.23355184567E+03  0.25500000920E-02 0.  1.
        2   -1    0    0  501    0  0.00000000000E+00  0.00000000000E+00 -0.19101629236E+04  0.19101629236E+04  0.25500000920E-02 0. -1.
    10030    2    1    2    0    0  0.00000000000E+00  0.00000000000E+00 -0.16766110780E+04  0.21437147693E+04  0.13358474109E+04 0.  0.
        1    1    3    3  502    0  0.34596724803E+03 -0.23074861856E+03 -0.16770653816E+04  0.17278560576E+04  0.50400001928E-02 0. -1.
       -1    1    3    3    0  502 -0.34596724803E+03  0.23074861856E+03  0.45430359965E+00  0.41585871170E+03  0.50400001928E-02 0.  1.
</event>
<event>
 5   0  0.1238683E-03  0.1421065E+04  0.7818609E-02  0.8938710E-01
       -1   -1    0    0    0  501  0.00000000000E+00  0.00000000000E+00  0.35116849647E+03  0.35116849650E+03  0.50400001928E-02 0.  1.
        1   -1    0    0  501    0  0.00000000000E+00  0.00000000000E+00 -0.14376474018E+04  0.14376474019E+04  0.50400001928E-02 0. -1.
    10030    2    1    2    0    0  0.00000000000E+00  0.00000000000E+00 -0.10864789054E+04  0.17888158984E+04  0.14210650606E+04 0.  0.
        2    1    3    3  502    0 -0.30049345386E+03 -0.55283655517E+03 -0.95869946709E+03  0.11467472436E+04  0.25500000920E-02 0. -1.
       -2    1    3    3    0  502  0.30049345386E+03  0.55283655517E+03 -0.12777943829E+03  0.64206865474E+03  0.25500000920E-02 0.  1.
</event>
<event>
 5   0  0.8293000E-04  0.1400885E+04  0.7818609E-02  0.8953178E-01
        4   -1    0    0  501    0  0.00000000000E+00  0.00000000000E+00  0.66030764992E+03  0.66030887124E+03  0.12699999809E+01 0.  1.
       -4   -1    0    0    0  501  0.00000000000E+00  0.00000000000E+00 -0.74301470191E+03  0.74301578728E+03  0.12699999809E+01 0. -1.
    10030    2    1    2    0    0  0.00000000000E+00  0.00000000000E+00 -0.82707051988E+02  0.14033246585E+04  0.14008853061E+04 0.  0.
        2    1    3    3  502    0 -0.16628927636E+03  0.18379184135E+03 -0.69761896992E+03  0.74034032146E+03  0.25500000920E-02 0. -1.
       -2    1    3    3    0  502  0.16628927636E+03 -0.18379184135E+03  0.61491191793E+03  0.66298433707E+03  0.25500000920E-02 0.  1.
</event>
<event>
 5   0  0.2172901E-03  0.1346344E+04  0.7818609E-02  0.8993600E-01
        2   -1    0    0  501    0  0.00000000000E+00  0.00000000000E+00  0.20505148618E+04  0.20505148618E+04  0.25500000920E-02 0. -1.
       -2   -1    0    0    0  501  0.00000000000E+00  0.00000000000E+00 -0.22099853379E+03  0.22099853380E+03  0.25500000920E-02 0.  1.
    10030    2    1    2    0    0  0.00000000000E+00  0.00000000000E+00  0.18295163280E+04  0.22715133956E+04  0.13463443512E+04 0.  0.
        2    1    3    3  502    0 -0.57269965222E+02 -0.66695666628E+03  0.10346510507E+04  0.12323205104E+04  0.25500000920E-02 0. -1.
       -2    1    3    3    0  502  0.57269965222E+02  0.66695666628E+03  0.79486527737E+03  0.10391928853E+04  0.25500000920E-02 0.  1.
</event>
<event>
 5   0  0.1199720E-03  0.1394212E+04  0.7818609E-02  0.8958019E-01
       -1   -1    0    0    0  501  0.00000000000E+00  0.00000000000E+00  0.60802368022E+03  0.60802368024E+03  0.50400001928E-02 0. -1.
        1   -1    0    0  501    0  0.00000000000E+00  0.00000000000E+00 -0.79923941027E+03  0.79923941029E+03  0.50400001928E-02 0.  1.
    10030    2    1    2    0    0  0.00000000000E+00  0.00000000000E+00 -0.19121573005E+03  0.14072630905E+04  0.13942115874E+04 0.  0.
        5    1    3    3  502    0 -0.28119381049E+03  0.43934251634E+03 -0.56236795424E+03  0.76705385188E+03  0.46999998093E+01 0.  1.
       -5    1    3    3    0  502  0.28119381049E+03 -0.43934251634E+03  0.37115222419E+03  0.64020923864E+03  0.46999998093E+01 0. -1.
</event>
<event>
 5   0  0.1225690E-03  0.1332021E+04  0.7818609E-02  0.9004551E-01
        1   -1    0    0  501    0  0.00000000000E+00  0.00000000000E+00  0.93845675554E+03  0.93845675555E+03  0.50400001928E-02 0. -1.
       -1   -1    0    0    0  501  0.00000000000E+00  0.00000000000E+00 -0.47265908226E+03  0.47265908229E+03  0.50400001928E-02 0.  1.
    10030    2    1    2    0    0  0.00000000000E+00  0.00000000000E+00  0.46579767327E+03  0.14111158378E+04  0.13320211843E+04 0.  0.
        4    1    3    3  502    0  0.36497703700E+03  0.31742787335E+03  0.71790467898E+03  0.86565433824E+03  0.12699999809E+01 0. -1.
       -4    1    3    3    0  502 -0.36497703700E+03 -0.31742787335E+03 -0.25210700571E+03  0.54546149960E+03  0.12699999809E+01 0.  1.
</event>
<event>
 5   0  0.1175374E-03  0.1325314E+04  0.7818609E-02  0.9009729E-01
       -1   -1    0    0    0  501  0.00000000000E+00  0.00000000000E+00  0.30362304637E+03  0.30362304642E+03  0.50400001928E-02 0. -1.
        1   -1    0    0  501    0  0.00000000000E+00  0.00000000000E+00 -0.14462475460E+04  0.14462475460E+04  0.50400001928E-02 0.  1.
    10030    2    1    2    0    0  0.00000000000E+00  0.00000000000E+00 -0.11426244996E+04  0.17498705924E+04  0.13253136772E+04 0.  0.
        3    1    3    3  502    0  0.12058822624E+03 -0.28971000911E+03  0.19929927408E+03  0.37174402556E+03  0.10100000352E+00 0. -1.
       -3    1    3    3    0  502 -0.12058822624E+03  0.28971000911E+03 -0.13419237737E+04  0.13781265669E+04  0.10100000352E+00 0.  1.
</event>
<event>
 5   0  0.1175374E-03  0.1428289E+04  0.7818609E-02  0.8933592E-01
       -1   -1    0    0    0  501  0.00000000000E+00  0.00000000000E+00  0.10586674358E+04  0.10586674358E+04  0.50400001928E-02 0. -1.
        1   -1    0    0  501    0  0.00000000000E+00  0.00000000000E+00 -0.48173974988E+03  0.48173974991E+03  0.50400001928E-02 0.  1.
    10030    2    1    2    0    0  0.00000000000E+00  0.00000000000E+00  0.57692768592E+03  0.15404071857E+04  0.14282887464E+04 0.  0.
        3    1    3    3  502    0 -0.54205439161E+03 -0.67299781791E+02 -0.20770399342E+03  0.58437418079E+03  0.10100000352E+00 0.  1.
       -3    1    3    3    0  502  0.54205439161E+03  0.67299781791E+02  0.78463167934E+03  0.95603300493E+03  0.10100000352E+00 0. -1.
</event>
<event>
 5   0  0.2172901E-03  0.1406219E+04  0.7818609E-02  0.8949329E-01
       -2   -1    0    0    0  501  0.00000000000E+00  0.00000000000E+00  0.57126737810E+03  0.57126737810E+03  0.25500000920E-02 0.  1.
        2   -1    0    0  501    0  0.00000000000E+00  0.00000000000E+00 -0.86537901089E+03  0.86537901089E+03  0.25500000920E-02 0. -1.
    10030    2    1    2    0    0  0.00000000000E+00  0.00000000000E+00 -0.29411163279E+03  0.14366463890E+04  0.14062187577E+04 0.  0.
        2    1    3    3  502    0 -0.35884675104E+02 -0.12694827136E+03 -0.85262178501E+03  0.86276733932E+03  0.25500000920E-02 0. -1.
       -2    1    3    3    0  502  0.35884675104E+02  0.12694827136E+03  0.55851015223E+03  0.57387904967E+03  0.25500000920E-02 0.  1.
</event>
<event>
 5   0  0.2172901E-03  0.1357196E+04  0.7818609E-02  0.8985399E-01
       -2   -1    0    0    0  501  0.00000000000E+00  0.00000000000E+00  0.71652782818E+03  0.71652782818E+03  0.25500000920E-02 0. -1.
        2   -1    0    0  501    0  0.00000000000E+00  0.00000000000E+00 -0.64267567882E+03  0.64267567883E+03  0.25500000920E-02 0.  1.
    10030    2    1    2    0    0  0.00000000000E+00  0.00000000000E+00  0.73852149360E+02  0.13592035070E+04  0.13571956504E+04 0.  0.
        2    1    3    3  502    0  0.10776010629E+02 -0.46854094657E+03  0.52841506125E+03  0.70630674496E+03  0.25500000920E-02 0. -1.
       -2    1    3    3    0  502 -0.10776010629E+02  0.46854094657E+03 -0.45456291189E+03  0.65289676205E+03  0.25500000920E-02 0.  1.
</event>
<event>
 5   0  0.1225690E-03  0.1410524E+04  0.7818609E-02  0.8946236E-01
        1   -1    0    0  501    0  0.00000000000E+00  0.00000000000E+00  0.10840516722E+04  0.10840516722E+04  0.50400001928E-02 0. -1.
       -1   -1    0    0    0  501  0.00000000000E+00  0.00000000000E+00 -0.45882920177E+03  0.45882920180E+03  0.50400001928E-02 0.  1.
    10030    2    1    2    0    0  0.00000000000E+00  0.00000000000E+00  0.62522247042E+03  0.15428808740E+04  0.14105241061E+04 0.  0.
        4    1    3    3  502    0  0.44512248460E+03 -0.42174328919E+03  0.69371747681E+03  0.92587633019E+03  0.12699999809E+01 0. -1.
       -4    1    3    3    0  502 -0.44512248460E+03  0.42174328919E+03 -0.68495006390E+02  0.61700454381E+03  0.12699999809E+01 0.  1.
</event>
<event>
 5   0  0.1210275E-03  0.1394820E+04  0.7818609E-02  0.8957577E-01
        1   -1    0    0  501    0  0.00000000000E+00  0.00000000000E+00  0.23078999391E+04  0.23078999391E+04  0.50400001928E-02 0. -1.
       -1   -1    0    0    0  501  0.00000000000E+00  0.00000000000E+00 -0.21074598967E+03  0.21074598973E+03  0.50400001928E-02 0.  1.
    10030    2    1    2    0    0  0.00000000000E+00  0.00000000000E+00  0.20971539494E+04  0.25186459288E+04  0.13948199264E+04 0.  0.
        1    1    3    3  502    0  0.10127979081E+03 -0.28420028403E+03  0.21839580141E+04  0.22046995271E+04  0.50400001928E-02 0. -1.
       -1    1    3    3    0  502 -0.10127979081E+03  0.28420028403E+03 -0.86804064686E+02  0.31394640170E+03  0.50400001928E-02 0.  1.
</event>
<event>
 5   0  0.1210275E-03  0.1390441E+04  0.7818609E-02  0.8960767E-01
       -1   -1    0    0    0  501  0.00000000000E+00  0.00000000000E+00  0.84874839747E+03  0.84874839749E+03  0.50400001928E-02 0. -1.
        1   -1    0    0  501    0  0.00000000000E+00  0.00000000000E+00 -0.56946411307E+03  0.56946411309E+03  0.50400001928E-02 0.  1.
    10030    2    1    2    0    0  0.00000000000E+00  0.00000000000E+00  0.27928428441E+03  0.14182125106E+04  0.13904413018E+04 0.  0.
        1    1    3    3  502    0 -0.32672262610E+03 -0.61212532065E+03  0.95338777008E+02  0.70038172807E+03  0.50400001928E-02 0. -1.
       -1    1    3    3    0  502  0.32672262610E+03  0.61212532065E+03  0.18394550740E+03  0.71783078250E+03  0.50400001928E-02 0.  1.
</event>
<event>
 5   0  0.8293000E-04  0.1182464E+04  0.7818609E-02  0.9128346E-01
        3   -1    0    0  501    0  0.00000000000E+00  0.00000000000E+00  0.46544350254E+03  0.46544351350E+03  0.10100000352E+00 0.  1.
       -3   -1    0    0    0  501  0.00000000000E+00  0.00000000000E+00 -0.75101541620E+03  0.75101542299E+03  0.10100000352E+00 0. -1.
    10030    2    1    2    0    0  0.00000000000E+00  0.00000000000E+00 -0.28557191365E+03  0.12164589365E+04  0.11824639641E+04 0.  0.
        3    1    3    3  502    0 -0.20042816803E+03  0.49767200632E+03 -0.39833516415E+03  0.66822136273E+03  0.10100000352E+00 0. -1.
       -3    1    3    3    0  502  0.20042816803E+03 -0.49767200632E+03  0.11276325049E+03  0.54823757376E+03  0.10100000352E+00 0.  1.
</event>
<event>
 5   0  0.1199720E-03  0.1470404E+04  0.7818609E-02  0.8904376E-01
        1   -1    0    0  501    0  0.00000000000E+00  0.00000000000E+00  0.11223114883E+04  0.11223114883E+04  0.50400001928E-02 0.  1.
       -1   -1    0    0    0  501  0.00000000000E+00  0.00000000000E+00 -0.48161521109E+03  0.48161521112E+03  0.50400001928E-02 0. -1.
    10030    2    1    2    0    0  0.00000000000E+00  0.00000000000E+00  0.64069627725E+03  0.16039266995E+04  0.14704044129E+04 0.  0.
        5    1    3    3  502    0 -0.60429936225E+03  0.36458505719E+03  0.54495950490E+03  0.89168544629E+03  0.46999998093E+01 0. -1.
       -5    1    3    3    0  502  0.60429936225E+03 -0.36458505719E+03  0.95736772347E+02  0.71224125317E+03  0.46999998093E+01 0.  1.
</event>
<event>
 5   0  0.2195980E-03  0.1364139E+04  0.7818609E-02  0.8980194E-01
        2   -1    0    0  501    0  0.00000000000E+00  0.00000000000E+00  0.10897061583E+04  0.10897061583E+04  0.25500000920E-02 0.  1.
       -2   -1    0    0    0  501  0.00000000000E+00  0.00000000000E+00 -0.42692127894E+03  0.42692127894E+03  0.25500000920E-02 0. -1.
    10030    2    1    2    0    0  0.00000000000E+00  0.00000000000E+00  0.66278487936E+03  0.15166274372E+04  0.13641389178E+04 0.  0.
        4    1    3    3  502    0  0.17395752197E+03  0.62555594661E+03  0.56363464354E+03  0.85980642361E+03  0.12699999809E+01 0.  1.
       -4    1    3    3    0  502 -0.17395752197E+03 -0.62555594661E+03  0.99150235816E+02  0.65682101363E+03  0.12699999809E+01 0. -1.
</event>
<event>
 5   0  0.2236184E-03  0.1101820E+04  0.7818609E-02  0.9203420E-01
       -2   -1    0    0    0  501  0.00000000000E+00  0.00000000000E+00  0.15467535683E+03  0.15467535685E+03  0.25500000920E-02 0.  1.
        2   -1    0    0  501    0  0.00000000000E+00  0.00000000000E+00 -0.19621865650E+04  0.19621865650E+04  0.25500000920E-02 0. -1.
    10030    2    1    2    0    0  0.00000000000E+00  0.00000000000E+00 -0.18075112082E+04  0.21168619219E+04  0.11018201435E+04 0.  0.
        3    1    3    3  502    0 -0.52436029875E+03  0.16872931727E+03 -0.92078776259E+03  0.10729741000E+04  0.10100000352E+00 0. -1.
       -3    1    3    3    0  502  0.52436029875E+03 -0.16872931727E+03 -0.88672344562E+03  0.10438878219E+04  0.10100000352E+00 0.  1.
</event>
<event>
 5   0  0.2083966E-03  0.1404553E+04  0.7818609E-02  0.8950530E-01
       -2   -1    0    0    0  501  0.00000000000E+00  0.00000000000E+00  0.36502522382E+03  0.36502522383E+03  0.25500000920E-02 0. -1.
        2   -1    0    0  501    0  0.00000000000E+00  0.00000000000E+00 -0.13511174778E+04  0.13511174778E+04  0.25500000920E-02 0.  1.
    10030    2    1    2    0    0  0.00000000000E+00  0.00000000000E+00 -0.98609225403E+03  0.17161427017E+04  0.14045525405E+04 0.  0.
        1    1    3    3  502    0 -0.37572202028E+03  0.42970553822E+02 -0.12160824561E+04  0.12735266174E+04  0.50400001928E-02 0.  1.
       -1    1    3    3    0  502  0.37572202028E+03 -0.42970553822E+02  0.22999020208E+03  0.44261608432E+03  0.50400001928E-02 0. -1.
</event>
<event>
 5   0  0.2236184E-03  0.1431194E+04  0.7818609E-02  0.8931543E-01
       -2   -1    0    0    0  501  0.00000000000E+00  0.00000000000E+00  0.27174942033E+03  0.27174942034E+03  0.25500000920E-02 0. -1.
        2   -1    0    0  501    0  0.00000000000E+00  0.00000000000E+00 -0.18843793918E+04  0.18843793918E+04  0.25500000920E-02 0.  1.
    10030    2    1    2    0    0  0.00000000000E+00  0.00000000000E+00 -0.16126299714E+04  0.21561288121E+04  0.14311939175E+04 0.  0.
        3    1    3    3  502    0  0.54384551152E+03  0.44923727555E+03 -0.62492462767E+03  0.94239740588E+03  0.10100000352E+00 0. -1.
       -3    1    3    3    0  502 -0.54384551152E+03 -0.44923727555E+03 -0.98770534377E+03  0.12137314062E+04  0.10100000352E+00 0.  1.
</event>
<event>
 5   0  0.2190704E-03  0.1391328E+04  0.7818609E-02  0.8960120E-01
       -2   -1    0    0    0  501  0.00000000000E+00  0.00000000000E+00  0.45584529335E+03  0.45584529335E+03  0.25500000920E-02 0.  1.
        2   -1    0    0  501    0  0.00000000000E+00  0.00000000000E+00 -0.10616502375E+04  0.10616502375E+04  0.25500000920E-02 0. -1.
    10030    2    1    2    0    0  0.00000000000E+00  0.00000000000E+00 -0.60580494414E+03  0.15174955308E+04  0.13913278031E+04 0.  0.
        5    1    3    3  502    0  0.96888330749E+02  0.30785518841E+03 -0.97503491419E+03  0.10270722173E+04  0.46999998093E+01 0. -1.
       -5    1    3    3    0  502 -0.96888330749E+02 -0.30785518841E+03  0.36922997006E+03  0.49042331353E+03  0.46999998093E+01 0.  1.
</event>
<event>
 5   0  0.2190704E-03  0.1475792E+04  0.7818609E-02  0.8900713E-01
        2   -1    0    0  501    0  0.00000000000E+00  0.00000000000E+00  0.46691086530E+03  0.46691086530E+03  0.25500000920E-02 0.  1.
       -2   -1    0    0    0  501  0.00000000000E+00  0.00000000000E+00 -0.11661548788E+04  0.11661548788E+04  0.25500000920E-02 0. -1.
    10030    2    1    2    0    0  0.00000000000E+00  0.00000000000E+00 -0.69924401355E+03  0.16330657442E+04  0.14757918330E+04 0.  0.
        5    1    3    3  502    0  0.26866466679E+03  0.62547929532E+03 -0.66468003405E+03  0.95143401753E+03  0.46999998093E+01 0.  1.
       -5    1    3    3    0  502 -0.26866466679E+03 -0.62547929532E+03 -0.34563979499E+02  0.68163172662E+03  0.46999998093E+01 0. -1.
</event>
<event>
 5   0  0.1210275E-03  0.1387299E+04  0.7818609E-02  0.8963064E-01
        1   -1    0    0  501    0  0.00000000000E+00  0.00000000000E+00  0.21447914579E+04  0.21447914579E+04  0.50400001928E-02 0. -1.
       -1   -1    0    0    0  501  0.00000000000E+00  0.00000000000E+00 -0.22433411672E+03  0.22433411677E+03  0.50400001928E-02 0.  1.
    10030    2    1    2    0    0  0.00000000000E+00  0.00000000000E+00  0.19204573412E+04  0.23691255747E+04  0.13872993870E+04 0.  0.
        1    1    3    3  502    0  0.22879924149E+03 -0.19807394959E+02 -0.15752707678E+03  0.27848914834E+03  0.50400001928E-02 0.  1.
       -1    1    3    3    0  502 -0.22879924149E+03  0.19807394959E+02  0.20779844180E+04  0.20906364264E+04  0.50400001928E-02 0. -1.
</event>
<event>
 5   0  0.2083966E-03  0.1383361E+04  0.7818609E-02  0.8965951E-01
       -2   -1    0    0    0  501  0.00000000000E+00  0.00000000000E+00  0.47090805972E+03  0.47090805973E+03  0.25500000920E-02 0. -1.
        2   -1    0    0  501    0  0.00000000000E+00  0.00000000000E+00 -0.10159565858E+04  0.10159565858E+04  0.25500000920E-02 0.  1.
    10030    2    1    2    0    0  0.00000000000E+00  0.00000000000E+00 -0.54504852612E+03  0.14868646456E+04  0.13833613333E+04 0.  0.
        1    1    3    3  502    0  0.47604069084E+03 -0.44241101642E+03 -0.17994009983E+02  0.65012770377E+03  0.50400001928E-02 0.  1.
       -1    1    3    3    0  502 -0.47604069084E+03  0.44241101642E+03 -0.52705451614E+03  0.83673694181E+03  0.50400001928E-02 0. -1.
</event>
<event>
 5   0  0.1175374E-03  0.1404819E+04  0.7818609E-02  0.8950338E-01
       -1   -1    0    0    0  501  0.00000000000E+00  0.00000000000E+00  0.70949381085E+03  0.70949381087E+03  0.50400001928E-02 0.  1.
        1   -1    0    0  501    0  0.00000000000E+00  0.00000000000E+00 -0.69539563802E+03  0.69539563804E+03  0.50400001928E-02 0. -1.
    10030    2    1    2    0    0  0.00000000000E+00  0.00000000000E+00  0.14098172829E+02  0.14048894489E+04  0.14048187090E+04 0.  0.
        3    1    3    3  502    0  0.58395343294E+03 -0.38850508316E+03  0.45012552372E+02  0.70282569073E+03  0.10100000352E+00 0.  1.
       -3    1    3    3    0  502 -0.58395343294E+03  0.38850508316E+03 -0.30914379543E+02  0.70206375818E+03  0.10100000352E+00 0. -1.
</event>
<event>
 5   0  0.1238683E-03  0.1612797E+04  0.7818609E-02  0.8812724E-01
        1   -1    0    0  501    0  0.00000000000E+00  0.00000000000E+00  0.13748336289E+04  0.13748336289E+04  0.50400001928E-02 0. -1.
       -1   -1    0    0    0  501  0.00000000000E+00  0.00000000000E+00 -0.47298732775E+03  0.47298732778E+03  0.50400001928E-02 0.  1.
    10030    2    1    2    0    0  0.00000000000E+00  0.00000000000E+00  0.90184630112E+03  0.18478209567E+04  0.16127974259E+04 0.  0.
        2    1    3    3  502    0 -0.48915721820E+03 -0.25375179632E+03 -0.22360984055E+03  0.59469834290E+03  0.25500000920E-02 0.  1.
       -2    1    3    3    0  502  0.48915721820E+03  0.25375179632E+03  0.11254561417E+04  0.12531226137E+04  0.25500000920E-02 0. -1.
</event>
<event>
 5   0  0.1225690E-03  0.1411601E+04  0.7818609E-02  0.8945463E-01
       -1   -1    0    0    0  501  0.00000000000E+00  0.00000000000E+00  0.52548159624E+03  0.52548159626E+03  0.50400001928E-02 0.  1.
        1   -1    0    0  501    0  0.00000000000E+00  0.00000000000E+00 -0.94799634784E+03  0.94799634786E+03  0.50400001928E-02 0. -1.
    10030    2    1    2    0    0  0.00000000000E+00  0.00000000000E+00 -0.42251475160E+03  0.14734779441E+04  0.14116014085E+04 0.  0.
        4    1    3    3  502    0 -0.99868600632E+02  0.69667983584E+03 -0.15586044852E+03  0.72085409298E+03  0.12699999809E+01 0. -1.
       -4    1    3    3    0  502  0.99868600632E+02 -0.69667983584E+03 -0.26665430308E+03  0.75262385114E+03  0.12699999809E+01 0.  1.
</event>
<event>
 5   0  0.2195980E-03  0.1368371E+04  0.7818609E-02  0.8977037E-01
       -2   -1    0    0    0  501  0.00000000000E+00  0.00000000000E+00  0.38226632099E+03  0.38226632100E+03  0.25500000920E-02 0.  1.
        2   -1    0    0  501    0  0.00000000000E+00  0.00000000000E+00 -0.12245648673E+04  0.12245648673E+04  0.25500000920E-02 0. -1.
    10030    2    1    2    0    0  0.00000000000E+00  0.00000000000E+00 -0.84229854631E+03  0.16068311883E+04  0.13683711582E+04 0.  0.
        4    1    3    3  502    0 -0.30878635788E+03  0.17269231264E+03 -0.11088085208E+04  0.11638855607E+04  0.12699999809E+01 0. -1.
       -4    1    3    3    0  502  0.30878635788E+03 -0.17269231264E+03  0.26650997447E+03  0.44294562764E+03  0.12699999809E+01 0.  1.
</event>
<event>
 5   0  0.1199720E-03  0.1373572E+04  0.7818609E-02  0.8973174E-01
        1   -1    0    0  501    0  0.00000000000E+00  0.00000000000E+00  0.13038282302E+04  0.13038282302E+04  0.50400001928E-02 0. -1.
       -1   -1    0    0    0  501  0.00000000000E+00  0.00000000000E+00 -0.36176145144E+03  0.36176145148E+03  0.50400001928E-02 0.  1.
    10030    2    1    2    0    0  0.00000000000E+00  0.00000000000E+00  0.94206677873E+03  0.16655896817E+04  0.13735716844E+04 0.  0.
        5    1    3    3  502    0  0.65522828161E+03 -0.20513670783E+03  0.45195536782E+03  0.82200420584E+03  0.46999998093E+01 0. -1.
       -5    1    3    3    0  502 -0.65522828161E+03  0.20513670783E+03  0.49011141091E+03  0.84358547582E+03  0.46999998093E+01 0.  1.
</event>
<event>
 5   0  0.1199720E-03  0.1403537E+04  0.7818609E-02  0.8951262E-01
       -1   -1    0    0    0  501  0.00000000000E+00  0.00000000000E+00  0.39384854673E+03  0.39384854676E+03  0.50400001928E-02 0.  1.
        1   -1    0    0  501    0  0.00000000000E+00  0.00000000000E+00 -0.12504273288E+04  0.12504273289E+04  0.50400001928E-02 0. -1.
    10030    2    1    2    0    0  0.00000000000E+00  0.00000000000E+00 -0.85657878212E+03  0.16442758756E+04  0.14035369412E+04 0.  0.
        5    1    3    3  502    0  0.71014834014E+02  0.25256442112E+03 -0.11907925190E+04  0.12193608189E+04  0.46999998093E+01 0. -1.
       -5    1    3    3    0  502 -0.71014834014E+02 -0.25256442112E+03  0.33421373689E+03  0.42491505668E+03  0.46999998093E+01 0.  1.
</event>
<event>
 5   0  0.1199720E-03  0.1419305E+04  0.7818609E-02  0.8939962E-01
       -1   -1    0    0    0  501  0.00000000000E+00  0.00000000000E+00  0.49230494778E+03  0.49230494780E+03  0.50400001928E-02 0.  1.
        1   -1    0    0  501    0  0.00000000000E+00  0.00000000000E+00 -0.10229571411E+04  0.10229571411E+04  0.50400001928E-02 0. -1.
    10030    2    1    2    0    0  0.00000000000E+00  0.00000000000E+00 -0.53065219330E+03  0.15152620889E+04  0.14193052694E+04 0.  0.
        5    1    3    3  502    0 -0.70126635655E+03 -0.92710994726E+02 -0.32585996353E+03  0.77883030064E+03  0.46999998093E+01 0.  1.
       -5    1    3    3    0  502  0.70126635655E+03  0.92710994726E+02 -0.20479222978E+03  0.73643178825E+03  0.46999998093E+01 0. -1.
</event>
<event>
 5   0  0.2190704E-03  0.1423553E+04  0.7818609E-02  0.8936944E-01
        2   -1    0    0  501    0  0.00000000000E+00  0.00000000000E+00  0.11178421880E+04  0.11178421880E+04  0.25500000920E-02 0. -1.
       -2   -1    0    0    0  501  0.00000000000E+00  0.00000000000E+00 -0.45321741080E+03  0.45321741080E+03  0.25500000920E-02 0.  1.
    10030    2    1    2    0    0  0.00000000000E+00  0.00000000000E+00  0.66462477716E+03  0.15710595988E+04  0.14235526574E+04 0.  0.
        5    1    3    3  502    0 -0.32255310033E+03 -0.55801620727E+03 -0.93823511485E+00  0.64455066550E+03  0.46999998093E+01 0.  1.
       -5    1    3    3    0  502  0.32255310033E+03  0.55801620727E+03  0.66556301228E+03  0.92650893327E+03  0.46999998093E+01 0. -1.
</event>
<event>
 5   0  0.2083966E-03  0.1299366E+04  0.7818609E-02  0.9030068E-01
       -2   -1    0    0    0  501  0.00000000000E+00  0.00000000000E+00  0.60169978889E+03  0.60169978889E+03  0.25500000920E-02 0. -1.
        2   -1    0    0  501    0  0.00000000000E+00  0.00000000000E+00 -0.70149287788E+03  0.70149287788E+03  0.25500000920E-02 0.  1.
    10030    2    1    2    0    0  0.00000000000E+00  0.00000000000E+00 -0.99793088991E+02  0.13031926668E+04  0.12993661786E+04 0.  0.
        1    1    3    3  502    0  0.57183065077E+03  0.22640260165E+03  0.16009933987E+03  0.63551571959E+03  0.50400001928E-02 0. -1.
       -1    1    3    3    0  502 -0.57183065077E+03 -0.22640260165E+03 -0.25989242886E+03  0.66767694718E+03  0.50400001928E-02 0.  1.
</event>
<event>
 5   0  0.1238683E-03  0.1409648E+04  0.7818609E-02  0.8946864E-01
        1   -1    0    0  501    0  0.00000000000E+00  0.00000000000E+00  0.45136462848E+03  0.45136462851E+03  0.50400001928E-02 0. -1.
       -1   -1    0    0    0  501  0.00000000000E+00  0.00000000000E+00 -0.11006115734E+04  0.11006115734E+04  0.50400001928E-02 0.  1.
    10030    2    1    2    0    0  0.00000000000E+00  0.00000000000E+00 -0.64924694492E+03  0.15519762019E+04  0.14096483731E+04 0.  0.
        2    1    3    3  502    0 -0.67568438114E+03  0.18021958876E+03 -0.42153764896E+03  0.81653075422E+03  0.25500000920E-02 0.  1.
       -2    1    3    3    0  502  0.67568438114E+03 -0.18021958876E+03 -0.22770929597E+03  0.73544544771E+03  0.25500000920E-02 0. -1.
</event>
<event>
 5   0  0.2190704E-03  0.1412695E+04  0.7818609E-02  0.8944680E-01
        2   -1    0    0  501    0  0.00000000000E+00  0.00000000000E+00  0.13266908444E+04  0.13266908444E+04  0.25500000920E-02 0. -1.
       -2   -1    0    0    0  501  0.00000000000E+00  0.00000000000E+00 -0.37606868316E+03  0.37606868317E+03  0.25500000920E-02 0.  1.
    10030    2    1    2    0    0  0.00000000000E+00  0.00000000000E+00  0.95062216125E+03  0.17027595276E+04  0.14126951247E+04 0.  0.
        5    1    3    3  502    0  0.42678216697E+03 -0.46302736178E+03  0.86095437052E+03  0.10666779617E+04  0.46999998093E+01 0. -1.
       -5    1    3    3    0  502 -0.42678216697E+03  0.46302736178E+03  0.89667790731E+02  0.63608156591E+03  0.46999998093E+01 0.  1.
</event>
<event>
 5   0  0.2083966E-03  0.9603313E+03  0.7818609E-02  0.9353156E-01
       -2   -1    0    0    0  501  0.00000000000E+00  0.00000000000E+00  0.34980760307E+03  0.34980760308E+03  0.25500000920E-02 0. -1.
        2   -1    0    0  501    0  0.00000000000E+00  0.00000000000E+00 -0.65910243067E+03  0.65910243068E+03  0.25500000920E-02 0.  1.
    10030    2    1    2    0    0  0.00000000000E+00  0.00000000000E+00 -0.30929482760E+03  0.10089100338E+04  0.96033127921E+03 0.  0.
        1    1    3    3  502    0 -0.27878289668E+03  0.68497636721E+02 -0.55901664987E+03  0.62841979963E+03  0.50400001928E-02 0.  1.
       -1    1    3    3    0  502  0.27878289668E+03 -0.68497636721E+02  0.24972182227E+03  0.38049023412E+03  0.50400001928E-02 0. -1.
</event>
<event>
 5   0  0.8293000E-04  0.1396567E+04  0.7818609E-02  0.8956307E-01
       -3   -1    0    0    0  501  0.00000000000E+00  0.00000000000E+00  0.43244557181E+03  0.43244558360E+03  0.10100000352E+00 0. -1.
        3   -1    0    0  501    0  0.00000000000E+00  0.00000000000E+00 -0.11275407250E+04  0.11275407295E+04  0.10100000352E+00 0.  1.
    10030    2    1    2    0    0  0.00000000000E+00  0.00000000000E+00 -0.69509515316E+03  0.15599863131E+04  0.13965672290E+04 0.  0.
        4    1    3    3  502    0  0.58862056974E+03  0.17163340935E+03 -0.72081474509E+03  0.94631269249E+03  0.12699999809E+01 0.  1.
       -4    1    3    3    0  502 -0.58862056974E+03 -0.17163340935E+03  0.25719591924E+02  0.61367362061E+03  0.12699999809E+01 0. -1.
</event>
<event>
 5   0  0.2083966E-03  0.1413865E+04  0.7818609E-02  0.8943843E-01
        2   -1    0    0  501    0  0.00000000000E+00  0.00000000000E+00  0.12763373878E+04  0.12763373878E+04  0.25500000920E-02 0. -1.
       -2   -1    0    0    0  501  0.00000000000E+00  0.00000000000E+00 -0.39155269099E+03  0.39155269099E+03  0.25500000920E-02 0.  1.
    10030    2    1    2    0    0  0.00000000000E+00  0.00000000000E+00  0.88478469683E+03  0.16678900788E+04  0.14138646877E+04 0.  0.
        1    1    3    3  502    0  0.24069930298E+03  0.65075587076E+03  0.60212289069E+03  0.91867912423E+03  0.50400001928E-02 0.  1.
       -1    1    3    3    0  502 -0.24069930298E+03 -0.65075587076E+03  0.28266180613E+03  0.74921095457E+03  0.50400001928E-02 0. -1.
</event>
<event>
 5   0  0.2236184E-03  0.1369728E+04  0.7818609E-02  0.8976027E-01
       -2   -1    0    0    0  501  0.00000000000E+00  0.00000000000E+00  0.26461842870E+03  0.26461842871E+03  0.25500000920E-02 0.  1.
        2   -1    0    0  501    0  0.00000000000E+00  0.00000000000E+00 -0.17725107974E+04  0.17725107974E+04  0.25500000920E-02 0. -1.
    10030    2    1    2    0    0  0.00000000000E+00  0.00000000000E+00 -0.15078923687E+04  0.20371292261E+04  0.13697284725E+04 0.  0.
        3    1    3    3  502    0  0.37705261484E+03 -0.31323910230E+03 -0.42624303091E+02  0.49204090377E+03  0.10100000352E+00 0.  1.
       -3    1    3    3    0  502 -0.37705261484E+03  0.31323910230E+03 -0.14652680656E+04  0.15450883223E+04  0.10100000352E+00 0. -1.
</event>
<event>
 5   0  0.1225690E-03  0.1378615E+04  0.7818609E-02  0.8969445E-01
       -1   -1    0    0    0  501  0.00000000000E+00  0.00000000000E+00  0.77498981710E+03  0.77498981712E+03  0.50400001928E-02 0.  1.
        1   -1    0    0  501    0  0.00000000000E+00  0.00000000000E+00 -0.61309819985E+03  0.61309819988E+03  0.50400001928E-02 0. -1.
    10030    2    1    2    0    0  0.00000000000E+00  0.00000000000E+00  0.16189161725E+03  0.13880880170E+04  0.13786150468E+04 0.  0.
        4    1    3    3  502    0 -0.60789201966E+02 -0.67863889073E+03  0.18605265592E+03  0.70630253770E+03  0.12699999809E+01 0.  1.
       -4    1    3    3    0  502  0.60789201966E+02  0.67863889073E+03 -0.24161038676E+02  0.68178547929E+03  0.12699999809E+01 0. -1.
</event>
<event>
 5   0  0.1225690E-03  0.1404918E+04  0.7818609E-02  0.8950267E-01
        1   -1    0    0  501    0  0.00000000000E+00  0.00000000000E+00  0.12338311384E+04  0.12338311384E+04  0.50400001928E-02 0. -1.
       -1   -1    0    0    0  501  0.00000000000E+00  0.00000000000E+00 -0.39993179623E+03  0.39993179627E+03  0.50400001928E-02 0.  1.
    10030    2    1    2    0    0  0.00000000000E+00  0.00000000000E+00  0.83389934214E+03  0.16337629347E+04  0.14049175114E+04 0.  0.
        4    1    3    3  502    0  0.21463753264E+03  0.17237471000E+02  0.11945044144E+04  0.12137581348E+04  0.12699999809E+01 0. -1.
       -4    1    3    3    0  502 -0.21463753264E+03 -0.17237471000E+02 -0.36060507229E+03  0.42000479984E+03  0.12699999809E+01 0.  1.
</event>
<event>
 5   0  0.1210275E-03  0.1453424E+04  0.7818609E-02  0.8916030E-01
        1   -1    0    0  501    0  0.00000000000E+00  0.00000000000E+00  0.94561429084E+03  0.94561429085E+03  0.50400001928E-02 0. -1.
       -1   -1    0    0    0  501  0.00000000000E+00  0.00000000000E+00 -0.55848356105E+03  0.55848356108E+03  0.50400001928E-02 0.  1.
    10030    2    1    2    0    0  0.00000000000E+00  0.00000000000E+00  0.38713072979E+03  0.15040978519E+04  0.14534235949E+04 0.  0.
        1    1    3    3  502    0  0.15725725095E+03  0.30094888796E+03  0.85846939994E+03  0.92318458977E+03  0.50400001928E-02 0. -1.
       -1    1    3    3    0  502 -0.15725725095E+03 -0.30094888796E+03 -0.47133867015E+03  0.58091326216E+03  0.50400001928E-02 0.  1.
</event>
<event>
 5   0  0.2190704E-03  0.1390275E+04  0.7818609E-02  0.8960888E-01
       -2   -1    0    0    0  501  0.00000000000E+00  0.00000000000E+00  0.31933172204E+03  0.31933172205E+03  0.25500000920E-02 0.  1.
        2   -1    0    0  501    0  0.00000000000E+00  0.00000000000E+00 -0.15132104928E+04  0.15132104928E+04  0.25500000920E-02 0. -1.
    10030    2    1    2    0    0  0.00000000000E+00  0.00000000000E+00 -0.11938787708E+04  0.18325422148E+04  0.13902749548E+04 0.  0.
        5    1    3    3  502    0 -0.49929617067E+02  0.62222250316E+03 -0.10000762043E+04  0.11789097991E+04  0.46999998093E+01 0. -1.
       -5    1    3    3    0  502  0.49929617067E+02 -0.62222250316E+03 -0.19380256648E+03  0.65363241572E+03  0.46999998093E+01 0.  1.
</event>
<event>
 5   0  0.1210275E-03  0.1446597E+04  0.7818609E-02  0.8920763E-01
       -1   -1    0    0    0  501  0.00000000000E+00  0.00000000000E+00  0.63346253322E+03  0.63346253324E+03  0.50400001928E-02 0.  1.
        1   -1    0    0  501    0  0.00000000000E+00  0.00000000000E+00 -0.82587494553E+03  0.82587494554E+03  0.50400001928E-02 0. -1.
    10030    2    1    2    0    0  0.00000000000E+00  0.00000000000E+00 -0.19241241231E+03  0.14593374788E+04  0.14465971591E+04 0.  0.
        1    1    3    3  502    0  0.49024904783E+03  0.29613835128E+03  0.34940660462E+03  0.67091506718E+03  0.50400001928E-02 0.  1.
       -1    1    3    3    0  502 -0.49024904783E+03 -0.29613835128E+03 -0.54181901692E+03  0.78842241160E+03  0.50400001928E-02 0. -1.
</event>
<event>
 5   0  0.8293000E-04  0.1376392E+04  0.7818609E-02  0.8971087E-01
        3   -1    0    0  501    0  0.00000000000E+00  0.00000000000E+00  0.93655760070E+03  0.93655760615E+03  0.10100000352E+00 0.  1.
       -3   -1    0    0    0  501  0.00000000000E+00  0.00000000000E+00 -0.50569598247E+03  0.50569599255E+03  0.10100000352E+00 0. -1.
    10030    2    1    2    0    0  0.00000000000E+00  0.00000000000E+00  0.43086161823E+03  0.14422535987E+04  0.13763915536E+04 0.  0.
        3    1    3    3  502    0  0.50408611777E+03  0.30647027363E+03  0.58677038702E+03  0.83206150015E+03  0.10100000352E+00 0.  1.
       -3    1    3    3    0  502 -0.50408611777E+03 -0.30647027363E+03 -0.15590876879E+03  0.61019209855E+03  0.10100000352E+00 0. -1.
</event>
<event>
 5   0  0.2190704E-03  0.1428208E+04  0.7818609E-02  0.8933650E-01
       -2   -1    0    0    0  501  0.00000000000E+00  0.00000000000E+00  0.55839622652E+03  0.55839622653E+03  0.25500000920E-02 0. -1.
        2   -1    0    0  501    0  0.00000000000E+00  0.00000000000E+00 -0.91322996900E+03  0.91322996900E+03  0.25500000920E-02 0.  1.
    10030    2    1    2    0    0  0.00000000000E+00  0.00000000000E+00 -0.35483374248E+03  0.14716261955E+04  0.14282075040E+04 0.  0.
        5    1    3    3  502    0  0.39463691809E+03 -0.59363455892E+03 -0.13392233548E+03  0.72532583616E+03  0.46999998093E+01 0.  1.
       -5    1    3    3    0  502 -0.39463691809E+03  0.59363455892E+03 -0.22091140699E+03  0.74630035937E+03  0.46999998093E+01 0. -1.
</event>
<event>
 5   0  0.2083966E-03  0.1396959E+04  0.7818609E-02  0.8956023E-01
       -2   -1    0    0    0  501  0.00000000000E+00  0.00000000000E+00  0.56191302046E+03  0.56191302046E+03  0.25500000920E-02 0. -1.
        2   -1    0    0  501    0  0.00000000000E+00  0.00000000000E+00 -0.86823685622E+03  0.86823685622E+03  0.25500000920E-02 0.  1.
    10030    2    1    2    0    0  0.00000000000E+00  0.00000000000E+00 -0.30632383576E+03  0.14301498767E+04  0.13969589749E+04 0.  0.
        1    1    3    3  502    0  0.31595217168E+03  0.52614500600E+02 -0.78861848274E+03  0.85118339493E+03  0.50400001928E-02 0.  1.
       -1    1    3    3    0  502 -0.31595217168E+03 -0.52614500600E+02  0.48229464698E+03  0.57896648175E+03  0.50400001928E-02 0. -1.
</event>
<event>
 5   0  0.2195980E-03  0.1401426E+04  0.7818609E-02  0.8952787E-01
        2   -1    0    0  501    0  0.00000000000E+00  0.00000000000E+00  0.71392133488E+03  0.71392133489E+03  0.25500000920E-02 0. -1.
       -2   -1    0    0    0  501  0.00000000000E+00  0.00000000000E+00 -0.68774931369E+03  0.68774931370E+03  0.25500000920E-02 0.  1.
    10030    2    1    2    0    0  0.00000000000E+00  0.00000000000E+00  0.26172021188E+02  0.14016706486E+04  0.14014262850E+04 0.  0.
        4    1    3    3  502    0  0.66180049372E+03 -0.59548371841E+02 -0.20937442872E+03  0.69668153871E+03  0.12699999809E+01 0.  1.
       -4    1    3    3    0  502 -0.66180049372E+03  0.59548371841E+02  0.23554644990E+03  0.70498910988E+03  0.12699999809E+01 0. -1.
</event>
<event>
 5   0  0.2190704E-03  0.1391545E+04  0.7818609E-02  0.8959961E-01
        2   -1    0    0  501    0  0.00000000000E+00  0.00000000000E+00  0.16859764847E+04  0.16859764847E+04  0.25500000920E-02 0.  1.
       -2   -1    0    0    0  501  0.00000000000E+00  0.00000000000E+00 -0.28713303717E+03  0.28713303718E+03  0.25500000920E-02 0. -1.
    10030    2    1    2    0    0  0.00000000000E+00  0.00000000000E+00  0.13988434475E+04  0.19731095219E+04  0.13915452543E+04 0.  0.
        5    1    3    3  502    0 -0.57168573878E+03  0.35211445198E+03  0.44079757126E+03  0.80320219126E+03  0.46999998093E+01 0. -1.
       -5    1    3    3    0  502  0.57168573878E+03 -0.35211445198E+03  0.95804587625E+03  0.11699073306E+04  0.46999998093E+01 0.  1.
</event>
<event>
 5   0  0.1225690E-03  0.1412727E+04  0.7818609E-02  0.8944657E-01
       -1   -1    0    0    0  501  0.00000000000E+00  0.00000000000E+00  0.56105388229E+03  0.56105388231E+03  0.50400001928E-02 0.  1.
        1   -1    0    0  501    0  0.00000000000E+00  0.00000000000E+00 -0.88930757721E+03  0.88930757723E+03  0.50400001928E-02 0. -1.
    10030    2    1    2    0    0  0.00000000000E+00  0.00000000000E+00 -0.32825369492E+03  0.14503614595E+04  0.14127271057E+04 0.  0.
        4    1    3    3  502    0 -0.68421756529E+03  0.16094296587E+03 -0.23592955484E+03  0.74143150908E+03  0.12699999809E+01 0.  1.
       -4    1    3    3    0  502  0.68421756529E+03 -0.16094296587E+03 -0.92324140087E+02  0.70892995046E+03  0.12699999809E+01 0. -1.
</event>
<event>
 5   0  0.2083966E-03  0.1390796E+04  0.7818609E-02  0.8960508E-01
        2   -1    0    0  501    0  0.00000000000E+00  0.00000000000E+00  0.10652934850E+04  0.10652934850E+04  0.25500000920E-02 0.  1.
       -2   -1    0    0    0  501  0.00000000000E+00  0.00000000000E+00 -0.45393902428E+03  0.45393902428E+03  0.25500000920E-02 0. -1.
    10030    2    1    2    0    0  0.00000000000E+00  0.00000000000E+00  0.61135446073E+03  0.15192325093E+04  0.13907958659E+04 0.  0.
        1    1    3    3  502    0  0.79921476962E+02  0.38395395422E+03  0.93296462469E+03  0.10120430190E+04  0.50400001928E-02 0.  1.
       -1    1    3    3    0  502 -0.79921476962E+02 -0.38395395422E+03 -0.32161016396E+03  0.50718949026E+03  0.50400001928E-02 0. -1.
</event>
<event>
 5   0  0.1225690E-03  0.1397117E+04  0.7818609E-02  0.8955908E-01
        1   -1    0    0  501    0  0.00000000000E+00  0.00000000000E+00  0.13860363815E+04  0.13860363815E+04  0.50400001928E-02 0.  1.
       -1   -1    0    0    0  501  0.00000000000E+00  0.00000000000E+00 -0.35207146852E+03  0.35207146856E+03  0.50400001928E-02 0. -1.
    10030    2    1    2    0    0  0.00000000000E+00  0.00000000000E+00  0.10339649130E+04  0.17381078501E+04  0.13971168373E+04 0.  0.
        4    1    3    3  502    0 -0.54813051998E+03 -0.20613918396E+03  0.99077761302E+03  0.11509050011E+04  0.12699999809E+01 0.  1.
       -4    1    3    3    0  502  0.54813051998E+03  0.20613918396E+03  0.43187299936E+02  0.58720284899E+03  0.12699999809E+01 0. -1.
</event>
<event>
 5   0  0.1238683E-03  0.1386625E+04  0.7818609E-02  0.8963557E-01
        1   -1    0    0  501    0  0.00000000000E+00  0.00000000000E+00  0.84660586846E+03  0.84660586848E+03  0.50400001928E-02 0. -1.
       -1   -1    0    0    0  501  0.00000000000E+00  0.00000000000E+00 -0.56777575635E+03  0.56777575637E+03  0.50400001928E-02 0.  1.
    10030    2    1    2    0    0  0.00000000000E+00  0.00000000000E+00  0.27883011212E+03  0.14143816249E+04  0.13866250933E+04 0.  0.
        2    1    3    3  502    0 -0.20298620470E+03  0.52291526966E+03  0.55504991317E+03  0.78912875037E+03  0.25500000920E-02 0. -1.
       -2    1    3    3    0  502  0.20298620470E+03 -0.52291526966E+03 -0.27621980106E+03  0.62525287448E+03  0.25500000920E-02 0.  1.
</event>
<event>
 5   0  0.8293000E-04  0.1307138E+04  0.7818609E-02  0.9023924E-01
        4   -1    0    0  501    0  0.00000000000E+00  0.00000000000E+00  0.71938862049E+03  0.71938974152E+03  0.12699999809E+01 0.  1.
       -4   -1    0    0    0  501  0.00000000000E+00  0.00000000000E+00 -0.59376939283E+03  0.59377075102E+03  0.12699999809E+01 0. -1.
    10030    2    1    2    0    0  0.00000000000E+00  0.00000000000E+00  0.12561922766E+03  0.13131604925E+04  0.13071382057E+04 0.  0.
        1    1    3    3  502    0 -0.84998963081E+02 -0.60348796857E+03 -0.17435009033E+03  0.63389313449E+03  0.50400001928E-02 0. -1.
       -1    1    3    3    0  502  0.84998963081E+02  0.60348796857E+03  0.29996931799E+03  0.67926735804E+03  0.50400001928E-02 0.  1.
</event>
<event>
 5   0  0.1210275E-03  0.1422104E+04  0.7818609E-02  0.8937972E-01
        1   -1    0    0  501    0  0.00000000000E+00  0.00000000000E+00  0.63012131660E+03  0.63012131662E+03  0.50400001928E-02 0.  1.
       -1   -1    0    0    0  501  0.00000000000E+00  0.00000000000E+00 -0.80237756487E+03  0.80237756488E+03  0.50400001928E-02 0. -1.
    10030    2    1    2    0    0  0.00000000000E+00  0.00000000000E+00 -0.17225624827E+03  0.14324988815E+04  0.14221043669E+04 0.  0.
        1    1    3    3  502    0  0.43170528208E+03  0.44042143218E+03 -0.44262839992E+03  0.75911816533E+03  0.50400001928E-02 0. -1.
       -1    1    3    3    0  502 -0.43170528208E+03 -0.44042143218E+03  0.27037215165E+03  0.67338071617E+03  0.50400001928E-02 0.  1.
</event>
<event>
 5   0  0.1225690E-03  0.1359065E+04  0.7818609E-02  0.8983994E-01
       -1   -1    0    0    0  501  0.00000000000E+00  0.00000000000E+00  0.34651933654E+03  0.34651933658E+03  0.50400001928E-02 0. -1.
        1   -1    0    0  501    0  0.00000000000E+00  0.00000000000E+00 -0.13325786423E+04  0.13325786423E+04  0.50400001928E-02 0.  1.
    10030    2    1    2    0    0  0.00000000000E+00  0.00000000000E+00 -0.98605930577E+03  0.16790979789E+04  0.13590647771E+04 0.  0.
        4    1    3    3  502    0  0.25985776464E+03 -0.62678727237E+03 -0.44722828221E+03  0.81265188854E+03  0.12699999809E+01 0. -1.
       -4    1    3    3    0  502 -0.25985776464E+03  0.62678727237E+03 -0.53883102356E+03  0.86644609036E+03  0.12699999809E+01 0.  1.
</event>
<event>
 5   0  0.2195980E-03  0.1400489E+04  0.7818609E-02  0.8953465E-01
        2   -1    0    0  501    0  0.00000000000E+00  0.00000000000E+00  0.85749451025E+03  0.85749451025E+03  0.25500000920E-02 0.  1.
       -2   -1    0    0    0  501  0.00000000000E+00  0.00000000000E+00 -0.57183114699E+03  0.57183114699E+03  0.25500000920E-02 0. -1.
    10030    2    1    2    0    0  0.00000000000E+00  0.00000000000E+00  0.28566336326E+03  0.14293256572E+04  0.14004885852E+04 0.  0.
        4    1    3    3  502    0  0.33835972728E+03 -0.60163202739E+03  0.22540202965E+02  0.69062151362E+03  0.12699999809E+01 0. -1.
       -4    1    3    3    0  502 -0.33835972728E+03  0.60163202739E+03  0.26312316030E+03  0.73870414362E+03  0.12699999809E+01 0.  1.
</event>
<event>
 5   0  0.2195980E-03  0.1393886E+04  0.7818609E-02  0.8958256E-01
        2   -1    0    0  501    0  0.00000000000E+00  0.00000000000E+00  0.10476553557E+04  0.10476553557E+04  0.25500000920E-02 0. -1.
       -2   -1    0    0    0  501  0.00000000000E+00  0.00000000000E+00 -0.46363507497E+03  0.46363507497E+03  0.25500000920E-02 0.  1.
    10030    2    1    2    0    0  0.00000000000E+00  0.00000000000E+00  0.58402028070E+03  0.15112904306E+04  0.13938863216E+04 0.  0.
        4    1    3    3  502    0 -0.67041407188E+03 -0.16470265275E+03  0.18831937284E+03  0.71557514678E+03  0.12699999809E+01 0. -1.
       -4    1    3    3    0  502  0.67041407188E+03  0.16470265275E+03  0.39570090786E+03  0.79571528386E+03  0.12699999809E+01 0.  1.
</event>
<event>
 5   0  0.1175374E-03  0.1377709E+04  0.7818609E-02  0.8970114E-01
       -1   -1    0    0    0  501  0.00000000000E+00  0.00000000000E+00  0.42524974092E+03  0.42524974095E+03  0.50400001928E-02 0. -1.
        1   -1    0    0  501    0  0.00000000000E+00  0.00000000000E+00 -0.11158635182E+04  0.11158635183E+04  0.50400001928E-02 0.  1.
    10030    2    1    2    0    0  0.00000000000E+00  0.00000000000E+00 -0.69061377732E+03  0.15411132592E+04  0.13777092176E+04 0.  0.
        3    1    3    3  502    0  0.57319663778E+03 -0.26478365492E+03 -0.37221108419E+02  0.63249520994E+03  0.10100000352E+00 0. -1.
       -3    1    3    3    0  502 -0.57319663778E+03  0.26478365492E+03 -0.65339266890E+03  0.90861804927E+03  0.10100000352E+00 0.  1.
</event>
<event>
 5   0  0.2172901E-03  0.1393257E+04  0.7818609E-02  0.8958714E-01
       -2   -1    0    0    0  501  0.00000000000E+00  0.00000000000E+00  0.41872337711E+03  0.41872337712E+03  0.25500000920E-02 0. -1.
        2   -1    0    0  501    0  0.00000000000E+00  0.00000000000E+00 -0.11589789745E+04  0.11589789745E+04  0.25500000920E-02 0.  1.
    10030    2    1    2    0    0  0.00000000000E+00  0.00000000000E+00 -0.74025559737E+03  0.15777023516E+04  0.13932574639E+04 0.  0.
        2    1    3    3  502    0  0.24997631644E+03 -0.47717022471E+03  0.13006299481E+03  0.55416239926E+03  0.25500000920E-02 0. -1.
       -2    1    3    3    0  502 -0.24997631644E+03  0.47717022471E+03 -0.87031859218E+03  0.10235399523E+04  0.25500000920E-02 0.  1.
</event>
<event>
 5   0  0.1199720E-03  0.1248629E+04  0.7818609E-02  0.9071325E-01
       -1   -1    0    0    0  501  0.00000000000E+00  0.00000000000E+00  0.28781542048E+03  0.28781542052E+03  0.50400001928E-02 0. -1.
        1   -1    0    0  501    0  0.00000000000E+00  0.00000000000E+00 -0.13542301560E+04  0.13542301560E+04  0.50400001928E-02 0.  1.
    10030    2    1    2    0    0  0.00000000000E+00  0.00000000000E+00 -0.10664147355E+04  0.16420455765E+04  0.12486285626E+04 0.  0.
        5    1    3    3  502    0 -0.60648641147E+03 -0.14794935461E+03 -0.54058272159E+03  0.82581265897E+03  0.46999998093E+01 0.  1.
       -5    1    3    3    0  502  0.60648641147E+03  0.14794935461E+03 -0.52583201391E+03  0.81623291754E+03  0.46999998093E+01 0. -1.
</event>
<event>
 5   0  0.2083966E-03  0.1448995E+04  0.7818609E-02  0.8919098E-01
       -2   -1    0    0    0  501  0.00000000000E+00  0.00000000000E+00  0.59107423918E+03  0.59107423919E+03  0.25500000920E-02 0.  1.
        2   -1    0    0  501    0  0.00000000000E+00  0.00000000000E+00 -0.88803817467E+03  0.88803817468E+03  0.25500000920E-02 0. -1.
    10030    2    1    2    0    0  0.00000000000E+00  0.00000000000E+00 -0.29696393549E+03  0.14791124139E+04  0.14489948081E+04 0.  0.
        1    1    3    3  502    0 -0.34444970619E+03 -0.25239843203E+03 -0.74592121919E+03  0.85950510985E+03  0.50400001928E-02 0. -1.
       -1    1    3    3    0  502  0.34444970619E+03  0.25239843203E+03  0.44895728370E+03  0.61960730402E+03  0.50400001928E-02 0.  1.
</event>
<event>
 5   0  0.2195980E-03  0.1459095E+04  0.7818609E-02  0.8912119E-01
       -2   -1    0    0    0  501  0.00000000000E+00  0.00000000000E+00  0.21011984412E+03  0.21011984413E+03  0.25500000920E-02 0.  1.
        2   -1    0    0  501    0  0.00000000000E+00  0.00000000000E+00 -0.25330286154E+04  0.25330286154E+04  0.25500000920E-02 0. -1.
    10030    2    1    2    0    0  0.00000000000E+00  0.00000000000E+00 -0.23229087713E+04  0.27431484595E+04  0.14590950316E+04 0.  0.
        4    1    3    3  502    0  0.36420897604E+03 -0.39772167460E+03 -0.23773322261E+03  0.58936356072E+03  0.12699999809E+01 0.  1.
       -4    1    3    3    0  502 -0.36420897604E+03  0.39772167460E+03 -0.20851755487E+04  0.21537848988E+04  0.12699999809E+01 0. -1.
</event>
<event>
 5   0  0.1175374E-03  0.1482684E+04  0.7818609E-02  0.8896050E-01
       -1   -1    0    0    0  501  0.00000000000E+00  0.00000000000E+00  0.17416174245E+04  0.17416174245E+04  0.50400001928E-02 0. -1.
        1   -1    0    0  501    0  0.00000000000E+00  0.00000000000E+00 -0.31556162635E+03  0.31556162639E+03  0.50400001928E-02 0.  1.
    10030    2    1    2    0    0  0.00000000000E+00  0.00000000000E+00  0.14260557981E+04  0.20571790509E+04  0.14826835495E+04 0.  0.
        3    1    3    3  502    0 -0.55177412096E+03  0.57418829327E+02  0.30714166303E+02  0.55560325119E+03  0.10100000352E+00 0. -1.
       -3    1    3    3    0  502  0.55177412096E+03 -0.57418829327E+02  0.13953416318E+04  0.15015757997E+04  0.10100000352E+00 0.  1.
</event>
<event>
 5   0  0.2195980E-03  0.1416523E+04  0.7818609E-02  0.8941945E-01
        2   -1    0    0  501    0  0.00000000000E+00  0.00000000000E+00  0.64730973660E+03  0.64730973660E+03  0.25500000920E-02 0.  1.
       -2   -1    0    0    0  501  0.00000000000E+00  0.00000000000E+00 -0.77495234338E+03  0.77495234338E+03  0.25500000920E-02 0. -1.
    10030    2    1    2    0    0  0.00000000000E+00  0.00000000000E+00 -0.12764260678E+03  0.14222620800E+04  0.14165227810E+04 0.  0.
        4    1    3    3  502    0 -0.53003946444E+03 -0.35885278204E+03 -0.36822525263E+03  0.73845013550E+03  0.12699999809E+01 0. -1.
       -4    1    3    3    0  502  0.53003946444E+03  0.35885278204E+03  0.24058264585E+03  0.68381194449E+03  0.12699999809E+01 0.  1.
</event>
<event>
 5   0  0.2190704E-03  0.1411330E+04  0.7818609E-02  0.8945658E-01
        2   -1    0    0  501    0  0.00000000000E+00  0.00000000000E+00  0.93210024701E+03  0.93210024701E+03  0.25500000920E-02 0. -1.
       -2   -1    0    0    0  501  0.00000000000E+00  0.00000000000E+00 -0.53423738739E+03  0.53423738739E+03  0.25500000920E-02 0.  1.
    10030    2    1    2    0    0  0.00000000000E+00  0.00000000000E+00  0.39786285962E+03  0.14663376344E+04  0.14113295870E+04 0.  0.
        5    1    3    3  502    0  0.25260875912E+03  0.19122855410E+03  0.85403129892E+03  0.91091772110E+03  0.46999998093E+01 0. -1.
       -5    1    3    3    0  502 -0.25260875912E+03 -0.19122855410E+03 -0.45616843929E+03  0.55541991331E+03  0.46999998093E+01 0.  1.
</event>
<event>
 5   0  0.2083966E-03  0.1390433E+04  0.7818609E-02  0.8960773E-01
       -2   -1    0    0    0  501  0.00000000000E+00  0.00000000000E+00  0.21505709430E+03  0.21505709432E+03  0.25500000920E-02 0. -1.
        2   -1    0    0  501    0  0.00000000000E+00  0.00000000000E+00 -0.22474317090E+04  0.22474317090E+04  0.25500000920E-02 0.  1.
    10030    2    1    2    0    0  0.00000000000E+00  0.00000000000E+00 -0.20323746147E+04  0.24624888034E+04  0.13904332174E+04 0.  0.
        1    1    3    3  502    0 -0.30475405963E+03 -0.62373893530E+03 -0.94990190627E+03  0.11765368366E+04  0.50400001928E-02 0. -1.
       -1    1    3    3    0  502  0.30475405963E+03  0.62373893530E+03 -0.10824727085E+04  0.12859519668E+04  0.50400001928E-02 0.  1.
</event>
<event>
 5   0  0.1225690E-03  0.1396810E+04  0.7818609E-02  0.8956131E-01
        1   -1    0    0  501    0  0.00000000000E+00  0.00000000000E+00  0.16652626709E+04  0.16652626709E+04  0.50400001928E-02 0. -1.
       -1   -1    0    0    0  501  0.00000000000E+00  0.00000000000E+00 -0.29290863717E+03  0.29290863721E+03  0.50400001928E-02 0.  1.
    10030    2    1    2    0    0  0.00000000000E+00  0.00000000000E+00  0.13723540337E+04  0.19581713081E+04  0.13968103944E+04 0.  0.
        4    1    3    3  502    0 -0.22219658807E+03  0.20766463422E+03  0.15675533923E+04  0.15967846363E+04  0.12699999809E+01 0. -1.
       -4    1    3    3    0  502  0.22219658807E+03 -0.20766463422E+03 -0.19519935860E+03  0.36138667180E+03  0.12699999809E+01 0.  1.
</event>
<event>
 5   0  0.2083966E-03  0.1445110E+04  0.7818609E-02  0.8921798E-01
       -2   -1    0    0    0  501  0.00000000000E+00  0.00000000000E+00  0.60737403936E+03  0.60737403937E+03  0.25500000920E-02 0. -1.
        2   -1    0    0  501    0  0.00000000000E+00  0.00000000000E+00 -0.85957812955E+03  0.85957812955E+03  0.25500000920E-02 0.  1.
    10030    2    1    2    0    0  0.00000000000E+00  0.00000000000E+00 -0.25220409019E+03  0.14669521689E+04  0.14451096023E+04 0.  0.
        1    1    3    3  502    0  0.12803012390E+03  0.27730810048E+03 -0.79082318241E+03  0.84775751314E+03  0.50400001928E-02 0.  1.
       -1    1    3    3    0  502 -0.12803012390E+03 -0.27730810048E+03  0.53861909222E+03  0.61919465578E+03  0.50400001928E-02 0. -1.
</event>
<event>
 5   0  0.1238683E-03  0.1373363E+04  0.7818609E-02  0.8973329E-01
        1   -1    0    0  501    0  0.00000000000E+00  0.00000000000E+00  0.25158307992E+04  0.25158307992E+04  0.50400001928E-02 0. -1.
       -1   -1    0    0    0  501  0.00000000000E+00  0.00000000000E+00 -0.18742580585E+03  0.18742580591E+03  0.50400001928E-02 0.  1.
    10030    2    1    2    0    0  0.00000000000E+00  0.00000000000E+00  0.23284049934E+04  0.27032566052E+04  0.13733631931E+04 0.  0.
        2    1    3    3  502    0  0.25614678744E+02  0.65696279345E+03  0.15542900821E+04  0.16876237386E+04  0.25500000920E-02 0. -1.
       -2    1    3    3    0  502 -0.25614678744E+02 -0.65696279345E+03  0.77411491125E+03  0.10156328665E+04  0.25500000920E-02 0.  1.
</event>
<event>
 5   0  0.2236184E-03  0.1384066E+04  0.7818609E-02  0.8965434E-01
       -2   -1    0    0    0  501  0.00000000000E+00  0.00000000000E+00  0.27308940399E+03  0.27308940400E+03  0.25500000920E-02 0.  1.
        2   -1    0    0  501    0  0.00000000000E+00  0.00000000000E+00 -0.17536738944E+04  0.17536738944E+04  0.25500000920E-02 0. -1.
    10030    2    1    2    0    0  0.00000000000E+00  0.00000000000E+00 -0.14805844904E+04  0.20267632984E+04  0.13840661236E+04 0.  0.
        3    1    3    3  502    0  0.37259160791E+02 -0.54618140521E+03 -0.13601958084E+04  0.14662315710E+04  0.10100000352E+00 0. -1.
       -3    1    3    3    0  502 -0.37259160791E+02  0.54618140521E+03 -0.12038868202E+03  0.56053172739E+03  0.10100000352E+00 0.  1.
</event>
<event>
 5   0  0.1225690E-03  0.1378644E+04  0.7818609E-02  0.8969424E-01
       -1   -1    0    0    0  501  0.00000000000E+00  0.00000000000E+00  0.42804480628E+03  0.42804480631E+03  0.50400001928E-02 0.  1.
        1   -1    0    0  501    0  0.00000000000E+00  0.00000000000E+00 -0.11100826313E+04  0.11100826313E+04  0.50400001928E-02 0. -1.
    10030    2    1    2    0    0  0.00000000000E+00  0.00000000000E+00 -0.68203782503E+03  0.15381274376E+04  0.13786444138E+04 0.  0.
        4    1    3    3  502    0 -0.60167663636E+02 -0.67573718479E+03 -0.47730838878E+03  0.82949731859E+03  0.12699999809E+01 0.  1.
       -4    1    3    3    0  502  0.60167663636E+02  0.67573718479E+03 -0.20472943625E+03  0.70863011905E+03  0.12699999809E+01 0. -1.
</event>
<event>
 5   0  0.1225690E-03  0.1403132E+04  0.7818609E-02  0.8951554E-01
       -1   -1    0    0    0  501  0.00000000000E+00  0.00000000000E+00  0.12324417074E+04  0.12324417075E+04  0.50400001928E-02 0. -1.
        1   -1    0    0  501    0  0.00000000000E+00  0.00000000000E+00 -0.39936579128E+03  0.39936579132E+03  0.50400001928E-02 0.  1.
    10030    2    1    2    0    0  0.00000000000E+00  0.00000000000E+00  0.83307591616E+03  0.16318074988E+04  0.14031322927E+04 0.  0.
        4    1    3    3  502    0 -0.25192851986E+03 -0.53812439237E+03 -0.17280644419E+02  0.59442920046E+03  0.12699999809E+01 0.  1.
       -4    1    3    3    0  502  0.25192851986E+03  0.53812439237E+03  0.85035656058E+03  0.10373782983E+04  0.12699999809E+01 0. -1.
</event>
<event>
 5   0  0.2083966E-03  0.1379931E+04  0.7818609E-02  0.8968475E-01
       -2   -1    0    0    0  501  0.00000000000E+00  0.00000000000E+00  0.74365042303E+03  0.74365042303E+03  0.25500000920E-02 0.  1.
        2   -1    0    0  501    0  0.00000000000E+00  0.00000000000E+00 -0.64015642408E+03  0.64015642409E+03  0.25500000920E-02 0. -1.
    10030    2    1    2    0    0  0.00000000000E+00  0.00000000000E+00  0.10349399895E+03  0.13838068471E+04  0.13799312962E+04 0.  0.
        1    1    3    3  502    0  0.15081656248E+03 -0.15122988693E+03 -0.60617218010E+03  0.64269808322E+03  0.50400001928E-02 0. -1.
       -1    1    3    3    0  502 -0.15081656248E+03  0.15122988693E+03  0.70966617905E+03  0.74110876390E+03  0.50400001928E-02 0.  1.
</event>
<event>
 5   0  0.2195980E-03  0.1374536E+04  0.7818609E-02  0.8972460E-01
        2   -1    0    0  501    0  0.00000000000E+00  0.00000000000E+00  0.14887101878E+04  0.14887101878E+04  0.25500000920E-02 0. -1.
       -2   -1    0    0    0  501  0.00000000000E+00  0.00000000000E+00 -0.31727955097E+03  0.31727955098E+03  0.25500000920E-02 0.  1.
    10030    2    1    2    0    0  0.00000000000E+00  0.00000000000E+00  0.11714306369E+04  0.18059897388E+04  0.13745359943E+04 0.  0.
        4    1    3    3  502    0  0.56675892276E+03  0.21219119552E+03  0.15775211495E+03  0.62540236861E+03  0.12699999809E+01 0.  1.
       -4    1    3    3    0  502 -0.56675892276E+03 -0.21219119552E+03  0.10136785219E+04  0.11805873702E+04  0.12699999809E+01 0. -1.
</event>
<event>
 5   0  0.1199720E-03  0.1384329E+04  0.7818609E-02  0.8965241E-01
        1   -1    0    0  501    0  0.00000000000E+00  0.00000000000E+00  0.11414483928E+04  0.11414483928E+04  0.50400001928E-02 0. -1.
       -1   -1    0    0    0  501  0.00000000000E+00  0.00000000000E+00 -0.41972264797E+03  0.41972264800E+03  0.50400001928E-02 0.  1.
    10030    2    1    2    0    0  0.00000000000E+00  0.00000000000E+00  0.72172574481E+03  0.15611710408E+04  0.13843290678E+04 0.  0.
        5    1    3    3  502    0  0.32969399543E+03 -0.56930078230E+03  0.11828444742E+03  0.66844207815E+03  0.46999998093E+01 0.  1.
       -5    1    3    3    0  502 -0.32969399543E+03  0.56930078230E+03  0.60344129739E+03  0.89272896264E+03  0.46999998093E+01 0. -1.
</event>
<event>
 5   0  0.2083966E-03  0.1392511E+04  0.7818609E-02  0.8959257E-01
       -2   -1    0    0    0  501  0.00000000000E+00  0.00000000000E+00  0.23736261929E+03  0.23736261930E+03  0.25500000920E-02 0.  1.
        2   -1    0    0  501    0  0.00000000000E+00  0.00000000000E+00 -0.20423251364E+04  0.20423251364E+04  0.25500000920E-02 0. -1.
    10030    2    1    2    0    0  0.00000000000E+00  0.00000000000E+00 -0.18049625171E+04  0.22796877557E+04  0.13925108888E+04 0.  0.
        1    1    3    3  502    0  0.34768526653E+03  0.13188319398E+03 -0.18661422163E+04  0.19028307841E+04  0.50400001928E-02 0. -1.
       -1    1    3    3    0  502 -0.34768526653E+03 -0.13188319398E+03  0.61179699210E+02  0.37685697159E+03  0.50400001928E-02 0.  1.
</event>
<event>
 5   0  0.2236184E-03  0.1420262E+04  0.7818609E-02  0.8939281E-01
        2   -1    0    0  501    0  0.00000000000E+00  0.00000000000E+00  0.80080299871E+03  0.80080299871E+03  0.25500000920E-02 0. -1.
       -2   -1    0    0    0  501  0.00000000000E+00  0.00000000000E+00 -0.62972536571E+03  0.62972536571E+03  0.25500000920E-02 0.  1.
    10030    2    1    2    0    0  0.00000000000E+00  0.00000000000E+00  0.17107763300E+03  0.14305283644E+04  0.14202618931E+04 0.  0.
        3    1    3    3  502    0  0.70579114902E+03 -0.73128506094E+02  0.11397455046E+03  0.71866482646E+03  0.10100000352E+00 0. -1.
       -3    1    3    3    0  502 -0.70579114902E+03  0.73128506094E+02  0.57103082539E+02  0.71186353796E+03  0.10100000352E+00 0.  1.
</event>
<event>
 5   0  0.1210275E-03  0.1385038E+04  0.7818609E-02  0.8964721E-01
        1   -1    0    0  501    0  0.00000000000E+00  0.00000000000E+00  0.60463368211E+03  0.60463368213E+03  0.50400001928E-02 0. -1.
       -1   -1    0    0    0  501  0.00000000000E+00  0.00000000000E+00 -0.79317846391E+03  0.79317846392E+03  0.50400001928E-02 0.  1.
    10030    2    1    2    0    0  0.00000000000E+00  0.00000000000E+00 -0.18854478180E+03  0.13978121461E+04  0.13850377832E+04 0.  0.
        1    1    3    3  502    0  0.28961161164E+03 -0.61909727205E+03 -0.20677291990E+03  0.71408077855E+03  0.50400001928E-02 0. -1.
       -1    1    3    3    0  502 -0.28961161164E+03  0.61909727205E+03  0.18228138101E+02  0.68373136750E+03  0.50400001928E-02 0.  1.
</event>
<event>
 5   0  0.1225690E-03  0.1404656E+04  0.7818609E-02  0.8950455E-01
       -1   -1    0    0    0  501  0.00000000000E+00  0.00000000000E+00  0.10259815981E+04  0.10259815981E+04  0.50400001928E-02 0. -1.
        1   -1    0    0  501    0  0.00000000000E+00  0.00000000000E+00 -0.48077313310E+03  0.48077313313E+03  0.50400001928E-02 0.  1.
    10030    2    1    2    0    0  0.00000000000E+00  0.00000000000E+00  0.54520846502E+03  0.15067547313E+04  0.14046556695E+04 0.  0.
        4    1    3    3  502    0 -0.31764995397E+03  0.36274248532E+03 -0.27517950809E+03  0.55516572164E+03  0.12699999809E+01 0.  1.
       -4    1    3    3    0  502  0.31764995397E+03 -0.36274248532E+03  0.82038797311E+03  0.95158900963E+03  0.12699999809E+01 0. -1.
</event>
<event>
 5   0  0.1175374E-03  0.1396968E+04  0.7818609E-02  0.8956016E-01
        1   -1    0    0  501    0  0.00000000000E+00  0.00000000000E+00  0.97235695578E+03  0.97235695579E+03  0.50400001928E-02 0.  1.
       -1   -1    0    0    0  501  0.00000000000E+00  0.00000000000E+00 -0.50174981044E+03  0.50174981046E+03  0.50400001928E-02 0. -1.
    10030    2    1    2    0    0  0.00000000000E+00  0.00000000000E+00  0.47060714534E+03  0.14741067663E+04  0.13969680286E+04 0.  0.
        3    1    3    3  502    0 -0.11672473626E+03 -0.57603335769E+03  0.63355716093E+03  0.86419545220E+03  0.10100000352E+00 0. -1.
       -3    1    3    3    0  502  0.11672473626E+03  0.57603335769E+03 -0.16295001559E+03  0.60991131406E+03  0.10100000352E+00 0.  1.
</event>
<event>
 5   0  0.1199720E-03  0.1456678E+04  0.7818609E-02  0.8913784E-01
       -1   -1    0    0    0  501  0.00000000000E+00  0.00000000000E+00  0.18441905727E+04  0.18441905727E+04  0.50400001928E-02 0.  1.
        1   -1    0    0  501    0  0.00000000000E+00  0.00000000000E+00 -0.28764809319E+03  0.28764809324E+03  0.50400001928E-02 0. -1.
    10030    2    1    2    0    0  0.00000000000E+00  0.00000000000E+00  0.15565424795E+04  0.21318386659E+04  0.14566782785E+04 0.  0.
        5    1    3    3  502    0 -0.46721062155E+03  0.45979940041E+03  0.31373131814E+03  0.72673976325E+03  0.46999998093E+01 0. -1.
       -5    1    3    3    0  502  0.46721062155E+03 -0.45979940041E+03  0.12428111613E+04  0.14050989026E+04  0.46999998093E+01 0.  1.
</event>
<event>
 5   0  0.8293000E-04  0.1392339E+04  0.7818609E-02  0.8959383E-01
        3   -1    0    0  501    0  0.00000000000E+00  0.00000000000E+00  0.10562197367E+04  0.10562197415E+04  0.10100000352E+00 0. -1.
       -3   -1    0    0    0  501  0.00000000000E+00  0.00000000000E+00 -0.45885531107E+03  0.45885532218E+03  0.10100000352E+00 0.  1.
    10030    2    1    2    0    0  0.00000000000E+00  0.00000000000E+00  0.59736442559E+03  0.15150750637E+04  0.13923391080E+04 0.  0.
        5    1    3    3  502    0  0.18482494842E+03  0.36302196879E+03  0.91296700973E+03  0.99973799679E+03  0.46999998093E+01 0. -1.
       -5    1    3    3    0  502 -0.18482494842E+03 -0.36302196879E+03 -0.31560258414E+03  0.51533706688E+03  0.46999998093E+01 0.  1.
</event>
<event>
 5   0  0.1175374E-03  0.1400203E+04  0.7818609E-02  0.8953671E-01
        1   -1    0    0  501    0  0.00000000000E+00  0.00000000000E+00  0.11523091065E+04  0.11523091066E+04  0.50400001928E-02 0. -1.
       -1   -1    0    0    0  501  0.00000000000E+00  0.00000000000E+00 -0.42535659159E+03  0.42535659162E+03  0.50400001928E-02 0.  1.
    10030    2    1    2    0    0  0.00000000000E+00  0.00000000000E+00  0.72695251495E+03  0.15776656982E+04  0.14002032339E+04 0.  0.
        3    1    3    3  502    0 -0.20994787018E+03  0.59869118381E+03  0.69702384301E+03  0.94252399953E+03  0.10100000352E+00 0. -1.
       -3    1    3    3    0  502  0.20994787018E+03 -0.59869118381E+03  0.29928671944E+02  0.63514169865E+03  0.10100000352E+00 0.  1.
</event>
<event>
 5   0  0.2195980E-03  0.1049215E+04  0.7818609E-02  0.9256155E-01
       -2   -1    0    0    0  501  0.00000000000E+00  0.00000000000E+00  0.59291173211E+03  0.59291173211E+03  0.25500000920E-02 0.  1.
        2   -1    0    0  501    0  0.00000000000E+00  0.00000000000E+00 -0.46417170936E+03  0.46417170937E+03  0.25500000920E-02 0. -1.
    10030    2    1    2    0    0  0.00000000000E+00  0.00000000000E+00  0.12874002275E+03  0.10570834415E+04  0.10492146629E+04 0.  0.
        4    1    3    3  502    0  0.18440530271E+03  0.22317645495E+03 -0.37640182397E+03  0.47486102357E+03  0.12699999809E+01 0. -1.
       -4    1    3    3    0  502 -0.18440530271E+03 -0.22317645495E+03  0.50514184672E+03  0.58222241791E+03  0.12699999809E+01 0.  1.
</event>
<event>
 5   0  0.2083966E-03  0.1409505E+04  0.7818609E-02  0.8946967E-01
       -2   -1    0    0    0  501  0.00000000000E+00  0.00000000000E+00  0.65033866593E+03  0.65033866594E+03  0.25500000920E-02 0.  1.
        2   -1    0    0  501    0  0.00000000000E+00  0.00000000000E+00 -0.76371896532E+03  0.76371896532E+03  0.25500000920E-02 0. -1.
    10030    2    1    2    0    0  0.00000000000E+00  0.00000000000E+00 -0.11338029938E+03  0.14140576313E+04  0.14095048394E+04 0.  0.
        1    1    3    3  502    0  0.32536054376E+03  0.81893985099E+02 -0.67845800975E+03  0.75688267205E+03  0.50400001928E-02 0. -1.
       -1    1    3    3    0  502 -0.32536054376E+03 -0.81893985099E+02  0.56507771037E+03  0.65717495921E+03  0.50400001928E-02 0.  1.
</event>
<event>
 5   0  0.1238683E-03  0.1387597E+04  0.7818609E-02  0.8962846E-01
       -1   -1    0    0    0  501  0.00000000000E+00  0.00000000000E+00  0.15005311762E+04  0.15005311762E+04  0.50400001928E-02 0. -1.
        1   -1    0    0  501    0  0.00000000000E+00  0.00000000000E+00 -0.32079045026E+03  0.32079045030E+03  0.50400001928E-02 0.  1.
    10030    2    1    2    0    0  0.00000000000E+00  0.00000000000E+00  0.11797407260E+04  0.18213216265E+04  0.13875965865E+04 0.  0.
        2    1    3    3  502    0  0.31694943104E+03  0.35501312548E+03 -0.72770722488E+02  0.48144245675E+03  0.25500000920E-02 0.  1.
       -2    1    3    3    0  502 -0.31694943104E+03 -0.35501312548E+03  0.12525114484E+04  0.13398791698E+04  0.25500000920E-02 0. -1.
</event>
<event>
 5   0  0.2190704E-03  0.1413158E+04  0.7818609E-02  0.8944349E-01
       -2   -1    0    0    0  501  0.00000000000E+00  0.00000000000E+00  0.20614286220E+03  0.20614286221E+03  0.25500000920E-02 0.  1.
        2   -1    0    0  501    0  0.00000000000E+00  0.00000000000E+00 -0.24218842597E+04  0.24218842597E+04  0.25500000920E-02 0. -1.
    10030    2    1    2    0    0  0.00000000000E+00  0.00000000000E+00 -0.22157413975E+04  0.26280271219E+04  0.14131583821E+04 0.  0.
        5    1    3    3  502    0 -0.69608561498E+03 -0.10465301553E+03 -0.12216709548E+04  0.14099607969E+04  0.46999998093E+01 0.  1.
       -5    1    3    3    0  502  0.69608561498E+03  0.10465301553E+03 -0.99407044275E+03  0.12180663250E+04  0.46999998093E+01 0. -1.
</event>
<event>
 5   0  0.1238683E-03  0.1374797E+04  0.7818609E-02  0.8972267E-01
       -1   -1    0    0    0  501  0.00000000000E+00  0.00000000000E+00  0.39560160157E+03  0.39560160160E+03  0.50400001928E-02 0.  1.
        1   -1    0    0  501    0  0.00000000000E+00  0.00000000000E+00 -0.11944253494E+04  0.11944253494E+04  0.50400001928E-02 0. -1.
    10030    2    1    2    0    0  0.00000000000E+00  0.00000000000E+00 -0.79882374783E+03  0.15900269510E+04  0.13747968304E+04 0.  0.
        2    1    3    3  502    0  0.63253345890E+03  0.23394415937E+03 -0.55322981153E+03  0.87229104701E+03  0.25500000920E-02 0. -1.
       -2    1    3    3    0  502 -0.63253345890E+03 -0.23394415937E+03 -0.24559393630E+03  0.71773590399E+03  0.25500000920E-02 0.  1.
</event>
<event>
 5   0  0.2172901E-03  0.1374386E+04  0.7818609E-02  0.8972571E-01
       -2   -1    0    0    0  501  0.00000000000E+00  0.00000000000E+00  0.26939221797E+03  0.26939221799E+03  0.25500000920E-02 0. -1.
        2   -1    0    0  501    0  0.00000000000E+00  0.00000000000E+00 -0.17529624423E+04  0.17529624423E+04  0.25500000920E-02 0.  1.
    10030    2    1    2    0    0  0.00000000000E+00  0.00000000000E+00 -0.14835702243E+04  0.20223546603E+04  0.13743863218E+04 0.  0.
        2    1    3    3  502    0 -0.15305459787E+03  0.53510436170E+03 -0.14867158471E+03  0.57607779678E+03  0.25500000920E-02 0. -1.
       -2    1    3    3    0  502  0.15305459787E+03 -0.53510436170E+03 -0.13348986396E+04  0.14462768635E+04  0.25500000920E-02 0.  1.
</event>
<event>
 5   0  0.2236184E-03  0.1372804E+04  0.7818609E-02  0.8973743E-01
       -2   -1    0    0    0  501  0.00000000000E+00  0.00000000000E+00  0.46997017753E+03  0.46997017754E+03  0.25500000920E-02 0. -1.
        2   -1    0    0  501    0  0.00000000000E+00  0.00000000000E+00 -0.10025049490E+04  0.10025049490E+04  0.25500000920E-02 0.  1.
    10030    2    1    2    0    0  0.00000000000E+00  0.00000000000E+00 -0.53253477147E+03  0.14724751265E+04  0.13728035968E+04 0.  0.
        3    1    3    3  502    0  0.11036247707E+03 -0.55972623451E+03 -0.67565123761E+03  0.88429516511E+03  0.10100000352E+00 0.  1.
       -3    1    3    3    0  502 -0.11036247707E+03  0.55972623451E+03  0.14311646614E+03  0.58817996143E+03  0.10100000352E+00 0. -1.
</event>
<event>
 5   0  0.8293000E-04  0.1410773E+04  0.7818609E-02  0.8946057E-01
        3   -1    0    0  501    0  0.00000000000E+00  0.00000000000E+00  0.99411108999E+03  0.99411109512E+03  0.10100000352E+00 0. -1.
       -3   -1    0    0    0  501  0.00000000000E+00  0.00000000000E+00 -0.50051751091E+03  0.50051752110E+03  0.10100000352E+00 0.  1.
    10030    2    1    2    0    0  0.00000000000E+00  0.00000000000E+00  0.49359357908E+03  0.14946286162E+04  0.14107728659E+04 0.  0.
        4    1    3    3  502    0  0.16277399394E+03  0.23138328453E+03  0.93137416006E+03  0.97339253972E+03  0.12699999809E+01 0. -1.
       -4    1    3    3    0  502 -0.16277399394E+03 -0.23138328453E+03 -0.43778058098E+03  0.52123607650E+03  0.12699999809E+01 0.  1.
</event>
<event>
 5   0  0.2083966E-03  0.1373612E+04  0.7818609E-02  0.8973144E-01
       -2   -1    0    0    0  501  0.00000000000E+00  0.00000000000E+00  0.22555713393E+03  0.22555713394E+03  0.25500000920E-02 0. -1.
        2   -1    0    0  501    0  0.00000000000E+00  0.00000000000E+00 -0.20912773613E+04  0.20912773613E+04  0.25500000920E-02 0.  1.
    10030    2    1    2    0    0  0.00000000000E+00  0.00000000000E+00 -0.18657202274E+04  0.23168344953E+04  0.13736120674E+04 0.  0.
        1    1    3    3  502    0 -0.13214008159E+03 -0.42857399100E+03 -0.18101990671E+04  0.18649282371E+04  0.50400001928E-02 0.  1.
       -1    1    3    3    0  502  0.13214008159E+03  0.42857399100E+03 -0.55521160304E+02  0.45190625819E+03  0.50400001928E-02 0. -1.
</event>
<event>
 5   0  0.2195980E-03  0.1405461E+04  0.7818609E-02  0.8949875E-01
       -2   -1    0    0    0  501  0.00000000000E+00  0.00000000000E+00  0.16244408133E+03  0.16244408135E+03  0.25500000920E-02 0.  1.
        2   -1    0    0  501    0  0.00000000000E+00  0.00000000000E+00 -0.30400018273E+04  0.30400018273E+04  0.25500000920E-02 0. -1.
    10030    2    1    2    0    0  0.00000000000E+00  0.00000000000E+00 -0.28775577460E+04  0.32024459087E+04  0.14054612113E+04 0.  0.
        4    1    3    3  502    0 -0.62702184297E+03  0.31100807173E+03 -0.15819174947E+04  0.17298401617E+04  0.12699999809E+01 0.  1.
       -4    1    3    3    0  502  0.62702184297E+03 -0.31100807173E+03 -0.12956402513E+04  0.14726057470E+04  0.12699999809E+01 0. -1.
</event>
<event>
 5   0  0.1199720E-03  0.9184204E+03  0.7818609E-02  0.9402844E-01
       -1   -1    0    0    0  501  0.00000000000E+00  0.00000000000E+00  0.30843092555E+03  0.30843092559E+03  0.50400001928E-02 0.  1.
        1   -1    0    0  501    0  0.00000000000E+00  0.00000000000E+00 -0.68369927427E+03  0.68369927429E+03  0.50400001928E-02 0. -1.
    10030    2    1    2    0    0  0.00000000000E+00  0.00000000000E+00 -0.37526834871E+03  0.99213019988E+03  0.91842038303E+03 0.  0.
        5    1    3    3  502    0 -0.33031402206E+03 -0.27664625001E+03 -0.35915849833E+03  0.56094332845E+03  0.46999998093E+01 0. -1.
       -5    1    3    3    0  502  0.33031402206E+03  0.27664625001E+03 -0.16109850381E+02  0.43118687143E+03  0.46999998093E+01 0.  1.
</event>
<event>
 5   0  0.1238683E-03  0.1375953E+04  0.7818609E-02  0.8971411E-01
        1   -1    0    0  501    0  0.00000000000E+00  0.00000000000E+00  0.11299813612E+04  0.11299813612E+04  0.50400001928E-02 0.  1.
       -1   -1    0    0    0  501  0.00000000000E+00  0.00000000000E+00 -0.41886690267E+03  0.41886690270E+03  0.50400001928E-02 0. -1.
    10030    2    1    2    0    0  0.00000000000E+00  0.00000000000E+00  0.71111445852E+03  0.15488482639E+04  0.13759531865E+04 0.  0.
        2    1    3    3  502    0 -0.85146355921E+00  0.27572139225E+03  0.10650669762E+04  0.11001775652E+04  0.25500000920E-02 0.  1.
       -2    1    3    3    0  502  0.85146355921E+00 -0.27572139225E+03 -0.35395251767E+03  0.44867069874E+03  0.25500000920E-02 0. -1.
</event>
<event>
 5   0  0.1199720E-03  0.1456940E+04  0.7818609E-02  0.8913603E-01
        1   -1    0    0  501    0  0.00000000000E+00  0.00000000000E+00  0.59140840445E+03  0.59140840447E+03  0.50400001928E-02 0. -1.
       -1   -1    0    0    0  501  0.00000000000E+00  0.00000000000E+00 -0.89729596469E+03  0.89729596470E+03  0.50400001928E-02 0.  1.
    10030    2    1    2    0    0  0.00000000000E+00  0.00000000000E+00 -0.30588756024E+03  0.14887043692E+04  0.14569397720E+04 0.  0.
        5    1    3    3  502    0  0.17065259357E+03  0.19677067490E+03  0.54218619418E+03  0.60152220686E+03  0.46999998093E+01 0. -1.
       -5    1    3    3    0  502 -0.17065259357E+03 -0.19677067490E+03 -0.84807375441E+03  0.88718216231E+03  0.46999998093E+01 0.  1.
</event>
<event>
 5   0  0.2236184E-03  0.1369145E+04  0.7818609E-02  0.8976461E-01
       -2   -1    0    0    0  501  0.00000000000E+00  0.00000000000E+00  0.37160831037E+03  0.37160831038E+03  0.25500000920E-02 0. -1.
        2   -1    0    0  501    0  0.00000000000E+00  0.00000000000E+00 -0.12611113947E+04  0.12611113947E+04  0.25500000920E-02 0.  1.
    10030    2    1    2    0    0  0.00000000000E+00  0.00000000000E+00 -0.88950308429E+03  0.16327197050E+04  0.13691449515E+04 0.  0.
        3    1    3    3  502    0  0.86926667752E+02 -0.43380477954E+03 -0.10677131646E+04  0.11557483482E+04  0.10100000352E+00 0.  1.
       -3    1    3    3    0  502 -0.86926667752E+02  0.43380477954E+03  0.17821008031E+03  0.47697135684E+03  0.10100000352E+00 0. -1.
</event>
<event>
 5   0  0.2172901E-03  0.1404791E+04  0.7818609E-02  0.8950358E-01
        2   -1    0    0  501    0  0.00000000000E+00  0.00000000000E+00  0.93930352243E+03  0.93930352243E+03  0.25500000920E-02 0.  1.
       -2   -1    0    0    0  501  0.00000000000E+00  0.00000000000E+00 -0.52523997977E+03  0.52523997978E+03  0.25500000920E-02 0. -1.
    10030    2    1    2    0    0  0.00000000000E+00  0.00000000000E+00  0.41406354265E+03  0.14645435022E+04  0.14047914623E+04 0.  0.
        2    1    3    3  502    0  0.39038216631E+03 -0.20860603489E+02  0.81539896542E+03  0.90427256586E+03  0.25500000920E-02 0.  1.
       -2    1    3    3    0  502 -0.39038216631E+03  0.20860603489E+02 -0.40133542277E+03  0.56027093635E+03  0.25500000920E-02 0. -1.
</event>
<event>
 5   0  0.2190704E-03  0.1397965E+04  0.7818609E-02  0.8955293E-01
        2   -1    0    0  501    0  0.00000000000E+00  0.00000000000E+00  0.34346657619E+03  0.34346657620E+03  0.25500000920E-02 0. -1.
       -2   -1    0    0    0  501  0.00000000000E+00  0.00000000000E+00 -0.14224873953E+04  0.14224873954E+04  0.25500000920E-02 0.  1.
    10030    2    1    2    0    0  0.00000000000E+00  0.00000000000E+00 -0.10790208192E+04  0.17659539716E+04  0.13979654865E+04 0.  0.
        5    1    3    3  502    0 -0.51111411427E+03  0.75499707019E+02 -0.11341918833E+04  0.12463350921E+04  0.46999998093E+01 0.  1.
       -5    1    3    3    0  502  0.51111411427E+03 -0.75499707019E+02  0.55171064184E+02  0.51961887946E+03  0.46999998093E+01 0. -1.
</event>
<event>
 5   0  0.1225690E-03  0.1179796E+04  0.7818609E-02  0.9130728E-01
        1   -1    0    0  501    0  0.00000000000E+00  0.00000000000E+00  0.12386849845E+04  0.12386849845E+04  0.50400001928E-02 0.  1.
       -1   -1    0    0    0  501  0.00000000000E+00  0.00000000000E+00 -0.28092648181E+03  0.28092648185E+03  0.50400001928E-02 0. -1.
    10030    2    1    2    0    0  0.00000000000E+00  0.00000000000E+00  0.95775850266E+03  0.15196114663E+04  0.11797956006E+04 0.  0.
        4    1    3    3  502    0 -0.12510743195E+03  0.55861994323E+03  0.66225814900E+03  0.87538310432E+03  0.12699999809E+01 0.  1.
       -4    1    3    3    0  502  0.12510743195E+03 -0.55861994323E+03  0.29550035366E+03  0.64422836201E+03  0.12699999809E+01 0. -1.
</event>
<event>
 5   0  0.1210275E-03  0.1394691E+04  0.7818609E-02  0.8957670E-01
        1   -1    0    0  501    0  0.00000000000E+00  0.00000000000E+00  0.19525953266E+03  0.19525953273E+03  0.50400001928E-02 0.  1.
       -1   -1    0    0    0  501  0.00000000000E+00  0.00000000000E+00 -0.24904853816E+04  0.24904853816E+04  0.50400001928E-02 0. -1.
    10030    2    1    2    0    0  0.00000000000E+00  0.00000000000E+00 -0.22952258489E+04  0.26857449143E+04  0.13946913806E+04 0.  0.
        1    1    3    3  502    0  0.51377602303E+02 -0.30639666338E+03 -0.23498557890E+04  0.23703039472E+04  0.50400001928E-02 0. -1.
       -1    1    3    3    0  502 -0.51377602303E+02  0.30639666338E+03  0.54629940026E+02  0.31544096709E+03  0.50400001928E-02 0.  1.
</event>
<event>
 5   0  0.2172901E-03  0.1361117E+04  0.7818609E-02  0.8982455E-01
        2   -1    0    0  501    0  0.00000000000E+00  0.00000000000E+00  0.10625949597E+04  0.10625949597E+04  0.25500000920E-02 0. -1.
       -2   -1    0    0    0  501  0.00000000000E+00  0.00000000000E+00 -0.43587604339E+03  0.43587604340E+03  0.25500000920E-02 0.  1.
    10030    2    1    2    0    0  0.00000000000E+00  0.00000000000E+00  0.62671891635E+03  0.14984710031E+04  0.13611167280E+04 0.  0.
        2    1    3    3  502    0 -0.74176620257E+02 -0.42487481526E+03 -0.26620496991E+03  0.50683909246E+03  0.25500000920E-02 0.  1.
       -2    1    3    3    0  502  0.74176620257E+02  0.42487481526E+03  0.89292388626E+03  0.99163191069E+03  0.25500000920E-02 0. -1.
</event>
<event>
 5   0  0.8293000E-04  0.1419573E+04  0.7818609E-02  0.8939771E-01
       -3   -1    0    0    0  501  0.00000000000E+00  0.00000000000E+00  0.48922174451E+03  0.48922175494E+03  0.10100000352E+00 0.  1.
        3   -1    0    0  501    0  0.00000000000E+00  0.00000000000E+00 -0.10297923941E+04  0.10297923990E+04  0.10100000352E+00 0. -1.
    10030    2    1    2    0    0  0.00000000000E+00  0.00000000000E+00 -0.54057064956E+03  0.15190141540E+04  0.14195729544E+04 0.  0.
        4    1    3    3  502    0 -0.49026411176E+03 -0.25792451631E+03 -0.74511668696E+03  0.92848502706E+03  0.12699999809E+01 0. -1.
       -4    1    3    3    0  502  0.49026411176E+03  0.25792451631E+03  0.20454603741E+03  0.59052912690E+03  0.12699999809E+01 0.  1.
</event>
<event>
 5   0  0.1225690E-03  0.1494059E+04  0.7818609E-02  0.8888413E-01
       -1   -1    0    0    0  501  0.00000000000E+00  0.00000000000E+00  0.81382239150E+03  0.81382239152E+03  0.50400001928E-02 0. -1.
        1   -1    0    0  501    0  0.00000000000E+00  0.00000000000E+00 -0.68571818771E+03  0.68571818773E+03  0.50400001928E-02 0.  1.
    10030    2    1    2    0    0  0.00000000000E+00  0.00000000000E+00  0.12810420379E+03  0.14995405792E+04  0.14940586541E+04 0.  0.
        4    1    3    3  502    0 -0.38375070558E+02  0.73686862968E+03  0.18111271201E+03  0.75977065671E+03  0.12699999809E+01 0. -1.
       -4    1    3    3    0  502  0.38375070558E+02 -0.73686862968E+03 -0.53008508215E+02  0.73976992254E+03  0.12699999809E+01 0.  1.
</event>
<event>
 5   0  0.2195980E-03  0.1665508E+04  0.7818609E-02  0.8781284E-01
        2   -1    0    0  501    0  0.00000000000E+00  0.00000000000E+00  0.10090121593E+04  0.10090121593E+04  0.25500000920E-02 0. -1.
       -2   -1    0    0    0  501  0.00000000000E+00  0.00000000000E+00 -0.68728551383E+03  0.68728551383E+03  0.25500000920E-02 0.  1.
    10030    2    1    2    0    0  0.00000000000E+00  0.00000000000E+00  0.32172664545E+03  0.16962976731E+04  0.16655082592E+04 0.  0.
        4    1    3    3  502    0 -0.73373831992E+03 -0.10857761257E+03 -0.22470721236E+03  0.77501997668E+03  0.12699999809E+01 0.  1.
       -4    1    3    3    0  502  0.73373831992E+03  0.10857761257E+03  0.54643385781E+03  0.92127769643E+03  0.12699999809E+01 0. -1.
</event>
<event>
 5   0  0.1199720E-03  0.1422967E+04  0.7818609E-02  0.8937359E-01
        1   -1    0    0  501    0  0.00000000000E+00  0.00000000000E+00  0.71305222797E+03  0.71305222798E+03  0.50400001928E-02 0.  1.
       -1   -1    0    0    0  501  0.00000000000E+00  0.00000000000E+00 -0.70991849625E+03  0.70991849627E+03  0.50400001928E-02 0. -1.
    10030    2    1    2    0    0  0.00000000000E+00  0.00000000000E+00  0.31337317184E+01  0.14229707242E+04  0.14229672736E+04 0.  0.
        5    1    3    3  502    0 -0.70026790414E+03  0.40649777971E+02  0.12056015184E+03  0.71174741462E+03  0.46999998093E+01 0.  1.
       -5    1    3    3    0  502  0.70026790414E+03 -0.40649777971E+02 -0.11742642012E+03  0.71122330963E+03  0.46999998093E+01 0. -1.
</event>
<event>
 5   0  0.2236184E-03  0.1394225E+04  0.7818609E-02  0.8958010E-01
        2   -1    0    0  501    0  0.00000000000E+00  0.00000000000E+00  0.16341549585E+04  0.16341549585E+04  0.25500000920E-02 0.  1.
       -2   -1    0    0    0  501  0.00000000000E+00  0.00000000000E+00 -0.29738036042E+03  0.29738036043E+03  0.25500000920E-02 0. -1.
    10030    2    1    2    0    0  0.00000000000E+00  0.00000000000E+00  0.13367745981E+04  0.19315353189E+04  0.13942246455E+04 0.  0.
        3    1    3    3  502    0  0.35713330962E+03 -0.23954951775E+03 -0.91729150972E+02  0.43970719761E+03  0.10100000352E+00 0. -1.
       -3    1    3    3    0  502 -0.35713330962E+03  0.23954951775E+03  0.14285037490E+04  0.14918281213E+04  0.10100000352E+00 0.  1.
</event>
<event>
 5   0  0.2083966E-03  0.1414605E+04  0.7818609E-02  0.8943314E-01
        2   -1    0    0  501    0  0.00000000000E+00  0.00000000000E+00  0.75667826344E+03  0.75667826345E+03  0.25500000920E-02 0.  1.
       -2   -1    0    0    0  501  0.00000000000E+00  0.00000000000E+00 -0.66114875740E+03  0.66114875740E+03  0.25500000920E-02 0. -1.
    10030    2    1    2    0    0  0.00000000000E+00  0.00000000000E+00  0.95529506048E+02  0.14178270209E+04  0.14146050949E+04 0.  0.
        1    1    3    3  502    0 -0.57411619528E+02  0.67387102634E+03  0.25530796277E+03  0.72289723342E+03  0.50400001928E-02 0.  1.
       -1    1    3    3    0  502  0.57411619528E+02 -0.67387102634E+03 -0.15977845673E+03  0.69492978743E+03  0.50400001928E-02 0. -1.
</event>
<event>
 5   0  0.1175374E-03  0.1274350E+04  0.7818609E-02  0.9050157E-01
        1   -1    0    0  501    0  0.00000000000E+00  0.00000000000E+00  0.56389406624E+03  0.56389406626E+03  0.50400001928E-02 0.  1.
       -1   -1    0    0    0  501  0.00000000000E+00  0.00000000000E+00 -0.71997907643E+03  0.71997907644E+03  0.50400001928E-02 0. -1.
    10030    2    1    2    0    0  0.00000000000E+00  0.00000000000E+00 -0.15608501019E+03  0.12838731427E+04  0.12743499190E+04 0.  0.
        3    1    3    3  502    0  0.47476836633E+03  0.39911152781E+03  0.68982658251E+02  0.62406220094E+03  0.10100000352E+00 0. -1.
       -3    1    3    3    0  502 -0.47476836633E+03 -0.39911152781E+03 -0.22506766844E+03  0.65981094177E+03  0.10100000352E+00 0.  1.
</event>
<event>
 5   0  0.8293000E-04  0.1408715E+04  0.7818609E-02  0.8947534E-01
       -3   -1    0    0    0  501  0.00000000000E+00  0.00000000000E+00  0.63849952820E+03  0.63849953619E+03  0.10100000352E+00 0.  1.
        3   -1    0    0  501    0  0.00000000000E+00  0.00000000000E+00 -0.77700843140E+03  0.77700843796E+03  0.10100000352E+00 0. -1.
    10030    2    1    2    0    0  0.00000000000E+00  0.00000000000E+00 -0.13850890320E+03  0.14155079741E+04  0.14087150559E+04 0.  0.
        5    1    3    3  502    0 -0.20725567881E+03 -0.21142686536E+03 -0.71143025322E+03  0.77059154615E+03  0.46999998093E+01 0. -1.
       -5    1    3    3    0  502  0.20725567881E+03  0.21142686536E+03  0.57292135002E+03  0.64491642800E+03  0.46999998093E+01 0.  1.
</event>
<event>
 5   0  0.1238683E-03  0.1281935E+04  0.7818609E-02  0.9044015E-01
        1   -1    0    0  501    0  0.00000000000E+00  0.00000000000E+00  0.48698068400E+03  0.48698068403E+03  0.50400001928E-02 0. -1.
       -1   -1    0    0    0  501  0.00000000000E+00  0.00000000000E+00 -0.84364604838E+03  0.84364604840E+03  0.50400001928E-02 0.  1.
    10030    2    1    2    0    0  0.00000000000E+00  0.00000000000E+00 -0.35666536438E+03  0.13306267324E+04  0.12819349901E+04 0.  0.
        2    1    3    3  502    0 -0.10291451258E+03  0.20056050419E+03 -0.80114273982E+03  0.83225332821E+03  0.25500000920E-02 0.  1.
       -2    1    3    3    0  502  0.10291451258E+03 -0.20056050419E+03  0.44447737544E+03  0.49837340421E+03  0.25500000920E-02 0. -1.
</event>
<event>
 5   0  0.1225690E-03  0.1406231E+04  0.7818609E-02  0.8949321E-01
        1   -1    0    0  501    0  0.00000000000E+00  0.00000000000E+00  0.13967600380E+04  0.13967600380E+04  0.50400001928E-02 0. -1.
       -1   -1    0    0    0  501  0.00000000000E+00  0.00000000000E+00 -0.35394147016E+03  0.35394147019E+03  0.50400001928E-02 0.  1.
    10030    2    1    2    0    0  0.00000000000E+00  0.00000000000E+00  0.10428185678E+04  0.17507015082E+04  0.14062308507E+04 0.  0.
        4    1    3    3  502    0  0.61389619593E+02  0.42346326147E+03 -0.17318467540E+03  0.46161061936E+03  0.12699999809E+01 0.  1.
       -4    1    3    3    0  502 -0.61389619593E+02 -0.42346326147E+03  0.12160032432E+04  0.12890908888E+04  0.12699999809E+01 0. -1.
</event>
<event>
 5   0  0.1225690E-03  0.1393141E+04  0.7818609E-02  0.8958799E-01
       -1   -1    0    0    0  501  0.00000000000E+00  0.00000000000E+00  0.32670976530E+03  0.32670976534E+03  0.50400001928E-02 0. -1.
        1   -1    0    0  501    0  0.00000000000E+00  0.00000000000E+00 -0.14851412166E+04  0.14851412166E+04  0.50400001928E-02 0.  1.
    10030    2    1    2    0    0  0.00000000000E+00  0.00000000000E+00 -0.11584314513E+04  0.18118509819E+04  0.13931405361E+04 0.  0.
        4    1    3    3  502    0  0.44222552959E+03  0.53159956372E+03 -0.47003901659E+03  0.83612188417E+03  0.12699999809E+01 0.  1.
       -4    1    3    3    0  502 -0.44222552959E+03 -0.53159956372E+03 -0.68839243467E+03  0.97572909774E+03  0.12699999809E+01 0. -1.
</event>
<event>
 5   0  0.1210275E-03  0.1434281E+04  0.7818609E-02  0.8929371E-01
        1   -1    0    0  501    0  0.00000000000E+00  0.00000000000E+00  0.10655719540E+04  0.10655719540E+04  0.50400001928E-02 0. -1.
       -1   -1    0    0    0  501  0.00000000000E+00  0.00000000000E+00 -0.48264277351E+03  0.48264277354E+03  0.50400001928E-02 0.  1.
    10030    2    1    2    0    0  0.00000000000E+00  0.00000000000E+00  0.58292918050E+03  0.15482147276E+04  0.14342811486E+04 0.  0.
        1    1    3    3  502    0  0.54560422248E+03  0.22093429209E+03 -0.15070206693E+03  0.60762409598E+03  0.50400001928E-02 0.  1.
       -1    1    3    3    0  502 -0.54560422248E+03 -0.22093429209E+03  0.73363124743E+03  0.94059063159E+03  0.50400001928E-02 0. -1.
</event>
<event>
 5   0  0.2190704E-03  0.1413330E+04  0.7818609E-02  0.8944225E-01
       -2   -1    0    0    0  501  0.00000000000E+00  0.00000000000E+00  0.19873570647E+03  0.19873570649E+03  0.25500000920E-02 0. -1.
        2   -1    0    0  501    0  0.00000000000E+00  0.00000000000E+00 -0.25127629335E+04  0.25127629335E+04  0.25500000920E-02 0.  1.
    10030    2    1    2    0    0  0.00000000000E+00  0.00000000000E+00 -0.23140272271E+04  0.27114986400E+04  0.14133304169E+04 0.  0.
        5    1    3    3  502    0  0.21243284283E+03 -0.99954841890E+02  0.12169633459E+03  0.26448208064E+03  0.46999998093E+01 0. -1.
       -5    1    3    3    0  502 -0.21243284283E+03  0.99954841890E+02 -0.24357235617E+04  0.24470165594E+04  0.46999998093E+01 0.  1.
</event>
<event>
 5   0  0.2172901E-03  0.1386578E+04  0.7818609E-02  0.8963591E-01
        2   -1    0    0  501    0  0.00000000000E+00  0.00000000000E+00  0.11117425448E+04  0.11117425448E+04  0.25500000920E-02 0.  1.
       -2   -1    0    0    0  501  0.00000000000E+00  0.00000000000E+00 -0.43233925911E+03  0.43233925912E+03  0.25500000920E-02 0. -1.
    10030    2    1    2    0    0  0.00000000000E+00  0.00000000000E+00  0.67940328568E+03  0.15440818039E+04  0.13865784480E+04 0.  0.
        2    1    3    3  502    0 -0.24874170105E+03 -0.48756194014E+03  0.81354866919E+03  0.98053583130E+03  0.25500000920E-02 0.  1.
       -2    1    3    3    0  502  0.24874170105E+03  0.48756194014E+03 -0.13414538351E+03  0.56354597261E+03  0.25500000920E-02 0. -1.
</event>
<event>
 5   0  0.1238683E-03  0.1393105E+04  0.7818609E-02  0.8958825E-01
        1   -1    0    0  501    0  0.00000000000E+00  0.00000000000E+00  0.35832179469E+03  0.35832179473E+03  0.50400001928E-02 0. -1.
       -1   -1    0    0    0  501  0.00000000000E+00  0.00000000000E+00 -0.13540489404E+04  0.13540489404E+04  0.50400001928E-02 0.  1.
    10030    2    1    2    0    0  0.00000000000E+00  0.00000000000E+00 -0.99572714574E+03  0.17123707352E+04  0.13931048008E+04 0.  0.
        2    1    3    3  502    0 -0.11471388756E+03 -0.63749543038E+03 -0.18297965862E+03  0.67308339396E+03  0.25500000920E-02 0. -1.
       -2    1    3    3    0  502  0.11471388756E+03  0.63749543038E+03 -0.81274748712E+03  0.10392873412E+04  0.25500000920E-02 0.  1.
</event>
<event>
 5   0  0.1210275E-03  0.1379093E+04  0.7818609E-02  0.8969093E-01
       -1   -1    0    0    0  501  0.00000000000E+00  0.00000000000E+00  0.47023314240E+03  0.47023314243E+03  0.50400001928E-02 0. -1.
        1   -1    0    0  501    0  0.00000000000E+00  0.00000000000E+00 -0.10111453459E+04  0.10111453459E+04  0.50400001928E-02 0.  1.
    10030    2    1    2    0    0  0.00000000000E+00  0.00000000000E+00 -0.54091220347E+03  0.14813784883E+04  0.13790925327E+04 0.  0.
        1    1    3    3  502    0  0.22907441280E+03  0.27894858175E+03 -0.90155820266E+03  0.97113057344E+03  0.50400001928E-02 0.  1.
       -1    1    3    3    0  502 -0.22907441280E+03 -0.27894858175E+03  0.36064599919E+03  0.51024791486E+03  0.50400001928E-02 0. -1.
</event>
<event>
 5   0  0.1175374E-03  0.1384822E+04  0.7818609E-02  0.8964879E-01
        1   -1    0    0  501    0  0.00000000000E+00  0.00000000000E+00  0.22656536916E+04  0.22656536916E+04  0.50400001928E-02 0. -1.
       -1   -1    0    0    0  501  0.00000000000E+00  0.00000000000E+00 -0.21160927083E+03  0.21160927089E+03  0.50400001928E-02 0.  1.
    10030    2    1    2    0    0  0.00000000000E+00  0.00000000000E+00  0.20540444208E+04  0.24772629625E+04  0.13848224806E+04 0.  0.
        3    1    3    3  502    0  0.57288961928E+02  0.53071929287E+03  0.18159273215E+04  0.18927591078E+04  0.10100000352E+00 0. -1.
       -3    1    3    3    0  502 -0.57288961928E+02 -0.53071929287E+03  0.23811709927E+03  0.58450385469E+03  0.10100000352E+00 0.  1.
</event>
<event>
 5   0  0.1210275E-03  0.1277361E+04  0.7818609E-02  0.9047713E-01
        1   -1    0    0  501    0  0.00000000000E+00  0.00000000000E+00  0.90361418333E+03  0.90361418335E+03  0.50400001928E-02 0.  1.
       -1   -1    0    0    0  501  0.00000000000E+00  0.00000000000E+00 -0.45142393045E+03  0.45142393048E+03  0.50400001928E-02 0. -1.
    10030    2    1    2    0    0  0.00000000000E+00  0.00000000000E+00  0.45219025288E+03  0.13550381138E+04  0.12773614465E+04 0.  0.
        1    1    3    3  502    0 -0.98308788975E+02 -0.36888668002E+03  0.76925801158E+03  0.85877813729E+03  0.50400001928E-02 0.  1.
       -1    1    3    3    0  502  0.98308788975E+02  0.36888668002E+03 -0.31706775870E+03  0.49625997654E+03  0.50400001928E-02 0. -1.
</event>
<event>
 5   0  0.1225690E-03  0.1467234E+04  0.7818609E-02  0.8906539E-01
       -1   -1    0    0    0  501  0.00000000000E+00  0.00000000000E+00  0.44276485709E+03  0.44276485712E+03  0.50400001928E-02 0. -1.
        1   -1    0    0  501    0  0.00000000000E+00  0.00000000000E+00 -0.12155294988E+04  0.12155294988E+04  0.50400001928E-02 0.  1.
    10030    2    1    2    0    0  0.00000000000E+00  0.00000000000E+00 -0.77276464172E+03  0.16582943559E+04  0.14672337849E+04 0.  0.
        4    1    3    3  502    0  0.68443563399E+03  0.37196981115E+02 -0.68187847302E+03  0.96684829077E+03  0.12699999809E+01 0.  1.
       -4    1    3    3    0  502 -0.68443563399E+03 -0.37196981115E+02 -0.90886168693E+02  0.69144606517E+03  0.12699999809E+01 0. -1.
</event>
<event>
 5   0  0.1225690E-03  0.1412097E+04  0.7818609E-02  0.8945109E-01
       -1   -1    0    0    0  501  0.00000000000E+00  0.00000000000E+00  0.35499649779E+03  0.35499649782E+03  0.50400001928E-02 0.  1.
        1   -1    0    0  501    0  0.00000000000E+00  0.00000000000E+00 -0.14042513198E+04  0.14042513198E+04  0.50400001928E-02 0. -1.
    10030    2    1    2    0    0  0.00000000000E+00  0.00000000000E+00 -0.10492548220E+04  0.17592478176E+04  0.14120967397E+04 0.  0.
        4    1    3    3  502    0 -0.34318463113E+03  0.22094331602E+03 -0.12423777805E+04  0.13077063135E+04  0.12699999809E+01 0. -1.
       -4    1    3    3    0  502  0.34318463113E+03 -0.22094331602E+03  0.19312295852E+03  0.45154150412E+03  0.12699999809E+01 0.  1.
</event>
<event>
 5   0  0.1175374E-03  0.1408160E+04  0.7818609E-02  0.8947933E-01
        1   -1    0    0  501    0  0.00000000000E+00  0.00000000000E+00  0.97999506118E+03  0.97999506119E+03  0.50400001928E-02 0. -1.
       -1   -1    0    0    0  501  0.00000000000E+00  0.00000000000E+00 -0.50584820339E+03  0.50584820341E+03  0.50400001928E-02 0.  1.
    10030    2    1    2    0    0  0.00000000000E+00  0.00000000000E+00  0.47414685779E+03  0.14858432646E+04  0.14081601344E+04 0.  0.
        3    1    3    3  502    0  0.60354522811E+03 -0.33615323158E+03  0.38044757214E+03  0.78867369857E+03  0.10100000352E+00 0. -1.
       -3    1    3    3    0  502 -0.60354522811E+03  0.33615323158E+03  0.93699285653E+02  0.69716956603E+03  0.10100000352E+00 0.  1.
</event>
<event>
 5   0  0.2172901E-03  0.1394951E+04  0.7818609E-02  0.8957481E-01
       -2   -1    0    0    0  501  0.00000000000E+00  0.00000000000E+00  0.88836863092E+03  0.88836863093E+03  0.25500000920E-02 0. -1.
        2   -1    0    0  501    0  0.00000000000E+00  0.00000000000E+00 -0.54760176241E+03  0.54760176241E+03  0.25500000920E-02 0.  1.
    10030    2    1    2    0    0  0.00000000000E+00  0.00000000000E+00  0.34076686851E+03  0.14359703933E+04  0.13949512220E+04 0.  0.
        2    1    3    3  502    0 -0.58964221373E+03 -0.24835774094E+03 -0.11547398987E+03  0.65014902141E+03  0.25500000920E-02 0.  1.
       -2    1    3    3    0  502  0.58964221373E+03  0.24835774094E+03  0.45624085839E+03  0.78582137192E+03  0.25500000920E-02 0. -1.
</event>
<event>
 5   0  0.1199720E-03  0.1380458E+04  0.7818609E-02  0.8968087E-01
        1   -1    0    0  501    0  0.00000000000E+00  0.00000000000E+00  0.40139367247E+03  0.40139367250E+03  0.50400001928E-02 0. -1.
       -1   -1    0    0    0  501  0.00000000000E+00  0.00000000000E+00 -0.11869053379E+04  0.11869053379E+04  0.50400001928E-02 0.  1.
    10030    2    1    2    0    0  0.00000000000E+00  0.00000000000E+00 -0.78551166541E+03  0.15882990104E+04  0.13804583188E+04 0.  0.
        5    1    3    3  502    0 -0.10703295577E+03  0.18821856831E+03  0.36128797416E+03  0.42122840995E+03  0.46999998093E+01 0. -1.
       -5    1    3    3    0  502  0.10703295577E+03 -0.18821856831E+03 -0.11467996396E+04  0.11670706004E+04  0.46999998093E+01 0.  1.
</event>
<event>
 5   0  0.2083966E-03  0.1420950E+04  0.7818609E-02  0.8938792E-01
        2   -1    0    0  501    0  0.00000000000E+00  0.00000000000E+00  0.61566492973E+03  0.61566492974E+03  0.25500000920E-02 0. -1.
       -2   -1    0    0    0  501  0.00000000000E+00  0.00000000000E+00 -0.81988599618E+03  0.81988599618E+03  0.25500000920E-02 0.  1.
    10030    2    1    2    0    0  0.00000000000E+00  0.00000000000E+00 -0.20422106645E+03  0.14355509259E+04  0.14209504625E+04 0.  0.
        1    1    3    3  502    0  0.26814523934E+03  0.22989626708E+03  0.52068200698E+03  0.62917717331E+03  0.50400001928E-02 0. -1.
       -1    1    3    3    0  502 -0.26814523934E+03 -0.22989626708E+03 -0.72490307343E+03  0.80637375261E+03  0.50400001928E-02 0.  1.
</event>
<event>
 5   0  0.1175374E-03  0.1392363E+04  0.7818609E-02  0.8959365E-01
       -1   -1    0    0    0  501  0.00000000000E+00  0.00000000000E+00  0.13866145612E+04  0.13866145612E+04  0.50400001928E-02 0.  1.
        1   -1    0    0  501    0  0.00000000000E+00  0.00000000000E+00 -0.34953362107E+03  0.34953362110E+03  0.50400001928E-02 0. -1.
    10030    2    1    2    0    0  0.00000000000E+00  0.00000000000E+00  0.10370809401E+04  0.17361481823E+04  0.13923626089E+04 0.  0.
        3    1    3    3  502    0 -0.19027206263E+03 -0.63944959356E+03  0.76657539800E+03  0.10162367301E+04  0.10100000352E+00 0.  1.
       -3    1    3    3    0  502  0.19027206263E+03  0.63944959356E+03  0.27050554210E+03  0.71991145222E+03  0.10100000352E+00 0. -1.
</event>
<event>
 5   0  0.2083966E-03  0.1404622E+04  0.7818609E-02  0.8950480E-01
        2   -1    0    0  501    0  0.00000000000E+00  0.00000000000E+00  0.12649444575E+04  0.12649444575E+04  0.25500000920E-02 0.  1.
       -2   -1    0    0    0  501  0.00000000000E+00  0.00000000000E+00 -0.38993063709E+03  0.38993063710E+03  0.25500000920E-02 0. -1.
    10030    2    1    2    0    0  0.00000000000E+00  0.00000000000E+00  0.87501382043E+03  0.16548750946E+04  0.14046217971E+04 0.  0.
        1    1    3    3  502    0 -0.58460166766E+03 -0.34641004090E+03  0.64654913603E+03  0.93796844915E+03  0.50400001928E-02 0. -1.
       -1    1    3    3    0  502  0.58460166766E+03  0.34641004090E+03  0.22846468440E+03  0.71690664546E+03  0.50400001928E-02 0.  1.
</event>
<event>
 5   0  0.1210275E-03  0.1398489E+04  0.7818609E-02  0.8954913E-01
        1   -1    0    0  501    0  0.00000000000E+00  0.00000000000E+00  0.21091727749E+04  0.21091727749E+04  0.50400001928E-02 0. -1.
       -1   -1    0    0    0  501  0.00000000000E+00  0.00000000000E+00 -0.23181736984E+03  0.23181736990E+03  0.50400001928E-02 0.  1.
    10030    2    1    2    0    0  0.00000000000E+00  0.00000000000E+00  0.18773554051E+04  0.23409901448E+04  0.13984890208E+04 0.  0.
        1    1    3    3  502    0  0.55476745566E+03  0.36104828465E+03  0.56131563233E+03  0.86786982483E+03  0.50400001928E-02 0. -1.
       -1    1    3    3    0  502 -0.55476745566E+03 -0.36104828465E+03  0.13160397728E+04  0.14731203200E+04  0.50400001928E-02 0.  1.
</event>
<event>
 5   0  0.2190704E-03  0.1386948E+04  0.7818609E-02  0.8963321E-01
       -2   -1    0    0    0  501  0.00000000000E+00  0.00000000000E+00  0.86718227428E+03  0.86718227428E+03  0.25500000920E-02 0.  1.
        2   -1    0    0  501    0  0.00000000000E+00  0.00000000000E+00 -0.55456197040E+03  0.55456197040E+03  0.25500000920E-02 0. -1.
    10030    2    1    2    0    0  0.00000000000E+00  0.00000000000E+00  0.31262030388E+03  0.14217442447E+04  0.13869481760E+04 0.  0.
        5    1    3    3  502    0 -0.39727612991E+03  0.17688761578E+03  0.71001596572E+03  0.83262375272E+03  0.46999998093E+01 0.  1.
       -5    1    3    3    0  502  0.39727612991E+03 -0.17688761578E+03 -0.39739566184E+03  0.58912049197E+03  0.46999998093E+01 0. -1.
</event>
<event>
 5   0  0.1238683E-03  0.1487605E+04  0.7818609E-02  0.8892738E-01
       -1   -1    0    0    0  501  0.00000000000E+00  0.00000000000E+00  0.10875636476E+04  0.10875636476E+04  0.50400001928E-02 0.  1.
        1   -1    0    0  501    0  0.00000000000E+00  0.00000000000E+00 -0.50869838661E+03  0.50869838663E+03  0.50400001928E-02 0. -1.
    10030    2    1    2    0    0  0.00000000000E+00  0.00000000000E+00  0.57886526103E+03  0.15962620343E+04  0.14876046154E+04 0.  0.
        2    1    3    3  502    0  0.62594130321E+03 -0.75005543411E+02  0.71299683003E+03  0.95173148852E+03  0.25500000920E-02 0.  1.
       -2    1    3    3    0  502 -0.62594130321E+03  0.75005543411E+02 -0.13413156900E+03  0.64453054576E+03  0.25500000920E-02 0. -1.
</event>
<event>
 5   0  0.2236184E-03  0.1204893E+04  0.7818609E-02  0.9108585E-01
        2   -1    0    0  501    0  0.00000000000E+00  0.00000000000E+00  0.14915240957E+04  0.14915240957E+04  0.25500000920E-02 0. -1.
       -2   -1    0    0    0  501  0.00000000000E+00  0.00000000000E+00 -0.24333610067E+03  0.24333610069E+03  0.25500000920E-02 0.  1.
    10030    2    1    2    0    0  0.00000000000E+00  0.00000000000E+00  0.12481879951E+04  0.17348601964E+04  0.12048927878E+04 0.  0.
        3    1    3    3  502    0 -0.41964615976E+03 -0.34228208488E+03  0.10041744342E+04  0.11408883510E+04  0.10100000352E+00 0. -1.
       -3    1    3    3    0  502  0.41964615976E+03  0.34228208488E+03  0.24401356086E+03  0.59397184539E+03  0.10100000352E+00 0.  1.
</event>
<event>
 5   0  0.2172901E-03  0.1397892E+04  0.7818609E-02  0.8955346E-01
       -2   -1    0    0    0  501  0.00000000000E+00  0.00000000000E+00  0.48729385248E+03  0.48729385249E+03  0.25500000920E-02 0. -1.
        2   -1    0    0  501    0  0.00000000000E+00  0.00000000000E+00 -0.10025274928E+04  0.10025274928E+04  0.25500000920E-02 0.  1.
    10030    2    1    2    0    0  0.00000000000E+00  0.00000000000E+00 -0.51523364033E+03  0.14898213453E+04  0.13978919618E+04 0.  0.
        2    1    3    3  502    0  0.49812593554E+03  0.20627579227E+03  0.21643365746E+03  0.58096701991E+03  0.25500000920E-02 0. -1.
       -2    1    3    3    0  502 -0.49812593554E+03 -0.20627579227E+03 -0.73166729779E+03  0.90885432540E+03  0.25500000920E-02 0.  1.
</event>
<event>
 5   0  0.8293000E-04  0.1404671E+04  0.7818609E-02  0.8950444E-01
        4   -1    0    0  501    0  0.00000000000E+00  0.00000000000E+00  0.56732589825E+03  0.56732731974E+03  0.12699999809E+01 0. -1.
       -4   -1    0    0    0  501  0.00000000000E+00  0.00000000000E+00 -0.86947113628E+03  0.86947206379E+03  0.12699999809E+01 0.  1.
    10030    2    1    2    0    0  0.00000000000E+00  0.00000000000E+00 -0.30214523802E+03  0.14367993835E+04  0.14046710375E+04 0.  0.
        3    1    3    3  502    0 -0.27903460129E+03 -0.13926325346E+03 -0.79476800822E+03  0.85376270682E+03  0.10100000352E+00 0.  1.
       -3    1    3    3    0  502  0.27903460129E+03  0.13926325346E+03  0.49262277019E+03  0.58303667671E+03  0.10100000352E+00 0. -1.
</event>
<event>
 5   0  0.2190704E-03  0.1369547E+04  0.7818609E-02  0.8976162E-01
        2   -1    0    0  501    0  0.00000000000E+00  0.00000000000E+00  0.10109819002E+04  0.10109819002E+04  0.25500000920E-02 0. -1.
       -2   -1    0    0    0  501  0.00000000000E+00  0.00000000000E+00 -0.46382132016E+03  0.46382132017E+03  0.25500000920E-02 0.  1.
    10030    2    1    2    0    0  0.00000000000E+00  0.00000000000E+00  0.54716058006E+03  0.14748032204E+04  0.13695473115E+04 0.  0.
        5    1    3    3  502    0  0.14520638924E+03  0.53012018544E+03  0.71335449839E+03  0.90056040156E+03  0.46999998093E+01 0.  1.
       -5    1    3    3    0  502 -0.14520638924E+03 -0.53012018544E+03 -0.16619391832E+03  0.57424281883E+03  0.46999998093E+01 0. -1.
</event>
<event>
 5   0  0.2190704E-03  0.1514835E+04  0.7818609E-02  0.8874647E-01
        2   -1    0    0  501    0  0.00000000000E+00  0.00000000000E+00  0.15460423066E+04  0.15460423067E+04  0.25500000920E-02 0. -1.
       -2   -1    0    0    0  501  0.00000000000E+00  0.00000000000E+00 -0.37106439443E+03  0.37106439443E+03  0.25500000920E-02 0.  1.
    10030    2    1    2    0    0  0.00000000000E+00  0.00000000000E+00  0.11749779122E+04  0.19171067011E+04  0.15148349775E+04 0.  0.
        5    1    3    3  502    0 -0.30500839738E+03 -0.35072578973E+03 -0.16933024109E+03  0.49470549077E+03  0.46999998093E+01 0.  1.
       -5    1    3    3    0  502  0.30500839738E+03  0.35072578973E+03  0.13443081533E+04  0.14224012103E+04  0.46999998093E+01 0. -1.
</event>
<event>
 5   0  0.2236184E-03  0.1354552E+04  0.7818609E-02  0.8987390E-01
        2   -1    0    0  501    0  0.00000000000E+00  0.00000000000E+00  0.70920502195E+03  0.70920502195E+03  0.25500000920E-02 0. -1.
       -2   -1    0    0    0  501  0.00000000000E+00  0.00000000000E+00 -0.64678408042E+03  0.64678408042E+03  0.25500000920E-02 0.  1.
    10030    2    1    2    0    0  0.00000000000E+00  0.00000000000E+00  0.62420941531E+02  0.13559891024E+04  0.13545516128E+04 0.  0.
        3    1    3    3  502    0 -0.13115434495E+03 -0.49038684879E+03  0.48004080709E+03  0.69865578817E+03  0.10100000352E+00 0. -1.
       -3    1    3    3    0  502  0.13115434495E+03  0.49038684879E+03 -0.41761986555E+03  0.65733331421E+03  0.10100000352E+00 0.  1.
</event>
<event>
 5   0  0.2083966E-03  0.1379883E+04  0.7818609E-02  0.8968510E-01
        2   -1    0    0  501    0  0.00000000000E+00  0.00000000000E+00  0.93699752217E+03  0.93699752217E+03  0.25500000920E-02 0.  1.
       -2   -1    0    0    0  501  0.00000000000E+00  0.00000000000E+00 -0.50802629230E+03  0.50802629231E+03  0.25500000920E-02 0. -1.
    10030    2    1    2    0    0  0.00000000000E+00  0.00000000000E+00  0.42897122987E+03  0.14450238145E+04  0.13798831503E+04 0.  0.
        1    1    3    3  502    0  0.41324302627E+03 -0.12954398342E+03  0.77693243475E+03  0.88948043856E+03  0.50400001928E-02 0.  1.
       -1    1    3    3    0  502 -0.41324302627E+03  0.12954398342E+03 -0.34796120488E+03  0.55554337591E+03  0.50400001928E-02 0. -1.
</event>
<event>
 5   0  0.1199720E-03  0.1367893E+04  0.7818609E-02  0.8977393E-01
       -1   -1    0    0    0  501  0.00000000000E+00  0.00000000000E+00  0.44278579014E+03  0.44278579017E+03  0.50400001928E-02 0. -1.
        1   -1    0    0  501    0  0.00000000000E+00  0.00000000000E+00 -0.10564543817E+04  0.10564543817E+04  0.50400001928E-02 0.  1.
    10030    2    1    2    0    0  0.00000000000E+00  0.00000000000E+00 -0.61366859160E+03  0.14992401719E+04  0.13678932534E+04 0.  0.
        5    1    3    3  502    0  0.56923389539E+03  0.12409923114E+03  0.85800028572E+02  0.58890710790E+03  0.46999998093E+01 0. -1.
       -5    1    3    3    0  502 -0.56923389539E+03 -0.12409923114E+03 -0.69946862017E+03  0.91033306401E+03  0.46999998093E+01 0.  1.
</event>
<event>
 5   0  0.1210275E-03  0.1392758E+04  0.7818609E-02  0.8959077E-01
        1   -1    0    0  501    0  0.00000000000E+00  0.00000000000E+00  0.17849560900E+04  0.17849560900E+04  0.50400001928E-02 0. -1.
       -1   -1    0    0    0  501  0.00000000000E+00  0.00000000000E+00 -0.27168384078E+03  0.27168384083E+03  0.50400001928E-02 0.  1.
    10030    2    1    2    0    0  0.00000000000E+00  0.00000000000E+00  0.15132722492E+04  0.20566399308E+04  0.13927580209E+04 0.  0.
        1    1    3    3  502    0 -0.17727358616E+03  0.30912365426E+03  0.16401229313E+04  0.16783880921E+04  0.50400001928E-02 0. -1.
       -1    1    3    3    0  502  0.17727358616E+03 -0.30912365426E+03 -0.12685068203E+03  0.37825183876E+03  0.50400001928E-02 0.  1.
</event>
<event>
 5   0  0.8293000E-04  0.1392734E+04  0.7818609E-02  0.8959095E-01
        3   -1    0    0  501    0  0.00000000000E+00  0.00000000000E+00  0.88368721714E+03  0.88368722291E+03  0.10100000352E+00 0. -1.
       -3   -1    0    0    0  501  0.00000000000E+00  0.00000000000E+00 -0.54875372308E+03  0.54875373237E+03  0.10100000352E+00 0.  1.
    10030    2    1    2    0    0  0.00000000000E+00  0.00000000000E+00  0.33493349406E+03  0.14324409553E+04  0.13927335154E+04 0.  0.
        3    1    3    3  502    0 -0.26939216820E+03  0.32278935841E+03 -0.40348304781E+03  0.58272093687E+03  0.10100000352E+00 0.  1.
       -3    1    3    3    0  502  0.26939216820E+03 -0.32278935841E+03  0.73841654187E+03  0.84972001842E+03  0.10100000352E+00 0. -1.
</event>
<event>
 5   0  0.2172901E-03  0.1403243E+04  0.7818609E-02  0.8951475E-01
        2   -1    0    0  501    0  0.00000000000E+00  0.00000000000E+00  0.15554960210E+04  0.15554960210E+04  0.25500000920E-02 0.  1.
       -2   -1    0    0    0  501  0.00000000000E+00  0.00000000000E+00 -0.31647308869E+03  0.31647308870E+03  0.25500000920E-02 0. -1.
    10030    2    1    2    0    0  0.00000000000E+00  0.00000000000E+00  0.12390229323E+04  0.18719691097E+04  0.14032428589E+04 0.  0.
        2    1    3    3  502    0 -0.56018898131E+03 -0.27701468846E+03  0.10449894770E+04  0.12176008539E+04  0.25500000920E-02 0.  1.
       -2    1    3    3    0  502  0.56018898131E+03  0.27701468846E+03  0.19403345531E+03  0.65436825579E+03  0.25500000920E-02 0. -1.
</event>
<event>
 5   0  0.1238683E-03  0.1410704E+04  0.7818609E-02  0.8946107E-01
       -1   -1    0    0    0  501  0.00000000000E+00  0.00000000000E+00  0.52033479255E+03  0.52033479258E+03  0.50400001928E-02 0.  1.
        1   -1    0    0  501    0  0.00000000000E+00  0.00000000000E+00 -0.95615661714E+03  0.95615661715E+03  0.50400001928E-02 0. -1.
    10030    2    1    2    0    0  0.00000000000E+00  0.00000000000E+00 -0.43582182459E+03  0.14764914097E+04  0.14107041576E+04 0.  0.
        2    1    3    3  502    0 -0.51064749850E+03 -0.16888743644E+03  0.25970048239E+03  0.59726725548E+03  0.25500000920E-02 0.  1.
       -2    1    3    3    0  502  0.51064749850E+03  0.16888743644E+03 -0.69552230698E+03  0.87922415425E+03  0.25500000920E-02 0. -1.
</event>
<event>
 5   0  0.2083966E-03  0.1384660E+04  0.7818609E-02  0.8964998E-01
        2   -1    0    0  501    0  0.00000000000E+00  0.00000000000E+00  0.10259699547E+04  0.10259699548E+04  0.25500000920E-02 0.  1.
       -2   -1    0    0    0  501  0.00000000000E+00  0.00000000000E+00 -0.46718780196E+03  0.46718780197E+03  0.25500000920E-02 0. -1.
    10030    2    1    2    0    0  0.00000000000E+00  0.00000000000E+00  0.55878215279E+03  0.14931577567E+04  0.13846597388E+04 0.  0.
        1    1    3    3  502    0 -0.17530002613E+03 -0.23931331042E+03 -0.39518118608E+03  0.49413472814E+03  0.50400001928E-02 0. -1.
       -1    1    3    3    0  502  0.17530002613E+03  0.23931331042E+03  0.95396333886E+03  0.99902302858E+03  0.50400001928E-02 0.  1.
</event>
<event>
 5   0  0.2190704E-03  0.1001807E+04  0.7818609E-02  0.9306565E-01
        2   -1    0    0  501    0  0.00000000000E+00  0.00000000000E+00  0.68877720520E+03  0.68877720521E+03  0.25500000920E-02 0.  1.
       -2   -1    0    0    0  501  0.00000000000E+00  0.00000000000E+00 -0.36427516254E+03  0.36427516255E+03  0.25500000920E-02 0. -1.
    10030    2    1    2    0    0  0.00000000000E+00  0.00000000000E+00  0.32450204267E+03  0.10530523678E+04  0.10018072237E+04 0.  0.
        5    1    3    3  502    0  0.29539333114E+03 -0.15132101829E+03  0.55657630944E+03  0.64803900260E+03  0.46999998093E+01 0.  1.
       -5    1    3    3    0  502 -0.29539333114E+03  0.15132101829E+03 -0.23207426678E+03  0.40501336516E+03  0.46999998093E+01 0. -1.
</event>
<event>
 5   0  0.8293000E-04  0.1386281E+04  0.7818609E-02  0.8963810E-01
       -3   -1    0    0    0  501  0.00000000000E+00  0.00000000000E+00  0.32941791584E+03  0.32941793132E+03  0.10100000352E+00 0. -1.
        3   -1    0    0  501    0  0.00000000000E+00  0.00000000000E+00 -0.14584620022E+04  0.14584620057E+04  0.10100000352E+00 0.  1.
    10030    2    1    2    0    0  0.00000000000E+00  0.00000000000E+00 -0.11290440864E+04  0.17878799370E+04  0.13862806787E+04 0.  0.
        3    1    3    3  502    0  0.35332978999E+02 -0.15390678670E+03  0.30591044100E+03  0.34426287414E+03  0.10100000352E+00 0. -1.
       -3    1    3    3    0  502 -0.35332978999E+02  0.15390678670E+03 -0.14349545274E+04  0.14436170629E+04  0.10100000352E+00 0.  1.
</event>
<event>
 5   0  0.1175374E-03  0.1357839E+04  0.7818609E-02  0.8984915E-01
       -1   -1    0    0    0  501  0.00000000000E+00  0.00000000000E+00  0.33341359921E+03  0.33341359925E+03  0.50400001928E-02 0.  1.
        1   -1    0    0  501    0  0.00000000000E+00  0.00000000000E+00 -0.13824626322E+04  0.13824626322E+04  0.50400001928E-02 0. -1.
    10030    2    1    2    0    0  0.00000000000E+00  0.00000000000E+00 -0.10490490330E+04  0.17158762315E+04  0.13578392276E+04 0.  0.
        3    1    3    3  502    0 -0.60758680547E+02 -0.56925052333E+03 -0.98571467345E+03  0.11398996461E+04  0.10100000352E+00 0. -1.
       -3    1    3    3    0  502  0.60758680547E+02  0.56925052333E+03 -0.63334359546E+02  0.57597658535E+03  0.10100000352E+00 0.  1.
</event>
<event>
 5   0  0.1199720E-03  0.1341925E+04  0.7818609E-02  0.8996964E-01
       -1   -1    0    0    0  501  0.00000000000E+00  0.00000000000E+00  0.10064256026E+04  0.10064256026E+04  0.50400001928E-02 0.  1.
        1   -1    0    0  501    0  0.00000000000E+00  0.00000000000E+00 -0.44731609689E+03  0.44731609692E+03  0.50400001928E-02 0. -1.
    10030    2    1    2    0    0  0.00000000000E+00  0.00000000000E+00  0.55910950569E+03  0.14537416995E+04  0.13419245469E+04 0.  0.
        5    1    3    3  502    0  0.62400285705E+03  0.87179751459E+02  0.52939801711E+03  0.82296064619E+03  0.46999998093E+01 0.  1.
       -5    1    3    3    0  502 -0.62400285705E+03 -0.87179751459E+02  0.29711488581E+02  0.63078105331E+03  0.46999998093E+01 0. -1.
</event>
<event>
 5   0  0.2083966E-03  0.1413025E+04  0.7818609E-02  0.8944444E-01
       -2   -1    0    0    0  501  0.00000000000E+00  0.00000000000E+00  0.23884094469E+03  0.23884094470E+03  0.25500000920E-02 0.  1.
        2   -1    0    0  501    0  0.00000000000E+00  0.00000000000E+00 -0.20899265022E+04  0.20899265022E+04  0.25500000920E-02 0. -1.
    10030    2    1    2    0    0  0.00000000000E+00  0.00000000000E+00 -0.18510855575E+04  0.23287674469E+04  0.14130251521E+04 0.  0.
        1    1    3    3  502    0 -0.40072001908E+03 -0.35823410463E+03 -0.16812370041E+04  0.17650682908E+04  0.50400001928E-02 0. -1.
       -1    1    3    3    0  502  0.40072001908E+03  0.35823410463E+03 -0.16984855341E+03  0.56369915605E+03  0.50400001928E-02 0.  1.
</event>
<event>
 5   0  0.2195980E-03  0.1376987E+04  0.7818609E-02  0.8970647E-01
       -2   -1    0    0    0  501  0.00000000000E+00  0.00000000000E+00  0.65031250425E+03  0.65031250426E+03  0.25500000920E-02 0. -1.
        2   -1    0    0  501    0  0.00000000000E+00  0.00000000000E+00 -0.72891565384E+03  0.72891565385E+03  0.25500000920E-02 0.  1.
    10030    2    1    2    0    0  0.00000000000E+00  0.00000000000E+00 -0.78603149592E+02  0.13792281581E+04  0.13769865130E+04 0.  0.
        4    1    3    3  502    0 -0.47093155434E+03  0.36219760952E+01  0.46374276327E+03  0.66094524052E+03  0.12699999809E+01 0. -1.
       -4    1    3    3    0  502  0.47093155434E+03 -0.36219760952E+01 -0.54234591287E+03  0.71828291758E+03  0.12699999809E+01 0.  1.
</event>
<event>
 5   0  0.8293000E-04  0.1400053E+04  0.7818609E-02  0.8953780E-01
        4   -1    0    0  501    0  0.00000000000E+00  0.00000000000E+00  0.44459130871E+03  0.44459312262E+03  0.12699999809E+01 0. -1.
       -4   -1    0    0    0  501  0.00000000000E+00  0.00000000000E+00 -0.11022151810E+04  0.11022159126E+04  0.12699999809E+01 0.  1.
    10030    2    1    2    0    0  0.00000000000E+00  0.00000000000E+00 -0.65762387225E+03  0.15468090352E+04  0.14000532255E+04 0.  0.
        4    1    3    3  502    0 -0.52103087853E+03  0.46422388615E+03 -0.26770968037E+03  0.74742697216E+03  0.12699999809E+01 0. -1.
       -4    1    3    3    0  502  0.52103087853E+03 -0.46422388615E+03 -0.38991419188E+03  0.79938206309E+03  0.12699999809E+01 0.  1.
</event>
<event>
 5   0  0.1225690E-03  0.1526880E+04  0.7818609E-02  0.8866772E-01
       -1   -1    0    0    0  501  0.00000000000E+00  0.00000000000E+00  0.68101510175E+03  0.68101510177E+03  0.50400001928E-02 0. -1.
        1   -1    0    0  501    0  0.00000000000E+00  0.00000000000E+00 -0.85584147767E+03  0.85584147768E+03  0.50400001928E-02 0.  1.
    10030    2    1    2    0    0  0.00000000000E+00  0.00000000000E+00 -0.17482637592E+03  0.15368565794E+04  0.15268804420E+04 0.  0.
        4    1    3    3  502    0  0.33185603108E+03 -0.43798293562E+03  0.44603245323E+03  0.70774574495E+03  0.12699999809E+01 0. -1.
       -4    1    3    3    0  502 -0.33185603108E+03  0.43798293562E+03 -0.62085882915E+03  0.82911083450E+03  0.12699999809E+01 0.  1.
</event>
<event>
 5   0  0.2236184E-03  0.1439572E+04  0.7818609E-02  0.8925662E-01
        2   -1    0    0  501    0  0.00000000000E+00  0.00000000000E+00  0.13665780885E+04  0.13665780885E+04  0.25500000920E-02 0.  1.
       -2   -1    0    0    0  501  0.00000000000E+00  0.00000000000E+00 -0.37911597323E+03  0.37911597324E+03  0.25500000920E-02 0. -1.
    10030    2    1    2    0    0  0.00000000000E+00  0.00000000000E+00  0.98746211530E+03  0.17456940618E+04  0.14395715780E+04 0.  0.
        3    1    3    3  502    0  0.68284036303E+02 -0.65256403138E+03  0.13484236788E+03  0.66983953231E+03  0.10100000352E+00 0. -1.
       -3    1    3    3    0  502 -0.68284036303E+02  0.65256403138E+03  0.85261974742E+03  0.10758545295E+04  0.10100000352E+00 0.  1.
</event>
<event>
 5   0  0.1210275E-03  0.1407254E+04  0.7818609E-02  0.8948585E-01
        1   -1    0    0  501    0  0.00000000000E+00  0.00000000000E+00  0.86166343103E+03  0.86166343105E+03  0.50400001928E-02 0.  1.
       -1   -1    0    0    0  501  0.00000000000E+00  0.00000000000E+00 -0.57457568128E+03  0.57457568130E+03  0.50400001928E-02 0. -1.
    10030    2    1    2    0    0  0.00000000000E+00  0.00000000000E+00  0.28708774975E+03  0.14362391123E+04  0.14072538548E+04 0.  0.
        1    1    3    3  502    0  0.64807235851E+03 -0.23721578337E+03  0.35257606990E+01  0.69013153874E+03  0.50400001928E-02 0. -1.
       -1    1    3    3    0  502 -0.64807235851E+03  0.23721578337E+03  0.28356198905E+03  0.74610757361E+03  0.50400001928E-02 0.  1.
</event>
<event>
 5   0  0.2236184E-03  0.1396232E+04  0.7818609E-02  0.8956551E-01
       -2   -1    0    0    0  501  0.00000000000E+00  0.00000000000E+00  0.38274599072E+03  0.38274599073E+03  0.25500000920E-02 0. -1.
        2   -1    0    0  501    0  0.00000000000E+00  0.00000000000E+00 -0.12733398935E+04  0.12733398935E+04  0.25500000920E-02 0.  1.
    10030    2    1    2    0    0  0.00000000000E+00  0.00000000000E+00 -0.89059390277E+03  0.16560858842E+04  0.13962316986E+04 0.  0.
        3    1    3    3  502    0 -0.37611306989E+03 -0.57756840759E+03 -0.31364705273E+03  0.75724552866E+03  0.10100000352E+00 0. -1.
       -3    1    3    3    0  502  0.37611306989E+03  0.57756840759E+03 -0.57694685004E+03  0.89884035555E+03  0.10100000352E+00 0.  1.
</event>
<event>
 5   0  0.1238683E-03  0.1405447E+04  0.7818609E-02  0.8949885E-01
       -1   -1    0    0    0  501  0.00000000000E+00  0.00000000000E+00  0.44320247366E+03  0.44320247369E+03  0.50400001928E-02 0. -1.
        1   -1    0    0  501    0  0.00000000000E+00  0.00000000000E+00 -0.11142090028E+04  0.11142090028E+04  0.50400001928E-02 0.  1.
    10030    2    1    2    0    0  0.00000000000E+00  0.00000000000E+00 -0.67100652917E+03  0.15574114765E+04  0.14054468133E+04 0.  0.
        2    1    3    3  502    0  0.43633902105E+03  0.53948214648E+03 -0.45883648264E+03  0.83184352222E+03  0.25500000920E-02 0.  1.
       -2    1    3    3    0  502 -0.43633902105E+03 -0.53948214648E+03 -0.21217004654E+03  0.72556795430E+03  0.25500000920E-02 0. -1.
</event>
<event>
 5   0  0.2083966E-03  0.1390931E+04  0.7818609E-02  0.8960409E-01
        2   -1    0    0  501    0  0.00000000000E+00  0.00000000000E+00  0.78690188065E+03  0.78690188066E+03  0.25500000920E-02 0.  1.
       -2   -1    0    0    0  501  0.00000000000E+00  0.00000000000E+00 -0.61465393738E+03  0.61465393739E+03  0.25500000920E-02 0. -1.
    10030    2    1    2    0    0  0.00000000000E+00  0.00000000000E+00  0.17224794327E+03  0.14015558180E+04  0.13909311116E+04 0.  0.
        1    1    3    3  502    0  0.22933821645E+03  0.20725324324E+03  0.71387746722E+03  0.77792735045E+03  0.50400001928E-02 0.  1.
       -1    1    3    3    0  502 -0.22933821645E+03 -0.20725324324E+03 -0.54162952395E+03  0.62362846759E+03  0.50400001928E-02 0. -1.
</event>
<event>
 5   0  0.2172901E-03  0.1410573E+04  0.7818609E-02  0.8946201E-01
        2   -1    0    0  501    0  0.00000000000E+00  0.00000000000E+00  0.13877472325E+04  0.13877472325E+04  0.25500000920E-02 0.  1.
       -2   -1    0    0    0  501  0.00000000000E+00  0.00000000000E+00 -0.35844339457E+03  0.35844339458E+03  0.25500000920E-02 0. -1.
    10030    2    1    2    0    0  0.00000000000E+00  0.00000000000E+00  0.10293038380E+04  0.17461906271E+04  0.14105726906E+04 0.  0.
        2    1    3    3  502    0  0.33027206772E+02  0.35065833715E+03  0.12710837998E+04  0.13189791856E+04  0.25500000920E-02 0.  1.
       -2    1    3    3    0  502 -0.33027206772E+02 -0.35065833715E+03 -0.24177996187E+03  0.42721144152E+03  0.25500000920E-02 0. -1.
</event>
<event>
 5   0  0.8293000E-04  0.1364254E+04  0.7818609E-02  0.8980108E-01
       -3   -1    0    0    0  501  0.00000000000E+00  0.00000000000E+00  0.30092617673E+03  0.30092619368E+03  0.10100000352E+00 0. -1.
        3   -1    0    0  501    0  0.00000000000E+00  0.00000000000E+00 -0.15462161498E+04  0.15462161531E+04  0.10100000352E+00 0.  1.
    10030    2    1    2    0    0  0.00000000000E+00  0.00000000000E+00 -0.12452899730E+04  0.18471423467E+04  0.13642535439E+04 0.  0.
        2    1    3    3  502    0 -0.21539071858E+03 -0.89030938455E+01  0.25359146689E+03  0.33283788669E+03  0.25500000920E-02 0. -1.
       -2    1    3    3    0  502  0.21539071858E+03  0.89030938455E+01 -0.14988814399E+04  0.15143044601E+04  0.25500000920E-02 0.  1.
</event>
<event>
 5   0  0.1225690E-03  0.1402601E+04  0.7818609E-02  0.8951938E-01
       -1   -1    0    0    0  501  0.00000000000E+00  0.00000000000E+00  0.28189721403E+03  0.28189721408E+03  0.50400001928E-02 0. -1.
        1   -1    0    0  501    0  0.00000000000E+00  0.00000000000E+00 -0.17446875592E+04  0.17446875592E+04  0.50400001928E-02 0.  1.
    10030    2    1    2    0    0  0.00000000000E+00  0.00000000000E+00 -0.14627903452E+04  0.20265847733E+04  0.14026012439E+04 0.  0.
        4    1    3    3  502    0 -0.17994437294E+03  0.46407158989E+03 -0.14452260773E+04  0.15285360464E+04  0.12699999809E+01 0.  1.
       -4    1    3    3    0  502  0.17994437294E+03 -0.46407158989E+03 -0.17564267868E+02  0.49804872683E+03  0.12699999809E+01 0. -1.
</event>
<event>
 5   0  0.8293000E-04  0.1397105E+04  0.7818609E-02  0.8955916E-01
        3   -1    0    0  501    0  0.00000000000E+00  0.00000000000E+00  0.61188153411E+03  0.61188154244E+03  0.10100000352E+00 0. -1.
       -3   -1    0    0    0  501  0.00000000000E+00  0.00000000000E+00 -0.79750054282E+03  0.79750054921E+03  0.10100000352E+00 0.  1.
    10030    2    1    2    0    0  0.00000000000E+00  0.00000000000E+00 -0.18561900871E+03  0.14093820917E+04  0.13971053875E+04 0.  0.
        1    1    3    3  502    0 -0.77806326369E+02  0.11027387996E+03  0.59860484770E+03  0.61363011395E+03  0.50400001928E-02 0. -1.
       -1    1    3    3    0  502  0.77806326369E+02 -0.11027387996E+03 -0.78422385641E+03  0.79575197770E+03  0.50400001928E-02 0.  1.
</event>
<event>
 5   0  0.2195980E-03  0.1400416E+04  0.7818609E-02  0.8953518E-01
       -2   -1    0    0    0  501  0.00000000000E+00  0.00000000000E+00  0.55322668014E+03  0.55322668014E+03  0.25500000920E-02 0. -1.
        2   -1    0    0  501    0  0.00000000000E+00  0.00000000000E+00 -0.88623896640E+03  0.88623896640E+03  0.25500000920E-02 0.  1.
    10030    2    1    2    0    0  0.00000000000E+00  0.00000000000E+00 -0.33301228626E+03  0.14394656465E+04  0.14004157114E+04 0.  0.
        4    1    3    3  502    0 -0.47506698731E+03  0.51214544663E+03 -0.11712672258E+03  0.70830917188E+03  0.12699999809E+01 0.  1.
       -4    1    3    3    0  502  0.47506698731E+03 -0.51214544663E+03 -0.21588556368E+03  0.73115647466E+03  0.12699999809E+01 0. -1.
</event>
<event>
 5   0  0.2190704E-03  0.1184022E+04  0.7818609E-02  0.9126958E-01
       -2   -1    0    0    0  501  0.00000000000E+00  0.00000000000E+00  0.20459816559E+03  0.20459816561E+03  0.25500000920E-02 0. -1.
        2   -1    0    0  501    0  0.00000000000E+00  0.00000000000E+00 -0.17130020821E+04  0.17130020821E+04  0.25500000920E-02 0.  1.
    10030    2    1    2    0    0  0.00000000000E+00  0.00000000000E+00 -0.15084039165E+04  0.19176002477E+04  0.11840221006E+04 0.  0.
        5    1    3    3  502    0 -0.40997277168E+03  0.34186543402E+03 -0.11687135099E+04  0.12848591389E+04  0.46999998093E+01 0.  1.
       -5    1    3    3    0  502  0.40997277168E+03 -0.34186543402E+03 -0.33969040659E+03  0.63274110884E+03  0.46999998093E+01 0. -1.
</event>
<event>
 5   0  0.1210275E-03  0.1391469E+04  0.7818609E-02  0.8960017E-01
       -1   -1    0    0    0  501  0.00000000000E+00  0.00000000000E+00  0.59173325265E+03  0.59173325267E+03  0.50400001928E-02 0.  1.
        1   -1    0    0  501    0  0.00000000000E+00  0.00000000000E+00 -0.81801432316E+03  0.81801432317E+03  0.50400001928E-02 0. -1.
    10030    2    1    2    0    0  0.00000000000E+00  0.00000000000E+00 -0.22628107051E+03  0.14097475758E+04  0.13914686862E+04 0.  0.
        1    1    3    3  502    0  0.23275753323E+03  0.53439753231E+03  0.27170394307E+03  0.64310172175E+03  0.50400001928E-02 0.  1.
       -1    1    3    3    0  502 -0.23275753323E+03 -0.53439753231E+03 -0.49798501358E+03  0.76664585409E+03  0.50400001928E-02 0. -1.
</event>
<event>
 5   0  0.2195980E-03  0.1378779E+04  0.7818609E-02  0.8969325E-01
       -2   -1    0    0    0  501  0.00000000000E+00  0.00000000000E+00  0.91460855802E+03  0.91460855802E+03  0.25500000920E-02 0.  1.
        2   -1    0    0  501    0  0.00000000000E+00  0.00000000000E+00 -0.51962946309E+03  0.51962946310E+03  0.25500000920E-02 0. -1.
    10030    2    1    2    0    0  0.00000000000E+00  0.00000000000E+00  0.39497909493E+03  0.14342380211E+04  0.13787785231E+04 0.  0.
        4    1    3    3  502    0 -0.13354503416E+03  0.62291921503E+03  0.47151161783E+03  0.79258276745E+03  0.12699999809E+01 0.  1.
       -4    1    3    3    0  502  0.13354503416E+03 -0.62291921503E+03 -0.76532522905E+02  0.64165525367E+03  0.12699999809E+01 0. -1.
</event>
<event>
 5   0  0.8293000E-04  0.1359139E+04  0.7818609E-02  0.8983938E-01
       -3   -1    0    0    0  501  0.00000000000E+00  0.00000000000E+00  0.28750888881E+03  0.28750890655E+03  0.10100000352E+00 0. -1.
        3   -1    0    0  501    0  0.00000000000E+00  0.00000000000E+00 -0.16062629248E+04  0.16062629280E+04  0.10100000352E+00 0.  1.
    10030    2    1    2    0    0  0.00000000000E+00  0.00000000000E+00 -0.13187540360E+04  0.18937718345E+04  0.13591392695E+04 0.  0.
        1    1    3    3  502    0  0.38863296206E+03  0.48417796320E+03 -0.27436783925E+03  0.67877948591E+03  0.50400001928E-02 0. -1.
       -1    1    3    3    0  502 -0.38863296206E+03 -0.48417796320E+03 -0.10443861967E+04  0.12149923486E+04  0.50400001928E-02 0.  1.
</event>
<event>
 5   0  0.1175374E-03  0.1400775E+04  0.7818609E-02  0.8953258E-01
       -1   -1    0    0    0  501  0.00000000000E+00  0.00000000000E+00  0.52628521205E+03  0.52628521207E+03  0.50400001928E-02 0.  1.
        1   -1    0    0  501    0  0.00000000000E+00  0.00000000000E+00 -0.93208478286E+03  0.93208478288E+03  0.50400001928E-02 0. -1.
    10030    2    1    2    0    0  0.00000000000E+00  0.00000000000E+00 -0.40579957082E+03  0.14583699949E+04  0.14007746965E+04 0.  0.
        3    1    3    3  502    0 -0.37186986357E+03  0.41724139634E+03  0.23655120193E+03  0.60690531353E+03  0.10100000352E+00 0.  1.
       -3    1    3    3    0  502  0.37186986357E+03 -0.41724139634E+03 -0.64235077275E+03  0.85146468142E+03  0.10100000352E+00 0. -1.
</event>
<event>
 5   0  0.1238683E-03  0.1393411E+04  0.7818609E-02  0.8958602E-01
       -1   -1    0    0    0  501  0.00000000000E+00  0.00000000000E+00  0.87494524367E+03  0.87494524369E+03  0.50400001928E-02 0.  1.
        1   -1    0    0  501    0  0.00000000000E+00  0.00000000000E+00 -0.55477622138E+03  0.55477622141E+03  0.50400001928E-02 0. -1.
    10030    2    1    2    0    0  0.00000000000E+00  0.00000000000E+00  0.32016902229E+03  0.14297214651E+04  0.13934113768E+04 0.  0.
        2    1    3    3  502    0 -0.17793252686E+03  0.45317835969E+03  0.67143666073E+03  0.82937193055E+03  0.25500000920E-02 0.  1.
       -2    1    3    3    0  502  0.17793252686E+03 -0.45317835969E+03 -0.35126763844E+03  0.60034953454E+03  0.25500000920E-02 0. -1.
</event>
<event>
 5   0  0.1238683E-03  0.1411627E+04  0.7818609E-02  0.8945445E-01
        1   -1    0    0  501    0  0.00000000000E+00  0.00000000000E+00  0.30283483961E+03  0.30283483965E+03  0.50400001928E-02 0.  1.
       -1   -1    0    0    0  501  0.00000000000E+00  0.00000000000E+00 -0.16450306140E+04  0.16450306140E+04  0.50400001928E-02 0. -1.
    10030    2    1    2    0    0  0.00000000000E+00  0.00000000000E+00 -0.13421957744E+04  0.19478654537E+04  0.14116268377E+04 0.  0.
        2    1    3    3  502    0 -0.37124963853E+03  0.15959534406E+03 -0.14696087165E+04  0.15241544369E+04  0.25500000920E-02 0. -1.
       -2    1    3    3    0  502  0.37124963853E+03 -0.15959534406E+03  0.12741294205E+03  0.42371101680E+03  0.25500000920E-02 0.  1.
</event>
<event>
 5   0  0.1210275E-03  0.1410186E+04  0.7818609E-02  0.8946479E-01
        1   -1    0    0  501    0  0.00000000000E+00  0.00000000000E+00  0.10336055709E+04  0.10336055709E+04  0.50400001928E-02 0.  1.
       -1   -1    0    0    0  501  0.00000000000E+00  0.00000000000E+00 -0.48099178460E+03  0.48099178462E+03  0.50400001928E-02 0. -1.
    10030    2    1    2    0    0  0.00000000000E+00  0.00000000000E+00  0.55261378631E+03  0.15145973555E+04  0.14101855029E+04 0.  0.
        1    1    3    3  502    0 -0.34691662643E+03 -0.51015531571E+02 -0.38070621504E+03  0.51758183155E+03  0.50400001928E-02 0. -1.
       -1    1    3    3    0  502  0.34691662643E+03  0.51015531571E+02  0.93332000135E+03  0.99701552400E+03  0.50400001928E-02 0.  1.
</event>
<event>
 5   0  0.1199720E-03  0.1367513E+04  0.7818609E-02  0.8977676E-01
       -1   -1    0    0    0  501  0.00000000000E+00  0.00000000000E+00  0.28690409017E+03  0.28690409022E+03  0.50400001928E-02 0. -1.
        1   -1    0    0  501    0  0.00000000000E+00  0.00000000000E+00 -0.16295447781E+04  0.16295447781E+04  0.50400001928E-02 0.  1.
    10030    2    1    2    0    0  0.00000000000E+00  0.00000000000E+00 -0.13426406880E+04  0.19164488683E+04  0.13675131619E+04 0.  0.
        5    1    3    3  502    0 -0.33808725841E+03  0.35553352195E+03 -0.13387129626E+04  0.14257915576E+04  0.46999998093E+01 0.  1.
       -5    1    3    3    0  502  0.33808725841E+03 -0.35553352195E+03 -0.39277253163E+01  0.49065731070E+03  0.46999998093E+01 0. -1.
</event>
<event>
 5   0  0.1238683E-03  0.1395232E+04  0.7818609E-02  0.8957277E-01
       -1   -1    0    0    0  501  0.00000000000E+00  0.00000000000E+00  0.72969135546E+03  0.72969135548E+03  0.50400001928E-02 0. -1.
        1   -1    0    0  501    0  0.00000000000E+00  0.00000000000E+00 -0.66695077795E+03  0.66695077797E+03  0.50400001928E-02 0.  1.
    10030    2    1    2    0    0  0.00000000000E+00  0.00000000000E+00  0.62740577513E+02  0.13966421334E+04  0.13952321917E+04 0.  0.
        2    1    3    3  502    0  0.12282973329E+03 -0.18931567573E+03  0.69214389809E+03  0.72800463194E+03  0.25500000920E-02 0. -1.
       -2    1    3    3    0  502 -0.12282973329E+03  0.18931567573E+03 -0.62940332058E+03  0.66863750150E+03  0.25500000920E-02 0.  1.
</event>
<event>
 5   0  0.2195980E-03  0.1409708E+04  0.7818609E-02  0.8946821E-01
       -2   -1    0    0    0  501  0.00000000000E+00  0.00000000000E+00  0.65502335979E+03  0.65502335980E+03  0.25500000920E-02 0. -1.
        2   -1    0    0  501    0  0.00000000000E+00  0.00000000000E+00 -0.75847548609E+03  0.75847548609E+03  0.25500000920E-02 0.  1.
    10030    2    1    2    0    0  0.00000000000E+00  0.00000000000E+00 -0.10345212630E+03  0.14134988459E+04  0.14097079999E+04 0.  0.
        4    1    3    3  502    0 -0.42163484799E+03 -0.54990151955E+03  0.77655500853E+02  0.69728015600E+03  0.12699999809E+01 0. -1.
       -4    1    3    3    0  502  0.42163484799E+03  0.54990151955E+03 -0.18110762715E+03  0.71621868989E+03  0.12699999809E+01 0.  1.
</event>
<event>
 5   0  0.2195980E-03  0.9711560E+03  0.7818609E-02  0.9340759E-01
        2   -1    0    0  501    0  0.00000000000E+00  0.00000000000E+00  0.81440788830E+03  0.81440788830E+03  0.25500000920E-02 0. -1.
       -2   -1    0    0    0  501  0.00000000000E+00  0.00000000000E+00 -0.28951832554E+03  0.28951832555E+03  0.25500000920E-02 0.  1.
    10030    2    1    2    0    0  0.00000000000E+00  0.00000000000E+00  0.52488956276E+03  0.11039262139E+04  0.97115602894E+03 0.  0.
        4    1    3    3  502    0 -0.19732228993E+03  0.12097139926E+03  0.74766867709E+03  0.78267504697E+03  0.12699999809E+01 0. -1.
       -4    1    3    3    0  502  0.19732228993E+03 -0.12097139926E+03 -0.22277911434E+03  0.32125116689E+03  0.12699999809E+01 0.  1.
</event>
<event>
 5   0  0.2083966E-03  0.1391014E+04  0.7818609E-02  0.8960349E-01
        2   -1    0    0  501    0  0.00000000000E+00  0.00000000000E+00  0.60327494662E+03  0.60327494663E+03  0.25500000920E-02 0. -1.
       -2   -1    0    0    0  501  0.00000000000E+00  0.00000000000E+00 -0.80183946682E+03  0.80183946683E+03  0.25500000920E-02 0.  1.
    10030    2    1    2    0    0  0.00000000000E+00  0.00000000000E+00 -0.19856452020E+03  0.14051144135E+04  0.13910135320E+04 0.  0.
        1    1    3    3  502    0  0.59799887906E+03 -0.34022653253E+03  0.35976585411E+01  0.68801867414E+03  0.50400001928E-02 0. -1.
       -1    1    3    3    0  502 -0.59799887906E+03  0.34022653253E+03 -0.20216217874E+03  0.71709573931E+03  0.50400001928E-02 0.  1.
</event>
<event>
 5   0  0.1225690E-03  0.1097216E+04  0.7818609E-02  0.9207909E-01
        1   -1    0    0  501    0  0.00000000000E+00  0.00000000000E+00  0.47266243669E+03  0.47266243672E+03  0.50400001928E-02 0. -1.
       -1   -1    0    0    0  501  0.00000000000E+00  0.00000000000E+00 -0.63675633471E+03  0.63675633473E+03  0.50400001928E-02 0.  1.
    10030    2    1    2    0    0  0.00000000000E+00  0.00000000000E+00 -0.16409389802E+03  0.11094187715E+04  0.10972161150E+04 0.  0.
        4    1    3    3  502    0  0.56746351720E+02  0.10137754873E+02  0.46959025836E+03  0.47311684197E+03  0.12699999809E+01 0. -1.
       -4    1    3    3    0  502 -0.56746351720E+02 -0.10137754873E+02 -0.63368415639E+03  0.63630192948E+03  0.12699999809E+01 0.  1.
</event>
<event>
 5   0  0.1225690E-03  0.1443731E+04  0.7818609E-02  0.8922758E-01
        1   -1    0    0  501    0  0.00000000000E+00  0.00000000000E+00  0.10477455433E+04  0.10477455433E+04  0.50400001928E-02 0. -1.
       -1   -1    0    0    0  501  0.00000000000E+00  0.00000000000E+00 -0.49734390513E+03  0.49734390515E+03  0.50400001928E-02 0.  1.
    10030    2    1    2    0    0  0.00000000000E+00  0.00000000000E+00  0.55040163820E+03  0.15450894485E+04  0.14437310832E+04 0.  0.
        4    1    3    3  502    0 -0.28119609015E+03  0.49509218685E+03 -0.19968695176E+03  0.60337716745E+03  0.12699999809E+01 0.  1.
       -4    1    3    3    0  502  0.28119609015E+03 -0.49509218685E+03  0.75008858996E+03  0.94171228105E+03  0.12699999809E+01 0. -1.
</event>
<event>
 5   0  0.2190704E-03  0.1384581E+04  0.7818609E-02  0.8965056E-01
       -2   -1    0    0    0  501  0.00000000000E+00  0.00000000000E+00  0.51131940950E+03  0.51131940950E+03  0.25500000920E-02 0. -1.
        2   -1    0    0  501    0  0.00000000000E+00  0.00000000000E+00 -0.93731297060E+03  0.93731297060E+03  0.25500000920E-02 0.  1.
    10030    2    1    2    0    0  0.00000000000E+00  0.00000000000E+00 -0.42599356110E+03  0.14486323801E+04  0.13845812575E+04 0.  0.
        5    1    3    3  502    0 -0.50824547641E+03  0.41535133327E+03 -0.44320740285E+03  0.79201331193E+03  0.46999998093E+01 0.  1.
       -5    1    3    3    0  502  0.50824547641E+03 -0.41535133327E+03  0.17213841753E+02  0.65661906817E+03  0.46999998093E+01 0. -1.
</event>
<event>
 5   0  0.1199720E-03  0.1418429E+04  0.7818609E-02  0.8940586E-01
        1   -1    0    0  501    0  0.00000000000E+00  0.00000000000E+00  0.10387767763E+04  0.10387767763E+04  0.50400001928E-02 0. -1.
       -1   -1    0    0    0  501  0.00000000000E+00  0.00000000000E+00 -0.48420915085E+03  0.48420915088E+03  0.50400001928E-02 0.  1.
    10030    2    1    2    0    0  0.00000000000E+00  0.00000000000E+00  0.55456762548E+03  0.15229859272E+04  0.14184290195E+04 0.  0.
        5    1    3    3  502    0  0.47218071711E+03 -0.61193815766E+02 -0.28706847170E+03  0.55599434362E+03  0.46999998093E+01 0.  1.
       -5    1    3    3    0  502 -0.47218071711E+03  0.61193815766E+02  0.84163609717E+03  0.96699158360E+03  0.46999998093E+01 0. -1.
</event>
<event>
 5   0  0.1199720E-03  0.1409409E+04  0.7818609E-02  0.8947036E-01
       -1   -1    0    0    0  501  0.00000000000E+00  0.00000000000E+00  0.42038391133E+03  0.42038391136E+03  0.50400001928E-02 0.  1.
        1   -1    0    0  501    0  0.00000000000E+00  0.00000000000E+00 -0.11813214308E+04  0.11813214308E+04  0.50400001928E-02 0. -1.
    10030    2    1    2    0    0  0.00000000000E+00  0.00000000000E+00 -0.76093751942E+03  0.16017053421E+04  0.14094091296E+04 0.  0.
        5    1    3    3  502    0  0.13999259768E+03  0.28398920856E+03 -0.10959178713E+04  0.11407479426E+04  0.46999998093E+01 0. -1.
       -5    1    3    3    0  502 -0.13999259768E+03 -0.28398920856E+03  0.33498035190E+03  0.46095739948E+03  0.46999998093E+01 0.  1.
</event>
<event>
 5   0  0.2172901E-03  0.1364593E+04  0.7818609E-02  0.8979855E-01
        2   -1    0    0  501    0  0.00000000000E+00  0.00000000000E+00  0.53941977202E+03  0.53941977203E+03  0.25500000920E-02 0. -1.
       -2   -1    0    0    0  501  0.00000000000E+00  0.00000000000E+00 -0.86301680882E+03  0.86301680882E+03  0.25500000920E-02 0.  1.
    10030    2    1    2    0    0  0.00000000000E+00  0.00000000000E+00 -0.32359703679E+03  0.14024365809E+04  0.13645927309E+04 0.  0.
        2    1    3    3  502    0  0.43771281855E+03  0.38479844984E+03  0.20281632469E+03  0.61708736828E+03  0.25500000920E-02 0. -1.
       -2    1    3    3    0  502 -0.43771281855E+03 -0.38479844984E+03 -0.52641336149E+03  0.78534921257E+03  0.25500000920E-02 0.  1.
</event>
<event>
 5   0  0.1175374E-03  0.1394062E+04  0.7818609E-02  0.8958128E-01
        1   -1    0    0  501    0  0.00000000000E+00  0.00000000000E+00  0.68547618361E+03  0.68547618362E+03  0.50400001928E-02 0.  1.
       -1   -1    0    0    0  501  0.00000000000E+00  0.00000000000E+00 -0.70878103621E+03  0.70878103623E+03  0.50400001928E-02 0. -1.
    10030    2    1    2    0    0  0.00000000000E+00  0.00000000000E+00 -0.23304852605E+02  0.13942572199E+04  0.13940624373E+04 0.  0.
        3    1    3    3  502    0 -0.14725963355E+03  0.64641657023E+03 -0.22688641621E+03  0.70072622186E+03  0.10100000352E+00 0. -1.
       -3    1    3    3    0  502  0.14725963355E+03 -0.64641657023E+03  0.20358156360E+03  0.69353099799E+03  0.10100000352E+00 0.  1.
</event>
<event>
 5   0  0.2236184E-03  0.1403337E+04  0.7818609E-02  0.8951406E-01
        2   -1    0    0  501    0  0.00000000000E+00  0.00000000000E+00  0.15663596863E+04  0.15663596863E+04  0.25500000920E-02 0.  1.
       -2   -1    0    0    0  501  0.00000000000E+00  0.00000000000E+00 -0.31432051321E+03  0.31432051322E+03  0.25500000920E-02 0. -1.
    10030    2    1    2    0    0  0.00000000000E+00  0.00000000000E+00  0.12520391731E+04  0.18806801995E+04  0.14033374227E+04 0.  0.
        3    1    3    3  502    0 -0.47072535469E+03 -0.48383354053E+03  0.88262111487E+03  0.11111693377E+04  0.10100000352E+00 0. -1.
       -3    1    3    3    0  502  0.47072535469E+03  0.48383354053E+03  0.36941805821E+03  0.76951086180E+03  0.10100000352E+00 0.  1.
</event>
<event>
 5   0  0.8293000E-04  0.1396786E+04  0.7818609E-02  0.8956148E-01
        3   -1    0    0  501    0  0.00000000000E+00  0.00000000000E+00  0.28249902922E+03  0.28249904728E+03  0.10100000352E+00 0. -1.
       -3   -1    0    0    0  501  0.00000000000E+00  0.00000000000E+00 -0.17265638240E+04  0.17265638270E+04  0.10100000352E+00 0.  1.
    10030    2    1    2    0    0  0.00000000000E+00  0.00000000000E+00 -0.14440647948E+04  0.20090628742E+04  0.13967857750E+04 0.  0.
        1    1    3    3  502    0 -0.66679187591E+03 -0.12885782617E+03 -0.48772356704E+03  0.83611603442E+03  0.50400001928E-02 0. -1.
       -1    1    3    3    0  502  0.66679187591E+03  0.12885782617E+03 -0.95634122773E+03  0.11729468398E+04  0.50400001928E-02 0.  1.
</event>
<event>
 5   0  0.2195980E-03  0.1408047E+04  0.7818609E-02  0.8948014E-01
       -2   -1    0    0    0  501  0.00000000000E+00  0.00000000000E+00  0.39614782300E+03  0.39614782301E+03  0.25500000920E-02 0.  1.
        2   -1    0    0  501    0  0.00000000000E+00  0.00000000000E+00 -0.12511715358E+04  0.12511715358E+04  0.25500000920E-02 0. -1.
    10030    2    1    2    0    0  0.00000000000E+00  0.00000000000E+00 -0.85502371281E+03  0.16473193588E+04  0.14080467039E+04 0.  0.
        4    1    3    3  502    0 -0.99387689659E+02 -0.50424920703E+03  0.13539715533E+03  0.53148770279E+03  0.12699999809E+01 0.  1.
       -4    1    3    3    0  502  0.99387689659E+02  0.50424920703E+03 -0.99042086815E+03  0.11158316560E+04  0.12699999809E+01 0. -1.
</event>
<event>
 5   0  0.2195980E-03  0.1401033E+04  0.7818609E-02  0.8953071E-01
        2   -1    0    0  501    0  0.00000000000E+00  0.00000000000E+00  0.40706075218E+03  0.40706075219E+03  0.25500000920E-02 0.  1.
       -2   -1    0    0    0  501  0.00000000000E+00  0.00000000000E+00 -0.12055286272E+04  0.12055286272E+04  0.25500000920E-02 0. -1.
    10030    2    1    2    0    0  0.00000000000E+00  0.00000000000E+00 -0.79846787504E+03  0.16125893794E+04  0.14010330328E+04 0.  0.
        4    1    3    3  502    0  0.61979876155E+03 -0.32597284948E+03 -0.41959634749E+03  0.81637706432E+03  0.12699999809E+01 0. -1.
       -4    1    3    3    0  502 -0.61979876155E+03  0.32597284948E+03 -0.37887152755E+03  0.79621231509E+03  0.12699999809E+01 0.  1.
</event>
<event>
 5   0  0.1238683E-03  0.1459618E+04  0.7818609E-02  0.8911759E-01
       -1   -1    0    0    0  501  0.00000000000E+00  0.00000000000E+00  0.41258717129E+03  0.41258717132E+03  0.50400001928E-02 0. -1.
        1   -1    0    0  501    0  0.00000000000E+00  0.00000000000E+00 -0.12909306364E+04  0.12909306364E+04  0.50400001928E-02 0.  1.
    10030    2    1    2    0    0  0.00000000000E+00  0.00000000000E+00 -0.87834346510E+03  0.17035178077E+04  0.14596183332E+04 0.  0.
        2    1    3    3  502    0  0.70011402999E+03  0.78466843609E+01 -0.67949249380E+03  0.97566965443E+03  0.25500000920E-02 0.  1.
       -2    1    3    3    0  502 -0.70011402999E+03 -0.78466843609E+01 -0.19885097130E+03  0.72784815329E+03  0.25500000920E-02 0. -1.
</event>
<event>
 5   0  0.2083966E-03  0.1384445E+04  0.7818609E-02  0.8965156E-01
       -2   -1    0    0    0  501  0.00000000000E+00  0.00000000000E+00  0.46207053225E+03  0.46207053226E+03  0.25500000920E-02 0.  1.
        2   -1    0    0  501    0  0.00000000000E+00  0.00000000000E+00 -0.10370101442E+04  0.10370101442E+04  0.25500000920E-02 0. -1.
    10030    2    1    2    0    0  0.00000000000E+00  0.00000000000E+00 -0.57493961192E+03  0.14990806764E+04  0.13844447685E+04 0.  0.
        1    1    3    3  502    0 -0.14955344850E+03 -0.53173340321E+03  0.16428764812E+03  0.57627864562E+03  0.50400001928E-02 0.  1.
       -1    1    3    3    0  502  0.14955344850E+03  0.53173340321E+03 -0.73922726005E+03  0.92280203081E+03  0.50400001928E-02 0. -1.
</event>
<event>
 5   0  0.1210275E-03  0.1079203E+04  0.7818609E-02  0.9225702E-01
       -1   -1    0    0    0  501  0.00000000000E+00  0.00000000000E+00  0.40799857541E+03  0.40799857544E+03  0.50400001928E-02 0. -1.
        1   -1    0    0  501    0  0.00000000000E+00  0.00000000000E+00 -0.71365436271E+03  0.71365436272E+03  0.50400001928E-02 0.  1.
    10030    2    1    2    0    0  0.00000000000E+00  0.00000000000E+00 -0.30565578729E+03  0.11216529382E+04  0.10792033420E+04 0.  0.
        1    1    3    3  502    0 -0.21799097891E+03  0.45057558952E+03  0.56673457986E+02  0.50373634932E+03  0.50400001928E-02 0. -1.
       -1    1    3    3    0  502  0.21799097891E+03 -0.45057558952E+03 -0.36232924528E+03  0.61791658885E+03  0.50400001928E-02 0.  1.
</event>
<event>
 5   0  0.1199720E-03  0.1300050E+04  0.7818609E-02  0.9029525E-01
        1   -1    0    0  501    0  0.00000000000E+00  0.00000000000E+00  0.14411902470E+04  0.14411902471E+04  0.50400001928E-02 0.  1.
       -1   -1    0    0    0  501  0.00000000000E+00  0.00000000000E+00 -0.29318316413E+03  0.29318316418E+03  0.50400001928E-02 0. -1.
    10030    2    1    2    0    0  0.00000000000E+00  0.00000000000E+00  0.11480070829E+04  0.17343734112E+04  0.13000503325E+04 0.  0.
        5    1    3    3  502    0 -0.66188323128E+02 -0.56881474235E+03  0.16372292760E+03  0.59561597717E+03  0.46999998093E+01 0. -1.
       -5    1    3    3    0  502  0.66188323128E+02  0.56881474235E+03  0.98428415530E+03  0.11387574341E+04  0.46999998093E+01 0.  1.
</event>
<event>
 5   0  0.2083966E-03  0.1422604E+04  0.7818609E-02  0.8937617E-01
        2   -1    0    0  501    0  0.00000000000E+00  0.00000000000E+00  0.73064120095E+03  0.73064120096E+03  0.25500000920E-02 0. -1.
       -2   -1    0    0    0  501  0.00000000000E+00  0.00000000000E+00 -0.69247452928E+03  0.69247452929E+03  0.25500000920E-02 0.  1.
    10030    2    1    2    0    0  0.00000000000E+00  0.00000000000E+00  0.38166671671E+02  0.14231157302E+04  0.14226038404E+04 0.  0.
        1    1    3    3  502    0  0.43238132552E+03 -0.56426586039E+03  0.43604394159E+02  0.71221549764E+03  0.50400001928E-02 0. -1.
       -1    1    3    3    0  502 -0.43238132552E+03  0.56426586039E+03 -0.54377224878E+01  0.71090023260E+03  0.50400001928E-02 0.  1.
</event>
<event>
 5   0  0.1199720E-03  0.1385957E+04  0.7818609E-02  0.8964047E-01
       -1   -1    0    0    0  501  0.00000000000E+00  0.00000000000E+00  0.61812589850E+03  0.61812589852E+03  0.50400001928E-02 0. -1.
        1   -1    0    0  501    0  0.00000000000E+00  0.00000000000E+00 -0.77689558443E+03  0.77689558445E+03  0.50400001928E-02 0.  1.
    10030    2    1    2    0    0  0.00000000000E+00  0.00000000000E+00 -0.15876968594E+03  0.13950214830E+04  0.13859571151E+04 0.  0.
        5    1    3    3  502    0 -0.35847783183E+03 -0.22914530606E+02  0.51708320639E+03  0.62962573324E+03  0.46999998093E+01 0. -1.
       -5    1    3    3    0  502  0.35847783183E+03  0.22914530606E+02 -0.67585289233E+03  0.76539574973E+03  0.46999998093E+01 0.  1.
</event>
<event>
 5   0  0.1175374E-03  0.1358272E+04  0.7818609E-02  0.8984589E-01
        1   -1    0    0  501    0  0.00000000000E+00  0.00000000000E+00  0.89584848231E+03  0.89584848233E+03  0.50400001928E-02 0. -1.
       -1   -1    0    0    0  501  0.00000000000E+00  0.00000000000E+00 -0.51484826055E+03  0.51484826058E+03  0.50400001928E-02 0.  1.
    10030    2    1    2    0    0  0.00000000000E+00  0.00000000000E+00  0.38100022176E+03  0.14106967429E+04  0.13582724806E+04 0.  0.
        3    1    3    3  502    0 -0.64864490963E+03  0.91307152739E+02  0.42788779899E+01  0.65505384048E+03  0.10100000352E+00 0.  1.
       -3    1    3    3    0  502  0.64864490963E+03 -0.91307152739E+02  0.37672134377E+03  0.75564290242E+03  0.10100000352E+00 0. -1.
</event>
<event>
 5   0  0.1225690E-03  0.1286292E+04  0.7818609E-02  0.9040507E-01
        1   -1    0    0  501    0  0.00000000000E+00  0.00000000000E+00  0.12203124971E+04  0.12203124971E+04  0.50400001928E-02 0. -1.
       -1   -1    0    0    0  501  0.00000000000E+00  0.00000000000E+00 -0.33895964885E+03  0.33895964889E+03  0.50400001928E-02 0.  1.
    10030    2    1    2    0    0  0.00000000000E+00  0.00000000000E+00  0.88135284825E+03  0.15592721460E+04  0.12862918729E+04 0.  0.
        4    1    3    3  502    0 -0.61510528233E+03 -0.16714246048E+03  0.33679260495E+03  0.72091745858E+03  0.12699999809E+01 0.  1.
       -4    1    3    3    0  502  0.61510528233E+03  0.16714246048E+03  0.54456024331E+03  0.83835468743E+03  0.12699999809E+01 0. -1.
</event>
<event>
 5   0  0.2190704E-03  0.1385828E+04  0.7818609E-02  0.8964142E-01
        2   -1    0    0  501    0  0.00000000000E+00  0.00000000000E+00  0.71443504635E+03  0.71443504636E+03  0.25500000920E-02 0. -1.
       -2   -1    0    0    0  501  0.00000000000E+00  0.00000000000E+00 -0.67204096327E+03  0.67204096328E+03  0.25500000920E-02 0.  1.
    10030    2    1    2    0    0  0.00000000000E+00  0.00000000000E+00  0.42394083084E+02  0.13864760096E+04  0.13858277191E+04 0.  0.
        5    1    3    3  502    0 -0.65469925779E+03  0.80955077429E+02  0.23324591223E+03  0.69972179349E+03  0.46999998093E+01 0.  1.
       -5    1    3    3    0  502  0.65469925779E+03 -0.80955077429E+02 -0.19085182915E+03  0.68675421615E+03  0.46999998093E+01 0. -1.
</event>
<event>
 5   0  0.2083966E-03  0.1455449E+04  0.7818609E-02  0.8914632E-01
       -2   -1    0    0    0  501  0.00000000000E+00  0.00000000000E+00  0.65281769749E+03  0.65281769750E+03  0.25500000920E-02 0. -1.
        2   -1    0    0  501    0  0.00000000000E+00  0.00000000000E+00 -0.81122615280E+03  0.81122615280E+03  0.25500000920E-02 0.  1.
    10030    2    1    2    0    0  0.00000000000E+00  0.00000000000E+00 -0.15840845531E+03  0.14640438503E+04  0.14554487820E+04 0.  0.
        1    1    3    3  502    0  0.10917339063E+03 -0.70552378353E+03 -0.22110519038E+03  0.74737550374E+03  0.50400001928E-02 0. -1.
       -1    1    3    3    0  502 -0.10917339063E+03  0.70552378353E+03  0.62696735072E+02  0.71666834656E+03  0.50400001928E-02 0.  1.
</event>
<event>
 5   0  0.1238683E-03  0.1402686E+04  0.7818609E-02  0.8951876E-01
       -1   -1    0    0    0  501  0.00000000000E+00  0.00000000000E+00  0.47844380644E+03  0.47844380646E+03  0.50400001928E-02 0.  1.
        1   -1    0    0  501    0  0.00000000000E+00  0.00000000000E+00 -0.10280878231E+04  0.10280878231E+04  0.50400001928E-02 0. -1.
    10030    2    1    2    0    0  0.00000000000E+00  0.00000000000E+00 -0.54964401665E+03  0.15065316296E+04  0.14026863533E+04 0.  0.
        2    1    3    3  502    0  0.38527744447E+03  0.31192274671E+03 -0.80768506375E+03  0.94767593161E+03  0.25500000920E-02 0. -1.
       -2    1    3    3    0  502 -0.38527744447E+03 -0.31192274671E+03  0.25804104711E+03  0.55885569795E+03  0.25500000920E-02 0.  1.
</event>
<event>
 5   0  0.1199720E-03  0.1400780E+04  0.7818609E-02  0.8953254E-01
        1   -1    0    0  501    0  0.00000000000E+00  0.00000000000E+00  0.11625490788E+04  0.11625490788E+04  0.50400001928E-02 0. -1.
       -1   -1    0    0    0  501  0.00000000000E+00  0.00000000000E+00 -0.42195751727E+03  0.42195751730E+03  0.50400001928E-02 0.  1.
    10030    2    1    2    0    0  0.00000000000E+00  0.00000000000E+00  0.74059156153E+03  0.15845065961E+04  0.14007802440E+04 0.  0.
        5    1    3    3  502    0  0.14236406474E+03  0.56787525276E+03 -0.64538375629E+02  0.58901368537E+03  0.46999998093E+01 0.  1.
       -5    1    3    3    0  502 -0.14236406474E+03 -0.56787525276E+03  0.80512993716E+03  0.99549291074E+03  0.46999998093E+01 0. -1.
</event>
<event>
 5   0  0.2236184E-03  0.1452845E+04  0.7818609E-02  0.8916430E-01
       -2   -1    0    0    0  501  0.00000000000E+00  0.00000000000E+00  0.17225039392E+04  0.17225039392E+04  0.25500000920E-02 0.  1.
        2   -1    0    0  501    0  0.00000000000E+00  0.00000000000E+00 -0.30635040684E+03  0.30635040685E+03  0.25500000920E-02 0. -1.
    10030    2    1    2    0    0  0.00000000000E+00  0.00000000000E+00  0.14161535323E+04  0.20288543460E+04  0.14528451845E+04 0.  0.
        3    1    3    3  502    0  0.15667496116E+02 -0.24275742985E+03 -0.24777911271E+03  0.34723355120E+03  0.10100000352E+00 0. -1.
       -3    1    3    3    0  502 -0.15667496116E+02  0.24275742985E+03  0.16639326450E+04  0.16816207948E+04  0.10100000352E+00 0.  1.
</event>
<event>
 5   0  0.2083966E-03  0.1459370E+04  0.7818609E-02  0.8911930E-01
       -2   -1    0    0    0  501  0.00000000000E+00  0.00000000000E+00  0.28908370248E+03  0.28908370249E+03  0.25500000920E-02 0. -1.
        2   -1    0    0  501    0  0.00000000000E+00  0.00000000000E+00 -0.18418211019E+04  0.18418211019E+04  0.25500000920E-02 0.  1.
    10030    2    1    2    0    0  0.00000000000E+00  0.00000000000E+00 -0.15527373994E+04  0.21309048044E+04  0.14593703621E+04 0.  0.
        1    1    3    3  502    0  0.10020699405E+03  0.61275799159E+03 -0.13360603626E+04  0.14732858142E+04  0.50400001928E-02 0.  1.
       -1    1    3    3    0  502 -0.10020699405E+03 -0.61275799159E+03 -0.21667703685E+03  0.65761899017E+03  0.50400001928E-02 0. -1.
</event>
<event>
 5   0  0.8293000E-04  0.1371168E+04  0.7818609E-02  0.8974957E-01
        3   -1    0    0  501    0  0.00000000000E+00  0.00000000000E+00  0.39221419794E+03  0.39221421095E+03  0.10100000352E+00 0.  1.
       -3   -1    0    0    0  501  0.00000000000E+00  0.00000000000E+00 -0.11983891983E+04  0.11983892025E+04  0.10100000352E+00 0. -1.
    10030    2    1    2    0    0  0.00000000000E+00  0.00000000000E+00 -0.80617500031E+03  0.15906034135E+04  0.13711677825E+04 0.  0.
        5    1    3    3  502    0  0.16435799993E+03  0.25704371923E+03  0.30910080651E+03  0.43433906608E+03  0.46999998093E+01 0.  1.
       -5    1    3    3    0  502 -0.16435799993E+03 -0.25704371923E+03 -0.11152758068E+04  0.11562643474E+04  0.46999998093E+01 0. -1.
</event>
<event>
 5   0  0.1199720E-03  0.1395640E+04  0.7818609E-02  0.8956981E-01
        1   -1    0    0  501    0  0.00000000000E+00  0.00000000000E+00  0.64080808317E+03  0.64080808319E+03  0.50400001928E-02 0. -1.
       -1   -1    0    0    0  501  0.00000000000E+00  0.00000000000E+00 -0.75990389629E+03  0.75990389630E+03  0.50400001928E-02 0.  1.
    10030    2    1    2    0    0  0.00000000000E+00  0.00000000000E+00 -0.11909581312E+03  0.14007119795E+04  0.13956397231E+04 0.  0.
        5    1    3    3  502    0  0.59743607713E+03 -0.28535743482E+03  0.16164303630E+03  0.68154918608E+03  0.46999998093E+01 0.  1.
       -5    1    3    3    0  502 -0.59743607713E+03  0.28535743482E+03 -0.28073884941E+03  0.71916279341E+03  0.46999998093E+01 0. -1.
</event>
<event>
 5   0  0.1238683E-03  0.1449300E+04  0.7818609E-02  0.8918886E-01
       -1   -1    0    0    0  501  0.00000000000E+00  0.00000000000E+00  0.61590092901E+03  0.61590092903E+03  0.50400001928E-02 0.  1.
        1   -1    0    0  501    0  0.00000000000E+00  0.00000000000E+00 -0.85260056519E+03  0.85260056520E+03  0.50400001928E-02 0. -1.
    10030    2    1    2    0    0  0.00000000000E+00  0.00000000000E+00 -0.23669963618E+03  0.14685014942E+04  0.14492998036E+04 0.  0.
        2    1    3    3  502    0 -0.19637227754E+03 -0.43139683897E+03 -0.67374721042E+03  0.82377218187E+03  0.25500000920E-02 0. -1.
       -2    1    3    3    0  502  0.19637227754E+03  0.43139683897E+03  0.43704757425E+03  0.64472931236E+03  0.25500000920E-02 0.  1.
</event>
<event>
 5   0  0.1199720E-03  0.1416583E+04  0.7818609E-02  0.8941902E-01
       -1   -1    0    0    0  501  0.00000000000E+00  0.00000000000E+00  0.27266794667E+03  0.27266794672E+03  0.50400001928E-02 0.  1.
        1   -1    0    0  501    0  0.00000000000E+00  0.00000000000E+00 -0.18398818841E+04  0.18398818841E+04  0.50400001928E-02 0. -1.
    10030    2    1    2    0    0  0.00000000000E+00  0.00000000000E+00 -0.15672139374E+04  0.21125498308E+04  0.14165829528E+04 0.  0.
        5    1    3    3  502    0  0.38188285539E+03 -0.44468376831E+03 -0.13765304967E+04  0.14961405240E+04  0.46999998093E+01 0. -1.
       -5    1    3    3    0  502 -0.38188285539E+03  0.44468376831E+03 -0.19068344072E+03  0.61640930688E+03  0.46999998093E+01 0.  1.
</event>
<event>
 5   0  0.1238683E-03  0.1672716E+04  0.7818609E-02  0.8777080E-01
       -1   -1    0    0    0  501  0.00000000000E+00  0.00000000000E+00  0.66001042952E+03  0.66001042954E+03  0.50400001928E-02 0.  1.
        1   -1    0    0  501    0  0.00000000000E+00  0.00000000000E+00 -0.10598242700E+04  0.10598242700E+04  0.50400001928E-02 0. -1.
    10030    2    1    2    0    0  0.00000000000E+00  0.00000000000E+00 -0.39981384045E+03  0.17198346995E+04  0.16727164394E+04 0.  0.
        2    1    3    3  502    0 -0.23580842577E+03  0.70402699936E+03 -0.59576581563E+03  0.95194355745E+03  0.25500000920E-02 0. -1.
       -2    1    3    3    0  502  0.23580842577E+03 -0.70402699936E+03  0.19595197518E+03  0.76789114207E+03  0.25500000920E-02 0.  1.
</event>
<event>
 5   0  0.1199720E-03  0.1432060E+04  0.7818609E-02  0.8930934E-01
       -1   -1    0    0    0  501  0.00000000000E+00  0.00000000000E+00  0.13510167935E+04  0.13510167935E+04  0.50400001928E-02 0. -1.
        1   -1    0    0  501    0  0.00000000000E+00  0.00000000000E+00 -0.37949104146E+03  0.37949104149E+03  0.50400001928E-02 0.  1.
    10030    2    1    2    0    0  0.00000000000E+00  0.00000000000E+00  0.97152575200E+03  0.17305078350E+04  0.14320597334E+04 0.  0.
        5    1    3    3  502    0  0.54203783203E+03  0.53674708185E+02 -0.75840819356E+02  0.54996354928E+03  0.46999998093E+01 0.  1.
       -5    1    3    3    0  502 -0.54203783203E+03 -0.53674708185E+02  0.10473665714E+04  0.11805442857E+04  0.46999998093E+01 0. -1.
</event>
<event>
 5   0  0.8293000E-04  0.1381560E+04  0.7818609E-02  0.8967276E-01
       -4   -1    0    0    0  501  0.00000000000E+00  0.00000000000E+00  0.45990111460E+03  0.45990286813E+03  0.12699999809E+01 0.  1.
        4   -1    0    0  501    0  0.00000000000E+00  0.00000000000E+00 -0.10375597608E+04  0.10375605381E+04  0.12699999809E+01 0. -1.
    10030    2    1    2    0    0  0.00000000000E+00  0.00000000000E+00 -0.57765864622E+03  0.14974634062E+04  0.13815596771E+04 0.  0.
        3    1    3    3  502    0 -0.66068754276E+03  0.35638861045E+02 -0.73686402078E+02  0.66573857754E+03  0.10100000352E+00 0.  1.
       -3    1    3    3    0  502  0.66068754276E+03 -0.35638861045E+02 -0.50397224414E+03  0.83172482868E+03  0.10100000352E+00 0. -1.
</event>
<event>
 5   0  0.2236184E-03  0.1421199E+04  0.7818609E-02  0.8938615E-01
       -2   -1    0    0    0  501  0.00000000000E+00  0.00000000000E+00  0.47777473739E+03  0.47777473739E+03  0.25500000920E-02 0. -1.
        2   -1    0    0  501    0  0.00000000000E+00  0.00000000000E+00 -0.10568819602E+04  0.10568819602E+04  0.25500000920E-02 0.  1.
    10030    2    1    2    0    0  0.00000000000E+00  0.00000000000E+00 -0.57910722279E+03  0.15346566976E+04  0.14211987911E+04 0.  0.
        3    1    3    3  502    0 -0.61968386584E+02 -0.20506652393E+02 -0.10536378710E+04  0.10556577936E+04  0.10100000352E+00 0.  1.
       -3    1    3    3    0  502  0.61968386584E+02  0.20506652393E+02  0.47453064822E+03  0.47899890399E+03  0.10100000352E+00 0. -1.
</event>
<event>
 5   0  0.2172901E-03  0.1403562E+04  0.7818609E-02  0.8951244E-01
        2   -1    0    0  501    0  0.00000000000E+00  0.00000000000E+00  0.14328152518E+04  0.14328152518E+04  0.25500000920E-02 0. -1.
       -2   -1    0    0    0  501  0.00000000000E+00  0.00000000000E+00 -0.34372665697E+03  0.34372665697E+03  0.25500000920E-02 0.  1.
    10030    2    1    2    0    0  0.00000000000E+00  0.00000000000E+00  0.10890885949E+04  0.17765419088E+04  0.14035623201E+04 0.  0.
        2    1    3    3  502    0  0.29489151236E+03 -0.63429799627E+03  0.47292272203E+03  0.84436417093E+03  0.25500000920E-02 0. -1.
       -2    1    3    3    0  502 -0.29489151236E+03  0.63429799627E+03  0.61616587285E+03  0.93217773789E+03  0.25500000920E-02 0.  1.
</event>
<event>
 5   0  0.2083966E-03  0.1411286E+04  0.7818609E-02  0.8945689E-01
        2   -1    0    0  501    0  0.00000000000E+00  0.00000000000E+00  0.11296921184E+04  0.11296921184E+04  0.25500000920E-02 0. -1.
       -2   -1    0    0    0  501  0.00000000000E+00  0.00000000000E+00 -0.44076803351E+03  0.44076803352E+03  0.25500000920E-02 0.  1.
    10030    2    1    2    0    0  0.00000000000E+00  0.00000000000E+00  0.68892408493E+03  0.15704601520E+04  0.14112861843E+04 0.  0.
        1    1    3    3  502    0 -0.41919854607E+03  0.53071987928E+03  0.12040431407E+03  0.68694119848E+03  0.50400001928E-02 0.  1.
       -1    1    3    3    0  502  0.41919854607E+03 -0.53071987928E+03  0.56851977086E+03  0.88351895349E+03  0.50400001928E-02 0. -1.
</event>
<event>
 5   0  0.1238683E-03  0.1395237E+04  0.7818609E-02  0.8957274E-01
       -1   -1    0    0    0  501  0.00000000000E+00  0.00000000000E+00  0.34056709659E+03  0.34056709662E+03  0.50400001928E-02 0. -1.
        1   -1    0    0  501    0  0.00000000000E+00  0.00000000000E+00 -0.14290032608E+04  0.14290032608E+04  0.50400001928E-02 0.  1.
    10030    2    1    2    0    0  0.00000000000E+00  0.00000000000E+00 -0.10884361642E+04  0.17695703574E+04  0.13952368854E+04 0.  0.
        2    1    3    3  502    0 -0.57548987855E+03  0.20446559879E+03 -0.97183574338E+03  0.11478063833E+04  0.25500000920E-02 0.  1.
       -2    1    3    3    0  502  0.57548987855E+03 -0.20446559879E+03 -0.11660042083E+03  0.62176397414E+03  0.25500000920E-02 0. -1.
</event>
<event>
 5   0  0.2195980E-03  0.1383302E+04  0.7818609E-02  0.8965995E-01
        2   -1    0    0  501    0  0.00000000000E+00  0.00000000000E+00  0.16298321329E+04  0.16298321329E+04  0.25500000920E-02 0.  1.
       -2   -1    0    0    0  501  0.00000000000E+00  0.00000000000E+00 -0.29351561819E+03  0.29351561820E+03  0.25500000920E-02 0. -1.
    10030    2    1    2    0    0  0.00000000000E+00  0.00000000000E+00  0.13363165147E+04  0.19233477511E+04  0.13833021160E+04 0.  0.
        4    1    3    3  502    0  0.49779667716E+03 -0.41860558481E+03  0.34105158176E+03  0.73440449464E+03  0.12699999809E+01 0.  1.
       -4    1    3    3    0  502 -0.49779667716E+03  0.41860558481E+03  0.99526493299E+03  0.11889432565E+04  0.12699999809E+01 0. -1.
</event>
<event>
 5   0  0.1210275E-03  0.1243994E+04  0.7818609E-02  0.9075197E-01
        1   -1    0    0  501    0  0.00000000000E+00  0.00000000000E+00  0.89814129338E+03  0.89814129339E+03  0.50400001928E-02 0.  1.
       -1   -1    0    0    0  501  0.00000000000E+00  0.00000000000E+00 -0.43075626104E+03  0.43075626107E+03  0.50400001928E-02 0. -1.
    10030    2    1    2    0    0  0.00000000000E+00  0.00000000000E+00  0.46738503234E+03  0.13288975545E+04  0.12439935457E+04 0.  0.
        1    1    3    3  502    0 -0.34081171446E+03  0.51765718912E+03  0.17758750870E+03  0.64471614951E+03  0.50400001928E-02 0. -1.
       -1    1    3    3    0  502  0.34081171446E+03 -0.51765718912E+03  0.28979752363E+03  0.68418140496E+03  0.50400001928E-02 0.  1.
</event>
<event>
 5   0  0.1238683E-03  0.1536062E+04  0.7818609E-02  0.8860820E-01
        1   -1    0    0  501    0  0.00000000000E+00  0.00000000000E+00  0.75321398726E+03  0.75321398728E+03  0.50400001928E-02 0.  1.
       -1   -1    0    0    0  501  0.00000000000E+00  0.00000000000E+00 -0.78313983931E+03  0.78313983932E+03  0.50400001928E-02 0. -1.
    10030    2    1    2    0    0  0.00000000000E+00  0.00000000000E+00 -0.29925852046E+02  0.15363538266E+04  0.15360623438E+04 0.  0.
        2    1    3    3  502    0 -0.27985187829E+03  0.43392367158E+03  0.55370899300E+03  0.75710004324E+03  0.25500000920E-02 0.  1.
       -2    1    3    3    0  502  0.27985187829E+03 -0.43392367158E+03 -0.58363484504E+03  0.77925378337E+03  0.25500000920E-02 0. -1.
</event>
<event>
 5   0  0.2236184E-03  0.1390185E+04  0.7818609E-02  0.8960954E-01
        2   -1    0    0  501    0  0.00000000000E+00  0.00000000000E+00  0.17223682734E+04  0.17223682734E+04  0.25500000920E-02 0. -1.
       -2   -1    0    0    0  501  0.00000000000E+00  0.00000000000E+00 -0.28051693554E+03  0.28051693555E+03  0.25500000920E-02 0.  1.
    10030    2    1    2    0    0  0.00000000000E+00  0.00000000000E+00  0.14418513379E+04  0.20028852090E+04  0.13901848366E+04 0.  0.
        3    1    3    3  502    0 -0.17678008698E+03 -0.66338742453E+03  0.87755783805E+03  0.11142000913E+04  0.10100000352E+00 0. -1.
       -3    1    3    3    0  502  0.17678008698E+03  0.66338742453E+03  0.56429349982E+03  0.88868511765E+03  0.10100000352E+00 0.  1.
</event>
<event>
 5   0  0.1199720E-03  0.1344211E+04  0.7818609E-02  0.8995222E-01
        1   -1    0    0  501    0  0.00000000000E+00  0.00000000000E+00  0.34412375512E+03  0.34412375516E+03  0.50400001928E-02 0.  1.
       -1   -1    0    0    0  501  0.00000000000E+00  0.00000000000E+00 -0.13126849345E+04  0.13126849345E+04  0.50400001928E-02 0. -1.
    10030    2    1    2    0    0  0.00000000000E+00  0.00000000000E+00 -0.96856117941E+03  0.16568086897E+04  0.13442113956E+04 0.  0.
        5    1    3    3  502    0 -0.55825333560E+03  0.19656768998E+03 -0.91759468902E+02  0.59893867264E+03  0.46999998093E+01 0. -1.
       -5    1    3    3    0  502  0.55825333560E+03 -0.19656768998E+03 -0.87680171051E+03  0.10578700171E+04  0.46999998093E+01 0.  1.
</event>
<event>
 5   0  0.2236184E-03  0.1389721E+04  0.7818609E-02  0.8961292E-01
       -2   -1    0    0    0  501  0.00000000000E+00  0.00000000000E+00  0.38750466460E+03  0.38750466461E+03  0.25500000920E-02 0.  1.
        2   -1    0    0  501    0  0.00000000000E+00  0.00000000000E+00 -0.12460015310E+04  0.12460015310E+04  0.25500000920E-02 0. -1.
    10030    2    1    2    0    0  0.00000000000E+00  0.00000000000E+00 -0.85849686642E+03  0.16335061956E+04  0.13897214187E+04 0.  0.
        3    1    3    3  502    0 -0.44511329875E+03 -0.11928376756E+03  0.18205684919E+03  0.49547873059E+03  0.10100000352E+00 0.  1.
       -3    1    3    3    0  502  0.44511329875E+03  0.11928376756E+03 -0.10405537156E+04  0.11380274650E+04  0.10100000352E+00 0. -1.
</event>
<event>
 5   0  0.1225690E-03  0.1392973E+04  0.7818609E-02  0.8958921E-01
       -1   -1    0    0    0  501  0.00000000000E+00  0.00000000000E+00  0.36359669661E+03  0.36359669664E+03  0.50400001928E-02 0. -1.
        1   -1    0    0  501    0  0.00000000000E+00  0.00000000000E+00 -0.13341528830E+04  0.13341528830E+04  0.50400001928E-02 0.  1.
    10030    2    1    2    0    0  0.00000000000E+00  0.00000000000E+00 -0.97055618641E+03  0.16977495797E+04  0.13929731958E+04 0.  0.
        4    1    3    3  502    0  0.13828942258E+03 -0.80220544905E+02  0.34092928175E+03  0.37655502689E+03  0.12699999809E+01 0. -1.
       -4    1    3    3    0  502 -0.13828942258E+03  0.80220544905E+02 -0.13114854682E+04  0.13211945528E+04  0.12699999809E+01 0.  1.
</event>
<event>
 5   0  0.1199720E-03  0.1454825E+04  0.7818609E-02  0.8915062E-01
       -1   -1    0    0    0  501  0.00000000000E+00  0.00000000000E+00  0.42233250204E+03  0.42233250207E+03  0.50400001928E-02 0.  1.
        1   -1    0    0  501    0  0.00000000000E+00  0.00000000000E+00 -0.12528732782E+04  0.12528732782E+04  0.50400001928E-02 0. -1.
    10030    2    1    2    0    0  0.00000000000E+00  0.00000000000E+00 -0.83054077617E+03  0.16752057803E+04  0.14548252216E+04 0.  0.
        5    1    3    3  502    0 -0.37447009378E+02 -0.23045230056E+03 -0.12085377670E+04  0.12308924265E+04  0.46999998093E+01 0. -1.
       -5    1    3    3    0  502  0.37447009378E+02  0.23045230056E+03  0.37799699079E+03  0.44431335383E+03  0.46999998093E+01 0.  1.
</event>
<event>
 5   0  0.2190704E-03  0.1369971E+04  0.7818609E-02  0.8975846E-01
        2   -1    0    0  501    0  0.00000000000E+00  0.00000000000E+00  0.82435402327E+03  0.82435402327E+03  0.25500000920E-02 0. -1.
       -2   -1    0    0    0  501  0.00000000000E+00  0.00000000000E+00 -0.56917920809E+03  0.56917920810E+03  0.25500000920E-02 0.  1.
    10030    2    1    2    0    0  0.00000000000E+00  0.00000000000E+00  0.25517481517E+03  0.13935332314E+04  0.13699710510E+04 0.  0.
        5    1    3    3  502    0 -0.10394838431E+03  0.15740554345E+03  0.79739679765E+03  0.81941779002E+03  0.46999998093E+01 0. -1.
       -5    1    3    3    0  502  0.10394838431E+03 -0.15740554345E+03 -0.54222198248E+03  0.57411544134E+03  0.46999998093E+01 0.  1.
</event>
<event>
 5   0  0.1210275E-03  0.1405093E+04  0.7818609E-02  0.8950140E-01
       -1   -1    0    0    0  501  0.00000000000E+00  0.00000000000E+00  0.67382864530E+03  0.67382864532E+03  0.50400001928E-02 0. -1.
        1   -1    0    0  501    0  0.00000000000E+00  0.00000000000E+00 -0.73248812022E+03  0.73248812024E+03  0.50400001928E-02 0.  1.
    10030    2    1    2    0    0  0.00000000000E+00  0.00000000000E+00 -0.58659474925E+02  0.14063167656E+04  0.14050928479E+04 0.  0.
        1    1    3    3  502    0  0.25519247614E+03  0.30439535540E+03  0.55065042478E+03  0.67896658430E+03  0.50400001928E-02 0. -1.
       -1    1    3    3    0  502 -0.25519247614E+03 -0.30439535540E+03 -0.60930989971E+03  0.72735018125E+03  0.50400001928E-02 0.  1.
</event>
<event>
 5   0  0.2190704E-03  0.1377912E+04  0.7818609E-02  0.8969964E-01
        2   -1    0    0  501    0  0.00000000000E+00  0.00000000000E+00  0.18446842853E+04  0.18446842853E+04  0.25500000920E-02 0.  1.
       -2   -1    0    0    0  501  0.00000000000E+00  0.00000000000E+00 -0.25731255447E+03  0.25731255449E+03  0.25500000920E-02 0. -1.
    10030    2    1    2    0    0  0.00000000000E+00  0.00000000000E+00  0.15873717308E+04  0.21019968398E+04  0.13779120809E+04 0.  0.
        5    1    3    3  502    0  0.45913276822E+03  0.23576352949E+03  0.97533836140E+02  0.52528304739E+03  0.46999998093E+01 0. -1.
       -5    1    3    3    0  502 -0.45913276822E+03 -0.23576352949E+03  0.14898378947E+04  0.15767137924E+04  0.46999998093E+01 0.  1.
</event>
<event>
 5   0  0.1238683E-03  0.1512531E+04  0.7818609E-02  0.8876162E-01
       -1   -1    0    0    0  501  0.00000000000E+00  0.00000000000E+00  0.35441227673E+03  0.35441227677E+03  0.50400001928E-02 0.  1.
        1   -1    0    0  501    0  0.00000000000E+00  0.00000000000E+00 -0.16137634778E+04  0.16137634778E+04  0.50400001928E-02 0. -1.
    10030    2    1    2    0    0  0.00000000000E+00  0.00000000000E+00 -0.12593512011E+04  0.19681757546E+04  0.15125311082E+04 0.  0.
        2    1    3    3  502    0  0.39661822795E+03  0.33061359027E+03 -0.13486966673E+04  0.14441586011E+04  0.25500000920E-02 0.  1.
       -2    1    3    3    0  502 -0.39661822795E+03 -0.33061359027E+03  0.89345466194E+02  0.52401715349E+03  0.25500000920E-02 0. -1.
</event>
<event>
 5   0  0.1175374E-03  0.1368927E+04  0.7818609E-02  0.8976623E-01
       -1   -1    0    0    0  501  0.00000000000E+00  0.00000000000E+00  0.65338169171E+03  0.65338169173E+03  0.50400001928E-02 0. -1.
        1   -1    0    0  501    0  0.00000000000E+00  0.00000000000E+00 -0.71702427992E+03  0.71702427994E+03  0.50400001928E-02 0.  1.
    10030    2    1    2    0    0  0.00000000000E+00  0.00000000000E+00 -0.63642588214E+02  0.13704059717E+04  0.13689273714E+04 0.  0.
        3    1    3    3  502    0 -0.27217192112E+03  0.53645795211E+03 -0.35871011121E+03  0.70038392551E+03  0.10100000352E+00 0.  1.
       -3    1    3    3    0  502  0.27217192112E+03 -0.53645795211E+03  0.29506752299E+03  0.67002204617E+03  0.10100000352E+00 0. -1.
</event>
<event>
 5   0  0.1199720E-03  0.1385187E+04  0.7818609E-02  0.8964611E-01
        1   -1    0    0  501    0  0.00000000000E+00  0.00000000000E+00  0.99170557978E+03  0.99170557979E+03  0.50400001928E-02 0. -1.
       -1   -1    0    0    0  501  0.00000000000E+00  0.00000000000E+00 -0.48369803315E+03  0.48369803317E+03  0.50400001928E-02 0.  1.
    10030    2    1    2    0    0  0.00000000000E+00  0.00000000000E+00  0.50800754663E+03  0.14754036130E+04  0.13851874074E+04 0.  0.
        5    1    3    3  502    0 -0.36365987977E+03 -0.26244857737E+03  0.81614199951E+03  0.93125593543E+03  0.46999998093E+01 0. -1.
       -5    1    3    3    0  502  0.36365987977E+03  0.26244857737E+03 -0.30813445288E+03  0.54414767753E+03  0.46999998093E+01 0.  1.
</event>
<event>
 5   0  0.2172901E-03  0.1371361E+04  0.7818609E-02  0.8974814E-01
       -2   -1    0    0    0  501  0.00000000000E+00  0.00000000000E+00  0.35622212638E+03  0.35622212639E+03  0.25500000920E-02 0. -1.
        2   -1    0    0  501    0  0.00000000000E+00  0.00000000000E+00 -0.13198448773E+04  0.13198448773E+04  0.25500000920E-02 0.  1.
    10030    2    1    2    0    0  0.00000000000E+00  0.00000000000E+00 -0.96362275092E+03  0.16760670037E+04  0.13713612926E+04 0.  0.
        2    1    3    3  502    0  0.46583841930E+03 -0.14384953460E+03 -0.10710801719E+04  0.11768223554E+04  0.25500000920E-02 0.  1.
       -2    1    3    3    0  502 -0.46583841930E+03  0.14384953460E+03  0.10745742100E+03  0.49924464828E+03  0.25500000920E-02 0. -1.
</event>
<event>
 5   0  0.2083966E-03  0.1360544E+04  0.7818609E-02  0.8982884E-01
        2   -1    0    0  501    0  0.00000000000E+00  0.00000000000E+00  0.10650581654E+04  0.10650581654E+04  0.25500000920E-02 0.  1.
       -2   -1    0    0    0  501  0.00000000000E+00  0.00000000000E+00 -0.43450219131E+03  0.43450219132E+03  0.25500000920E-02 0. -1.
    10030    2    1    2    0    0  0.00000000000E+00  0.00000000000E+00  0.63055597406E+03  0.14995603567E+04  0.13605441657E+04 0.  0.
        1    1    3    3  502    0 -0.19091722105E+03  0.31036483551E+02  0.10341115265E+04  0.10520452927E+04  0.50400001928E-02 0.  1.
       -1    1    3    3    0  502  0.19091722105E+03 -0.31036483551E+02 -0.40355555242E+03  0.44751506402E+03  0.50400001928E-02 0. -1.
</event>
<event>
 5   0  0.1210275E-03  0.1380348E+04  0.7818609E-02  0.8968168E-01
       -1   -1    0    0    0  501  0.00000000000E+00  0.00000000000E+00  0.84530511530E+03  0.84530511532E+03  0.50400001928E-02 0. -1.
        1   -1    0    0  501    0  0.00000000000E+00  0.00000000000E+00 -0.56351248823E+03  0.56351248826E+03  0.50400001928E-02 0.  1.
    10030    2    1    2    0    0  0.00000000000E+00  0.00000000000E+00  0.28179262707E+03  0.14088176036E+04  0.13803477661E+04 0.  0.
        1    1    3    3  502    0 -0.25765929454E+03 -0.41388453649E+03  0.63949155034E+03  0.80413815019E+03  0.50400001928E-02 0. -1.
       -1    1    3    3    0  502  0.25765929454E+03  0.41388453649E+03 -0.35769892327E+03  0.60467945338E+03  0.50400001928E-02 0.  1.
</event>
<event>
 5   0  0.1175374E-03  0.1383076E+04  0.7818609E-02  0.8966161E-01
        1   -1    0    0  501    0  0.00000000000E+00  0.00000000000E+00  0.48567855963E+03  0.48567855966E+03  0.50400001928E-02 0.  1.
       -1   -1    0    0    0  501  0.00000000000E+00  0.00000000000E+00 -0.98465327173E+03  0.98465327174E+03  0.50400001928E-02 0. -1.
    10030    2    1    2    0    0  0.00000000000E+00  0.00000000000E+00 -0.49897471209E+03  0.14703318314E+04  0.13830762564E+04 0.  0.
        3    1    3    3  502    0 -0.24129454458E+01  0.36625968728E+03 -0.87307072721E+03  0.94678639922E+03  0.10100000352E+00 0. -1.
       -3    1    3    3    0  502  0.24129454458E+01 -0.36625968728E+03  0.37409601512E+03  0.52354543218E+03  0.10100000352E+00 0.  1.
</event>
<event>
 5   0  0.1175374E-03  0.1395739E+04  0.7818609E-02  0.8956908E-01
        1   -1    0    0  501    0  0.00000000000E+00  0.00000000000E+00  0.12973407974E+04  0.12973407975E+04  0.50400001928E-02 0. -1.
       -1   -1    0    0    0  501  0.00000000000E+00  0.00000000000E+00 -0.37540020600E+03  0.37540020604E+03  0.50400001928E-02 0.  1.
    10030    2    1    2    0    0  0.00000000000E+00  0.00000000000E+00  0.92194059145E+03  0.16727410035E+04  0.13957392345E+04 0.  0.
        3    1    3    3  502    0 -0.29959831710E+03 -0.40037256084E+03 -0.12242940348E+03  0.51482648351E+03  0.10100000352E+00 0.  1.
       -3    1    3    3    0  502  0.29959831710E+03  0.40037256084E+03  0.10443699949E+04  0.11579145200E+04  0.10100000352E+00 0. -1.
</event>
<event>
 5   0  0.1238683E-03  0.1272325E+04  0.7818609E-02  0.9051804E-01
       -1   -1    0    0    0  501  0.00000000000E+00  0.00000000000E+00  0.54230056447E+03  0.54230056449E+03  0.50400001928E-02 0.  1.
        1   -1    0    0  501    0  0.00000000000E+00  0.00000000000E+00 -0.74627010813E+03  0.74627010815E+03  0.50400001928E-02 0. -1.
    10030    2    1    2    0    0  0.00000000000E+00  0.00000000000E+00 -0.20396954366E+03  0.12885706726E+04  0.12723249599E+04 0.  0.
        2    1    3    3  502    0  0.57573542496E+03  0.26788824677E+03 -0.63190203280E+02  0.63814449313E+03  0.25500000920E-02 0.  1.
       -2    1    3    3    0  502 -0.57573542496E+03 -0.26788824677E+03 -0.14077934038E+03  0.65042617952E+03  0.25500000920E-02 0. -1.
</event>
<event>
 5   0  0.2083966E-03  0.1348321E+04  0.7818609E-02  0.8992100E-01
       -2   -1    0    0    0  501  0.00000000000E+00  0.00000000000E+00  0.25108227261E+03  0.25108227262E+03  0.25500000920E-02 0. -1.
        2   -1    0    0  501    0  0.00000000000E+00  0.00000000000E+00 -0.18101344857E+04  0.18101344857E+04  0.25500000920E-02 0.  1.
    10030    2    1    2    0    0  0.00000000000E+00  0.00000000000E+00 -0.15590522131E+04  0.20612167583E+04  0.13483214460E+04 0.  0.
        1    1    3    3  502    0 -0.52760066916E+03  0.26905814223E+03 -0.28714768457E+03  0.65818579654E+03  0.50400001928E-02 0. -1.
       -1    1    3    3    0  502  0.52760066916E+03 -0.26905814223E+03 -0.12719045285E+04  0.14030309618E+04  0.50400001928E-02 0.  1.
</event>
<event>
 5   0  0.2236184E-03  0.1387959E+04  0.7818609E-02  0.8962581E-01
       -2   -1    0    0    0  501  0.00000000000E+00  0.00000000000E+00  0.37471769200E+03  0.37471769201E+03  0.25500000920E-02 0. -1.
        2   -1    0    0  501    0  0.00000000000E+00  0.00000000000E+00 -0.12852547620E+04  0.12852547620E+04  0.25500000920E-02 0.  1.
    10030    2    1    2    0    0  0.00000000000E+00  0.00000000000E+00 -0.91053706997E+03  0.16599724540E+04  0.13879592185E+04 0.  0.
        3    1    3    3  502    0 -0.38096136889E+03 -0.76605477502E+02 -0.11429394773E+04  0.12071912122E+04  0.10100000352E+00 0.  1.
       -3    1    3    3    0  502  0.38096136889E+03  0.76605477502E+02  0.23240240735E+03  0.45278124178E+03  0.10100000352E+00 0. -1.
</event>
<event>
 5   0  0.1175374E-03  0.1405161E+04  0.7818609E-02  0.8950091E-01
        1   -1    0    0  501    0  0.00000000000E+00  0.00000000000E+00  0.21505143362E+04  0.21505143362E+04  0.50400001928E-02 0. -1.
       -1   -1    0    0    0  501  0.00000000000E+00  0.00000000000E+00 -0.22953562227E+03  0.22953562232E+03  0.50400001928E-02 0.  1.
    10030    2    1    2    0    0  0.00000000000E+00  0.00000000000E+00  0.19209787139E+04  0.23800499585E+04  0.14051614091E+04 0.  0.
        3    1    3    3  502    0 -0.42764805560E+03  0.20178779711E+03  0.18406391448E+04  0.19004088103E+04  0.10100000352E+00 0. -1.
       -3    1    3    3    0  502  0.42764805560E+03 -0.20178779711E+03  0.80339569093E+02  0.47964114824E+03  0.10100000352E+00 0.  1.
</event>
<event>
 5   0  0.2195980E-03  0.1402503E+04  0.7818609E-02  0.8952009E-01
        2   -1    0    0  501    0  0.00000000000E+00  0.00000000000E+00  0.11487528521E+04  0.11487528521E+04  0.25500000920E-02 0.  1.
       -2   -1    0    0    0  501  0.00000000000E+00  0.00000000000E+00 -0.42807605582E+03  0.42807605583E+03  0.25500000920E-02 0. -1.
    10030    2    1    2    0    0  0.00000000000E+00  0.00000000000E+00  0.72067679626E+03  0.15768289079E+04  0.14025028913E+04 0.  0.
        4    1    3    3  502    0 -0.62156561637E+03 -0.29399818357E+03  0.51520274340E+03  0.85919394034E+03  0.12699999809E+01 0. -1.
       -4    1    3    3    0  502  0.62156561637E+03  0.29399818357E+03  0.20547405286E+03  0.71763496758E+03  0.12699999809E+01 0.  1.
</event>
<event>
 5   0  0.1175374E-03  0.1288202E+04  0.7818609E-02  0.9038973E-01
       -1   -1    0    0    0  501  0.00000000000E+00  0.00000000000E+00  0.97379206227E+03  0.97379206229E+03  0.50400001928E-02 0. -1.
        1   -1    0    0  501    0  0.00000000000E+00  0.00000000000E+00 -0.42603172161E+03  0.42603172164E+03  0.50400001928E-02 0.  1.
    10030    2    1    2    0    0  0.00000000000E+00  0.00000000000E+00  0.54776034066E+03  0.13998237839E+04  0.12882023270E+04 0.  0.
        3    1    3    3  502    0 -0.77779658068E+02  0.61783383558E+03  0.45275849052E+03  0.76990816630E+03  0.10100000352E+00 0. -1.
       -3    1    3    3    0  502  0.77779658068E+02 -0.61783383558E+03  0.95001850140E+02  0.62991561762E+03  0.10100000352E+00 0.  1.
</event>
<event>
 5   0  0.1175374E-03  0.1403171E+04  0.7818609E-02  0.8951526E-01
       -1   -1    0    0    0  501  0.00000000000E+00  0.00000000000E+00  0.61470881994E+03  0.61470881996E+03  0.50400001928E-02 0.  1.
        1   -1    0    0  501    0  0.00000000000E+00  0.00000000000E+00 -0.80074038079E+03  0.80074038081E+03  0.50400001928E-02 0. -1.
    10030    2    1    2    0    0  0.00000000000E+00  0.00000000000E+00 -0.18603156086E+03  0.14154492008E+04  0.14031709441E+04 0.  0.
        3    1    3    3  502    0  0.56431100192E+03  0.37319611666E+03  0.94351055692E+02  0.68309909990E+03  0.10100000352E+00 0.  1.
       -3    1    3    3    0  502 -0.56431100192E+03 -0.37319611666E+03 -0.28038261655E+03  0.73235010087E+03  0.10100000352E+00 0. -1.
</event>
<event>
 5   0  0.2236184E-03  0.1400176E+04  0.7818609E-02  0.8953691E-01
        2   -1    0    0  501    0  0.00000000000E+00  0.00000000000E+00  0.45895199662E+03  0.45895199663E+03  0.25500000920E-02 0. -1.
       -2   -1    0    0    0  501  0.00000000000E+00  0.00000000000E+00 -0.10679178083E+04  0.10679178083E+04  0.25500000920E-02 0.  1.
    10030    2    1    2    0    0  0.00000000000E+00  0.00000000000E+00 -0.60896581170E+03  0.15268698049E+04  0.14001757181E+04 0.  0.
        3    1    3    3  502    0  0.15545576685E+03  0.52203246292E+03 -0.78409601926E+03  0.95472035979E+03  0.10100000352E+00 0.  1.
       -3    1    3    3    0  502 -0.15545576685E+03 -0.52203246292E+03  0.17513020756E+03  0.57214944515E+03  0.10100000352E+00 0. -1.
</event>
<event>
 5   0  0.1225690E-03  0.1398914E+04  0.7818609E-02  0.8954605E-01
       -1   -1    0    0    0  501  0.00000000000E+00  0.00000000000E+00  0.26516548033E+03  0.26516548037E+03  0.50400001928E-02 0. -1.
        1   -1    0    0  501    0  0.00000000000E+00  0.00000000000E+00 -0.18450376677E+04  0.18450376677E+04  0.50400001928E-02 0.  1.
    10030    2    1    2    0    0  0.00000000000E+00  0.00000000000E+00 -0.15798721874E+04  0.21102031481E+04  0.13989142925E+04 0.  0.
        4    1    3    3  502    0 -0.37111718968E+03  0.40901881957E+03 -0.14250305647E+03  0.57037978334E+03  0.12699999809E+01 0. -1.
       -4    1    3    3    0  502  0.37111718968E+03 -0.40901881957E+03 -0.14373691309E+04  0.15398233648E+04  0.12699999809E+01 0.  1.
</event>
<event>
 5   0  0.1175374E-03  0.1234287E+04  0.7818609E-02  0.9083364E-01
        1   -1    0    0  501    0  0.00000000000E+00  0.00000000000E+00  0.59023387039E+03  0.59023387042E+03  0.50400001928E-02 0. -1.
       -1   -1    0    0    0  501  0.00000000000E+00  0.00000000000E+00 -0.64527968296E+03  0.64527968298E+03  0.50400001928E-02 0.  1.
    10030    2    1    2    0    0  0.00000000000E+00  0.00000000000E+00 -0.55045812561E+02  0.12355135534E+04  0.12342867167E+04 0.  0.
        3    1    3    3  502    0  0.42453593849E+03  0.15047929744E+03  0.39478639031E+03  0.59894163839E+03  0.10100000352E+00 0. -1.
       -3    1    3    3    0  502 -0.42453593849E+03 -0.15047929744E+03 -0.44983220287E+03  0.63657191500E+03  0.10100000352E+00 0.  1.
</event>
<event>
 5   0  0.2172901E-03  0.1402729E+04  0.7818609E-02  0.8951846E-01
       -2   -1    0    0    0  501  0.00000000000E+00  0.00000000000E+00  0.64171474663E+03  0.64171474663E+03  0.25500000920E-02 0.  1.
        2   -1    0    0  501    0  0.00000000000E+00  0.00000000000E+00 -0.76655855823E+03  0.76655855824E+03  0.25500000920E-02 0. -1.
    10030    2    1    2    0    0  0.00000000000E+00  0.00000000000E+00 -0.12484381160E+03  0.14082733049E+04  0.14027286708E+04 0.  0.
        2    1    3    3  502    0 -0.21958486147E+03 -0.49569305942E+03 -0.50913328509E+03  0.74373773774E+03  0.25500000920E-02 0.  1.
       -2    1    3    3    0  502  0.21958486147E+03  0.49569305942E+03  0.38428947349E+03  0.66453556713E+03  0.25500000920E-02 0. -1.
</event>
<event>
 5   0  0.1225690E-03  0.1408708E+04  0.7818609E-02  0.8947539E-01
       -1   -1    0    0    0  501  0.00000000000E+00  0.00000000000E+00  0.22263936623E+04  0.22263936623E+04  0.50400001928E-02 0.  1.
        1   -1    0    0  501    0  0.00000000000E+00  0.00000000000E+00 -0.22283332824E+03  0.22283332830E+03  0.50400001928E-02 0. -1.
    10030    2    1    2    0    0  0.00000000000E+00  0.00000000000E+00  0.20035603341E+04  0.24492269906E+04  0.14087082165E+04 0.  0.
        4    1    3    3  502    0 -0.17967172153E+03  0.57274408298E+03  0.16424739269E+04  0.17487252287E+04  0.12699999809E+01 0.  1.
       -4    1    3    3    0  502  0.17967172153E+03 -0.57274408298E+03  0.36108640722E+03  0.70050176194E+03  0.12699999809E+01 0. -1.
</event>
<event>
 5   0  0.2083966E-03  0.1421070E+04  0.7818609E-02  0.8938707E-01
        2   -1    0    0  501    0  0.00000000000E+00  0.00000000000E+00  0.49640861690E+03  0.49640861691E+03  0.25500000920E-02 0.  1.
       -2   -1    0    0    0  501  0.00000000000E+00  0.00000000000E+00 -0.10170252327E+04  0.10170252327E+04  0.25500000920E-02 0. -1.
    10030    2    1    2    0    0  0.00000000000E+00  0.00000000000E+00 -0.52061661578E+03  0.15134338496E+04  0.14210701448E+04 0.  0.
        1    1    3    3  502    0  0.24102402182E+03 -0.56318613693E+03 -0.64369038376E+03  0.88859918641E+03  0.50400001928E-02 0. -1.
       -1    1    3    3    0  502 -0.24102402182E+03  0.56318613693E+03  0.12307376797E+03  0.62483466319E+03  0.50400001928E-02 0.  1.
</event>
<event>
 5   0  0.8293000E-04  0.1473906E+04  0.7818609E-02  0.8901993E-01
        4   -1    0    0  501    0  0.00000000000E+00  0.00000000000E+00  0.74257617240E+03  0.74257725842E+03  0.12699999809E+01 0. -1.
       -4   -1    0    0    0  501  0.00000000000E+00  0.00000000000E+00 -0.73137011675E+03  0.73137121941E+03  0.12699999809E+01 0.  1.
    10030    2    1    2    0    0  0.00000000000E+00  0.00000000000E+00  0.11206055647E+02  0.14739484778E+04  0.14739058788E+04 0.  0.
        5    1    3    3  502    0  0.50377767121E+03 -0.32338389739E+03  0.43539266809E+03  0.74024182031E+03  0.46999998093E+01 0. -1.
       -5    1    3    3    0  502 -0.50377767121E+03  0.32338389739E+03 -0.42418661245E+03  0.73370665752E+03  0.46999998093E+01 0.  1.
</event>
<event>
 5   0  0.1225690E-03  0.1349592E+04  0.7818609E-02  0.8991137E-01
       -1   -1    0    0    0  501  0.00000000000E+00  0.00000000000E+00  0.92164374907E+03  0.92164374908E+03  0.50400001928E-02 0. -1.
        1   -1    0    0  501    0  0.00000000000E+00  0.00000000000E+00 -0.49406281776E+03  0.49406281778E+03  0.50400001928E-02 0.  1.
    10030    2    1    2    0    0  0.00000000000E+00  0.00000000000E+00  0.42758093131E+03  0.14157065669E+04  0.13495923943E+04 0.  0.
        4    1    3    3  502    0 -0.11627742074E+03 -0.19247645199E+03 -0.45360078340E+03  0.50628342531E+03  0.12699999809E+01 0.  1.
       -4    1    3    3    0  502  0.11627742074E+03  0.19247645199E+03  0.88118171471E+03  0.90942314155E+03  0.12699999809E+01 0. -1.
</event>
<event>
 5   0  0.2236184E-03  0.1437333E+04  0.7818609E-02  0.8927229E-01
       -2   -1    0    0    0  501  0.00000000000E+00  0.00000000000E+00  0.13338445230E+04  0.13338445230E+04  0.25500000920E-02 0.  1.
        2   -1    0    0  501    0  0.00000000000E+00  0.00000000000E+00 -0.38721285278E+03  0.38721285279E+03  0.25500000920E-02 0. -1.
    10030    2    1    2    0    0  0.00000000000E+00  0.00000000000E+00  0.94663167026E+03  0.17210573758E+04  0.14373332849E+04 0.  0.
        3    1    3    3  502    0  0.59712645245E+03  0.82354404417E+02  0.47383074430E+01  0.60279740370E+03  0.10100000352E+00 0. -1.
       -3    1    3    3    0  502 -0.59712645245E+03 -0.82354404417E+02  0.94189336282E+03  0.11182599721E+04  0.10100000352E+00 0.  1.
</event>
<event>
 5   0  0.1175374E-03  0.1198049E+04  0.7818609E-02  0.9114566E-01
       -1   -1    0    0    0  501  0.00000000000E+00  0.00000000000E+00  0.37958360666E+03  0.37958360669E+03  0.50400001928E-02 0. -1.
        1   -1    0    0  501    0  0.00000000000E+00  0.00000000000E+00 -0.94532643275E+03  0.94532643276E+03  0.50400001928E-02 0.  1.
    10030    2    1    2    0    0  0.00000000000E+00  0.00000000000E+00 -0.56574282609E+03  0.13249100395E+04  0.11980491089E+04 0.  0.
        3    1    3    3  502    0  0.52042670914E+03 -0.19745533248E+03 -0.52766511068E+03  0.76698308140E+03  0.10100000352E+00 0.  1.
       -3    1    3    3    0  502 -0.52042670914E+03  0.19745533248E+03 -0.38077715404E+02  0.55792695806E+03  0.10100000352E+00 0. -1.
</event>
<event>
 5   0  0.2172901E-03  0.1391707E+04  0.7818609E-02  0.8959843E-01
       -2   -1    0    0    0  501  0.00000000000E+00  0.00000000000E+00  0.53576772890E+03  0.53576772891E+03  0.25500000920E-02 0.  1.
        2   -1    0    0  501    0  0.00000000000E+00  0.00000000000E+00 -0.90377261393E+03  0.90377261393E+03  0.25500000920E-02 0. -1.
    10030    2    1    2    0    0  0.00000000000E+00  0.00000000000E+00 -0.36800488503E+03  0.14395403428E+04  0.13917071543E+04 0.  0.
        2    1    3    3  502    0 -0.11484333583E+03  0.60289937469E+03  0.15519456884E+03  0.63305766087E+03  0.25500000920E-02 0.  1.
       -2    1    3    3    0  502  0.11484333583E+03 -0.60289937469E+03 -0.52319945387E+03  0.80648268197E+03  0.25500000920E-02 0. -1.
</event>
<event>
 5   0  0.2236184E-03  0.1459578E+04  0.7818609E-02  0.8911787E-01
        2   -1    0    0  501    0  0.00000000000E+00  0.00000000000E+00  0.12981062040E+04  0.12981062040E+04  0.25500000920E-02 0. -1.
       -2   -1    0    0    0  501  0.00000000000E+00  0.00000000000E+00 -0.41028377774E+03  0.41028377775E+03  0.25500000920E-02 0.  1.
    10030    2    1    2    0    0  0.00000000000E+00  0.00000000000E+00  0.88782242628E+03  0.17083899818E+04  0.14595779079E+04 0.  0.
        3    1    3    3  502    0 -0.72591208612E+02  0.60386867299E+03  0.91598171030E+03  0.10995223334E+04  0.10100000352E+00 0. -1.
       -3    1    3    3    0  502  0.72591208612E+02 -0.60386867299E+03 -0.28159284028E+02  0.60886764840E+03  0.10100000352E+00 0.  1.
</event>
<event>
 5   0  0.2172901E-03  0.1401750E+04  0.7818609E-02  0.8952553E-01
       -2   -1    0    0    0  501  0.00000000000E+00  0.00000000000E+00  0.28113507614E+03  0.28113507615E+03  0.25500000920E-02 0. -1.
        2   -1    0    0  501    0  0.00000000000E+00  0.00000000000E+00 -0.17472937695E+04  0.17472937695E+04  0.25500000920E-02 0.  1.
    10030    2    1    2    0    0  0.00000000000E+00  0.00000000000E+00 -0.14661586934E+04  0.20284288457E+04  0.14017497165E+04 0.  0.
        2    1    3    3  502    0 -0.62624028715E+03 -0.26235540901E+03 -0.98462938058E+03  0.11960360676E+04  0.25500000920E-02 0. -1.
       -2    1    3    3    0  502  0.62624028715E+03  0.26235540901E+03 -0.48152931278E+03  0.83239277805E+03  0.25500000920E-02 0.  1.
</event>
<event>
 5   0  0.2172901E-03  0.1382999E+04  0.7818609E-02  0.8966218E-01
       -2   -1    0    0    0  501  0.00000000000E+00  0.00000000000E+00  0.39809316559E+03  0.39809316560E+03  0.25500000920E-02 0. -1.
        2   -1    0    0  501    0  0.00000000000E+00  0.00000000000E+00 -0.12011541963E+04  0.12011541963E+04  0.25500000920E-02 0.  1.
    10030    2    1    2    0    0  0.00000000000E+00  0.00000000000E+00 -0.80306103074E+03  0.15992473619E+04  0.13829985920E+04 0.  0.
        2    1    3    3  502    0  0.60390285914E+03  0.33616796973E+03 -0.42643151479E+03  0.81212770176E+03  0.25500000920E-02 0.  1.
       -2    1    3    3    0  502 -0.60390285914E+03 -0.33616796973E+03 -0.37662951595E+03  0.78711966018E+03  0.25500000920E-02 0. -1.
</event>
<event>
 5   0  0.1199720E-03  0.1385414E+04  0.7818609E-02  0.8964445E-01
       -1   -1    0    0    0  501  0.00000000000E+00  0.00000000000E+00  0.55316032807E+03  0.55316032809E+03  0.50400001928E-02 0. -1.
        1   -1    0    0  501    0  0.00000000000E+00  0.00000000000E+00 -0.86745717382E+03  0.86745717384E+03  0.50400001928E-02 0.  1.
    10030    2    1    2    0    0  0.00000000000E+00  0.00000000000E+00 -0.31429684576E+03  0.14206175019E+04  0.13854138658E+04 0.  0.
        5    1    3    3  502    0 -0.18084974163E+02 -0.30406468678E+03 -0.79508082487E+03  0.85144465945E+03  0.46999998093E+01 0.  1.
       -5    1    3    3    0  502  0.18084974163E+02  0.30406468678E+03  0.48078397912E+03  0.56917284247E+03  0.46999998093E+01 0. -1.
</event>
<event>
 5   0  0.1225690E-03  0.1414248E+04  0.7818609E-02  0.8943569E-01
       -1   -1    0    0    0  501  0.00000000000E+00  0.00000000000E+00  0.60536163100E+03  0.60536163102E+03  0.50400001928E-02 0. -1.
        1   -1    0    0  501    0  0.00000000000E+00  0.00000000000E+00 -0.82599265363E+03  0.82599265365E+03  0.50400001928E-02 0.  1.
    10030    2    1    2    0    0  0.00000000000E+00  0.00000000000E+00 -0.22063102263E+03  0.14313542847E+04  0.14142478708E+04 0.  0.
        4    1    3    3  502    0  0.45898125424E+03 -0.16041557703E+02  0.43386978007E+03  0.63179563331E+03  0.12699999809E+01 0. -1.
       -4    1    3    3    0  502 -0.45898125424E+03  0.16041557703E+02 -0.65450080270E+03  0.79955865135E+03  0.12699999809E+01 0.  1.
</event>
<event>
 5   0  0.2172901E-03  0.1419814E+04  0.7818609E-02  0.8939600E-01
        2   -1    0    0  501    0  0.00000000000E+00  0.00000000000E+00  0.14162035632E+04  0.14162035632E+04  0.25500000920E-02 0.  1.
       -2   -1    0    0    0  501  0.00000000000E+00  0.00000000000E+00 -0.35585844475E+03  0.35585844476E+03  0.25500000920E-02 0. -1.
    10030    2    1    2    0    0  0.00000000000E+00  0.00000000000E+00  0.10603451184E+04  0.17720620079E+04  0.14198140687E+04 0.  0.
        2    1    3    3  502    0 -0.68274003933E+02 -0.61856154182E+03  0.10382767845E+03  0.63091988988E+03  0.25500000920E-02 0. -1.
       -2    1    3    3    0  502  0.68274003933E+02  0.61856154182E+03  0.95651743998E+03  0.11411421181E+04  0.25500000920E-02 0.  1.
</event>
<event>
 5   0  0.2172901E-03  0.1392755E+04  0.7818609E-02  0.8959079E-01
        2   -1    0    0  501    0  0.00000000000E+00  0.00000000000E+00  0.47970257339E+03  0.47970257340E+03  0.25500000920E-02 0. -1.
       -2   -1    0    0    0  501  0.00000000000E+00  0.00000000000E+00 -0.10109220416E+04  0.10109220416E+04  0.25500000920E-02 0.  1.
    10030    2    1    2    0    0  0.00000000000E+00  0.00000000000E+00 -0.53121946820E+03  0.14906246150E+04  0.13927554055E+04 0.  0.
        2    1    3    3  502    0  0.40349408305E+03  0.54971048615E+03 -0.11442933671E+03  0.69143558394E+03  0.25500000920E-02 0.  1.
       -2    1    3    3    0  502 -0.40349408305E+03 -0.54971048615E+03 -0.41679013149E+03  0.79918903105E+03  0.25500000920E-02 0. -1.
</event>
<event>
 5   0  0.8293000E-04  0.1283411E+04  0.7818609E-02  0.9042825E-01
       -3   -1    0    0    0  501  0.00000000000E+00  0.00000000000E+00  0.94087537858E+03  0.94087538400E+03  0.10100000352E+00 0.  1.
        3   -1    0    0  501    0  0.00000000000E+00  0.00000000000E+00 -0.43766232336E+03  0.43766233502E+03  0.10100000352E+00 0. -1.
    10030    2    1    2    0    0  0.00000000000E+00  0.00000000000E+00  0.50321305522E+03  0.13785377190E+04  0.12834106373E+04 0.  0.
        4    1    3    3  502    0 -0.64043923054E+03 -0.27498838796E+02  0.28320665175E+03  0.70080397733E+03  0.12699999809E+01 0. -1.
       -4    1    3    3    0  502  0.64043923054E+03  0.27498838796E+02  0.22000640347E+03  0.67773374168E+03  0.12699999809E+01 0.  1.
</event>
<event>
 5   0  0.2236184E-03  0.1508748E+04  0.7818609E-02  0.8878656E-01
       -2   -1    0    0    0  501  0.00000000000E+00  0.00000000000E+00  0.63835158299E+03  0.63835158299E+03  0.25500000920E-02 0. -1.
        2   -1    0    0  501    0  0.00000000000E+00  0.00000000000E+00 -0.89148424689E+03  0.89148424690E+03  0.25500000920E-02 0.  1.
    10030    2    1    2    0    0  0.00000000000E+00  0.00000000000E+00 -0.25313266391E+03  0.15298358299E+04  0.15087483292E+04 0.  0.
        3    1    3    3  502    0 -0.59777111729E+03  0.23558960163E+03 -0.52737278486E+03  0.83123692980E+03  0.10100000352E+00 0.  1.
       -3    1    3    3    0  502  0.59777111729E+03 -0.23558960163E+03  0.27424012095E+03  0.69859890008E+03  0.10100000352E+00 0. -1.
</event>
<event>
 5   0  0.8293000E-04  0.1351134E+04  0.7818609E-02  0.8989970E-01
        4   -1    0    0  501    0  0.00000000000E+00  0.00000000000E+00  0.70484351572E+03  0.70484465987E+03  0.12699999809E+01 0. -1.
       -4   -1    0    0    0  501  0.00000000000E+00  0.00000000000E+00 -0.64750400529E+03  0.64750525076E+03  0.12699999809E+01 0.  1.
    10030    2    1    2    0    0  0.00000000000E+00  0.00000000000E+00  0.57339510433E+02  0.13523499106E+04  0.13511337689E+04 0.  0.
        4    1    3    3  502    0  0.64796532082E+03  0.15596909798E+03 -0.81899519262E+02  0.67148682836E+03  0.12699999809E+01 0. -1.
       -4    1    3    3    0  502 -0.64796532082E+03 -0.15596909798E+03  0.13923902970E+03  0.68086308227E+03  0.12699999809E+01 0.  1.
</event>
<event>
 5   0  0.1210275E-03  0.1376462E+04  0.7818609E-02  0.8971035E-01
       -1   -1    0    0    0  501  0.00000000000E+00  0.00000000000E+00  0.65318941100E+03  0.65318941102E+03  0.50400001928E-02 0. -1.
        1   -1    0    0  501    0  0.00000000000E+00  0.00000000000E+00 -0.72515245640E+03  0.72515245642E+03  0.50400001928E-02 0.  1.
    10030    2    1    2    0    0  0.00000000000E+00  0.00000000000E+00 -0.71963045401E+02  0.13783418674E+04  0.13764619950E+04 0.  0.
        1    1    3    3  502    0 -0.42451974575E+03 -0.32052564611E+03 -0.47327943973E+03  0.71200219975E+03  0.50400001928E-02 0.  1.
       -1    1    3    3    0  502  0.42451974575E+03  0.32052564611E+03  0.40131639433E+03  0.66633966769E+03  0.50400001928E-02 0. -1.
</event>
<event>
 5   0  0.2172901E-03  0.1525969E+04  0.7818609E-02  0.8867365E-01
       -2   -1    0    0    0  501  0.00000000000E+00  0.00000000000E+00  0.61505946198E+03  0.61505946199E+03  0.25500000920E-02 0. -1.
        2   -1    0    0  501    0  0.00000000000E+00  0.00000000000E+00 -0.94648576334E+03  0.94648576335E+03  0.25500000920E-02 0.  1.
    10030    2    1    2    0    0  0.00000000000E+00  0.00000000000E+00 -0.33142630136E+03  0.15615452253E+04  0.15259685768E+04 0.  0.
        2    1    3    3  502    0  0.55014777875E+03 -0.11730953848E+03 -0.69321240288E+03  0.89273038583E+03  0.25500000920E-02 0.  1.
       -2    1    3    3    0  502 -0.55014777875E+03  0.11730953848E+03  0.36178610152E+03  0.66881483950E+03  0.25500000920E-02 0. -1.
</event>
<event>
 5   0  0.2190704E-03  0.1458533E+04  0.7818609E-02  0.8912506E-01
       -2   -1    0    0    0  501  0.00000000000E+00  0.00000000000E+00  0.82541434240E+03  0.82541434240E+03  0.25500000920E-02 0. -1.
        2   -1    0    0  501    0  0.00000000000E+00  0.00000000000E+00 -0.64431868544E+03  0.64431868544E+03  0.25500000920E-02 0.  1.
    10030    2    1    2    0    0  0.00000000000E+00  0.00000000000E+00  0.18109565696E+03  0.14697330278E+04  0.14585333511E+04 0.  0.
        5    1    3    3  502    0 -0.28765707703E+03 -0.66800206621E+03  0.14419609506E+03  0.74147687641E+03  0.46999998093E+01 0.  1.
       -5    1    3    3    0  502  0.28765707703E+03  0.66800206621E+03  0.36899561906E+02  0.72825615143E+03  0.46999998093E+01 0. -1.
</event>
<event>
 5   0  0.8293000E-04  0.1377535E+04  0.7818609E-02  0.8970242E-01
       -4   -1    0    0    0  501  0.00000000000E+00  0.00000000000E+00  0.47431936513E+03  0.47432106536E+03  0.12699999809E+01 0.  1.
        4   -1    0    0  501    0  0.00000000000E+00  0.00000000000E+00 -0.10001673975E+04  0.10001682038E+04  0.12699999809E+01 0. -1.
    10030    2    1    2    0    0  0.00000000000E+00  0.00000000000E+00 -0.52584803232E+03  0.14744892691E+04  0.13775349185E+04 0.  0.
        4    1    3    3  502    0  0.22696347099E+03 -0.72397582410E+02  0.42881573442E+03  0.49054905370E+03  0.12699999809E+01 0.  1.
       -4    1    3    3    0  502 -0.22696347099E+03  0.72397582410E+02 -0.95466376674E+03  0.98394021542E+03  0.12699999809E+01 0. -1.
</event>
<event>
 5   0  0.1199720E-03  0.1471540E+04  0.7818609E-02  0.8903602E-01
       -1   -1    0    0    0  501  0.00000000000E+00  0.00000000000E+00  0.50374113688E+03  0.50374113690E+03  0.50400001928E-02 0. -1.
        1   -1    0    0  501    0  0.00000000000E+00  0.00000000000E+00 -0.10746745935E+04  0.10746745935E+04  0.50400001928E-02 0.  1.
    10030    2    1    2    0    0  0.00000000000E+00  0.00000000000E+00 -0.57093345664E+03  0.15784157304E+04  0.14715404195E+04 0.  0.
        5    1    3    3  502    0  0.24902573961E+03  0.69134621022E+03 -0.24587657314E+03  0.77488759223E+03  0.46999998093E+01 0.  1.
       -5    1    3    3    0  502 -0.24902573961E+03 -0.69134621022E+03 -0.32505688351E+03  0.80352813821E+03  0.46999998093E+01 0. -1.
</event>
<event>
 5   0  0.2195980E-03  0.1411074E+04  0.7818609E-02  0.8945842E-01
       -2   -1    0    0    0  501  0.00000000000E+00  0.00000000000E+00  0.59720288371E+03  0.59720288372E+03  0.25500000920E-02 0. -1.
        2   -1    0    0  501    0  0.00000000000E+00  0.00000000000E+00 -0.83352288070E+03  0.83352288070E+03  0.25500000920E-02 0.  1.
    10030    2    1    2    0    0  0.00000000000E+00  0.00000000000E+00 -0.23631999699E+03  0.14307257644E+04  0.14110737302E+04 0.  0.
        4    1    3    3  502    0  0.52681595817E+03 -0.12098651684E+03 -0.57791509477E+03  0.79130288809E+03  0.12699999809E+01 0.  1.
       -4    1    3    3    0  502 -0.52681595817E+03  0.12098651684E+03  0.34159509778E+03  0.63942287633E+03  0.12699999809E+01 0. -1.
</event>
<event>
 5   0  0.1175374E-03  0.1388278E+04  0.7818609E-02  0.8962347E-01
       -1   -1    0    0    0  501  0.00000000000E+00  0.00000000000E+00  0.23631473680E+03  0.23631473685E+03  0.50400001928E-02 0.  1.
        1   -1    0    0  501    0  0.00000000000E+00  0.00000000000E+00 -0.20389297698E+04  0.20389297699E+04  0.50400001928E-02 0. -1.
    10030    2    1    2    0    0  0.00000000000E+00  0.00000000000E+00 -0.18026150330E+04  0.22752445067E+04  0.13882782891E+04 0.  0.
        3    1    3    3  502    0 -0.39695078406E+03 -0.56913553823E+03 -0.87091246026E+03  0.11135410677E+04  0.10100000352E+00 0.  1.
       -3    1    3    3    0  502  0.39695078406E+03  0.56913553823E+03 -0.93170257278E+03  0.11617034390E+04  0.10100000352E+00 0. -1.
</event>
<event>
 5   0  0.1238683E-03  0.1429868E+04  0.7818609E-02  0.8932478E-01
       -1   -1    0    0    0  501  0.00000000000E+00  0.00000000000E+00  0.21467805016E+03  0.21467805022E+03  0.50400001928E-02 0. -1.
        1   -1    0    0  501    0  0.00000000000E+00  0.00000000000E+00 -0.23809179721E+04  0.23809179721E+04  0.50400001928E-02 0.  1.
    10030    2    1    2    0    0  0.00000000000E+00  0.00000000000E+00 -0.21662399220E+04  0.25955960224E+04  0.14298682848E+04 0.  0.
        2    1    3    3  502    0 -0.68589295471E+02 -0.69005868103E+03 -0.13988169188E+04  0.15612732775E+04  0.25500000920E-02 0.  1.
       -2    1    3    3    0  502  0.68589295471E+02  0.69005868103E+03 -0.76742300316E+03  0.10343227448E+04  0.25500000920E-02 0. -1.
</event>
<event>
 5   0  0.2172901E-03  0.1250865E+04  0.7818609E-02  0.9069463E-01
        2   -1    0    0  501    0  0.00000000000E+00  0.00000000000E+00  0.12073668325E+04  0.12073668325E+04  0.25500000920E-02 0. -1.
       -2   -1    0    0    0  501  0.00000000000E+00  0.00000000000E+00 -0.32398278789E+03  0.32398278790E+03  0.25500000920E-02 0.  1.
    10030    2    1    2    0    0  0.00000000000E+00  0.00000000000E+00  0.88338404462E+03  0.15313496204E+04  0.12508654163E+04 0.  0.
        2    1    3    3  502    0  0.25386423407E+02  0.61464967697E+03  0.30357944939E+03  0.68600231631E+03  0.25500000920E-02 0. -1.
       -2    1    3    3    0  502 -0.25386423407E+02 -0.61464967697E+03  0.57980459523E+03  0.84534730410E+03  0.25500000920E-02 0.  1.
</event>
<event>
 5   0  0.2236184E-03  0.1501105E+04  0.7818609E-02  0.8883718E-01
       -2   -1    0    0    0  501  0.00000000000E+00  0.00000000000E+00  0.11362263307E+04  0.11362263307E+04  0.25500000920E-02 0. -1.
        2   -1    0    0  501    0  0.00000000000E+00  0.00000000000E+00 -0.49578972739E+03  0.49578972740E+03  0.25500000920E-02 0.  1.
    10030    2    1    2    0    0  0.00000000000E+00  0.00000000000E+00  0.64043660331E+03  0.16320160581E+04  0.15011053830E+04 0.  0.
        3    1    3    3  502    0 -0.13663154816E+01 -0.40489989954E+03  0.10072999118E+04  0.10856329573E+04  0.10100000352E+00 0. -1.
       -3    1    3    3    0  502  0.13663154816E+01  0.40489989954E+03 -0.36686330852E+03  0.54638310077E+03  0.10100000352E+00 0.  1.
</event>
<event>
 5   0  0.1225690E-03  0.1342389E+04  0.7818609E-02  0.8996610E-01
        1   -1    0    0  501    0  0.00000000000E+00  0.00000000000E+00  0.96316834286E+03  0.96316834287E+03  0.50400001928E-02 0.  1.
       -1   -1    0    0    0  501  0.00000000000E+00  0.00000000000E+00 -0.46772913178E+03  0.46772913181E+03  0.50400001928E-02 0. -1.
    10030    2    1    2    0    0  0.00000000000E+00  0.00000000000E+00  0.49543921108E+03  0.14308974747E+04  0.13423887556E+04 0.  0.
        4    1    3    3  502    0 -0.34335168794E+03  0.55855105489E+03  0.94615680840E+02  0.66243747063E+03  0.12699999809E+01 0. -1.
       -4    1    3    3    0  502  0.34335168794E+03 -0.55855105489E+03  0.40082353024E+03  0.76846000405E+03  0.12699999809E+01 0.  1.
</event>
<event>
 5   0  0.2236184E-03  0.1406164E+04  0.7818609E-02  0.8949369E-01
        2   -1    0    0  501    0  0.00000000000E+00  0.00000000000E+00  0.10361043036E+04  0.10361043036E+04  0.25500000920E-02 0.  1.
       -2   -1    0    0    0  501  0.00000000000E+00  0.00000000000E+00 -0.47709884835E+03  0.47709884836E+03  0.25500000920E-02 0. -1.
    10030    2    1    2    0    0  0.00000000000E+00  0.00000000000E+00  0.55900545521E+03  0.15132031519E+04  0.14061638169E+04 0.  0.
        3    1    3    3  502    0 -0.56454900512E+03 -0.24706907437E+03  0.64374316365E+03  0.89115878363E+03  0.10100000352E+00 0.  1.
       -3    1    3    3    0  502  0.56454900512E+03  0.24706907437E+03 -0.84737708443E+02  0.62204436829E+03  0.10100000352E+00 0. -1.
</event>
<event>
 5   0  0.1175374E-03  0.1388934E+04  0.7818609E-02  0.8961868E-01
       -1   -1    0    0    0  501  0.00000000000E+00  0.00000000000E+00  0.41058155525E+03  0.41058155528E+03  0.50400001928E-02 0. -1.
        1   -1    0    0  501    0  0.00000000000E+00  0.00000000000E+00 -0.11746370508E+04  0.11746370508E+04  0.50400001928E-02 0.  1.
    10030    2    1    2    0    0  0.00000000000E+00  0.00000000000E+00 -0.76405549557E+03  0.15852186061E+04  0.13889338461E+04 0.  0.
        3    1    3    3  502    0 -0.32863408319E+03  0.50136010335E+03  0.18121844906E+02  0.59974221573E+03  0.10100000352E+00 0. -1.
       -3    1    3    3    0  502  0.32863408319E+03 -0.50136010335E+03 -0.78217734048E+03  0.98547639039E+03  0.10100000352E+00 0.  1.
</event>
<event>
 5   0  0.2172901E-03  0.1402233E+04  0.7818609E-02  0.8952204E-01
       -2   -1    0    0    0  501  0.00000000000E+00  0.00000000000E+00  0.30079585450E+03  0.30079585451E+03  0.25500000920E-02 0.  1.
        2   -1    0    0  501    0  0.00000000000E+00  0.00000000000E+00 -0.16342125284E+04  0.16342125284E+04  0.25500000920E-02 0. -1.
    10030    2    1    2    0    0  0.00000000000E+00  0.00000000000E+00 -0.13334166739E+04  0.19350083829E+04  0.14022330105E+04 0.  0.
        2    1    3    3  502    0 -0.48052916784E+03  0.50970413052E+03 -0.70712389879E+03  0.99535460518E+03  0.25500000920E-02 0.  1.
       -2    1    3    3    0  502  0.48052916784E+03 -0.50970413052E+03 -0.62629277507E+03  0.93965377769E+03  0.25500000920E-02 0. -1.
</event>
<event>
 5   0  0.2236184E-03  0.1379036E+04  0.7818609E-02  0.8969135E-01
        2   -1    0    0  501    0  0.00000000000E+00  0.00000000000E+00  0.27586309985E+03  0.27586309986E+03  0.25500000920E-02 0.  1.
       -2   -1    0    0    0  501  0.00000000000E+00  0.00000000000E+00 -0.17234462920E+04  0.17234462920E+04  0.25500000920E-02 0. -1.
    10030    2    1    2    0    0  0.00000000000E+00  0.00000000000E+00 -0.14475831921E+04  0.19993093918E+04  0.13790362382E+04 0.  0.
        3    1    3    3  502    0 -0.32531159250E+03 -0.25223259936E+03 -0.15257564312E+04  0.15803106068E+04  0.10100000352E+00 0. -1.
       -3    1    3    3    0  502  0.32531159250E+03  0.25223259936E+03  0.78173239044E+02  0.41899878507E+03  0.10100000352E+00 0.  1.
</event>
<event>
 5   0  0.2083966E-03  0.1137321E+04  0.7818609E-02  0.9169561E-01
        2   -1    0    0  501    0  0.00000000000E+00  0.00000000000E+00  0.18875845175E+04  0.18875845175E+04  0.25500000920E-02 0.  1.
       -2   -1    0    0    0  501  0.00000000000E+00  0.00000000000E+00 -0.17131674001E+03  0.17131674003E+03  0.25500000920E-02 0. -1.
    10030    2    1    2    0    0  0.00000000000E+00  0.00000000000E+00  0.17162677775E+04  0.20589012575E+04  0.11373211087E+04 0.  0.
        1    1    3    3  502    0 -0.48647613087E+03  0.20590329890E+03  0.47702376088E+03  0.71176320702E+03  0.50400001928E-02 0.  1.
       -1    1    3    3    0  502  0.48647613087E+03 -0.20590329890E+03  0.12392440166E+04  0.13471380505E+04  0.50400001928E-02 0. -1.
</event>
<event>
 5   0  0.1210275E-03  0.1418558E+04  0.7818609E-02  0.8940494E-01
        1   -1    0    0  501    0  0.00000000000E+00  0.00000000000E+00  0.81452730135E+03  0.81452730136E+03  0.50400001928E-02 0.  1.
       -1   -1    0    0    0  501  0.00000000000E+00  0.00000000000E+00 -0.61763019262E+03  0.61763019264E+03  0.50400001928E-02 0. -1.
    10030    2    1    2    0    0  0.00000000000E+00  0.00000000000E+00  0.19689710873E+03  0.14321574940E+04  0.14185579354E+04 0.  0.
        1    1    3    3  502    0 -0.91618745099E+02  0.22077947489E+03 -0.57574014791E+03  0.62338935581E+03  0.50400001928E-02 0. -1.
       -1    1    3    3    0  502  0.91618745099E+02 -0.22077947489E+03  0.77263725664E+03  0.80876813820E+03  0.50400001928E-02 0.  1.
</event>
<event>
 5   0  0.2236184E-03  0.1438046E+04  0.7818609E-02  0.8926730E-01
       -2   -1    0    0    0  501  0.00000000000E+00  0.00000000000E+00  0.62278235463E+03  0.62278235463E+03  0.25500000920E-02 0. -1.
        2   -1    0    0  501    0  0.00000000000E+00  0.00000000000E+00 -0.83013641897E+03  0.83013641897E+03  0.25500000920E-02 0.  1.
    10030    2    1    2    0    0  0.00000000000E+00  0.00000000000E+00 -0.20735406434E+03  0.14529187736E+04  0.14380463326E+04 0.  0.
        3    1    3    3  502    0  0.65177527877E+03 -0.26035091438E+03 -0.26149974990E+03  0.74898313869E+03  0.10100000352E+00 0.  1.
       -3    1    3    3    0  502 -0.65177527877E+03  0.26035091438E+03  0.54145685561E+02  0.70393563492E+03  0.10100000352E+00 0. -1.
</event>
<event>
 5   0  0.1225690E-03  0.1391978E+04  0.7818609E-02  0.8959646E-01
        1   -1    0    0  501    0  0.00000000000E+00  0.00000000000E+00  0.92145835487E+03  0.92145835488E+03  0.50400001928E-02 0. -1.
       -1   -1    0    0    0  501  0.00000000000E+00  0.00000000000E+00 -0.52568921613E+03  0.52568921616E+03  0.50400001928E-02 0.  1.
    10030    2    1    2    0    0  0.00000000000E+00  0.00000000000E+00  0.39576913874E+03  0.14471475710E+04  0.13919780462E+04 0.  0.
        4    1    3    3  502    0 -0.32924678628E+03 -0.14831809091E+02 -0.43941667735E+03  0.54928322208E+03  0.12699999809E+01 0.  1.
       -4    1    3    3    0  502  0.32924678628E+03  0.14831809091E+02  0.83518581608E+03  0.89786434895E+03  0.12699999809E+01 0. -1.
</event>
<event>
 5   0  0.2190704E-03  0.1344191E+04  0.7818609E-02  0.8995237E-01
       -2   -1    0    0    0  501  0.00000000000E+00  0.00000000000E+00  0.11245971719E+04  0.11245971719E+04  0.25500000920E-02 0. -1.
        2   -1    0    0  501    0  0.00000000000E+00  0.00000000000E+00 -0.40166579185E+03  0.40166579186E+03  0.25500000920E-02 0.  1.
    10030    2    1    2    0    0  0.00000000000E+00  0.00000000000E+00  0.72293138007E+03  0.15262629638E+04  0.13441907805E+04 0.  0.
        5    1    3    3  502    0  0.55899621914E+03 -0.29023013765E+03  0.62770372638E+03  0.88923808057E+03  0.46999998093E+01 0. -1.
       -5    1    3    3    0  502 -0.55899621914E+03  0.29023013765E+03  0.95227653691E+02  0.63702488322E+03  0.46999998093E+01 0.  1.
</event>
<event>
 5   0  0.1225690E-03  0.1355722E+04  0.7818609E-02  0.8986508E-01
        1   -1    0    0  501    0  0.00000000000E+00  0.00000000000E+00  0.36899064276E+03  0.36899064280E+03  0.50400001928E-02 0. -1.
       -1   -1    0    0    0  501  0.00000000000E+00  0.00000000000E+00 -0.12452768280E+04  0.12452768280E+04  0.50400001928E-02 0.  1.
    10030    2    1    2    0    0  0.00000000000E+00  0.00000000000E+00 -0.87628618520E+03  0.16142674708E+04  0.13557219438E+04 0.  0.
        4    1    3    3  502    0 -0.54212852065E+03 -0.39851800480E+03 -0.34014313156E+03  0.75393560461E+03  0.12699999809E+01 0. -1.
       -4    1    3    3    0  502  0.54212852065E+03  0.39851800480E+03 -0.53614305363E+03  0.86033186615E+03  0.12699999809E+01 0.  1.
</event>
<event>
 5   0  0.1175374E-03  0.1405097E+04  0.7818609E-02  0.8950137E-01
       -1   -1    0    0    0  501  0.00000000000E+00  0.00000000000E+00  0.60566393316E+03  0.60566393319E+03  0.50400001928E-02 0. -1.
        1   -1    0    0  501    0  0.00000000000E+00  0.00000000000E+00 -0.81493150977E+03  0.81493150979E+03  0.50400001928E-02 0.  1.
    10030    2    1    2    0    0  0.00000000000E+00  0.00000000000E+00 -0.20926757661E+03  0.14205954430E+04  0.14050973254E+04 0.  0.
        3    1    3    3  502    0 -0.59376719076E+03 -0.18922912200E+03 -0.43256844089E+03  0.75860569711E+03  0.10100000352E+00 0.  1.
       -3    1    3    3    0  502  0.59376719076E+03  0.18922912200E+03  0.22330086428E+03  0.66198974586E+03  0.10100000352E+00 0. -1.
</event>
<event>
 5   0  0.2083966E-03  0.1428802E+04  0.7818609E-02  0.8933230E-01
        2   -1    0    0  501    0  0.00000000000E+00  0.00000000000E+00  0.15794582208E+04  0.15794582208E+04  0.25500000920E-02 0.  1.
       -2   -1    0    0    0  501  0.00000000000E+00  0.00000000000E+00 -0.32312885760E+03  0.32312885761E+03  0.25500000920E-02 0. -1.
    10030    2    1    2    0    0  0.00000000000E+00  0.00000000000E+00  0.12563293632E+04  0.19025870785E+04  0.14288016385E+04 0.  0.
        1    1    3    3  502    0 -0.55537222155E+03 -0.37268344333E+03  0.96249158523E+03  0.11720585758E+04  0.50400001928E-02 0.  1.
       -1    1    3    3    0  502  0.55537222155E+03  0.37268344333E+03  0.29383777801E+03  0.73052850267E+03  0.50400001928E-02 0. -1.
</event>
<event>
 5   0  0.2195980E-03  0.1303830E+04  0.7818609E-02  0.9026533E-01
        2   -1    0    0  501    0  0.00000000000E+00  0.00000000000E+00  0.13371991447E+04  0.13371991447E+04  0.25500000920E-02 0.  1.
       -2   -1    0    0    0  501  0.00000000000E+00  0.00000000000E+00 -0.31782359212E+03  0.31782359213E+03  0.25500000920E-02 0. -1.
    10030    2    1    2    0    0  0.00000000000E+00  0.00000000000E+00  0.10193755525E+04  0.16550227368E+04  0.13038304116E+04 0.  0.
        4    1    3    3  502    0 -0.78594970240E+02  0.55338683101E+03  0.83786459247E+02  0.56518663973E+03  0.12699999809E+01 0. -1.
       -4    1    3    3    0  502  0.78594970240E+02 -0.55338683101E+03  0.93558909330E+03  0.10898360971E+04  0.12699999809E+01 0.  1.
</event>
<event>
 5   0  0.2236184E-03  0.1358516E+04  0.7818609E-02  0.8984406E-01
        2   -1    0    0  501    0  0.00000000000E+00  0.00000000000E+00  0.90326108346E+03  0.90326108347E+03  0.25500000920E-02 0.  1.
       -2   -1    0    0    0  501  0.00000000000E+00  0.00000000000E+00 -0.51080663514E+03  0.51080663514E+03  0.25500000920E-02 0. -1.
    10030    2    1    2    0    0  0.00000000000E+00  0.00000000000E+00  0.39245444833E+03  0.14140677186E+04  0.13585164772E+04 0.  0.
        3    1    3    3  502    0 -0.42387257471E+03  0.50026452744E+03  0.38084735252E+03  0.75827255861E+03  0.10100000352E+00 0.  1.
       -3    1    3    3    0  502  0.42387257471E+03 -0.50026452744E+03  0.11607095804E+02  0.65579516000E+03  0.10100000352E+00 0. -1.
</event>
<event>
 5   0  0.1238683E-03  0.1391552E+04  0.7818609E-02  0.8959957E-01
        1   -1    0    0  501    0  0.00000000000E+00  0.00000000000E+00  0.12532467355E+04  0.12532467355E+04  0.50400001928E-02 0.  1.
       -1   -1    0    0    0  501  0.00000000000E+00  0.00000000000E+00 -0.38627988156E+03  0.38627988159E+03  0.50400001928E-02 0. -1.
    10030    2    1    2    0    0  0.00000000000E+00  0.00000000000E+00  0.86696685394E+03  0.16395266171E+04  0.13915516528E+04 0.  0.
        2    1    3    3  502    0  0.58435405110E+03  0.15954989391E+03  0.83679669075E+03  0.10330317165E+04  0.25500000920E-02 0. -1.
       -2    1    3    3    0  502 -0.58435405110E+03 -0.15954989391E+03  0.30170163198E+02  0.60649490059E+03  0.25500000920E-02 0.  1.
</event>
<event>
 5   0  0.1238683E-03  0.1376967E+04  0.7818609E-02  0.8970662E-01
        1   -1    0    0  501    0  0.00000000000E+00  0.00000000000E+00  0.12731280144E+04  0.12731280145E+04  0.50400001928E-02 0. -1.
       -1   -1    0    0    0  501  0.00000000000E+00  0.00000000000E+00 -0.37231891406E+03  0.37231891409E+03  0.50400001928E-02 0.  1.
    10030    2    1    2    0    0  0.00000000000E+00  0.00000000000E+00  0.90080910039E+03  0.16454469285E+04  0.13769671599E+04 0.  0.
        2    1    3    3  502    0  0.62550642957E+03  0.29913939345E+02  0.79229493677E+03  0.10098932637E+04  0.25500000920E-02 0. -1.
       -2    1    3    3    0  502 -0.62550642957E+03 -0.29913939345E+02  0.10851416362E+03  0.63555366486E+03  0.25500000920E-02 0.  1.
</event>
<event>
 5   0  0.2190704E-03  0.1405563E+04  0.7818609E-02  0.8949801E-01
       -2   -1    0    0    0  501  0.00000000000E+00  0.00000000000E+00  0.12203750054E+04  0.12203750054E+04  0.25500000920E-02 0.  1.
        2   -1    0    0  501    0  0.00000000000E+00  0.00000000000E+00 -0.40471333039E+03  0.40471333040E+03  0.25500000920E-02 0. -1.
    10030    2    1    2    0    0  0.00000000000E+00  0.00000000000E+00  0.81566167501E+03  0.16250883358E+04  0.14055632789E+04 0.  0.
        5    1    3    3  502    0 -0.17386237659E+03 -0.85248030287E+02  0.11889046130E+04  0.12045794376E+04  0.46999998093E+01 0.  1.
       -5    1    3    3    0  502  0.17386237659E+03  0.85248030287E+02 -0.37324293802E+03  0.42050889817E+03  0.46999998093E+01 0. -1.
</event>
<event>
 5   0  0.1210275E-03  0.1429534E+04  0.7818609E-02  0.8932713E-01
        1   -1    0    0  501    0  0.00000000000E+00  0.00000000000E+00  0.71463742644E+03  0.71463742646E+03  0.50400001928E-02 0.  1.
       -1   -1    0    0    0  501  0.00000000000E+00  0.00000000000E+00 -0.71489658343E+03  0.71489658345E+03  0.50400001928E-02 0. -1.
    10030    2    1    2    0    0  0.00000000000E+00  0.00000000000E+00 -0.25915698424E+00  0.14295340099E+04  0.14295339864E+04 0.  0.
        1    1    3    3  502    0 -0.13580879960E+03 -0.35390760425E+03 -0.60609760094E+03  0.71487685953E+03  0.50400001928E-02 0. -1.
       -1    1    3    3    0  502  0.13580879960E+03  0.35390760425E+03  0.60583844396E+03  0.71465715038E+03  0.50400001928E-02 0.  1.
</event>
<event>
 5   0  0.2083966E-03  0.1380156E+04  0.7818609E-02  0.8968309E-01
        2   -1    0    0  501    0  0.00000000000E+00  0.00000000000E+00  0.66511398621E+03  0.66511398622E+03  0.25500000920E-02 0. -1.
       -2   -1    0    0    0  501  0.00000000000E+00  0.00000000000E+00 -0.71597863141E+03  0.71597863141E+03  0.25500000920E-02 0.  1.
    10030    2    1    2    0    0  0.00000000000E+00  0.00000000000E+00 -0.50864645195E+02  0.13810926176E+04  0.13801556457E+04 0.  0.
        1    1    3    3  502    0  0.39715710404E+02  0.35761184548E+03 -0.61468166927E+03  0.71224793734E+03  0.50400001928E-02 0.  1.
       -1    1    3    3    0  502 -0.39715710404E+02 -0.35761184548E+03  0.56381702408E+03  0.66884468029E+03  0.50400001928E-02 0. -1.
</event>
<event>
 5   0  0.8293000E-04  0.1373389E+04  0.7818609E-02  0.8973310E-01
       -4   -1    0    0    0  501  0.00000000000E+00  0.00000000000E+00  0.14566278247E+04  0.14566283783E+04  0.12699999809E+01 0.  1.
        4   -1    0    0  501    0  0.00000000000E+00  0.00000000000E+00 -0.32372472823E+03  0.32372721938E+03  0.12699999809E+01 0. -1.
    10030    2    1    2    0    0  0.00000000000E+00  0.00000000000E+00  0.11329030965E+04  0.17803555977E+04  0.13733887390E+04 0.  0.
        5    1    3    3  502    0 -0.42360162885E+03  0.53926135676E+03  0.51996582306E+03  0.86059729143E+03  0.46999998093E+01 0.  1.
       -5    1    3    3    0  502  0.42360162885E+03 -0.53926135676E+03  0.61293727339E+03  0.91975830628E+03  0.46999998093E+01 0. -1.
</event>
<event>
 5   0  0.1225690E-03  0.1401682E+04  0.7818609E-02  0.8952602E-01
       -1   -1    0    0    0  501  0.00000000000E+00  0.00000000000E+00  0.33876830662E+03  0.33876830666E+03  0.50400001928E-02 0. -1.
        1   -1    0    0  501    0  0.00000000000E+00  0.00000000000E+00 -0.14498939665E+04  0.14498939665E+04  0.50400001928E-02 0.  1.
    10030    2    1    2    0    0  0.00000000000E+00  0.00000000000E+00 -0.11111256598E+04  0.17886622731E+04  0.14016820236E+04 0.  0.
        4    1    3    3  502    0  0.68185870503E+03 -0.14979181522E+03 -0.47682087734E+03  0.84541625457E+03  0.12699999809E+01 0. -1.
       -4    1    3    3    0  502 -0.68185870503E+03  0.14979181522E+03 -0.63430478251E+03  0.94324601857E+03  0.12699999809E+01 0.  1.
</event>
<event>
 5   0  0.1199720E-03  0.1381709E+04  0.7818609E-02  0.8967166E-01
        1   -1    0    0  501    0  0.00000000000E+00  0.00000000000E+00  0.24539700403E+04  0.24539700403E+04  0.50400001928E-02 0.  1.
       -1   -1    0    0    0  501  0.00000000000E+00  0.00000000000E+00 -0.19449286810E+03  0.19449286817E+03  0.50400001928E-02 0. -1.
    10030    2    1    2    0    0  0.00000000000E+00  0.00000000000E+00  0.22594771722E+04  0.26484629084E+04  0.13817086110E+04 0.  0.
        5    1    3    3  502    0  0.38534453326E+03  0.40657562362E+03  0.35476350087E+03  0.66307871221E+03  0.46999998093E+01 0. -1.
       -5    1    3    3    0  502 -0.38534453326E+03 -0.40657562362E+03  0.19047136713E+04  0.19853841962E+04  0.46999998093E+01 0.  1.
</event>
<event>
 5   0  0.2195980E-03  0.1393684E+04  0.7818609E-02  0.8958403E-01
       -2   -1    0    0    0  501  0.00000000000E+00  0.00000000000E+00  0.58072897725E+03  0.58072897725E+03  0.25500000920E-02 0. -1.
        2   -1    0    0  501    0  0.00000000000E+00  0.00000000000E+00 -0.83617092709E+03  0.83617092709E+03  0.25500000920E-02 0.  1.
    10030    2    1    2    0    0  0.00000000000E+00  0.00000000000E+00 -0.25544194984E+03  0.14168999043E+04  0.13936838771E+04 0.  0.
        4    1    3    3  502    0 -0.40174300621E+03  0.50855726792E+03 -0.38803136789E+03  0.75537930416E+03  0.12699999809E+01 0.  1.
       -4    1    3    3    0  502  0.40174300621E+03 -0.50855726792E+03  0.13258941804E+03  0.66152060019E+03  0.12699999809E+01 0. -1.
</event>
<event>
 5   0  0.1199720E-03  0.1403797E+04  0.7818609E-02  0.8951075E-01
       -1   -1    0    0    0  501  0.00000000000E+00  0.00000000000E+00  0.11265999663E+04  0.11265999663E+04  0.50400001928E-02 0.  1.
        1   -1    0    0  501    0  0.00000000000E+00  0.00000000000E+00 -0.43729946888E+03  0.43729946891E+03  0.50400001928E-02 0. -1.
    10030    2    1    2    0    0  0.00000000000E+00  0.00000000000E+00  0.68930049745E+03  0.15638994352E+04  0.14037970892E+04 0.  0.
        5    1    3    3  502    0  0.46625086004E+03  0.33101822475E+03 -0.10880559488E+03  0.58208562693E+03  0.46999998093E+01 0. -1.
       -5    1    3    3    0  502 -0.46625086004E+03 -0.33101822475E+03  0.79810609232E+03  0.98181380832E+03  0.46999998093E+01 0.  1.
</event>
<event>
 5   0  0.2172901E-03  0.1395274E+04  0.7818609E-02  0.8957247E-01
       -2   -1    0    0    0  501  0.00000000000E+00  0.00000000000E+00  0.64217872277E+03  0.64217872278E+03  0.25500000920E-02 0. -1.
        2   -1    0    0  501    0  0.00000000000E+00  0.00000000000E+00 -0.75788469982E+03  0.75788469982E+03  0.25500000920E-02 0.  1.
    10030    2    1    2    0    0  0.00000000000E+00  0.00000000000E+00 -0.11570597705E+03  0.14000634226E+04  0.13952740642E+04 0.  0.
        2    1    3    3  502    0  0.25862407635E+03  0.54018130506E+03 -0.41687321156E+03  0.72970235694E+03  0.25500000920E-02 0.  1.
       -2    1    3    3    0  502 -0.25862407635E+03 -0.54018130506E+03  0.30116723451E+03  0.67036106566E+03  0.25500000920E-02 0. -1.
</event>
<event>
 5   0  0.1238683E-03  0.1383777E+04  0.7818609E-02  0.8965646E-01
        1   -1    0    0  501    0  0.00000000000E+00  0.00000000000E+00  0.13770376557E+04  0.13770376557E+04  0.50400001928E-02 0.  1.
       -1   -1    0    0    0  501  0.00000000000E+00  0.00000000000E+00 -0.34763748386E+03  0.34763748389E+03  0.50400001928E-02 0. -1.
    10030    2    1    2    0    0  0.00000000000E+00  0.00000000000E+00  0.10294001719E+04  0.17246751396E+04  0.13837773027E+04 0.  0.
        2    1    3    3  502    0  0.67275138367E+02 -0.15430417804E+03  0.13511267012E+04  0.13615722847E+04  0.25500000920E-02 0.  1.
       -2    1    3    3    0  502 -0.67275138367E+02  0.15430417804E+03 -0.32172652934E+03  0.36310285498E+03  0.25500000920E-02 0. -1.
</event>
<event>
 5   0  0.1210275E-03  0.1390988E+04  0.7818609E-02  0.8960368E-01
       -1   -1    0    0    0  501  0.00000000000E+00  0.00000000000E+00  0.30719986227E+03  0.30719986231E+03  0.50400001928E-02 0. -1.
        1   -1    0    0  501    0  0.00000000000E+00  0.00000000000E+00 -0.15745832768E+04  0.15745832769E+04  0.50400001928E-02 0.  1.
    10030    2    1    2    0    0  0.00000000000E+00  0.00000000000E+00 -0.12673834146E+04  0.18817831392E+04  0.13909878013E+04 0.  0.
        1    1    3    3  502    0  0.28799655663E+02 -0.57255621492E+03 -0.10097225049E+03  0.58210431609E+03  0.50400001928E-02 0. -1.
       -1    1    3    3    0  502 -0.28799655663E+02  0.57255621492E+03 -0.11664111641E+04  0.12996788231E+04  0.50400001928E-02 0.  1.
</event>
<event>
 5   0  0.2172901E-03  0.1447591E+04  0.7818609E-02  0.8920072E-01
        2   -1    0    0  501    0  0.00000000000E+00  0.00000000000E+00  0.54400386283E+03  0.54400386283E+03  0.25500000920E-02 0.  1.
       -2   -1    0    0    0  501  0.00000000000E+00  0.00000000000E+00 -0.96300735751E+03  0.96300735751E+03  0.25500000920E-02 0. -1.
    10030    2    1    2    0    0  0.00000000000E+00  0.00000000000E+00 -0.41900349468E+03  0.15070112203E+04  0.14475907190E+04 0.  0.
        2    1    3    3  502    0  0.29741674895E+01 -0.45580665618E+03 -0.79481804406E+03  0.91624465983E+03  0.25500000920E-02 0. -1.
       -2    1    3    3    0  502 -0.29741674895E+01  0.45580665618E+03  0.37581454938E+03  0.59076656052E+03  0.25500000920E-02 0.  1.
</event>
<event>
 5   0  0.2195980E-03  0.1398154E+04  0.7818609E-02  0.8955156E-01
        2   -1    0    0  501    0  0.00000000000E+00  0.00000000000E+00  0.27152696588E+04  0.27152696588E+04  0.25500000920E-02 0.  1.
       -2   -1    0    0    0  501  0.00000000000E+00  0.00000000000E+00 -0.17998524301E+03  0.17998524303E+03  0.25500000920E-02 0. -1.
    10030    2    1    2    0    0  0.00000000000E+00  0.00000000000E+00  0.25352844158E+04  0.28952549019E+04  0.13981537389E+04 0.  0.
        4    1    3    3  502    0 -0.55768629844E+03  0.24437672076E+03  0.55639111815E+03  0.82480705524E+03  0.12699999809E+01 0. -1.
       -4    1    3    3    0  502  0.55768629844E+03 -0.24437672076E+03  0.19788932977E+04  0.20704478466E+04  0.12699999809E+01 0.  1.
</event>
<event>
 5   0  0.1238683E-03  0.1389654E+04  0.7818609E-02  0.8961342E-01
       -1   -1    0    0    0  501  0.00000000000E+00  0.00000000000E+00  0.37047518729E+03  0.37047518732E+03  0.50400001928E-02 0. -1.
        1   -1    0    0  501    0  0.00000000000E+00  0.00000000000E+00 -0.13031499458E+04  0.13031499458E+04  0.50400001928E-02 0.  1.
    10030    2    1    2    0    0  0.00000000000E+00  0.00000000000E+00 -0.93267475854E+03  0.16736251332E+04  0.13896542308E+04 0.  0.
        2    1    3    3  502    0  0.25350067929E+03  0.54940745910E+03 -0.87771217350E+03  0.10660627608E+04  0.25500000920E-02 0.  1.
       -2    1    3    3    0  502 -0.25350067929E+03 -0.54940745910E+03 -0.54962585038E+02  0.60756237233E+03  0.25500000920E-02 0. -1.
</event>
<event>
 5   0  0.1210275E-03  0.9337737E+03  0.7818609E-02  0.9384320E-01
       -1   -1    0    0    0  501  0.00000000000E+00  0.00000000000E+00  0.11661405131E+03  0.11661405142E+03  0.50400001928E-02 0.  1.
        1   -1    0    0  501    0  0.00000000000E+00  0.00000000000E+00 -0.18692716202E+04  0.18692716202E+04  0.50400001928E-02 0. -1.
    10030    2    1    2    0    0  0.00000000000E+00  0.00000000000E+00 -0.17526575689E+04  0.19858856717E+04  0.93377371295E+03 0.  0.
        1    1    3    3  502    0  0.18305081480E+03 -0.20423747245E+03 -0.72765448354E+02  0.28375228008E+03  0.50400001928E-02 0.  1.
       -1    1    3    3    0  502 -0.18305081480E+03  0.20423747245E+03 -0.16798921206E+04  0.17021333916E+04  0.50400001928E-02 0. -1.
</event>
<event>
 5   0  0.1225690E-03  0.1371685E+04  0.7818609E-02  0.8974573E-01
       -1   -1    0    0    0  501  0.00000000000E+00  0.00000000000E+00  0.35539439866E+03  0.35539439870E+03  0.50400001928E-02 0.  1.
        1   -1    0    0  501    0  0.00000000000E+00  0.00000000000E+00 -0.13235430347E+04  0.13235430347E+04  0.50400001928E-02 0. -1.
    10030    2    1    2    0    0  0.00000000000E+00  0.00000000000E+00 -0.96814863601E+03  0.16789374334E+04  0.13716847757E+04 0.  0.
        4    1    3    3  502    0  0.67304376257E+03  0.46711591605E+02 -0.63501988774E+03  0.92651052334E+03  0.12699999809E+01 0. -1.
       -4    1    3    3    0  502 -0.67304376257E+03 -0.46711591605E+02 -0.33312874828E+03  0.75242691004E+03  0.12699999809E+01 0.  1.
</event>
<event>
 5   0  0.2195980E-03  0.1388213E+04  0.7818609E-02  0.8962395E-01
       -2   -1    0    0    0  501  0.00000000000E+00  0.00000000000E+00  0.54824846587E+03  0.54824846587E+03  0.25500000920E-02 0.  1.
        2   -1    0    0  501    0  0.00000000000E+00  0.00000000000E+00 -0.87876909337E+03  0.87876909337E+03  0.25500000920E-02 0. -1.
    10030    2    1    2    0    0  0.00000000000E+00  0.00000000000E+00 -0.33052062750E+03  0.14270175592E+04  0.13882129625E+04 0.  0.
        4    1    3    3  502    0  0.45217020437E+02 -0.32743322055E+03 -0.79266967261E+03  0.85882705805E+03  0.12699999809E+01 0. -1.
       -4    1    3    3    0  502 -0.45217020437E+02  0.32743322055E+03  0.46214904511E+03  0.56819050120E+03  0.12699999809E+01 0.  1.
</event>
<event>
 5   0  0.1175374E-03  0.1397118E+04  0.7818609E-02  0.8955907E-01
       -1   -1    0    0    0  501  0.00000000000E+00  0.00000000000E+00  0.96466083020E+03  0.96466083022E+03  0.50400001928E-02 0. -1.
        1   -1    0    0  501    0  0.00000000000E+00  0.00000000000E+00 -0.50586164430E+03  0.50586164433E+03  0.50400001928E-02 0.  1.
    10030    2    1    2    0    0  0.00000000000E+00  0.00000000000E+00  0.45879918590E+03  0.14705224745E+04  0.13971183397E+04 0.  0.
        3    1    3    3  502    0  0.46180618060E+03 -0.50141021158E+03  0.68709651035E+02  0.68512639349E+03  0.10100000352E+00 0. -1.
       -3    1    3    3    0  502 -0.46180618060E+03  0.50141021158E+03  0.39008953487E+03  0.78539608105E+03  0.10100000352E+00 0.  1.
</event>
<event>
 5   0  0.1210275E-03  0.1369735E+04  0.7818609E-02  0.8976022E-01
       -1   -1    0    0    0  501  0.00000000000E+00  0.00000000000E+00  0.39034359881E+03  0.39034359885E+03  0.50400001928E-02 0. -1.
        1   -1    0    0  501    0  0.00000000000E+00  0.00000000000E+00 -0.12016175715E+04  0.12016175715E+04  0.50400001928E-02 0.  1.
    10030    2    1    2    0    0  0.00000000000E+00  0.00000000000E+00 -0.81127397272E+03  0.15919611704E+04  0.13697353428E+04 0.  0.
        1    1    3    3  502    0  0.60257380061E+03 -0.32549526641E+03 -0.40699916042E+03  0.79667475813E+03  0.50400001928E-02 0. -1.
       -1    1    3    3    0  502 -0.60257380061E+03  0.32549526641E+03 -0.40427481231E+03  0.79528641226E+03  0.50400001928E-02 0.  1.
</event>
<event>
 5   0  0.1210275E-03  0.1431187E+04  0.7818609E-02  0.8931548E-01
        1   -1    0    0  501    0  0.00000000000E+00  0.00000000000E+00  0.82467660792E+03  0.82467660794E+03  0.50400001928E-02 0. -1.
       -1   -1    0    0    0  501  0.00000000000E+00  0.00000000000E+00 -0.62093944709E+03  0.62093944711E+03  0.50400001928E-02 0.  1.
    10030    2    1    2    0    0  0.00000000000E+00  0.00000000000E+00  0.20373716084E+03  0.14456160551E+04  0.14311872512E+04 0.  0.
        1    1    3    3  502    0 -0.76853418376E+02  0.13509008177E+03  0.80742236900E+03  0.82224489058E+03  0.50400001928E-02 0. -1.
       -1    1    3    3    0  502  0.76853418376E+02 -0.13509008177E+03 -0.60368520816E+03  0.62337116447E+03  0.50400001928E-02 0.  1.
</event>
<event>
 5   0  0.2195980E-03  0.1391179E+04  0.7818609E-02  0.8960228E-01
       -2   -1    0    0    0  501  0.00000000000E+00  0.00000000000E+00  0.43612053704E+03  0.43612053705E+03  0.25500000920E-02 0. -1.
        2   -1    0    0  501    0  0.00000000000E+00  0.00000000000E+00 -0.11094292177E+04  0.11094292177E+04  0.25500000920E-02 0.  1.
    10030    2    1    2    0    0  0.00000000000E+00  0.00000000000E+00 -0.67330868063E+03  0.15455497547E+04  0.13911791635E+04 0.  0.
        4    1    3    3  502    0  0.44509072150E+02  0.36212077541E+03  0.32128649499E+03  0.48614723927E+03  0.12699999809E+01 0. -1.
       -4    1    3    3    0  502 -0.44509072150E+02 -0.36212077541E+03 -0.99459517562E+03  0.10594025155E+04  0.12699999809E+01 0.  1.
</event>
<event>
 5   0  0.2236184E-03  0.1382051E+04  0.7818609E-02  0.8966914E-01
       -2   -1    0    0    0  501  0.00000000000E+00  0.00000000000E+00  0.60364478236E+03  0.60364478236E+03  0.25500000920E-02 0. -1.
        2   -1    0    0  501    0  0.00000000000E+00  0.00000000000E+00 -0.79105509201E+03  0.79105509202E+03  0.25500000920E-02 0.  1.
    10030    2    1    2    0    0  0.00000000000E+00  0.00000000000E+00 -0.18741030965E+03  0.13946998744E+04  0.13820510538E+04 0.  0.
        3    1    3    3  502    0  0.54687057098E+03  0.16682065236E+03 -0.48535466638E+03  0.74997714221E+03  0.10100000352E+00 0.  1.
       -3    1    3    3    0  502 -0.54687057098E+03 -0.16682065236E+03  0.29794435673E+03  0.64472273217E+03  0.10100000352E+00 0. -1.
</event>
<event>
 5   0  0.2190704E-03  0.1393623E+04  0.7818609E-02  0.8958448E-01
       -2   -1    0    0    0  501  0.00000000000E+00  0.00000000000E+00  0.53508084900E+03  0.53508084901E+03  0.25500000920E-02 0. -1.
        2   -1    0    0  501    0  0.00000000000E+00  0.00000000000E+00 -0.90742549527E+03  0.90742549528E+03  0.25500000920E-02 0.  1.
    10030    2    1    2    0    0  0.00000000000E+00  0.00000000000E+00 -0.37234464627E+03  0.14425063443E+04  0.13936226238E+04 0.  0.
        5    1    3    3  502    0 -0.22432390428E+03  0.65612122536E+03 -0.11515340133E+03  0.70292152638E+03  0.46999998093E+01 0. -1.
       -5    1    3    3    0  502  0.22432390428E+03 -0.65612122536E+03 -0.25719124494E+03  0.73958481791E+03  0.46999998093E+01 0.  1.
</event>
<event>
 5   0  0.2236184E-03  0.1409464E+04  0.7818609E-02  0.8946997E-01
       -2   -1    0    0    0  501  0.00000000000E+00  0.00000000000E+00  0.67084180036E+03  0.67084180036E+03  0.25500000920E-02 0.  1.
        2   -1    0    0  501    0  0.00000000000E+00  0.00000000000E+00 -0.74033404380E+03  0.74033404380E+03  0.25500000920E-02 0. -1.
    10030    2    1    2    0    0  0.00000000000E+00  0.00000000000E+00 -0.69492243436E+02  0.14111758442E+04  0.14094637602E+04 0.  0.
        3    1    3    3  502    0  0.26898894298E+03  0.60133217184E+03 -0.28543313066E+03  0.71793280647E+03  0.10100000352E+00 0. -1.
       -3    1    3    3    0  502 -0.26898894298E+03 -0.60133217184E+03  0.21594088723E+03  0.69324303769E+03  0.10100000352E+00 0.  1.
</event>
<event>
 5   0  0.1199720E-03  0.1396318E+04  0.7818609E-02  0.8956488E-01
       -1   -1    0    0    0  501  0.00000000000E+00  0.00000000000E+00  0.36341531681E+03  0.36341531684E+03  0.50400001928E-02 0.  1.
        1   -1    0    0  501    0  0.00000000000E+00  0.00000000000E+00 -0.13412365940E+04  0.13412365940E+04  0.50400001928E-02 0. -1.
    10030    2    1    2    0    0  0.00000000000E+00  0.00000000000E+00 -0.97782127721E+03  0.17046519109E+04  0.13963179033E+04 0.  0.
        5    1    3    3  502    0 -0.67863831859E+03  0.14373281171E+03 -0.58499728929E+03  0.90744311507E+03  0.46999998093E+01 0. -1.
       -5    1    3    3    0  502  0.67863831859E+03 -0.14373281171E+03 -0.39282398791E+03  0.79720879580E+03  0.46999998093E+01 0.  1.
</event>
<event>
 5   0  0.2190704E-03  0.1381318E+04  0.7818609E-02  0.8967454E-01
       -2   -1    0    0    0  501  0.00000000000E+00  0.00000000000E+00  0.17102220360E+04  0.17102220360E+04  0.25500000920E-02 0. -1.
        2   -1    0    0  501    0  0.00000000000E+00  0.00000000000E+00 -0.27891681211E+03  0.27891681212E+03  0.25500000920E-02 0.  1.
    10030    2    1    2    0    0  0.00000000000E+00  0.00000000000E+00  0.14313052239E+04  0.19891388481E+04  0.13813177452E+04 0.  0.
        5    1    3    3  502    0 -0.48224459191E+03 -0.47499082328E+03  0.91315973189E+03  0.11366876944E+04  0.46999998093E+01 0. -1.
       -5    1    3    3    0  502  0.48224459191E+03  0.47499082328E+03  0.51814549198E+03  0.85245115372E+03  0.46999998093E+01 0.  1.
</event>
<event>
 5   0  0.2172901E-03  0.1501795E+04  0.7818609E-02  0.8883260E-01
       -2   -1    0    0    0  501  0.00000000000E+00  0.00000000000E+00  0.12835974019E+04  0.12835974019E+04  0.25500000920E-02 0. -1.
        2   -1    0    0  501    0  0.00000000000E+00  0.00000000000E+00 -0.43927075041E+03  0.43927075042E+03  0.25500000920E-02 0.  1.
    10030    2    1    2    0    0  0.00000000000E+00  0.00000000000E+00  0.84432665151E+03  0.17228681523E+04  0.15017946517E+04 0.  0.
        2    1    3    3  502    0  0.27972622941E+03 -0.41082447764E+03 -0.22356528879E+03  0.54498160814E+03  0.25500000920E-02 0.  1.
       -2    1    3    3    0  502 -0.27972622941E+03  0.41082447764E+03  0.10678919403E+04  0.11778865442E+04  0.25500000920E-02 0. -1.
</event>
<event>
 5   0  0.2190704E-03  0.1405980E+04  0.7818609E-02  0.8949501E-01
        2   -1    0    0  501    0  0.00000000000E+00  0.00000000000E+00  0.15760020510E+04  0.15760020510E+04  0.25500000920E-02 0. -1.
       -2   -1    0    0    0  501  0.00000000000E+00  0.00000000000E+00 -0.31357512449E+03  0.31357512450E+03  0.25500000920E-02 0.  1.
    10030    2    1    2    0    0  0.00000000000E+00  0.00000000000E+00  0.12624269265E+04  0.18895771755E+04  0.14059801412E+04 0.  0.
        5    1    3    3  502    0  0.15640483402E+03  0.59413014932E+02  0.15488327488E+04  0.15578502342E+04  0.46999998093E+01 0. -1.
       -5    1    3    3    0  502 -0.15640483402E+03 -0.59413014932E+02 -0.28640582237E+03  0.33172694122E+03  0.46999998093E+01 0.  1.
</event>
<event>
 5   0  0.1210275E-03  0.1405011E+04  0.7818609E-02  0.8950199E-01
        1   -1    0    0  501    0  0.00000000000E+00  0.00000000000E+00  0.22928606332E+04  0.22928606332E+04  0.50400001928E-02 0. -1.
       -1   -1    0    0    0  501  0.00000000000E+00  0.00000000000E+00 -0.21523956580E+03  0.21523956585E+03  0.50400001928E-02 0.  1.
    10030    2    1    2    0    0  0.00000000000E+00  0.00000000000E+00  0.20776210674E+04  0.25081001990E+04  0.14050114977E+04 0.  0.
        1    1    3    3  502    0 -0.15269806178E+03  0.25185258802E+03  0.21773244479E+04  0.21971545635E+04  0.50400001928E-02 0. -1.
       -1    1    3    3    0  502  0.15269806178E+03 -0.25185258802E+03 -0.99703380547E+02  0.31094563558E+03  0.50400001928E-02 0.  1.
</event>
<event>
 5   0  0.2172901E-03  0.1386653E+04  0.7818609E-02  0.8963537E-01
        2   -1    0    0  501    0  0.00000000000E+00  0.00000000000E+00  0.46399870391E+03  0.46399870392E+03  0.25500000920E-02 0.  1.
       -2   -1    0    0    0  501  0.00000000000E+00  0.00000000000E+00 -0.10359983351E+04  0.10359983351E+04  0.25500000920E-02 0. -1.
    10030    2    1    2    0    0  0.00000000000E+00  0.00000000000E+00 -0.57199963124E+03  0.14999970391E+04  0.13866533594E+04 0.  0.
        2    1    3    3  502    0  0.37128206745E+03 -0.48666811226E+03 -0.63819792483E+03  0.88430357704E+03  0.25500000920E-02 0. -1.
       -2    1    3    3    0  502 -0.37128206745E+03  0.48666811226E+03  0.66198293591E+02  0.61569346203E+03  0.25500000920E-02 0.  1.
</event>
<event>
 5   0  0.1199720E-03  0.1388539E+04  0.7818609E-02  0.8962157E-01
        1   -1    0    0  501    0  0.00000000000E+00  0.00000000000E+00  0.12331864994E+04  0.12331864994E+04  0.50400001928E-02 0.  1.
       -1   -1    0    0    0  501  0.00000000000E+00  0.00000000000E+00 -0.39086530992E+03  0.39086530995E+03  0.50400001928E-02 0. -1.
    10030    2    1    2    0    0  0.00000000000E+00  0.00000000000E+00  0.84232118948E+03  0.16240518094E+04  0.13885385458E+04 0.  0.
        5    1    3    3  502    0  0.50211704120E+03  0.46015374328E+02  0.97933508428E+03  0.11015254128E+04  0.46999998093E+01 0.  1.
       -5    1    3    3    0  502 -0.50211704120E+03 -0.46015374328E+02 -0.13701389480E+03  0.52252639656E+03  0.46999998093E+01 0. -1.
</event>
<event>
 5   0  0.1175374E-03  0.1320412E+04  0.7818609E-02  0.9013533E-01
        1   -1    0    0  501    0  0.00000000000E+00  0.00000000000E+00  0.10290295995E+04  0.10290295995E+04  0.50400001928E-02 0. -1.
       -1   -1    0    0    0  501  0.00000000000E+00  0.00000000000E+00 -0.42357553445E+03  0.42357553448E+03  0.50400001928E-02 0.  1.
    10030    2    1    2    0    0  0.00000000000E+00  0.00000000000E+00  0.60545406505E+03  0.14526051340E+04  0.13204116973E+04 0.  0.
        3    1    3    3  502    0  0.61840843559E+03 -0.22531064835E+03  0.35965596394E+03  0.75003086874E+03  0.10100000352E+00 0. -1.
       -3    1    3    3    0  502 -0.61840843559E+03  0.22531064835E+03  0.24579810111E+03  0.70257426524E+03  0.10100000352E+00 0.  1.
</event>
<event>
 5   0  0.2195980E-03  0.1387579E+04  0.7818609E-02  0.8962859E-01
       -2   -1    0    0    0  501  0.00000000000E+00  0.00000000000E+00  0.21130248403E+03  0.21130248405E+03  0.25500000920E-02 0.  1.
        2   -1    0    0  501    0  0.00000000000E+00  0.00000000000E+00 -0.22779850795E+04  0.22779850795E+04  0.25500000920E-02 0. -1.
    10030    2    1    2    0    0  0.00000000000E+00  0.00000000000E+00 -0.20666825955E+04  0.24892875636E+04  0.13875790513E+04 0.  0.
        4    1    3    3  502    0  0.34641807016E+03 -0.35807631598E+03 -0.18995157963E+04  0.19637683165E+04  0.12699999809E+01 0. -1.
       -4    1    3    3    0  502 -0.34641807016E+03  0.35807631598E+03 -0.16716679912E+03  0.52551924706E+03  0.12699999809E+01 0.  1.
</event>
<event>
 5   0  0.1175374E-03  0.1386335E+04  0.7818609E-02  0.8963770E-01
        1   -1    0    0  501    0  0.00000000000E+00  0.00000000000E+00  0.75891023674E+03  0.75891023676E+03  0.50400001928E-02 0.  1.
       -1   -1    0    0    0  501  0.00000000000E+00  0.00000000000E+00 -0.63312020592E+03  0.63312020594E+03  0.50400001928E-02 0. -1.
    10030    2    1    2    0    0  0.00000000000E+00  0.00000000000E+00  0.12579003082E+03  0.13920304427E+04  0.13863353207E+04 0.  0.
        3    1    3    3  502    0  0.25898169444E+03  0.29993014706E+03 -0.50816955956E+03  0.64441129928E+03  0.10100000352E+00 0. -1.
       -3    1    3    3    0  502 -0.25898169444E+03 -0.29993014706E+03  0.63395959038E+03  0.74761914342E+03  0.10100000352E+00 0.  1.
</event>
<event>
 5   0  0.1225690E-03  0.1397023E+04  0.7818609E-02  0.8955977E-01
        1   -1    0    0  501    0  0.00000000000E+00  0.00000000000E+00  0.55691561969E+03  0.55691561971E+03  0.50400001928E-02 0. -1.
       -1   -1    0    0    0  501  0.00000000000E+00  0.00000000000E+00 -0.87610772587E+03  0.87610772588E+03  0.50400001928E-02 0.  1.
    10030    2    1    2    0    0  0.00000000000E+00  0.00000000000E+00 -0.31919210618E+03  0.14330233456E+04  0.13970226585E+04 0.  0.
        4    1    3    3  502    0  0.52862482592E+03  0.11827375533E+03 -0.61196343422E+03  0.81727213674E+03  0.12699999809E+01 0.  1.
       -4    1    3    3    0  502 -0.52862482592E+03 -0.11827375533E+03  0.29277132804E+03  0.61575120885E+03  0.12699999809E+01 0. -1.
</event>
<event>
 5   0  0.1175374E-03  0.1393857E+04  0.7818609E-02  0.8958277E-01
       -1   -1    0    0    0  501  0.00000000000E+00  0.00000000000E+00  0.11727403344E+04  0.11727403344E+04  0.50400001928E-02 0. -1.
        1   -1    0    0  501    0  0.00000000000E+00  0.00000000000E+00 -0.41416630960E+03  0.41416630963E+03  0.50400001928E-02 0.  1.
    10030    2    1    2    0    0  0.00000000000E+00  0.00000000000E+00  0.75857402479E+03  0.15869066440E+04  0.13938572903E+04 0.  0.
        3    1    3    3  502    0  0.94001201430E+02 -0.38486753855E+03  0.10320659483E+04  0.11054950836E+04  0.10100000352E+00 0. -1.
       -3    1    3    3    0  502 -0.94001201430E+02  0.38486753855E+03 -0.27349192349E+03  0.48141156043E+03  0.10100000352E+00 0.  1.
</event>
<event>
 5   0  0.2236184E-03  0.1359019E+04  0.7818609E-02  0.8984029E-01
       -2   -1    0    0    0  501  0.00000000000E+00  0.00000000000E+00  0.25880746637E+03  0.25880746638E+03  0.25500000920E-02 0.  1.
        2   -1    0    0  501    0  0.00000000000E+00  0.00000000000E+00 -0.17840792784E+04  0.17840792784E+04  0.25500000920E-02 0. -1.
    10030    2    1    2    0    0  0.00000000000E+00  0.00000000000E+00 -0.15252718120E+04  0.20428867447E+04  0.13590188194E+04 0.  0.
        3    1    3    3  502    0 -0.42520541743E+03  0.12539574537E+03 -0.15367646337E+04  0.15994278006E+04  0.10100000352E+00 0. -1.
       -3    1    3    3    0  502  0.42520541743E+03 -0.12539574537E+03  0.11492821662E+02  0.44345894412E+03  0.10100000352E+00 0.  1.
</event>
<event>
 5   0  0.1225690E-03  0.1386038E+04  0.7818609E-02  0.8963988E-01
        1   -1    0    0  501    0  0.00000000000E+00  0.00000000000E+00  0.79710468895E+03  0.79710468896E+03  0.50400001928E-02 0. -1.
       -1   -1    0    0    0  501  0.00000000000E+00  0.00000000000E+00 -0.60252463156E+03  0.60252463158E+03  0.50400001928E-02 0.  1.
    10030    2    1    2    0    0  0.00000000000E+00  0.00000000000E+00  0.19458005738E+03  0.13996293205E+04  0.13860378192E+04 0.  0.
        4    1    3    3  502    0 -0.44888570636E+03 -0.50932305944E+03  0.23781366906E+03  0.71935061712E+03  0.12699999809E+01 0. -1.
       -4    1    3    3    0  502  0.44888570636E+03  0.50932305944E+03 -0.43233611679E+02  0.68027870343E+03  0.12699999809E+01 0.  1.
</event>
<event>
 5   0  0.1199720E-03  0.1397431E+04  0.7818609E-02  0.8955680E-01
       -1   -1    0    0    0  501  0.00000000000E+00  0.00000000000E+00  0.30909585020E+03  0.30909585024E+03  0.50400001928E-02 0. -1.
        1   -1    0    0  501    0  0.00000000000E+00  0.00000000000E+00 -0.15794571756E+04  0.15794571756E+04  0.50400001928E-02 0.  1.
    10030    2    1    2    0    0  0.00000000000E+00  0.00000000000E+00 -0.12703613254E+04  0.18885530258E+04  0.13974314417E+04 0.  0.
        5    1    3    3  502    0 -0.14400113030E+03 -0.35402966880E+03  0.15528032006E+03  0.41256199499E+03  0.46999998093E+01 0. -1.
       -5    1    3    3    0  502  0.14400113030E+03  0.35402966880E+03 -0.14256416454E+04  0.14759910308E+04  0.46999998093E+01 0.  1.
</event>
<event>
 5   0  0.2190704E-03  0.1414534E+04  0.7818609E-02  0.8943365E-01
       -2   -1    0    0    0  501  0.00000000000E+00  0.00000000000E+00  0.36851163444E+03  0.36851163445E+03  0.25500000920E-02 0. -1.
        2   -1    0    0  501    0  0.00000000000E+00  0.00000000000E+00 -0.13574236089E+04  0.13574236089E+04  0.25500000920E-02 0.  1.
    10030    2    1    2    0    0  0.00000000000E+00  0.00000000000E+00 -0.98891197449E+03  0.17259352434E+04  0.14145336939E+04 0.  0.
        5    1    3    3  502    0 -0.27066986998E+03 -0.57996650282E+03 -0.86167884633E+03  0.10733759114E+04  0.46999998093E+01 0.  1.
       -5    1    3    3    0  502  0.27066986998E+03  0.57996650282E+03 -0.12723312816E+03  0.65255933202E+03  0.46999998093E+01 0. -1.
</event>
<event>
 5   0  0.1199720E-03  0.1416763E+04  0.7818609E-02  0.8941773E-01
        1   -1    0    0  501    0  0.00000000000E+00  0.00000000000E+00  0.83195305166E+03  0.83195305167E+03  0.50400001928E-02 0.  1.
       -1   -1    0    0    0  501  0.00000000000E+00  0.00000000000E+00 -0.60316443474E+03  0.60316443476E+03  0.50400001928E-02 0. -1.
    10030    2    1    2    0    0  0.00000000000E+00  0.00000000000E+00  0.22878861691E+03  0.14351174864E+04  0.14167632013E+04 0.  0.
        5    1    3    3  502    0 -0.48063477673E+03 -0.38865108589E+03 -0.23609831924E+03  0.66168267433E+03  0.46999998093E+01 0. -1.
       -5    1    3    3    0  502  0.48063477673E+03  0.38865108589E+03  0.46488693616E+03  0.77343481210E+03  0.46999998093E+01 0.  1.
</event>
<event>
 5   0  0.2195980E-03  0.1369925E+04  0.7818609E-02  0.8975881E-01
       -2   -1    0    0    0  501  0.00000000000E+00  0.00000000000E+00  0.35508604919E+03  0.35508604920E+03  0.25500000920E-02 0.  1.
        2   -1    0    0  501    0  0.00000000000E+00  0.00000000000E+00 -0.13212947337E+04  0.13212947337E+04  0.25500000920E-02 0. -1.
    10030    2    1    2    0    0  0.00000000000E+00  0.00000000000E+00 -0.96620868451E+03  0.16763807829E+04  0.13699245626E+04 0.  0.
        4    1    3    3  502    0  0.27518657677E+02  0.56131873254E+03 -0.39254419569E+01  0.56200802309E+03  0.12699999809E+01 0.  1.
       -4    1    3    3    0  502 -0.27518657677E+02 -0.56131873254E+03 -0.96228324256E+03  0.11143727598E+04  0.12699999809E+01 0. -1.
</event>
<event>
 5   0  0.1238683E-03  0.1464652E+04  0.7818609E-02  0.8908305E-01
       -1   -1    0    0    0  501  0.00000000000E+00  0.00000000000E+00  0.37241730960E+03  0.37241730964E+03  0.50400001928E-02 0.  1.
        1   -1    0    0  501    0  0.00000000000E+00  0.00000000000E+00 -0.14400558349E+04  0.14400558349E+04  0.50400001928E-02 0. -1.
    10030    2    1    2    0    0  0.00000000000E+00  0.00000000000E+00 -0.10676385253E+04  0.18124731445E+04  0.14646524772E+04 0.  0.
        2    1    3    3  502    0  0.53528933995E+02  0.51889014838E+03 -0.11698742662E+04  0.12809052001E+04  0.25500000920E-02 0. -1.
       -2    1    3    3    0  502 -0.53528933995E+02 -0.51889014838E+03  0.10223574090E+03  0.53156794447E+03  0.25500000920E-02 0.  1.
</event>
<event>
 5   0  0.1238683E-03  0.1393572E+04  0.7818609E-02  0.8958485E-01
        1   -1    0    0  501    0  0.00000000000E+00  0.00000000000E+00  0.62070246182E+03  0.62070246184E+03  0.50400001928E-02 0. -1.
       -1   -1    0    0    0  501  0.00000000000E+00  0.00000000000E+00 -0.78219562140E+03  0.78219562142E+03  0.50400001928E-02 0.  1.
    10030    2    1    2    0    0  0.00000000000E+00  0.00000000000E+00 -0.16149315958E+03  0.14028980833E+04  0.13935720259E+04 0.  0.
        2    1    3    3  502    0 -0.42624449387E+03  0.22696938588E+03  0.42492090993E+03  0.64323965238E+03  0.25500000920E-02 0. -1.
       -2    1    3    3    0  502  0.42624449387E+03 -0.22696938588E+03 -0.58641406951E+03  0.75965843088E+03  0.25500000920E-02 0.  1.
</event>
<event>
 5   0  0.1175374E-03  0.1377409E+04  0.7818609E-02  0.8970335E-01
        1   -1    0    0  501    0  0.00000000000E+00  0.00000000000E+00  0.76301303882E+03  0.76301303883E+03  0.50400001928E-02 0. -1.
       -1   -1    0    0    0  501  0.00000000000E+00  0.00000000000E+00 -0.62163309704E+03  0.62163309706E+03  0.50400001928E-02 0.  1.
    10030    2    1    2    0    0  0.00000000000E+00  0.00000000000E+00  0.14137994178E+03  0.13846461359E+04  0.13774093922E+04 0.  0.
        3    1    3    3  502    0  0.55025902853E+03  0.38479150530E+03  0.22467651503E+03  0.70804593611E+03  0.10100000352E+00 0.  1.
       -3    1    3    3    0  502 -0.55025902853E+03 -0.38479150530E+03 -0.83296573248E+02  0.67660019978E+03  0.10100000352E+00 0. -1.
</event>
<event>
 5   0  0.2236184E-03  0.1392951E+04  0.7818609E-02  0.8958937E-01
        2   -1    0    0  501    0  0.00000000000E+00  0.00000000000E+00  0.12238289867E+04  0.12238289867E+04  0.25500000920E-02 0. -1.
       -2   -1    0    0    0  501  0.00000000000E+00  0.00000000000E+00 -0.39636113985E+03  0.39636113986E+03  0.25500000920E-02 0.  1.
    10030    2    1    2    0    0  0.00000000000E+00  0.00000000000E+00  0.82746784683E+03  0.16201901265E+04  0.13929511867E+04 0.  0.
        3    1    3    3  502    0  0.25954318683E+03 -0.14200661552E+03 -0.31964056303E+03  0.43554407862E+03  0.10100000352E+00 0.  1.
       -3    1    3    3    0  502 -0.25954318683E+03  0.14200661552E+03  0.11471084099E+04  0.11846460479E+04  0.10100000352E+00 0. -1.
</event>
<event>
 5   0  0.1238683E-03  0.1399637E+04  0.7818609E-02  0.8954081E-01
        1   -1    0    0  501    0  0.00000000000E+00  0.00000000000E+00  0.90767465440E+03  0.90767465441E+03  0.50400001928E-02 0.  1.
       -1   -1    0    0    0  501  0.00000000000E+00  0.00000000000E+00 -0.53956140989E+03  0.53956140991E+03  0.50400001928E-02 0. -1.
    10030    2    1    2    0    0  0.00000000000E+00  0.00000000000E+00  0.36811324452E+03  0.14472360643E+04  0.13996374049E+04 0.  0.
        2    1    3    3  502    0  0.87218180664E+02  0.32294053221E+03 -0.45154171880E+03  0.56194975060E+03  0.25500000920E-02 0. -1.
       -2    1    3    3    0  502 -0.87218180664E+02 -0.32294053221E+03  0.81965496331E+03  0.88528631372E+03  0.25500000920E-02 0.  1.
</event>
<event>
 5   0  0.8293000E-04  0.1544944E+04  0.7818609E-02  0.8855104E-01
        3   -1    0    0  501    0  0.00000000000E+00  0.00000000000E+00  0.10792498590E+04  0.10792498637E+04  0.10100000352E+00 0.  1.
       -3   -1    0    0    0  501  0.00000000000E+00  0.00000000000E+00 -0.55289624889E+03  0.55289625811E+03  0.10100000352E+00 0. -1.
    10030    2    1    2    0    0  0.00000000000E+00  0.00000000000E+00  0.52635361010E+03  0.16321461218E+04  0.15449442838E+04 0.  0.
        5    1    3    3  502    0 -0.32354386175E+03  0.70116988244E+03  0.24282044064E+03  0.80950830194E+03  0.46999998093E+01 0. -1.
       -5    1    3    3    0  502  0.32354386175E+03 -0.70116988244E+03  0.28353316946E+03  0.82263781988E+03  0.46999998093E+01 0.  1.
</event>
<event>
 5   0  0.1238683E-03  0.1376243E+04  0.7818609E-02  0.8971197E-01
       -1   -1    0    0    0  501  0.00000000000E+00  0.00000000000E+00  0.52660038672E+03  0.52660038675E+03  0.50400001928E-02 0.  1.
        1   -1    0    0  501    0  0.00000000000E+00  0.00000000000E+00 -0.89918531502E+03  0.89918531503E+03  0.50400001928E-02 0. -1.
    10030    2    1    2    0    0  0.00000000000E+00  0.00000000000E+00 -0.37258492829E+03  0.14257857018E+04  0.13762431975E+04 0.  0.
        2    1    3    3  502    0  0.57621175823E+03 -0.30724720843E+03  0.38522754963E+02  0.65414435721E+03  0.25500000920E-02 0. -1.
       -2    1    3    3    0  502 -0.57621175823E+03  0.30724720843E+03 -0.41110768326E+03  0.77164134457E+03  0.25500000920E-02 0.  1.
</event>
<event>
 5   0  0.2190704E-03  0.1462428E+04  0.7818609E-02  0.8909830E-01
        2   -1    0    0  501    0  0.00000000000E+00  0.00000000000E+00  0.12748813425E+04  0.12748813425E+04  0.25500000920E-02 0. -1.
       -2   -1    0    0    0  501  0.00000000000E+00  0.00000000000E+00 -0.41939113781E+03  0.41939113782E+03  0.25500000920E-02 0.  1.
    10030    2    1    2    0    0  0.00000000000E+00  0.00000000000E+00  0.85549020467E+03  0.16942724803E+04  0.14624280315E+04 0.  0.
        5    1    3    3  502    0  0.47321146897E+02  0.54125255356E+03  0.99466752851E+03  0.11333927827E+04  0.46999998093E+01 0. -1.
       -5    1    3    3    0  502 -0.47321146897E+02 -0.54125255356E+03 -0.13917732384E+03  0.56087969757E+03  0.46999998093E+01 0.  1.
</event>
<event>
 5   0  0.2195980E-03  0.1370208E+04  0.7818609E-02  0.8975670E-01
        2   -1    0    0  501    0  0.00000000000E+00  0.00000000000E+00  0.77634474134E+03  0.77634474134E+03  0.25500000920E-02 0. -1.
       -2   -1    0    0    0  501  0.00000000000E+00  0.00000000000E+00 -0.60458668742E+03  0.60458668743E+03  0.25500000920E-02 0.  1.
    10030    2    1    2    0    0  0.00000000000E+00  0.00000000000E+00  0.17175805392E+03  0.13809314288E+04  0.13702082987E+04 0.  0.
        4    1    3    3  502    0  0.39933119945E+03  0.54792363601E+03  0.18503785439E+03  0.70279893157E+03  0.12699999809E+01 0.  1.
       -4    1    3    3    0  502 -0.39933119945E+03 -0.54792363601E+03 -0.13279800475E+02  0.67813249720E+03  0.12699999809E+01 0. -1.
</event>
<event>
 5   0  0.1238683E-03  0.1401666E+04  0.7818609E-02  0.8952614E-01
       -1   -1    0    0    0  501  0.00000000000E+00  0.00000000000E+00  0.94359503454E+03  0.94359503455E+03  0.50400001928E-02 0. -1.
        1   -1    0    0  501    0  0.00000000000E+00  0.00000000000E+00 -0.52052694899E+03  0.52052694901E+03  0.50400001928E-02 0.  1.
    10030    2    1    2    0    0  0.00000000000E+00  0.00000000000E+00  0.42306808555E+03  0.14641219836E+04  0.14016656441E+04 0.  0.
        2    1    3    3  502    0 -0.21374169790E+02  0.69266528293E+03  0.32071213677E+03  0.76360875060E+03  0.25500000920E-02 0. -1.
       -2    1    3    3    0  502  0.21374169790E+02 -0.69266528293E+03  0.10235594878E+03  0.70051323297E+03  0.25500000920E-02 0.  1.
</event>
<event>
 5   0  0.1210275E-03  0.1380179E+04  0.7818609E-02  0.8968292E-01
       -1   -1    0    0    0  501  0.00000000000E+00  0.00000000000E+00  0.49691066012E+03  0.49691066014E+03  0.50400001928E-02 0. -1.
        1   -1    0    0  501    0  0.00000000000E+00  0.00000000000E+00 -0.95836854251E+03  0.95836854253E+03  0.50400001928E-02 0.  1.
    10030    2    1    2    0    0  0.00000000000E+00  0.00000000000E+00 -0.46145788239E+03  0.14552792027E+04  0.13801790393E+04 0.  0.
        1    1    3    3  502    0  0.54900280651E+03 -0.31687654692E+03 -0.51835140696E+03  0.81884248098E+03  0.50400001928E-02 0.  1.
       -1    1    3    3    0  502 -0.54900280651E+03  0.31687654692E+03  0.56893524561E+02  0.63643672168E+03  0.50400001928E-02 0. -1.
</event>
<event>
 5   0  0.1175374E-03  0.1403077E+04  0.7818609E-02  0.8951594E-01
        1   -1    0    0  501    0  0.00000000000E+00  0.00000000000E+00  0.32346994322E+04  0.32346994322E+04  0.50400001928E-02 0.  1.
       -1   -1    0    0    0  501  0.00000000000E+00  0.00000000000E+00 -0.15214904035E+03  0.15214904043E+03  0.50400001928E-02 0. -1.
    10030    2    1    2    0    0  0.00000000000E+00  0.00000000000E+00  0.30825503918E+04  0.33868484726E+04  0.14030772104E+04 0.  0.
        3    1    3    3  502    0 -0.58263778611E+03  0.14838808903E+03  0.66869948153E+03  0.89924680792E+03  0.10100000352E+00 0. -1.
       -3    1    3    3    0  502  0.58263778611E+03 -0.14838808903E+03  0.24138509103E+04  0.24876016647E+04  0.10100000352E+00 0.  1.
</event>
<event>
 5   0  0.2172901E-03  0.1360698E+04  0.7818609E-02  0.8982769E-01
        2   -1    0    0  501    0  0.00000000000E+00  0.00000000000E+00  0.22712892307E+04  0.22712892307E+04  0.25500000920E-02 0.  1.
       -2   -1    0    0    0  501  0.00000000000E+00  0.00000000000E+00 -0.20379395266E+03  0.20379395267E+03  0.25500000920E-02 0. -1.
    10030    2    1    2    0    0  0.00000000000E+00  0.00000000000E+00  0.20674952781E+04  0.24750831834E+04  0.13606983648E+04 0.  0.
        2    1    3    3  502    0 -0.10498160375E+03 -0.25876798682E+03  0.21622382340E+04  0.21801963647E+04  0.25500000920E-02 0.  1.
       -2    1    3    3    0  502  0.10498160375E+03  0.25876798682E+03 -0.94742955936E+02  0.29488681868E+03  0.25500000920E-02 0. -1.
</event>
<event>
 5   0  0.1210275E-03  0.1421968E+04  0.7818609E-02  0.8938069E-01
        1   -1    0    0  501    0  0.00000000000E+00  0.00000000000E+00  0.59038690687E+03  0.59038690689E+03  0.50400001928E-02 0.  1.
       -1   -1    0    0    0  501  0.00000000000E+00  0.00000000000E+00 -0.85621556503E+03  0.85621556505E+03  0.50400001928E-02 0. -1.
    10030    2    1    2    0    0  0.00000000000E+00  0.00000000000E+00 -0.26582865816E+03  0.14466024719E+04  0.14219682965E+04 0.  0.
        1    1    3    3  502    0  0.44764332868E+03 -0.14932276001E+02 -0.69464940930E+03  0.82652605793E+03  0.50400001928E-02 0. -1.
       -1    1    3    3    0  502 -0.44764332868E+03  0.14932276001E+02  0.42882075114E+03  0.62007641401E+03  0.50400001928E-02 0.  1.
</event>
<event>
 5   0  0.2190704E-03  0.1441750E+04  0.7818609E-02  0.8924140E-01
       -2   -1    0    0    0  501  0.00000000000E+00  0.00000000000E+00  0.77444423726E+03  0.77444423726E+03  0.25500000920E-02 0. -1.
        2   -1    0    0  501    0  0.00000000000E+00  0.00000000000E+00 -0.67101137807E+03  0.67101137807E+03  0.25500000920E-02 0.  1.
    10030    2    1    2    0    0  0.00000000000E+00  0.00000000000E+00  0.10343285919E+03  0.14454556153E+04  0.14417501793E+04 0.  0.
        5    1    3    3  502    0  0.28036350415E+02  0.81583508785E+02  0.76923512096E+03  0.77407148712E+03  0.46999998093E+01 0. -1.
       -5    1    3    3    0  502 -0.28036350415E+02 -0.81583508785E+02 -0.66580226177E+03  0.67138412822E+03  0.46999998093E+01 0.  1.
</event>
<event>
 5   0  0.1175374E-03  0.1504983E+04  0.7818609E-02  0.8881146E-01
       -1   -1    0    0    0  501  0.00000000000E+00  0.00000000000E+00  0.58023415682E+03  0.58023415684E+03  0.50400001928E-02 0.  1.
        1   -1    0    0  501    0  0.00000000000E+00  0.00000000000E+00 -0.97588726278E+03  0.97588726279E+03  0.50400001928E-02 0. -1.
    10030    2    1    2    0    0  0.00000000000E+00  0.00000000000E+00 -0.39565310596E+03  0.15561214196E+04  0.15049825555E+04 0.  0.
        3    1    3    3  502    0 -0.15659856989E+03 -0.18396754775E+03  0.53904337860E+03  0.59070715666E+03  0.10100000352E+00 0.  1.
       -3    1    3    3    0  502  0.15659856989E+03  0.18396754775E+03 -0.93469648456E+03  0.96541426298E+03  0.10100000352E+00 0. -1.
</event>
<event>
 5   0  0.2172901E-03  0.1346070E+04  0.7818609E-02  0.8993809E-01
       -2   -1    0    0    0  501  0.00000000000E+00  0.00000000000E+00  0.36985463516E+03  0.36985463517E+03  0.25500000920E-02 0.  1.
        2   -1    0    0  501    0  0.00000000000E+00  0.00000000000E+00 -0.12247400660E+04  0.12247400660E+04  0.25500000920E-02 0. -1.
    10030    2    1    2    0    0  0.00000000000E+00  0.00000000000E+00 -0.85488543086E+03  0.15945947012E+04  0.13460695232E+04 0.  0.
        2    1    3    3  502    0 -0.65900794050E+03 -0.43174825079E+02 -0.27380453104E+03  0.71492968353E+03  0.25500000920E-02 0.  1.
       -2    1    3    3    0  502  0.65900794050E+03  0.43174825079E+02 -0.58108089982E+03  0.87966501767E+03  0.25500000920E-02 0. -1.
</event>
<event>
 5   0  0.8293000E-04  0.1584483E+04  0.7818609E-02  0.8830138E-01
       -3   -1    0    0    0  501  0.00000000000E+00  0.00000000000E+00  0.11438460788E+04  0.11438460833E+04  0.10100000352E+00 0.  1.
        3   -1    0    0  501    0  0.00000000000E+00  0.00000000000E+00 -0.54871560475E+03  0.54871561404E+03  0.10100000352E+00 0. -1.
    10030    2    1    2    0    0  0.00000000000E+00  0.00000000000E+00  0.59513047409E+03  0.16925616973E+04  0.15844825080E+04 0.  0.
        4    1    3    3  502    0  0.29973411958E+03  0.52819987325E+03 -0.24586862836E+03  0.65520122394E+03  0.12699999809E+01 0. -1.
       -4    1    3    3    0  502 -0.29973411958E+03 -0.52819987325E+03  0.84099910245E+03  0.10373604734E+04  0.12699999809E+01 0.  1.
</event>
<event>
 5   0  0.2190704E-03  0.1411117E+04  0.7818609E-02  0.8945810E-01
       -2   -1    0    0    0  501  0.00000000000E+00  0.00000000000E+00  0.28774795835E+03  0.28774795836E+03  0.25500000920E-02 0. -1.
        2   -1    0    0  501    0  0.00000000000E+00  0.00000000000E+00 -0.17300314503E+04  0.17300314503E+04  0.25500000920E-02 0.  1.
    10030    2    1    2    0    0  0.00000000000E+00  0.00000000000E+00 -0.14422834920E+04  0.20177794087E+04  0.14111173129E+04 0.  0.
        5    1    3    3  502    0  0.12658594307E+03  0.68528824426E+03 -0.87873737570E+03  0.11215370900E+04  0.46999998093E+01 0.  1.
       -5    1    3    3    0  502 -0.12658594307E+03 -0.68528824426E+03 -0.56354611626E+03  0.89624231871E+03  0.46999998093E+01 0. -1.
</event>
<event>
 5   0  0.1210275E-03  0.1400992E+04  0.7818609E-02  0.8953101E-01
       -1   -1    0    0    0  501  0.00000000000E+00  0.00000000000E+00  0.64762016161E+03  0.64762016163E+03  0.50400001928E-02 0.  1.
        1   -1    0    0  501    0  0.00000000000E+00  0.00000000000E+00 -0.75768920719E+03  0.75768920720E+03  0.50400001928E-02 0. -1.
    10030    2    1    2    0    0  0.00000000000E+00  0.00000000000E+00 -0.11006904557E+03  0.14053093688E+04  0.14009922296E+04 0.  0.
        1    1    3    3  502    0 -0.65623448697E+03 -0.24326031189E+03 -0.25354062148E+02  0.70033000058E+03  0.50400001928E-02 0. -1.
       -1    1    3    3    0  502  0.65623448697E+03  0.24326031189E+03 -0.84714983426E+02  0.70497936826E+03  0.50400001928E-02 0.  1.
</event>
<event>
 5   0  0.1238683E-03  0.1405126E+04  0.7818609E-02  0.8950117E-01
       -1   -1    0    0    0  501  0.00000000000E+00  0.00000000000E+00  0.62601452112E+03  0.62601452114E+03  0.50400001928E-02 0. -1.
        1   -1    0    0  501    0  0.00000000000E+00  0.00000000000E+00 -0.78847143822E+03  0.78847143824E+03  0.50400001928E-02 0.  1.
    10030    2    1    2    0    0  0.00000000000E+00  0.00000000000E+00 -0.16245691711E+03  0.14144859594E+04  0.14051257166E+04 0.  0.
        2    1    3    3  502    0  0.54525261209E+02 -0.43142156709E+03 -0.63671682203E+03  0.77104207675E+03  0.25500000920E-02 0.  1.
       -2    1    3    3    0  502 -0.54525261209E+02  0.43142156709E+03  0.47425990493E+03  0.64344388262E+03  0.25500000920E-02 0. -1.
</event>
<event>
 5   0  0.2236184E-03  0.1359656E+04  0.7818609E-02  0.8983551E-01
        2   -1    0    0  501    0  0.00000000000E+00  0.00000000000E+00  0.12374706319E+04  0.12374706319E+04  0.25500000920E-02 0.  1.
       -2   -1    0    0    0  501  0.00000000000E+00  0.00000000000E+00 -0.37347630809E+03  0.37347630810E+03  0.25500000920E-02 0. -1.
    10030    2    1    2    0    0  0.00000000000E+00  0.00000000000E+00  0.86399432381E+03  0.16109469400E+04  0.13596557844E+04 0.  0.
        3    1    3    3  502    0 -0.24728539960E+03  0.32196999286E+03  0.10780783783E+04  0.11519842642E+04  0.10100000352E+00 0.  1.
       -3    1    3    3    0  502  0.24728539960E+03 -0.32196999286E+03 -0.21408405447E+03  0.45896267576E+03  0.10100000352E+00 0. -1.
</event>
<event>
 5   0  0.1175374E-03  0.1309794E+04  0.7818609E-02  0.9021834E-01
        1   -1    0    0  501    0  0.00000000000E+00  0.00000000000E+00  0.68736168218E+03  0.68736168220E+03  0.50400001928E-02 0.  1.
       -1   -1    0    0    0  501  0.00000000000E+00  0.00000000000E+00 -0.62396583093E+03  0.62396583095E+03  0.50400001928E-02 0. -1.
    10030    2    1    2    0    0  0.00000000000E+00  0.00000000000E+00  0.63395851251E+02  0.13113275132E+04  0.13097941872E+04 0.  0.
        3    1    3    3  502    0  0.62236081710E+03 -0.15937351195E+03 -0.95562207999E+02  0.64951139233E+03  0.10100000352E+00 0. -1.
       -3    1    3    3    0  502 -0.62236081710E+03  0.15937351195E+03  0.15895805925E+03  0.66181612082E+03  0.10100000352E+00 0.  1.
</event>
<event>
 5   0  0.2083966E-03  0.1380819E+04  0.7818609E-02  0.8967821E-01
       -2   -1    0    0    0  501  0.00000000000E+00  0.00000000000E+00  0.30348196452E+03  0.30348196453E+03  0.25500000920E-02 0. -1.
        2   -1    0    0  501    0  0.00000000000E+00  0.00000000000E+00 -0.15706535843E+04  0.15706535843E+04  0.25500000920E-02 0.  1.
    10030    2    1    2    0    0  0.00000000000E+00  0.00000000000E+00 -0.12671716198E+04  0.18741355488E+04  0.13808186490E+04 0.  0.
        1    1    3    3  502    0  0.67767617876E+03 -0.59542721426E+02 -0.79345916857E+03  0.10451640020E+04  0.50400001928E-02 0.  1.
       -1    1    3    3    0  502 -0.67767617876E+03  0.59542721426E+02 -0.47371245121E+03  0.82897154680E+03  0.50400001928E-02 0. -1.
</event>
<event>
 5   0  0.1210275E-03  0.1625363E+04  0.7818609E-02  0.8805116E-01
       -1   -1    0    0    0  501  0.00000000000E+00  0.00000000000E+00  0.47624997492E+03  0.47624997494E+03  0.50400001928E-02 0.  1.
        1   -1    0    0  501    0  0.00000000000E+00  0.00000000000E+00 -0.13867738529E+04  0.13867738529E+04  0.50400001928E-02 0. -1.
    10030    2    1    2    0    0  0.00000000000E+00  0.00000000000E+00 -0.91052387793E+03  0.18630238278E+04  0.16253627443E+04 0.  0.
        1    1    3    3  502    0 -0.25064931156E+03  0.46727845795E+03  0.25064302369E+03  0.58651185837E+03  0.50400001928E-02 0.  1.
       -1    1    3    3    0  502  0.25064931156E+03 -0.46727845795E+03 -0.11611669016E+04  0.12765119694E+04  0.50400001928E-02 0. -1.
</event>
<event>
 5   0  0.2172901E-03  0.1407171E+04  0.7818609E-02  0.8948644E-01
       -2   -1    0    0    0  501  0.00000000000E+00  0.00000000000E+00  0.92343315378E+03  0.92343315378E+03  0.25500000920E-02 0. -1.
        2   -1    0    0  501    0  0.00000000000E+00  0.00000000000E+00 -0.53607847786E+03  0.53607847787E+03  0.25500000920E-02 0.  1.
    10030    2    1    2    0    0  0.00000000000E+00  0.00000000000E+00  0.38735467591E+03  0.14595116317E+04  0.14071711189E+04 0.  0.
        2    1    3    3  502    0 -0.47870150612E+03 -0.27259156539E+03  0.64764605095E+03  0.85023920211E+03  0.25500000920E-02 0. -1.
       -2    1    3    3    0  502  0.47870150612E+03  0.27259156539E+03 -0.26029137504E+03  0.60927242954E+03  0.25500000920E-02 0.  1.
</event>
<event>
 5   0  0.1175374E-03  0.1394625E+04  0.7818609E-02  0.8957718E-01
       -1   -1    0    0    0  501  0.00000000000E+00  0.00000000000E+00  0.58443850066E+03  0.58443850068E+03  0.50400001928E-02 0.  1.
        1   -1    0    0  501    0  0.00000000000E+00  0.00000000000E+00 -0.83198643602E+03  0.83198643604E+03  0.50400001928E-02 0. -1.
    10030    2    1    2    0    0  0.00000000000E+00  0.00000000000E+00 -0.24754793536E+03  0.14164249367E+04  0.13946252619E+04 0.  0.
        3    1    3    3  502    0  0.14726925525E+03 -0.67484042601E+03 -0.22090920885E+03  0.72518874982E+03  0.10100000352E+00 0. -1.
       -3    1    3    3    0  502 -0.14726925525E+03  0.67484042601E+03 -0.26638726515E+02  0.69123618689E+03  0.10100000352E+00 0.  1.
</event>
<event>
 5   0  0.2195980E-03  0.1394726E+04  0.7818609E-02  0.8957645E-01
        2   -1    0    0  501    0  0.00000000000E+00  0.00000000000E+00  0.11944600466E+04  0.11944600466E+04  0.25500000920E-02 0.  1.
       -2   -1    0    0    0  501  0.00000000000E+00  0.00000000000E+00 -0.40714203121E+03  0.40714203122E+03  0.25500000920E-02 0. -1.
    10030    2    1    2    0    0  0.00000000000E+00  0.00000000000E+00  0.78731801540E+03  0.16016020778E+04  0.13947256212E+04 0.  0.
        4    1    3    3  502    0 -0.25480123252E+03  0.61870823389E+03  0.16807842503E+03  0.68990978876E+03  0.12699999809E+01 0.  1.
       -4    1    3    3    0  502  0.25480123252E+03 -0.61870823389E+03  0.61923959037E+03  0.91169228907E+03  0.12699999809E+01 0. -1.
</event>
<event>
 5   0  0.2083966E-03  0.1394856E+04  0.7818609E-02  0.8957550E-01
        2   -1    0    0  501    0  0.00000000000E+00  0.00000000000E+00  0.10153509818E+04  0.10153509818E+04  0.25500000920E-02 0.  1.
       -2   -1    0    0    0  501  0.00000000000E+00  0.00000000000E+00 -0.47905221529E+03  0.47905221529E+03  0.25500000920E-02 0. -1.
    10030    2    1    2    0    0  0.00000000000E+00  0.00000000000E+00  0.53629876649E+03  0.14944031971E+04  0.13948564616E+04 0.  0.
        1    1    3    3  502    0 -0.17036642123E+03 -0.32955581850E+03  0.90086792030E+03  0.97426626999E+03  0.50400001928E-02 0.  1.
       -1    1    3    3    0  502  0.17036642123E+03  0.32955581850E+03 -0.36456915381E+03  0.52013692709E+03  0.50400001928E-02 0. -1.
</event>
<event>
 5   0  0.1175374E-03  0.1361142E+04  0.7818609E-02  0.8982436E-01
       -1   -1    0    0    0  501  0.00000000000E+00  0.00000000000E+00  0.36469108644E+03  0.36469108648E+03  0.50400001928E-02 0.  1.
        1   -1    0    0  501    0  0.00000000000E+00  0.00000000000E+00 -0.12700525560E+04  0.12700525561E+04  0.50400001928E-02 0. -1.
    10030    2    1    2    0    0  0.00000000000E+00  0.00000000000E+00 -0.90536146961E+03  0.16347436425E+04  0.13611419420E+04 0.  0.
        3    1    3    3  502    0  0.58231547694E+03 -0.34980021926E+03 -0.40279434119E+03  0.78974350239E+03  0.10100000352E+00 0.  1.
       -3    1    3    3    0  502 -0.58231547694E+03  0.34980021926E+03 -0.50256712842E+03  0.84500014014E+03  0.10100000352E+00 0. -1.
</event>
<event>
 5   0  0.1199720E-03  0.1430745E+04  0.7818609E-02  0.8931859E-01
       -1   -1    0    0    0  501  0.00000000000E+00  0.00000000000E+00  0.71338383012E+03  0.71338383013E+03  0.50400001928E-02 0. -1.
        1   -1    0    0  501    0  0.00000000000E+00  0.00000000000E+00 -0.71736716975E+03  0.71736716977E+03  0.50400001928E-02 0.  1.
    10030    2    1    2    0    0  0.00000000000E+00  0.00000000000E+00 -0.39833396353E+01  0.14307509999E+04  0.14307454549E+04 0.  0.
        5    1    3    3  502    0  0.55538587365E+03  0.36640713950E+03  0.26074189050E+03  0.71464402606E+03  0.46999998093E+01 0. -1.
       -5    1    3    3    0  502 -0.55538587365E+03 -0.36640713950E+03 -0.26472523014E+03  0.71610697384E+03  0.46999998093E+01 0.  1.
</event>
<event>
 5   0  0.1175374E-03  0.1423310E+04  0.7818609E-02  0.8937116E-01
        1   -1    0    0  501    0  0.00000000000E+00  0.00000000000E+00  0.66668141955E+03  0.66668141957E+03  0.50400001928E-02 0. -1.
       -1   -1    0    0    0  501  0.00000000000E+00  0.00000000000E+00 -0.75966278411E+03  0.75966278412E+03  0.50400001928E-02 0.  1.
    10030    2    1    2    0    0  0.00000000000E+00  0.00000000000E+00 -0.92981364550E+02  0.14263442037E+04  0.14233103152E+04 0.  0.
        3    1    3    3  502    0 -0.12339671981E+02 -0.30158915864E+03 -0.69233689212E+03  0.75527390429E+03  0.10100000352E+00 0.  1.
       -3    1    3    3    0  502  0.12339671981E+02  0.30158915864E+03  0.59935552757E+03  0.67107029940E+03  0.10100000352E+00 0. -1.
</event>
<event>
 5   0  0.1199720E-03  0.1424754E+04  0.7818609E-02  0.8936093E-01
        1   -1    0    0  501    0  0.00000000000E+00  0.00000000000E+00  0.80811181026E+03  0.80811181028E+03  0.50400001928E-02 0.  1.
       -1   -1    0    0    0  501  0.00000000000E+00  0.00000000000E+00 -0.62798370163E+03  0.62798370165E+03  0.50400001928E-02 0. -1.
    10030    2    1    2    0    0  0.00000000000E+00  0.00000000000E+00  0.18012810863E+03  0.14360955119E+04  0.14247540784E+04 0.  0.
        5    1    3    3  502    0  0.57129671969E+03  0.38560152202E+03 -0.91342138916E+02  0.69529414786E+03  0.46999998093E+01 0. -1.
       -5    1    3    3    0  502 -0.57129671969E+03 -0.38560152202E+03  0.27147024754E+03  0.74080136407E+03  0.46999998093E+01 0.  1.
</event>
<event>
 5   0  0.2172901E-03  0.1254997E+04  0.7818609E-02  0.9066034E-01
       -2   -1    0    0    0  501  0.00000000000E+00  0.00000000000E+00  0.44699102410E+03  0.44699102411E+03  0.25500000920E-02 0.  1.
        2   -1    0    0  501    0  0.00000000000E+00  0.00000000000E+00 -0.88090056901E+03  0.88090056902E+03  0.25500000920E-02 0. -1.
    10030    2    1    2    0    0  0.00000000000E+00  0.00000000000E+00 -0.43390954491E+03  0.13278915931E+04  0.12549974462E+04 0.  0.
        2    1    3    3  502    0  0.15449206017E+03  0.33723912919E+03  0.31856137644E+03  0.48895743933E+03  0.25500000920E-02 0.  1.
       -2    1    3    3    0  502 -0.15449206017E+03 -0.33723912919E+03 -0.75247092136E+03  0.83893415379E+03  0.25500000920E-02 0. -1.
</event>
<event>
 5   0  0.1175374E-03  0.1408986E+04  0.7818609E-02  0.8947340E-01
        1   -1    0    0  501    0  0.00000000000E+00  0.00000000000E+00  0.10022418524E+04  0.10022418524E+04  0.50400001928E-02 0.  1.
       -1   -1    0    0    0  501  0.00000000000E+00  0.00000000000E+00 -0.49519991599E+03  0.49519991602E+03  0.50400001928E-02 0. -1.
    10030    2    1    2    0    0  0.00000000000E+00  0.00000000000E+00  0.50704193643E+03  0.14974417685E+04  0.14089855658E+04 0.  0.
        3    1    3    3  502    0 -0.25512543818E+02 -0.31213207090E+02  0.10010150063E+04  0.10018264356E+04  0.10100000352E+00 0.  1.
       -3    1    3    3    0  502  0.25512543818E+02  0.31213207090E+02 -0.49397306984E+03  0.49561533281E+03  0.10100000352E+00 0. -1.
</event>
<event>
 5   0  0.2083966E-03  0.1382887E+04  0.7818609E-02  0.8966300E-01
        2   -1    0    0  501    0  0.00000000000E+00  0.00000000000E+00  0.41443888650E+03  0.41443888651E+03  0.25500000920E-02 0.  1.
       -2   -1    0    0    0  501  0.00000000000E+00  0.00000000000E+00 -0.11535941478E+04  0.11535941478E+04  0.25500000920E-02 0. -1.
    10030    2    1    2    0    0  0.00000000000E+00  0.00000000000E+00 -0.73915526128E+03  0.15680330343E+04  0.13828872320E+04 0.  0.
        1    1    3    3  502    0  0.26000697424E+03  0.50520336391E+03  0.77207307117E+02  0.57340651711E+03  0.50400001928E-02 0.  1.
       -1    1    3    3    0  502 -0.26000697424E+03 -0.50520336391E+03 -0.81636256840E+03  0.99462651718E+03  0.50400001928E-02 0. -1.
</event>
<event>
 5   0  0.2195980E-03  0.1372782E+04  0.7818609E-02  0.8973760E-01
        2   -1    0    0  501    0  0.00000000000E+00  0.00000000000E+00  0.84096190840E+03  0.84096190841E+03  0.25500000920E-02 0. -1.
       -2   -1    0    0    0  501  0.00000000000E+00  0.00000000000E+00 -0.56023038720E+03  0.56023038721E+03  0.25500000920E-02 0.  1.
    10030    2    1    2    0    0  0.00000000000E+00  0.00000000000E+00  0.28073152120E+03  0.14011922956E+04  0.13727817242E+04 0.  0.
        4    1    3    3  502    0  0.16641360640E+03 -0.14382192964E+03  0.80401618813E+03  0.83355976361E+03  0.12699999809E+01 0. -1.
       -4    1    3    3    0  502 -0.16641360640E+03  0.14382192964E+03 -0.52328466693E+03  0.56763253200E+03  0.12699999809E+01 0.  1.
</event>
<event>
 5   0  0.1175374E-03  0.1389891E+04  0.7818609E-02  0.8961169E-01
       -1   -1    0    0    0  501  0.00000000000E+00  0.00000000000E+00  0.83550993781E+03  0.83550993783E+03  0.50400001928E-02 0. -1.
        1   -1    0    0  501    0  0.00000000000E+00  0.00000000000E+00 -0.57802921140E+03  0.57802921143E+03  0.50400001928E-02 0.  1.
    10030    2    1    2    0    0  0.00000000000E+00  0.00000000000E+00  0.25748072641E+03  0.14135391493E+04  0.13898908597E+04 0.  0.
        3    1    3    3  502    0 -0.38079625675E+02  0.17066893811E+03  0.81276952059E+03  0.83136769731E+03  0.10100000352E+00 0. -1.
       -3    1    3    3    0  502  0.38079625675E+02 -0.17066893811E+03 -0.55528879418E+03  0.58217145195E+03  0.10100000352E+00 0.  1.
</event>
<event>
 5   0  0.2236184E-03  0.1409087E+04  0.7818609E-02  0.8947267E-01
       -2   -1    0    0    0  501  0.00000000000E+00  0.00000000000E+00  0.23005336380E+03  0.23005336382E+03  0.25500000920E-02 0. -1.
        2   -1    0    0  501    0  0.00000000000E+00  0.00000000000E+00 -0.21576795140E+04  0.21576795140E+04  0.25500000920E-02 0.  1.
    10030    2    1    2    0    0  0.00000000000E+00  0.00000000000E+00 -0.19276261502E+04  0.23877328779E+04  0.14090868394E+04 0.  0.
        3    1    3    3  502    0  0.44754130530E+03  0.32571117451E+03 -0.17024402363E+04  0.17901630533E+04  0.10100000352E+00 0.  1.
       -3    1    3    3    0  502 -0.44754130530E+03 -0.32571117451E+03 -0.22518591394E+03  0.59756982453E+03  0.10100000352E+00 0. -1.
</event>
<event>
 5   0  0.2083966E-03  0.1446791E+04  0.7818609E-02  0.8920628E-01
        2   -1    0    0  501    0  0.00000000000E+00  0.00000000000E+00  0.48046206821E+03  0.48046206821E+03  0.25500000920E-02 0.  1.
       -2   -1    0    0    0  501  0.00000000000E+00  0.00000000000E+00 -0.10891624591E+04  0.10891624591E+04  0.25500000920E-02 0. -1.
    10030    2    1    2    0    0  0.00000000000E+00  0.00000000000E+00 -0.60870039094E+03  0.15696245274E+04  0.14467912742E+04 0.  0.
        1    1    3    3  502    0  0.49749885830E+02  0.20357852688E+03 -0.10555072462E+04  0.10761109676E+04  0.50400001928E-02 0. -1.
       -1    1    3    3    0  502 -0.49749885830E+02 -0.20357852688E+03  0.44680685526E+03  0.49351355978E+03  0.50400001928E-02 0.  1.
</event>
<event>
 5   0  0.1238683E-03  0.1334474E+04  0.7818609E-02  0.9002665E-01
        1   -1    0    0  501    0  0.00000000000E+00  0.00000000000E+00  0.10584288547E+04  0.10584288547E+04  0.50400001928E-02 0.  1.
       -1   -1    0    0    0  501  0.00000000000E+00  0.00000000000E+00 -0.42062843647E+03  0.42062843650E+03  0.50400001928E-02 0. -1.
    10030    2    1    2    0    0  0.00000000000E+00  0.00000000000E+00  0.63780041826E+03  0.14790572912E+04  0.13344740901E+04 0.  0.
        2    1    3    3  502    0  0.20719542307E+03  0.20887680315E+02 -0.38368808902E+03  0.43655788642E+03  0.25500000920E-02 0. -1.
       -2    1    3    3    0  502 -0.20719542307E+03 -0.20887680315E+02  0.10214885073E+04  0.10424994048E+04  0.25500000920E-02 0.  1.
</event>
<event>
 5   0  0.1199720E-03  0.1413180E+04  0.7818609E-02  0.8944333E-01
        1   -1    0    0  501    0  0.00000000000E+00  0.00000000000E+00  0.72590128449E+03  0.72590128450E+03  0.50400001928E-02 0.  1.
       -1   -1    0    0    0  501  0.00000000000E+00  0.00000000000E+00 -0.68779230639E+03  0.68779230640E+03  0.50400001928E-02 0. -1.
    10030    2    1    2    0    0  0.00000000000E+00  0.00000000000E+00  0.38108978101E+02  0.14136935909E+04  0.14131798452E+04 0.  0.
        5    1    3    3  502    0  0.10507309206E+03 -0.36554088160E+02 -0.67896036021E+03  0.68803038943E+03  0.46999998093E+01 0. -1.
       -5    1    3    3    0  502 -0.10507309206E+03  0.36554088160E+02  0.71706933831E+03  0.72566320148E+03  0.46999998093E+01 0.  1.
</event>
<event>
 5   0  0.1210275E-03  0.1394214E+04  0.7818609E-02  0.8958018E-01
       -1   -1    0    0    0  501  0.00000000000E+00  0.00000000000E+00  0.86534136980E+03  0.86534136981E+03  0.50400001928E-02 0.  1.
        1   -1    0    0  501    0  0.00000000000E+00  0.00000000000E+00 -0.56157941155E+03  0.56157941157E+03  0.50400001928E-02 0. -1.
    10030    2    1    2    0    0  0.00000000000E+00  0.00000000000E+00  0.30376195825E+03  0.14269207814E+04  0.13942136095E+04 0.  0.
        1    1    3    3  502    0 -0.59189488368E+03 -0.27236369509E+03 -0.10179730347E+03  0.65945752459E+03  0.50400001928E-02 0. -1.
       -1    1    3    3    0  502  0.59189488368E+03  0.27236369509E+03  0.40555926172E+03  0.76746325679E+03  0.50400001928E-02 0.  1.
</event>
<event>
 5   0  0.2190704E-03  0.1405942E+04  0.7818609E-02  0.8949529E-01
        2   -1    0    0  501    0  0.00000000000E+00  0.00000000000E+00  0.16427342681E+04  0.16427342681E+04  0.25500000920E-02 0.  1.
       -2   -1    0    0    0  501  0.00000000000E+00  0.00000000000E+00 -0.30082062245E+03  0.30082062246E+03  0.25500000920E-02 0. -1.
    10030    2    1    2    0    0  0.00000000000E+00  0.00000000000E+00  0.13419136456E+04  0.19435548906E+04  0.14059421682E+04 0.  0.
        5    1    3    3  502    0 -0.68281739160E+03 -0.12252196547E+03  0.82793546885E+03  0.10801622345E+04  0.46999998093E+01 0.  1.
       -5    1    3    3    0  502  0.68281739160E+03  0.12252196547E+03  0.51397817679E+03  0.86339265605E+03  0.46999998093E+01 0. -1.
</event>
<event>
 5   0  0.2236184E-03  0.1367612E+04  0.7818609E-02  0.8977602E-01
        2   -1    0    0  501    0  0.00000000000E+00  0.00000000000E+00  0.10522254596E+04  0.10522254596E+04  0.25500000920E-02 0. -1.
       -2   -1    0    0    0  501  0.00000000000E+00  0.00000000000E+00 -0.44438234152E+03  0.44438234152E+03  0.25500000920E-02 0.  1.
    10030    2    1    2    0    0  0.00000000000E+00  0.00000000000E+00  0.60784311813E+03  0.14966078012E+04  0.13676116606E+04 0.  0.
        3    1    3    3  502    0 -0.20123941417E+03  0.53558413119E+03 -0.10589113219E+03  0.58185960977E+03  0.10100000352E+00 0.  1.
       -3    1    3    3    0  502  0.20123941417E+03 -0.53558413119E+03  0.71373425032E+03  0.91474819140E+03  0.10100000352E+00 0. -1.
</event>
<event>
 5   0  0.2195980E-03  0.1338643E+04  0.7818609E-02  0.8999470E-01
       -2   -1    0    0    0  501  0.00000000000E+00  0.00000000000E+00  0.18695301154E+03  0.18695301156E+03  0.25500000920E-02 0.  1.
        2   -1    0    0  501    0  0.00000000000E+00  0.00000000000E+00 -0.23962779564E+04  0.23962779564E+04  0.25500000920E-02 0. -1.
    10030    2    1    2    0    0  0.00000000000E+00  0.00000000000E+00 -0.22093249448E+04  0.25832309679E+04  0.13386431645E+04 0.  0.
        4    1    3    3  502    0  0.56411240105E+03 -0.33057515362E+03 -0.82845338592E+03  0.10553858814E+04  0.12699999809E+01 0.  1.
       -4    1    3    3    0  502 -0.56411240105E+03  0.33057515362E+03 -0.13808715589E+04  0.15278450865E+04  0.12699999809E+01 0. -1.
</event>
<event>
 5   0  0.2236184E-03  0.1404703E+04  0.7818609E-02  0.8950422E-01
        2   -1    0    0  501    0  0.00000000000E+00  0.00000000000E+00  0.16024471309E+04  0.16024471309E+04  0.25500000920E-02 0. -1.
       -2   -1    0    0    0  501  0.00000000000E+00  0.00000000000E+00 -0.30784001309E+03  0.30784001310E+03  0.25500000920E-02 0.  1.
    10030    2    1    2    0    0  0.00000000000E+00  0.00000000000E+00  0.12946071178E+04  0.19102871440E+04  0.14047025960E+04 0.  0.
        3    1    3    3  502    0  0.10000087739E+03  0.69321936550E+03  0.71854160030E+03  0.10034217985E+04  0.10100000352E+00 0.  1.
       -3    1    3    3    0  502 -0.10000087739E+03 -0.69321936550E+03  0.57606551755E+03  0.90686534552E+03  0.10100000352E+00 0. -1.
</event>
<event>
 5   0  0.1199720E-03  0.1468897E+04  0.7818609E-02  0.8905403E-01
        1   -1    0    0  501    0  0.00000000000E+00  0.00000000000E+00  0.14285515393E+04  0.14285515393E+04  0.50400001928E-02 0. -1.
       -1   -1    0    0    0  501  0.00000000000E+00  0.00000000000E+00 -0.37759565523E+03  0.37759565527E+03  0.50400001928E-02 0.  1.
    10030    2    1    2    0    0  0.00000000000E+00  0.00000000000E+00  0.10509558840E+04  0.18061471945E+04  0.14688973477E+04 0.  0.
        5    1    3    3  502    0  0.16642985049E+03 -0.17061059045E+03 -0.32870128733E+03  0.40604617348E+03  0.46999998093E+01 0.  1.
       -5    1    3    3    0  502 -0.16642985049E+03  0.17061059045E+03  0.13796571714E+04  0.14001010211E+04  0.46999998093E+01 0. -1.
</event>
<event>
 5   0  0.1225690E-03  0.1383685E+04  0.7818609E-02  0.8965713E-01
        1   -1    0    0  501    0  0.00000000000E+00  0.00000000000E+00  0.13121832443E+04  0.13121832443E+04  0.50400001928E-02 0. -1.
       -1   -1    0    0    0  501  0.00000000000E+00  0.00000000000E+00 -0.36477095979E+03  0.36477095983E+03  0.50400001928E-02 0.  1.
    10030    2    1    2    0    0  0.00000000000E+00  0.00000000000E+00  0.94741228453E+03  0.16769542042E+04  0.13836854288E+04 0.  0.
        4    1    3    3  502    0  0.29136939768E+03 -0.19532249289E+03  0.11964149090E+04  0.12467787492E+04  0.12699999809E+01 0. -1.
       -4    1    3    3    0  502 -0.29136939768E+03  0.19532249289E+03 -0.24900262447E+03  0.43017545493E+03  0.12699999809E+01 0.  1.
</event>
<event>
 5   0  0.1199720E-03  0.1491761E+04  0.7818609E-02  0.8889951E-01
       -1   -1    0    0    0  501  0.00000000000E+00  0.00000000000E+00  0.40671670362E+03  0.40671670365E+03  0.50400001928E-02 0.  1.
        1   -1    0    0  501    0  0.00000000000E+00  0.00000000000E+00 -0.13678746582E+04  0.13678746582E+04  0.50400001928E-02 0. -1.
    10030    2    1    2    0    0  0.00000000000E+00  0.00000000000E+00 -0.96115795461E+03  0.17745913619E+04  0.14917606671E+04 0.  0.
        5    1    3    3  502    0  0.17790316153E+03 -0.24618726616E+03 -0.12909524051E+04  0.13262118636E+04  0.46999998093E+01 0. -1.
       -5    1    3    3    0  502 -0.17790316153E+03  0.24618726616E+03  0.32979445051E+03  0.44837949829E+03  0.46999998093E+01 0.  1.
</event>
<event>
 5   0  0.1225690E-03  0.1389626E+04  0.7818609E-02  0.8961362E-01
        1   -1    0    0  501    0  0.00000000000E+00  0.00000000000E+00  0.47574246606E+03  0.47574246609E+03  0.50400001928E-02 0. -1.
       -1   -1    0    0    0  501  0.00000000000E+00  0.00000000000E+00 -0.10147620416E+04  0.10147620416E+04  0.50400001928E-02 0.  1.
    10030    2    1    2    0    0  0.00000000000E+00  0.00000000000E+00 -0.53901957552E+03  0.14905045077E+04  0.13896264191E+04 0.  0.
        4    1    3    3  502    0 -0.60424763573E+03  0.12775354703E+02 -0.63715348326E+03  0.87820532287E+03  0.12699999809E+01 0.  1.
       -4    1    3    3    0  502  0.60424763573E+03 -0.12775354703E+02  0.98133907739E+02  0.61229918482E+03  0.12699999809E+01 0. -1.
</event>
<event>
 5   0  0.2236184E-03  0.1404044E+04  0.7818609E-02  0.8950897E-01
       -2   -1    0    0    0  501  0.00000000000E+00  0.00000000000E+00  0.58904188139E+03  0.58904188139E+03  0.25500000920E-02 0.  1.
        2   -1    0    0  501    0  0.00000000000E+00  0.00000000000E+00 -0.83667202524E+03  0.83667202525E+03  0.25500000920E-02 0. -1.
    10030    2    1    2    0    0  0.00000000000E+00  0.00000000000E+00 -0.24763014386E+03  0.14257139066E+04  0.14040439649E+04 0.  0.
        3    1    3    3  502    0  0.38818319132E+02 -0.69280707460E+03 -0.23197832749E+03  0.73164366951E+03  0.10100000352E+00 0. -1.
       -3    1    3    3    0  502 -0.38818319132E+02  0.69280707460E+03 -0.15651816366E+02  0.69407023713E+03  0.10100000352E+00 0.  1.
</event>
<event>
 5   0  0.1175374E-03  0.1396830E+04  0.7818609E-02  0.8956116E-01
        1   -1    0    0  501    0  0.00000000000E+00  0.00000000000E+00  0.43385131513E+03  0.43385131516E+03  0.50400001928E-02 0.  1.
       -1   -1    0    0    0  501  0.00000000000E+00  0.00000000000E+00 -0.11243102086E+04  0.11243102086E+04  0.50400001928E-02 0. -1.
    10030    2    1    2    0    0  0.00000000000E+00  0.00000000000E+00 -0.69045889346E+03  0.15581615238E+04  0.13968299290E+04 0.  0.
        3    1    3    3  502    0 -0.36510581158E+03 -0.43349209566E+03  0.11003303761E+03  0.57734299184E+03  0.10100000352E+00 0.  1.
       -3    1    3    3    0  502  0.36510581158E+03  0.43349209566E+03 -0.80049193107E+03  0.98081853192E+03  0.10100000352E+00 0. -1.
</event>
<event>
 5   0  0.2190704E-03  0.1421510E+04  0.7818609E-02  0.8938394E-01
        2   -1    0    0  501    0  0.00000000000E+00  0.00000000000E+00  0.18420307600E+04  0.18420307601E+04  0.25500000920E-02 0.  1.
       -2   -1    0    0    0  501  0.00000000000E+00  0.00000000000E+00 -0.27424757565E+03  0.27424757566E+03  0.25500000920E-02 0. -1.
    10030    2    1    2    0    0  0.00000000000E+00  0.00000000000E+00  0.15677831844E+04  0.21162783357E+04  0.14215097189E+04 0.  0.
        5    1    3    3  502    0  0.51250960198E+01 -0.14816372461E+03 -0.25094949451E+03  0.29150728069E+03  0.46999998093E+01 0. -1.
       -5    1    3    3    0  502 -0.51250960198E+01  0.14816372461E+03  0.18187326789E+04  0.18247710550E+04  0.46999998093E+01 0.  1.
</event>
<event>
 5   0  0.2236184E-03  0.1375721E+04  0.7818609E-02  0.8971583E-01
        2   -1    0    0  501    0  0.00000000000E+00  0.00000000000E+00  0.23019960564E+04  0.23019960564E+04  0.25500000920E-02 0. -1.
       -2   -1    0    0    0  501  0.00000000000E+00  0.00000000000E+00 -0.20553999034E+03  0.20553999035E+03  0.25500000920E-02 0.  1.
    10030    2    1    2    0    0  0.00000000000E+00  0.00000000000E+00  0.20964560661E+04  0.25075360468E+04  0.13757212613E+04 0.  0.
        3    1    3    3  502    0 -0.65068497313E+03  0.20810656281E+03  0.90180942797E+03  0.11313529645E+04  0.10100000352E+00 0.  1.
       -3    1    3    3    0  502  0.65068497313E+03 -0.20810656281E+03  0.11946466381E+04  0.13761830823E+04  0.10100000352E+00 0. -1.
</event>
<event>
 5   0  0.1175374E-03  0.1402577E+04  0.7818609E-02  0.8951955E-01
        1   -1    0    0  501    0  0.00000000000E+00  0.00000000000E+00  0.10389914970E+04  0.10389914970E+04  0.50400001928E-02 0.  1.
       -1   -1    0    0    0  501  0.00000000000E+00  0.00000000000E+00 -0.47334878712E+03  0.47334878714E+03  0.50400001928E-02 0. -1.
    10030    2    1    2    0    0  0.00000000000E+00  0.00000000000E+00  0.56564270988E+03  0.15123402842E+04  0.14025767215E+04 0.  0.
        3    1    3    3  502    0 -0.60732108772E+03  0.46855694440E+02  0.65753906227E+03  0.89632136441E+03  0.10100000352E+00 0.  1.
       -3    1    3    3    0  502  0.60732108772E+03 -0.46855694440E+02 -0.91896352388E+02  0.61601891974E+03  0.10100000352E+00 0. -1.
</event>
<event>
 5   0  0.2195980E-03  0.1377967E+04  0.7818609E-02  0.8969923E-01
        2   -1    0    0  501    0  0.00000000000E+00  0.00000000000E+00  0.23914010034E+04  0.23914010034E+04  0.25500000920E-02 0.  1.
       -2   -1    0    0    0  501  0.00000000000E+00  0.00000000000E+00 -0.19850225288E+03  0.19850225290E+03  0.25500000920E-02 0. -1.
    10030    2    1    2    0    0  0.00000000000E+00  0.00000000000E+00  0.21928987505E+04  0.25899032563E+04  0.13779673243E+04 0.  0.
        4    1    3    3  502    0  0.26883476556E+03  0.16973907646E+01 -0.95850243883E+02  0.28541880537E+03  0.12699999809E+01 0. -1.
       -4    1    3    3    0  502 -0.26883476556E+03 -0.16973907646E+01  0.22887489944E+04  0.23044844509E+04  0.12699999809E+01 0.  1.
</event>
<event>
 5   0  0.2190704E-03  0.1436348E+04  0.7818609E-02  0.8927921E-01
       -2   -1    0    0    0  501  0.00000000000E+00  0.00000000000E+00  0.42717461244E+03  0.42717461245E+03  0.25500000920E-02 0.  1.
        2   -1    0    0  501    0  0.00000000000E+00  0.00000000000E+00 -0.12074068885E+04  0.12074068885E+04  0.25500000920E-02 0. -1.
    10030    2    1    2    0    0  0.00000000000E+00  0.00000000000E+00 -0.78023227602E+03  0.16345815009E+04  0.14363475480E+04 0.  0.
        5    1    3    3  502    0  0.81103542929E+02  0.54393259829E+02 -0.11997983092E+04  0.12037750970E+04  0.46999998093E+01 0. -1.
       -5    1    3    3    0  502 -0.81103542929E+02 -0.54393259829E+02  0.41956603322E+03  0.43080640388E+03  0.46999998093E+01 0.  1.
</event>
<event>
 5   0  0.1238683E-03  0.1381944E+04  0.7818609E-02  0.8966993E-01
        1   -1    0    0  501    0  0.00000000000E+00  0.00000000000E+00  0.47161758620E+03  0.47161758622E+03  0.50400001928E-02 0.  1.
       -1   -1    0    0    0  501  0.00000000000E+00  0.00000000000E+00 -0.10123505673E+04  0.10123505673E+04  0.50400001928E-02 0. -1.
    10030    2    1    2    0    0  0.00000000000E+00  0.00000000000E+00 -0.54073298113E+03  0.14839681536E+04  0.13819440379E+04 0.  0.
        2    1    3    3  502    0 -0.12919658648E+03 -0.67878604788E+03 -0.27007395653E+03  0.74187748231E+03  0.25500000920E-02 0. -1.
       -2    1    3    3    0  502  0.12919658648E+03  0.67878604788E+03 -0.27065902460E+03  0.74209067125E+03  0.25500000920E-02 0.  1.
</event>
<event>
 5   0  0.1225690E-03  0.1424372E+04  0.7818609E-02  0.8936363E-01
       -1   -1    0    0    0  501  0.00000000000E+00  0.00000000000E+00  0.83921231643E+03  0.83921231644E+03  0.50400001928E-02 0. -1.
        1   -1    0    0  501    0  0.00000000000E+00  0.00000000000E+00 -0.60438724919E+03  0.60438724921E+03  0.50400001928E-02 0.  1.
    10030    2    1    2    0    0  0.00000000000E+00  0.00000000000E+00  0.23482506724E+03  0.14435995657E+04  0.14243724561E+04 0.  0.
        4    1    3    3  502    0 -0.97108184912E+02  0.44203176601E+03 -0.43990624609E+03  0.63114277306E+03  0.12699999809E+01 0.  1.
       -4    1    3    3    0  502  0.97108184912E+02 -0.44203176601E+03  0.67473131333E+03  0.81245679259E+03  0.12699999809E+01 0. -1.
</event>
<event>
 5   0  0.1175374E-03  0.1395445E+04  0.7818609E-02  0.8957122E-01
        1   -1    0    0  501    0  0.00000000000E+00  0.00000000000E+00  0.10384817418E+04  0.10384817418E+04  0.50400001928E-02 0.  1.
       -1   -1    0    0    0  501  0.00000000000E+00  0.00000000000E+00 -0.46877742636E+03  0.46877742638E+03  0.50400001928E-02 0. -1.
    10030    2    1    2    0    0  0.00000000000E+00  0.00000000000E+00  0.56970431544E+03  0.15072591682E+04  0.13954451595E+04 0.  0.
        3    1    3    3  502    0  0.89598073333E+02 -0.32231005758E+03  0.94620906368E+03  0.10036050968E+04  0.10100000352E+00 0.  1.
       -3    1    3    3    0  502 -0.89598073333E+02  0.32231005758E+03 -0.37650474825E+03  0.50365407137E+03  0.10100000352E+00 0. -1.
</event>
<event>
 5   0  0.1199720E-03  0.1392778E+04  0.7818609E-02  0.8959063E-01
        1   -1    0    0  501    0  0.00000000000E+00  0.00000000000E+00  0.55310238731E+03  0.55310238734E+03  0.50400001928E-02 0.  1.
       -1   -1    0    0    0  501  0.00000000000E+00  0.00000000000E+00 -0.87679523573E+03  0.87679523574E+03  0.50400001928E-02 0. -1.
    10030    2    1    2    0    0  0.00000000000E+00  0.00000000000E+00 -0.32369284842E+03  0.14298976231E+04  0.13927778546E+04 0.  0.
        5    1    3    3  502    0 -0.39551871583E+02 -0.69214028795E+03 -0.22926953091E+03  0.73021170666E+03  0.46999998093E+01 0.  1.
       -5    1    3    3    0  502  0.39551871583E+02  0.69214028795E+03 -0.94423317506E+02  0.69968591642E+03  0.46999998093E+01 0. -1.
</event>
<event>
 5   0  0.2083966E-03  0.1412543E+04  0.7818609E-02  0.8944789E-01
       -2   -1    0    0    0  501  0.00000000000E+00  0.00000000000E+00  0.81272643374E+03  0.81272643374E+03  0.25500000920E-02 0. -1.
        2   -1    0    0  501    0  0.00000000000E+00  0.00000000000E+00 -0.61376041625E+03  0.61376041626E+03  0.25500000920E-02 0.  1.
    10030    2    1    2    0    0  0.00000000000E+00  0.00000000000E+00  0.19896601749E+03  0.14264868500E+04  0.14125428337E+04 0.  0.
        1    1    3    3  502    0 -0.21513856010E+03  0.27983456062E+03 -0.51829706832E+03  0.62707561938E+03  0.50400001928E-02 0.  1.
       -1    1    3    3    0  502  0.21513856010E+03 -0.27983456062E+03  0.71726308581E+03  0.79941123063E+03  0.50400001928E-02 0. -1.
</event>
<event>
 5   0  0.1210275E-03  0.1419521E+04  0.7818609E-02  0.8939808E-01
       -1   -1    0    0    0  501  0.00000000000E+00  0.00000000000E+00  0.30676857330E+03  0.30676857334E+03  0.50400001928E-02 0. -1.
        1   -1    0    0  501    0  0.00000000000E+00  0.00000000000E+00 -0.16421498959E+04  0.16421498959E+04  0.50400001928E-02 0.  1.
    10030    2    1    2    0    0  0.00000000000E+00  0.00000000000E+00 -0.13353813226E+04  0.19489184693E+04  0.14195210189E+04 0.  0.
        1    1    3    3  502    0 -0.53044703147E+03  0.47153064315E+03 -0.67687809998E+03  0.98075438458E+03  0.50400001928E-02 0. -1.
       -1    1    3    3    0  502  0.53044703147E+03 -0.47153064315E+03 -0.65850322266E+03  0.96816408470E+03  0.50400001928E-02 0.  1.
</event>
<event>
 5   0  0.2083966E-03  0.1406710E+04  0.7818609E-02  0.8948976E-01
        2   -1    0    0  501    0  0.00000000000E+00  0.00000000000E+00  0.11704043749E+04  0.11704043749E+04  0.25500000920E-02 0. -1.
       -2   -1    0    0    0  501  0.00000000000E+00  0.00000000000E+00 -0.42268145538E+03  0.42268145538E+03  0.25500000920E-02 0.  1.
    10030    2    1    2    0    0  0.00000000000E+00  0.00000000000E+00  0.74772291956E+03  0.15930858303E+04  0.14067099553E+04 0.  0.
        1    1    3    3  502    0  0.20160600529E+02 -0.18859755727E+02  0.11697905673E+04  0.11701162812E+04  0.50400001928E-02 0. -1.
       -1    1    3    3    0  502 -0.20160600529E+02  0.18859755727E+02 -0.42206764773E+03  0.42296954912E+03  0.50400001928E-02 0.  1.
</event>
<event>
 5   0  0.1175374E-03  0.1347797E+04  0.7818609E-02  0.8992497E-01
       -1   -1    0    0    0  501  0.00000000000E+00  0.00000000000E+00  0.51116401823E+03  0.51116401826E+03  0.50400001928E-02 0.  1.
        1   -1    0    0  501    0  0.00000000000E+00  0.00000000000E+00 -0.88844181758E+03  0.88844181760E+03  0.50400001928E-02 0. -1.
    10030    2    1    2    0    0  0.00000000000E+00  0.00000000000E+00 -0.37727779935E+03  0.13996058359E+04  0.13477974469E+04 0.  0.
        3    1    3    3  502    0  0.63876699800E+02  0.26707402745E+03  0.45042807736E+03  0.52753600066E+03  0.10100000352E+00 0.  1.
       -3    1    3    3    0  502 -0.63876699800E+02 -0.26707402745E+03 -0.82770587671E+03  0.87206983519E+03  0.10100000352E+00 0. -1.
</event>
<event>
 5   0  0.1238683E-03  0.1475277E+04  0.7818609E-02  0.8901062E-01
        1   -1    0    0  501    0  0.00000000000E+00  0.00000000000E+00  0.90746163523E+03  0.90746163525E+03  0.50400001928E-02 0.  1.
       -1   -1    0    0    0  501  0.00000000000E+00  0.00000000000E+00 -0.59959582160E+03  0.59959582162E+03  0.50400001928E-02 0. -1.
    10030    2    1    2    0    0  0.00000000000E+00  0.00000000000E+00  0.30786581364E+03  0.15070574569E+04  0.14752765229E+04 0.  0.
        2    1    3    3  502    0  0.50525710366E+03  0.30992445571E+03  0.60244967964E+03  0.84515295986E+03  0.25500000920E-02 0.  1.
       -2    1    3    3    0  502 -0.50525710366E+03 -0.30992445571E+03 -0.29458386600E+03  0.66190449701E+03  0.25500000920E-02 0. -1.
</event>
<event>
 5   0  0.1199720E-03  0.1302110E+04  0.7818609E-02  0.9027894E-01
       -1   -1    0    0    0  501  0.00000000000E+00  0.00000000000E+00  0.40528923052E+03  0.40528923056E+03  0.50400001928E-02 0. -1.
        1   -1    0    0  501    0  0.00000000000E+00  0.00000000000E+00 -0.10458515676E+04  0.10458515676E+04  0.50400001928E-02 0.  1.
    10030    2    1    2    0    0  0.00000000000E+00  0.00000000000E+00 -0.64056233711E+03  0.14511407982E+04  0.13021096377E+04 0.  0.
        5    1    3    3  502    0 -0.46924621516E+02 -0.26387140321E+02 -0.10433478199E+04  0.10447463637E+04  0.46999998093E+01 0.  1.
       -5    1    3    3    0  502  0.46924621516E+02  0.26387140321E+02  0.40278548275E+03  0.40639443450E+03  0.46999998093E+01 0. -1.
</event>
<event>
 5   0  0.2190704E-03  0.1347848E+04  0.7818609E-02  0.8992459E-01
       -2   -1    0    0    0  501  0.00000000000E+00  0.00000000000E+00  0.90596596797E+03  0.90596596797E+03  0.25500000920E-02 0.  1.
        2   -1    0    0  501    0  0.00000000000E+00  0.00000000000E+00 -0.50131399706E+03  0.50131399707E+03  0.25500000920E-02 0. -1.
    10030    2    1    2    0    0  0.00000000000E+00  0.00000000000E+00  0.40465197091E+03  0.14072799650E+04  0.13478477965E+04 0.  0.
        5    1    3    3  502    0  0.41472107770E+03 -0.51003103220E+03  0.47369948830E+02  0.65908362758E+03  0.46999998093E+01 0.  1.
       -5    1    3    3    0  502 -0.41472107770E+03  0.51003103220E+03  0.35728202208E+03  0.74819633746E+03  0.46999998093E+01 0. -1.
</event>
<event>
 5   0  0.2190704E-03  0.1409844E+04  0.7818609E-02  0.8946723E-01
        2   -1    0    0  501    0  0.00000000000E+00  0.00000000000E+00  0.40737047886E+03  0.40737047887E+03  0.25500000920E-02 0.  1.
       -2   -1    0    0    0  501  0.00000000000E+00  0.00000000000E+00 -0.12198119358E+04  0.12198119358E+04  0.25500000920E-02 0. -1.
    10030    2    1    2    0    0  0.00000000000E+00  0.00000000000E+00 -0.81244145693E+03  0.16271824147E+04  0.14098444913E+04 0.  0.
        5    1    3    3  502    0 -0.19962450939E+03 -0.39280353025E+03  0.22882674313E+03  0.49651618956E+03  0.46999998093E+01 0.  1.
       -5    1    3    3    0  502  0.19962450939E+03  0.39280353025E+03 -0.10412682001E+04  0.11306662251E+04  0.46999998093E+01 0. -1.
</event>
<event>
 5   0  0.2190704E-03  0.1396549E+04  0.7818609E-02  0.8956321E-01
       -2   -1    0    0    0  501  0.00000000000E+00  0.00000000000E+00  0.23772696711E+03  0.23772696712E+03  0.25500000920E-02 0. -1.
        2   -1    0    0  501    0  0.00000000000E+00  0.00000000000E+00 -0.20510380078E+04  0.20510380078E+04  0.25500000920E-02 0.  1.
    10030    2    1    2    0    0  0.00000000000E+00  0.00000000000E+00 -0.18133110407E+04  0.22887649749E+04  0.13965486673E+04 0.  0.
        5    1    3    3  502    0  0.39192408053E+03 -0.17839193798E+03 -0.18074939961E+04  0.18580863285E+04  0.46999998093E+01 0.  1.
       -5    1    3    3    0  502 -0.39192408053E+03  0.17839193798E+03 -0.58170445981E+01  0.43067864637E+03  0.46999998093E+01 0. -1.
</event>
<event>
 5   0  0.1225690E-03  0.1402245E+04  0.7818609E-02  0.8952195E-01
       -1   -1    0    0    0  501  0.00000000000E+00  0.00000000000E+00  0.23569031085E+03  0.23569031090E+03  0.50400001928E-02 0. -1.
        1   -1    0    0  501    0  0.00000000000E+00  0.00000000000E+00 -0.20856730600E+04  0.20856730600E+04  0.50400001928E-02 0.  1.
    10030    2    1    2    0    0  0.00000000000E+00  0.00000000000E+00 -0.18499827491E+04  0.23213633709E+04  0.14022452452E+04 0.  0.
        4    1    3    3  502    0  0.63913875368E+01  0.62808032505E+03 -0.40927963362E+03  0.74969138714E+03  0.12699999809E+01 0. -1.
       -4    1    3    3    0  502 -0.63913875368E+01 -0.62808032505E+03 -0.14407031155E+04  0.15716719838E+04  0.12699999809E+01 0.  1.
</event>
<event>
 5   0  0.2172901E-03  0.1399887E+04  0.7818609E-02  0.8953900E-01
        2   -1    0    0  501    0  0.00000000000E+00  0.00000000000E+00  0.14020219922E+04  0.14020219922E+04  0.25500000920E-02 0.  1.
       -2   -1    0    0    0  501  0.00000000000E+00  0.00000000000E+00 -0.34943871671E+03  0.34943871672E+03  0.25500000920E-02 0. -1.
    10030    2    1    2    0    0  0.00000000000E+00  0.00000000000E+00  0.10525832754E+04  0.17514607089E+04  0.13998868036E+04 0.  0.
        2    1    3    3  502    0  0.94187115186E+02  0.24345566043E+03  0.13388412765E+04  0.13640519913E+04  0.25500000920E-02 0.  1.
       -2    1    3    3    0  502 -0.94187115186E+02 -0.24345566043E+03 -0.28625800108E+03  0.38740871757E+03  0.25500000920E-02 0. -1.
</event>
<event>
 5   0  0.2236184E-03  0.1451462E+04  0.7818609E-02  0.8917387E-01
        2   -1    0    0  501    0  0.00000000000E+00  0.00000000000E+00  0.31143168667E+03  0.31143168668E+03  0.25500000920E-02 0.  1.
       -2   -1    0    0    0  501  0.00000000000E+00  0.00000000000E+00 -0.16911759674E+04  0.16911759674E+04  0.25500000920E-02 0. -1.
    10030    2    1    2    0    0  0.00000000000E+00  0.00000000000E+00 -0.13797442808E+04  0.20026076541E+04  0.14514624129E+04 0.  0.
        3    1    3    3  502    0 -0.69333658106E+03 -0.18889645187E+03 -0.54992576043E+03  0.90488443260E+03  0.10100000352E+00 0.  1.
       -3    1    3    3    0  502  0.69333658106E+03  0.18889645187E+03 -0.82981852033E+03  0.10977232215E+04  0.10100000352E+00 0. -1.
</event>
<event>
 5   0  0.1210275E-03  0.1440243E+04  0.7818609E-02  0.8925193E-01
       -1   -1    0    0    0  501  0.00000000000E+00  0.00000000000E+00  0.57316890328E+03  0.57316890331E+03  0.50400001928E-02 0.  1.
        1   -1    0    0  501    0  0.00000000000E+00  0.00000000000E+00 -0.90475060098E+03  0.90475060100E+03  0.50400001928E-02 0. -1.
    10030    2    1    2    0    0  0.00000000000E+00  0.00000000000E+00 -0.33158169770E+03  0.14779195043E+04  0.14402429097E+04 0.  0.
        1    1    3    3  502    0  0.59982208473E+03 -0.38047695112E+03 -0.28731896949E+03  0.76622544588E+03  0.50400001928E-02 0. -1.
       -1    1    3    3    0  502 -0.59982208473E+03  0.38047695112E+03 -0.44262728213E+02  0.71169405842E+03  0.50400001928E-02 0.  1.
</event>
<event>
 5   0  0.2236184E-03  0.1434294E+04  0.7818609E-02  0.8929362E-01
       -2   -1    0    0    0  501  0.00000000000E+00  0.00000000000E+00  0.80567875831E+03  0.80567875832E+03  0.25500000920E-02 0. -1.
        2   -1    0    0  501    0  0.00000000000E+00  0.00000000000E+00 -0.63834327460E+03  0.63834327461E+03  0.25500000920E-02 0.  1.
    10030    2    1    2    0    0  0.00000000000E+00  0.00000000000E+00  0.16733548371E+03  0.14440220329E+04  0.14342937173E+04 0.  0.
        3    1    3    3  502    0 -0.35046407942E+03 -0.61721001038E+03 -0.19626091650E+02  0.71004116891E+03  0.10100000352E+00 0.  1.
       -3    1    3    3    0  502  0.35046407942E+03  0.61721001038E+03  0.18696157536E+03  0.73398086401E+03  0.10100000352E+00 0. -1.
</event>
<event>
 5   0  0.1225690E-03  0.1405707E+04  0.7818609E-02  0.8949698E-01
       -1   -1    0    0    0  501  0.00000000000E+00  0.00000000000E+00  0.34735577675E+03  0.34735577679E+03  0.50400001928E-02 0. -1.
        1   -1    0    0  501    0  0.00000000000E+00  0.00000000000E+00 -0.14221808488E+04  0.14221808488E+04  0.50400001928E-02 0.  1.
    10030    2    1    2    0    0  0.00000000000E+00  0.00000000000E+00 -0.10748250721E+04  0.17695366256E+04  0.14057065604E+04 0.  0.
        4    1    3    3  502    0  0.20774489766E+03 -0.26509171315E+03 -0.13139848611E+04  0.13564620846E+04  0.12699999809E+01 0.  1.
       -4    1    3    3    0  502 -0.20774489766E+03  0.26509171315E+03  0.23915978900E+03  0.41307454104E+03  0.12699999809E+01 0. -1.
</event>
<event>
 5   0  0.2190704E-03  0.1396804E+04  0.7818609E-02  0.8956135E-01
        2   -1    0    0  501    0  0.00000000000E+00  0.00000000000E+00  0.67012198700E+03  0.67012198701E+03  0.25500000920E-02 0. -1.
       -2   -1    0    0    0  501  0.00000000000E+00  0.00000000000E+00 -0.72787548824E+03  0.72787548825E+03  0.25500000920E-02 0.  1.
    10030    2    1    2    0    0  0.00000000000E+00  0.00000000000E+00 -0.57753501236E+02  0.13979974753E+04  0.13968040213E+04 0.  0.
        5    1    3    3  502    0 -0.15207414992E+02 -0.69813865521E+03 -0.39583138543E+02  0.69944103556E+03  0.46999998093E+01 0.  1.
       -5    1    3    3    0  502  0.15207414992E+02  0.69813865521E+03 -0.18170362693E+02  0.69855643970E+03  0.46999998093E+01 0. -1.
</event>
<event>
 5   0  0.1175374E-03  0.1412892E+04  0.7818609E-02  0.8944539E-01
       -1   -1    0    0    0  501  0.00000000000E+00  0.00000000000E+00  0.96821643112E+03  0.96821643114E+03  0.50400001928E-02 0. -1.
        1   -1    0    0  501    0  0.00000000000E+00  0.00000000000E+00 -0.51544848610E+03  0.51544848613E+03  0.50400001928E-02 0.  1.
    10030    2    1    2    0    0  0.00000000000E+00  0.00000000000E+00  0.45276794502E+03  0.14836649173E+04  0.14128916359E+04 0.  0.
        3    1    3    3  502    0 -0.40766492395E+03  0.51156209112E+03  0.50654233233E+03  0.82732799295E+03  0.10100000352E+00 0. -1.
       -3    1    3    3    0  502  0.40766492395E+03 -0.51156209112E+03 -0.53774387305E+02  0.65633692431E+03  0.10100000352E+00 0.  1.
</event>
<event>
 5   0  0.2172901E-03  0.1299581E+04  0.7818609E-02  0.9029898E-01
        2   -1    0    0  501    0  0.00000000000E+00  0.00000000000E+00  0.71670022685E+03  0.71670022685E+03  0.25500000920E-02 0. -1.
       -2   -1    0    0    0  501  0.00000000000E+00  0.00000000000E+00 -0.58912690893E+03  0.58912690894E+03  0.25500000920E-02 0.  1.
    10030    2    1    2    0    0  0.00000000000E+00  0.00000000000E+00  0.12757331791E+03  0.13058271358E+04  0.12995805312E+04 0.  0.
        2    1    3    3  502    0  0.74010175088E+02 -0.36708496705E+03 -0.46980115126E+03  0.60078448780E+03  0.25500000920E-02 0.  1.
       -2    1    3    3    0  502 -0.74010175088E+02  0.36708496705E+03  0.59737446918E+03  0.70504264799E+03  0.25500000920E-02 0. -1.
</event>
<event>
 5   0  0.1199720E-03  0.1409386E+04  0.7818609E-02  0.8947052E-01
       -1   -1    0    0    0  501  0.00000000000E+00  0.00000000000E+00  0.35181471476E+03  0.35181471479E+03  0.50400001928E-02 0. -1.
        1   -1    0    0  501    0  0.00000000000E+00  0.00000000000E+00 -0.14115165519E+04  0.14115165519E+04  0.50400001928E-02 0.  1.
    10030    2    1    2    0    0  0.00000000000E+00  0.00000000000E+00 -0.10597018372E+04  0.17633312667E+04  0.14093860977E+04 0.  0.
        5    1    3    3  502    0 -0.55307919525E+03 -0.31218676634E+03 -0.91183233730E+03  0.11112234135E+04  0.46999998093E+01 0. -1.
       -5    1    3    3    0  502  0.55307919525E+03  0.31218676634E+03 -0.14786949988E+03  0.65210785327E+03  0.46999998093E+01 0.  1.
</event>
<event>
 5   0  0.1238683E-03  0.1472418E+04  0.7818609E-02  0.8903005E-01
       -1   -1    0    0    0  501  0.00000000000E+00  0.00000000000E+00  0.69933501959E+03  0.69933501961E+03  0.50400001928E-02 0.  1.
        1   -1    0    0  501    0  0.00000000000E+00  0.00000000000E+00 -0.77502704886E+03  0.77502704887E+03  0.50400001928E-02 0. -1.
    10030    2    1    2    0    0  0.00000000000E+00  0.00000000000E+00 -0.75692029266E+02  0.14743620685E+04  0.14724178163E+04 0.  0.
        2    1    3    3  502    0  0.11185932167E+03  0.47039291800E+03  0.51806411315E+03  0.70864125656E+03  0.25500000920E-02 0.  1.
       -2    1    3    3    0  502 -0.11185932167E+03 -0.47039291800E+03 -0.59375614242E+03  0.76572081193E+03  0.25500000920E-02 0. -1.
</event>
<event>
 5   0  0.1199720E-03  0.1395058E+04  0.7818609E-02  0.8957404E-01
        1   -1    0    0  501    0  0.00000000000E+00  0.00000000000E+00  0.11230417583E+04  0.11230417583E+04  0.50400001928E-02 0. -1.
       -1   -1    0    0    0  501  0.00000000000E+00  0.00000000000E+00 -0.43323999719E+03  0.43323999722E+03  0.50400001928E-02 0.  1.
    10030    2    1    2    0    0  0.00000000000E+00  0.00000000000E+00  0.68980176110E+03  0.15562817555E+04  0.13950578601E+04 0.  0.
        5    1    3    3  502    0 -0.16375015899E+03  0.36677740237E+03 -0.29125139491E+03  0.49617460888E+03  0.46999998093E+01 0.  1.
       -5    1    3    3    0  502  0.16375015899E+03 -0.36677740237E+03  0.98105315601E+03  0.10601071466E+04  0.46999998093E+01 0. -1.
</event>
<event>
 5   0  0.2190704E-03  0.1391545E+04  0.7818609E-02  0.8959961E-01
       -2   -1    0    0    0  501  0.00000000000E+00  0.00000000000E+00  0.10941744155E+04  0.10941744155E+04  0.25500000920E-02 0. -1.
        2   -1    0    0  501    0  0.00000000000E+00  0.00000000000E+00 -0.44243354372E+03  0.44243354373E+03  0.25500000920E-02 0.  1.
    10030    2    1    2    0    0  0.00000000000E+00  0.00000000000E+00  0.65174087177E+03  0.15366079592E+04  0.13915451327E+04 0.  0.
        5    1    3    3  502    0  0.11433506483E+03 -0.43392434748E+02  0.10821957998E+04  0.10890937745E+04  0.46999998093E+01 0. -1.
       -5    1    3    3    0  502 -0.11433506483E+03  0.43392434748E+02 -0.43045492807E+03  0.44751418474E+03  0.46999998093E+01 0.  1.
</event>
<event>
 5   0  0.1199720E-03  0.1397283E+04  0.7818609E-02  0.8955787E-01
        1   -1    0    0  501    0  0.00000000000E+00  0.00000000000E+00  0.91764052715E+03  0.91764052716E+03  0.50400001928E-02 0.  1.
       -1   -1    0    0    0  501  0.00000000000E+00  0.00000000000E+00 -0.53190785428E+03  0.53190785430E+03  0.50400001928E-02 0. -1.
    10030    2    1    2    0    0  0.00000000000E+00  0.00000000000E+00  0.38573267287E+03  0.14495483815E+04  0.13972833697E+04 0.  0.
        5    1    3    3  502    0 -0.60816018222E+03 -0.65923692599E+02 -0.15720722939E+03  0.63161771940E+03  0.46999998093E+01 0.  1.
       -5    1    3    3    0  502  0.60816018222E+03  0.65923692599E+02  0.54293990226E+03  0.81793066207E+03  0.46999998093E+01 0. -1.
</event>
<event>
 5   0  0.2083966E-03  0.1395306E+04  0.7818609E-02  0.8957224E-01
       -2   -1    0    0    0  501  0.00000000000E+00  0.00000000000E+00  0.72813508338E+03  0.72813508338E+03  0.25500000920E-02 0. -1.
        2   -1    0    0  501    0  0.00000000000E+00  0.00000000000E+00 -0.66844672253E+03  0.66844672253E+03  0.25500000920E-02 0.  1.
    10030    2    1    2    0    0  0.00000000000E+00  0.00000000000E+00  0.59688360852E+02  0.13965818059E+04  0.13953057157E+04 0.  0.
        1    1    3    3  502    0  0.43308544154E+03  0.44578535233E+03  0.34704398493E+03  0.71184767157E+03  0.50400001928E-02 0. -1.
       -1    1    3    3    0  502 -0.43308544154E+03 -0.44578535233E+03 -0.28735562408E+03  0.68473413434E+03  0.50400001928E-02 0.  1.
</event>
<event>
 5   0  0.2190704E-03  0.1366005E+04  0.7818609E-02  0.8978800E-01
        2   -1    0    0  501    0  0.00000000000E+00  0.00000000000E+00  0.11274219177E+04  0.11274219177E+04  0.25500000920E-02 0. -1.
       -2   -1    0    0    0  501  0.00000000000E+00  0.00000000000E+00 -0.41376928262E+03  0.41376928263E+03  0.25500000920E-02 0.  1.
    10030    2    1    2    0    0  0.00000000000E+00  0.00000000000E+00  0.71365263508E+03  0.15411912003E+04  0.13660052095E+04 0.  0.
        5    1    3    3  502    0 -0.50766800660E+03 -0.45104472663E+03  0.43898189269E+03  0.80863795511E+03  0.46999998093E+01 0.  1.
       -5    1    3    3    0  502  0.50766800660E+03  0.45104472663E+03  0.27467074240E+03  0.73255324522E+03  0.46999998093E+01 0. -1.
</event>
<event>
 5   0  0.2190704E-03  0.9094776E+03  0.7818609E-02  0.9413811E-01
        2   -1    0    0  501    0  0.00000000000E+00  0.00000000000E+00  0.59221504028E+03  0.59221504029E+03  0.25500000920E-02 0. -1.
       -2   -1    0    0    0  501  0.00000000000E+00  0.00000000000E+00 -0.34917613604E+03  0.34917613605E+03  0.25500000920E-02 0.  1.
    10030    2    1    2    0    0  0.00000000000E+00  0.00000000000E+00  0.24303890424E+03  0.94139117634E+03  0.90947756317E+03 0.  0.
        5    1    3    3  502    0  0.23033384966E+03  0.31137901329E+03  0.36811148425E+03  0.53435823850E+03  0.46999998093E+01 0. -1.
       -5    1    3    3    0  502 -0.23033384966E+03 -0.31137901329E+03 -0.12507258001E+03  0.40703293784E+03  0.46999998093E+01 0.  1.
</event>
<event>
 5   0  0.1199720E-03  0.1389175E+04  0.7818609E-02  0.8961692E-01
       -1   -1    0    0    0  501  0.00000000000E+00  0.00000000000E+00  0.67868226700E+03  0.67868226702E+03  0.50400001928E-02 0.  1.
        1   -1    0    0  501    0  0.00000000000E+00  0.00000000000E+00 -0.71086564168E+03  0.71086564169E+03  0.50400001928E-02 0. -1.
    10030    2    1    2    0    0  0.00000000000E+00  0.00000000000E+00 -0.32183374672E+02  0.13895479087E+04  0.13891751585E+04 0.  0.
        5    1    3    3  502    0  0.49554725814E+03 -0.10014199537E+03  0.46030736584E+03  0.68374005684E+03  0.46999998093E+01 0.  1.
       -5    1    3    3    0  502 -0.49554725814E+03  0.10014199537E+03 -0.49249074051E+03  0.70580785188E+03  0.46999998093E+01 0. -1.
</event>
<event>
 5   0  0.1199720E-03  0.1412126E+04  0.7818609E-02  0.8945088E-01
       -1   -1    0    0    0  501  0.00000000000E+00  0.00000000000E+00  0.54636117609E+03  0.54636117611E+03  0.50400001928E-02 0.  1.
        1   -1    0    0  501    0  0.00000000000E+00  0.00000000000E+00 -0.91244538999E+03  0.91244539000E+03  0.50400001928E-02 0. -1.
    10030    2    1    2    0    0  0.00000000000E+00  0.00000000000E+00 -0.36608421390E+03  0.14588065661E+04  0.14121256834E+04 0.  0.
        5    1    3    3  502    0 -0.37242862926E+03  0.97468767710E+02 -0.79446832210E+03  0.88283931120E+03  0.46999998093E+01 0. -1.
       -5    1    3    3    0  502  0.37242862926E+03 -0.97468767710E+02  0.42838410821E+03  0.57596725491E+03  0.46999998093E+01 0.  1.
</event>
<event>
 5   0  0.2190704E-03  0.1419142E+04  0.7818609E-02  0.8940078E-01
        2   -1    0    0  501    0  0.00000000000E+00  0.00000000000E+00  0.20226317564E+04  0.20226317564E+04  0.25500000920E-02 0.  1.
       -2   -1    0    0    0  501  0.00000000000E+00  0.00000000000E+00 -0.24892860656E+03  0.24892860657E+03  0.25500000920E-02 0. -1.
    10030    2    1    2    0    0  0.00000000000E+00  0.00000000000E+00  0.17737031499E+04  0.22715603630E+04  0.14191418600E+04 0.  0.
        5    1    3    3  502    0  0.37745619454E+02 -0.47480214745E+03  0.45010605312E+02  0.47844524828E+03  0.46999998093E+01 0. -1.
       -5    1    3    3    0  502 -0.37745619454E+02  0.47480214745E+03  0.17286925445E+04  0.17931151147E+04  0.46999998093E+01 0.  1.
</event>
<event>
 5   0  0.1225690E-03  0.1406675E+04  0.7818609E-02  0.8949001E-01
       -1   -1    0    0    0  501  0.00000000000E+00  0.00000000000E+00  0.65183772511E+03  0.65183772513E+03  0.50400001928E-02 0. -1.
        1   -1    0    0  501    0  0.00000000000E+00  0.00000000000E+00 -0.75890645494E+03  0.75890645496E+03  0.50400001928E-02 0.  1.
    10030    2    1    2    0    0  0.00000000000E+00  0.00000000000E+00 -0.10706872983E+03  0.14107441801E+04  0.14066753104E+04 0.  0.
        4    1    3    3  502    0 -0.61389442318E+02 -0.73985949025E+02 -0.75228470116E+03  0.75840389555E+03  0.12699999809E+01 0.  1.
       -4    1    3    3    0  502  0.61389442318E+02  0.73985949025E+02  0.64521597133E+03  0.65234028455E+03  0.12699999809E+01 0. -1.
</event>
<event>
 5   0  0.2083966E-03  0.1424291E+04  0.7818609E-02  0.8936421E-01
        2   -1    0    0  501    0  0.00000000000E+00  0.00000000000E+00  0.72791387596E+03  0.72791387597E+03  0.25500000920E-02 0.  1.
       -2   -1    0    0    0  501  0.00000000000E+00  0.00000000000E+00 -0.69671821959E+03  0.69671821960E+03  0.25500000920E-02 0. -1.
    10030    2    1    2    0    0  0.00000000000E+00  0.00000000000E+00  0.31195656374E+02  0.14246320956E+04  0.14242905036E+04 0.  0.
        1    1    3    3  502    0 -0.19544776020E+03  0.83400949228E+02  0.69546321517E+03  0.72720329275E+03  0.50400001928E-02 0.  1.
       -1    1    3    3    0  502  0.19544776020E+03 -0.83400949228E+02 -0.66426755880E+03  0.69742880282E+03  0.50400001928E-02 0. -1.
</event>
<event>
 5   0  0.1199720E-03  0.1398277E+04  0.7818609E-02  0.8955067E-01
       -1   -1    0    0    0  501  0.00000000000E+00  0.00000000000E+00  0.35840399180E+03  0.35840399184E+03  0.50400001928E-02 0. -1.
        1   -1    0    0  501    0  0.00000000000E+00  0.00000000000E+00 -0.13638088450E+04  0.13638088450E+04  0.50400001928E-02 0.  1.
    10030    2    1    2    0    0  0.00000000000E+00  0.00000000000E+00 -0.10054048532E+04  0.17222128369E+04  0.13982768455E+04 0.  0.
        5    1    3    3  502    0  0.43027221829E+03  0.53502474430E+03 -0.66510888723E+03  0.95591714113E+03  0.46999998093E+01 0.  1.
       -5    1    3    3    0  502 -0.43027221829E+03 -0.53502474430E+03 -0.34029596601E+03  0.76629569575E+03  0.46999998093E+01 0. -1.
</event>
<event>
 5   0  0.1210275E-03  0.1408809E+04  0.7818609E-02  0.8947467E-01
        1   -1    0    0  501    0  0.00000000000E+00  0.00000000000E+00  0.18596487990E+04  0.18596487990E+04  0.50400001928E-02 0. -1.
       -1   -1    0    0    0  501  0.00000000000E+00  0.00000000000E+00 -0.26681677666E+03  0.26681677671E+03  0.50400001928E-02 0.  1.
    10030    2    1    2    0    0  0.00000000000E+00  0.00000000000E+00  0.15928320224E+04  0.21264655757E+04  0.14088087142E+04 0.  0.
        1    1    3    3  502    0  0.45544903360E+03  0.38701143301E+03  0.13591107253E+04  0.14847200528E+04  0.50400001928E-02 0. -1.
       -1    1    3    3    0  502 -0.45544903360E+03 -0.38701143301E+03  0.23372129703E+03  0.64174552292E+03  0.50400001928E-02 0.  1.
</event>
<event>
 5   0  0.1210275E-03  0.1428488E+04  0.7818609E-02  0.8933452E-01
       -1   -1    0    0    0  501  0.00000000000E+00  0.00000000000E+00  0.67782671739E+03  0.67782671740E+03  0.50400001928E-02 0.  1.
        1   -1    0    0  501    0  0.00000000000E+00  0.00000000000E+00 -0.75261762431E+03  0.75261762432E+03  0.50400001928E-02 0. -1.
    10030    2    1    2    0    0  0.00000000000E+00  0.00000000000E+00 -0.74790906921E+02  0.14304443417E+04  0.14284877791E+04 0.  0.
        1    1    3    3  502    0 -0.60576592552E+03 -0.37631651899E+03  0.23811727021E+01  0.71314244650E+03  0.50400001928E-02 0.  1.
       -1    1    3    3    0  502  0.60576592552E+03  0.37631651899E+03 -0.77172079623E+02  0.71730189522E+03  0.50400001928E-02 0. -1.
</event>
<event>
 5   0  0.1225690E-03  0.1419831E+04  0.7818609E-02  0.8939588E-01
       -1   -1    0    0    0  501  0.00000000000E+00  0.00000000000E+00  0.46354506718E+03  0.46354506720E+03  0.50400001928E-02 0. -1.
        1   -1    0    0  501    0  0.00000000000E+00  0.00000000000E+00 -0.10872294705E+04  0.10872294705E+04  0.50400001928E-02 0.  1.
    10030    2    1    2    0    0  0.00000000000E+00  0.00000000000E+00 -0.62368440328E+03  0.15507745377E+04  0.14198307758E+04 0.  0.
        4    1    3    3  502    0 -0.13959629988E+03 -0.11955844253E+02 -0.10719775176E+04  0.10810955001E+04  0.12699999809E+01 0.  1.
       -4    1    3    3    0  502  0.13959629988E+03  0.11955844253E+02  0.44829311430E+03  0.46967903762E+03  0.12699999809E+01 0. -1.
</event>
<event>
 5   0  0.2195980E-03  0.1363118E+04  0.7818609E-02  0.8980957E-01
        2   -1    0    0  501    0  0.00000000000E+00  0.00000000000E+00  0.13989917036E+04  0.13989917036E+04  0.25500000920E-02 0.  1.
       -2   -1    0    0    0  501  0.00000000000E+00  0.00000000000E+00 -0.33204088711E+03  0.33204088712E+03  0.25500000920E-02 0. -1.
    10030    2    1    2    0    0  0.00000000000E+00  0.00000000000E+00  0.10669508165E+04  0.17310325908E+04  0.13631176711E+04 0.  0.
        4    1    3    3  502    0 -0.20977988173E+03 -0.64522232488E+03  0.45116245272E+03  0.81478133198E+03  0.12699999809E+01 0. -1.
       -4    1    3    3    0  502  0.20977988173E+03  0.64522232488E+03  0.61578836382E+03  0.91625125878E+03  0.12699999809E+01 0.  1.
</event>
<event>
 5   0  0.2083966E-03  0.1622874E+04  0.7818609E-02  0.8806617E-01
       -2   -1    0    0    0  501  0.00000000000E+00  0.00000000000E+00  0.55187392966E+03  0.55187392967E+03  0.25500000920E-02 0.  1.
        2   -1    0    0  501    0  0.00000000000E+00  0.00000000000E+00 -0.11930809965E+04  0.11930809965E+04  0.25500000920E-02 0. -1.
    10030    2    1    2    0    0  0.00000000000E+00  0.00000000000E+00 -0.64120706686E+03  0.17449549262E+04  0.16228743611E+04 0.  0.
        1    1    3    3  502    0  0.38993690613E+03  0.69544368754E+02  0.44086759038E+03  0.59266469632E+03  0.50400001928E-02 0.  1.
       -1    1    3    3    0  502 -0.38993690613E+03 -0.69544368754E+02 -0.10820746572E+04  0.11522902299E+04  0.50400001928E-02 0. -1.
</event>
<event>
 5   0  0.1225690E-03  0.1382784E+04  0.7818609E-02  0.8966376E-01
        1   -1    0    0  501    0  0.00000000000E+00  0.00000000000E+00  0.16204559746E+04  0.16204559746E+04  0.50400001928E-02 0. -1.
       -1   -1    0    0    0  501  0.00000000000E+00  0.00000000000E+00 -0.29499280452E+03  0.29499280456E+03  0.50400001928E-02 0.  1.
    10030    2    1    2    0    0  0.00000000000E+00  0.00000000000E+00  0.13254631701E+04  0.19154487792E+04  0.13827839348E+04 0.  0.
        4    1    3    3  502    0 -0.62914359370E+03 -0.25531254389E+03  0.48204194383E+03  0.83268974118E+03  0.12699999809E+01 0.  1.
       -4    1    3    3    0  502  0.62914359370E+03  0.25531254389E+03  0.84342122628E+03  0.10827590380E+04  0.12699999809E+01 0. -1.
</event>
<event>
 5   0  0.2190704E-03  0.1424568E+04  0.7818609E-02  0.8936224E-01
        2   -1    0    0  501    0  0.00000000000E+00  0.00000000000E+00  0.83981337542E+03  0.83981337542E+03  0.25500000920E-02 0.  1.
       -2   -1    0    0    0  501  0.00000000000E+00  0.00000000000E+00 -0.60412058433E+03  0.60412058434E+03  0.25500000920E-02 0. -1.
    10030    2    1    2    0    0  0.00000000000E+00  0.00000000000E+00  0.23569279109E+03  0.14439339598E+04  0.14245680708E+04 0.  0.
        5    1    3    3  502    0  0.38047756792E+03  0.21802275526E+03 -0.45105845536E+03  0.62910485744E+03  0.46999998093E+01 0. -1.
       -5    1    3    3    0  502 -0.38047756792E+03 -0.21802275526E+03  0.68675124644E+03  0.81482910232E+03  0.46999998093E+01 0.  1.
</event>
<event>
 5   0  0.2236184E-03  0.1384418E+04  0.7818609E-02  0.8965175E-01
        2   -1    0    0  501    0  0.00000000000E+00  0.00000000000E+00  0.19525249810E+04  0.19525249810E+04  0.25500000920E-02 0. -1.
       -2   -1    0    0    0  501  0.00000000000E+00  0.00000000000E+00 -0.24540202549E+03  0.24540202550E+03  0.25500000920E-02 0.  1.
    10030    2    1    2    0    0  0.00000000000E+00  0.00000000000E+00  0.17071229555E+04  0.21979270065E+04  0.13844184124E+04 0.  0.
        3    1    3    3  502    0 -0.62505245289E+02  0.67394072631E+03  0.10839059500E+04  0.12778713264E+04  0.10100000352E+00 0.  1.
       -3    1    3    3    0  502  0.62505245289E+02 -0.67394072631E+03  0.62321700550E+03  0.92005568007E+03  0.10100000352E+00 0. -1.
</event>
<event>
 5   0  0.2195980E-03  0.1370098E+04  0.7818609E-02  0.8975752E-01
       -2   -1    0    0    0  501  0.00000000000E+00  0.00000000000E+00  0.39639597011E+03  0.39639597012E+03  0.25500000920E-02 0. -1.
        2   -1    0    0  501    0  0.00000000000E+00  0.00000000000E+00 -0.11838973323E+04  0.11838973323E+04  0.25500000920E-02 0.  1.
    10030    2    1    2    0    0  0.00000000000E+00  0.00000000000E+00 -0.78750136216E+03  0.15802933024E+04  0.13700979988E+04 0.  0.
        4    1    3    3  502    0 -0.34334312468E+03  0.56995415894E+03 -0.20578178457E+03  0.69647684838E+03  0.12699999809E+01 0. -1.
       -4    1    3    3    0  502  0.34334312468E+03 -0.56995415894E+03 -0.58171957759E+03  0.88381645403E+03  0.12699999809E+01 0.  1.
</event>
<event>
 5   0  0.2172901E-03  0.1022807E+04  0.7818609E-02  0.9283878E-01
        2   -1    0    0  501    0  0.00000000000E+00  0.00000000000E+00  0.12313488223E+04  0.12313488223E+04  0.25500000920E-02 0. -1.
       -2   -1    0    0    0  501  0.00000000000E+00  0.00000000000E+00 -0.21239600649E+03  0.21239600650E+03  0.25500000920E-02 0.  1.
    10030    2    1    2    0    0  0.00000000000E+00  0.00000000000E+00  0.10189528158E+04  0.14437448288E+04  0.10228070639E+04 0.  0.
        2    1    3    3  502    0 -0.22909162465E+03  0.39109264678E+03  0.84380004996E+03  0.95782824931E+03  0.25500000920E-02 0.  1.
       -2    1    3    3    0  502  0.22909162465E+03 -0.39109264678E+03  0.17515276586E+03  0.48591657951E+03  0.25500000920E-02 0. -1.
</event>
<event>
 5   0  0.2172901E-03  0.1415913E+04  0.7818609E-02  0.8942380E-01
       -2   -1    0    0    0  501  0.00000000000E+00  0.00000000000E+00  0.99853272768E+03  0.99853272768E+03  0.25500000920E-02 0.  1.
        2   -1    0    0  501    0  0.00000000000E+00  0.00000000000E+00 -0.50193895464E+03  0.50193895464E+03  0.25500000920E-02 0. -1.
    10030    2    1    2    0    0  0.00000000000E+00  0.00000000000E+00  0.49659377304E+03  0.15004716823E+04  0.14159130955E+04 0.  0.
        2    1    3    3  502    0  0.47466275754E+03 -0.52216912908E+03  0.30859059486E+03  0.77019055305E+03  0.25500000920E-02 0.  1.
       -2    1    3    3    0  502 -0.47466275754E+03  0.52216912908E+03  0.18800317818E+03  0.73028112927E+03  0.25500000920E-02 0. -1.
</event>
<event>
 5   0  0.2172901E-03  0.1405017E+04  0.7818609E-02  0.8950195E-01
        2   -1    0    0  501    0  0.00000000000E+00  0.00000000000E+00  0.36896218862E+03  0.36896218863E+03  0.25500000920E-02 0. -1.
       -2   -1    0    0    0  501  0.00000000000E+00  0.00000000000E+00 -0.13375846875E+04  0.13375846875E+04  0.25500000920E-02 0.  1.
    10030    2    1    2    0    0  0.00000000000E+00  0.00000000000E+00 -0.96862249884E+03  0.17065468761E+04  0.14050169732E+04 0.  0.
        2    1    3    3  502    0 -0.43833493515E+03  0.53932898198E+03 -0.35982173606E+03  0.78261417565E+03  0.25500000920E-02 0.  1.
       -2    1    3    3    0  502  0.43833493515E+03 -0.53932898198E+03 -0.60880076278E+03  0.92393270044E+03  0.25500000920E-02 0. -1.
</event>
<event>
 5   0  0.2236184E-03  0.1433342E+04  0.7818609E-02  0.8930031E-01
       -2   -1    0    0    0  501  0.00000000000E+00  0.00000000000E+00  0.12552821690E+04  0.12552821690E+04  0.25500000920E-02 0. -1.
        2   -1    0    0  501    0  0.00000000000E+00  0.00000000000E+00 -0.40916491111E+03  0.40916491112E+03  0.25500000920E-02 0.  1.
    10030    2    1    2    0    0  0.00000000000E+00  0.00000000000E+00  0.84611725786E+03  0.16644470801E+04  0.14333421324E+04 0.  0.
        3    1    3    3  502    0  0.59332170740E+03 -0.40179066796E+03  0.43732895404E+03  0.83947782197E+03  0.10100000352E+00 0.  1.
       -3    1    3    3    0  502 -0.59332170740E+03  0.40179066796E+03  0.40878830382E+03  0.82496925813E+03  0.10100000352E+00 0. -1.
</event>
<event>
 5   0  0.2195980E-03  0.1408357E+04  0.7818609E-02  0.8947791E-01
       -2   -1    0    0    0  501  0.00000000000E+00  0.00000000000E+00  0.36958945400E+03  0.36958945401E+03  0.25500000920E-02 0.  1.
        2   -1    0    0  501    0  0.00000000000E+00  0.00000000000E+00 -0.13416709105E+04  0.13416709105E+04  0.25500000920E-02 0. -1.
    10030    2    1    2    0    0  0.00000000000E+00  0.00000000000E+00 -0.97208145647E+03  0.17112603645E+04  0.14083570843E+04 0.  0.
        4    1    3    3  502    0 -0.67562524682E+03 -0.13440661787E+03 -0.66350498080E+03  0.95643875158E+03  0.12699999809E+01 0. -1.
       -4    1    3    3    0  502  0.67562524682E+03  0.13440661787E+03 -0.30857647567E+03  0.75482161291E+03  0.12699999809E+01 0.  1.
</event>
<event>
 5   0  0.2083966E-03  0.1424006E+04  0.7818609E-02  0.8936623E-01
        2   -1    0    0  501    0  0.00000000000E+00  0.00000000000E+00  0.81499554306E+03  0.81499554306E+03  0.25500000920E-02 0. -1.
       -2   -1    0    0    0  501  0.00000000000E+00  0.00000000000E+00 -0.62202547079E+03  0.62202547079E+03  0.25500000920E-02 0.  1.
    10030    2    1    2    0    0  0.00000000000E+00  0.00000000000E+00  0.19297007227E+03  0.14370210139E+04  0.14240055988E+04 0.  0.
        1    1    3    3  502    0 -0.13430727922E+03  0.43501416037E+03  0.64891174233E+03  0.79269301393E+03  0.50400001928E-02 0. -1.
       -1    1    3    3    0  502  0.13430727922E+03 -0.43501416037E+03 -0.45594167006E+03  0.64432799993E+03  0.50400001928E-02 0.  1.
</event>
<event>
 5   0  0.1210275E-03  0.1391790E+04  0.7818609E-02  0.8959783E-01
       -1   -1    0    0    0  501  0.00000000000E+00  0.00000000000E+00  0.31539643369E+03  0.31539643373E+03  0.50400001928E-02 0. -1.
        1   -1    0    0  501    0  0.00000000000E+00  0.00000000000E+00 -0.15354317743E+04  0.15354317744E+04  0.50400001928E-02 0.  1.
    10030    2    1    2    0    0  0.00000000000E+00  0.00000000000E+00 -0.12200353407E+04  0.18508282081E+04  0.13917897914E+04 0.  0.
        1    1    3    3  502    0 -0.20022256236E+02  0.55164512588E+02 -0.15321352373E+04  0.15332587516E+04  0.50400001928E-02 0.  1.
       -1    1    3    3    0  502  0.20022256236E+02 -0.55164512588E+02  0.31209989659E+03  0.31756945645E+03  0.50400001928E-02 0. -1.
</event>
<event>
 5   0  0.1175374E-03  0.1372145E+04  0.7818609E-02  0.8974232E-01
       -1   -1    0    0    0  501  0.00000000000E+00  0.00000000000E+00  0.30942605089E+03  0.30942605093E+03  0.50400001928E-02 0.  1.
        1   -1    0    0  501    0  0.00000000000E+00  0.00000000000E+00 -0.15211890146E+04  0.15211890146E+04  0.50400001928E-02 0. -1.
    10030    2    1    2    0    0  0.00000000000E+00  0.00000000000E+00 -0.12117629637E+04  0.18306150655E+04  0.13721450499E+04 0.  0.
        3    1    3    3  502    0  0.58063802012E+03 -0.11070446262E+02 -0.11854635833E+03  0.59271942305E+03  0.10100000352E+00 0.  1.
       -3    1    3    3    0  502 -0.58063802012E+03  0.11070446262E+02 -0.10932166054E+04  0.12378956425E+04  0.10100000352E+00 0. -1.
</event>
<event>
 5   0  0.1210275E-03  0.1405828E+04  0.7818609E-02  0.8949611E-01
        1   -1    0    0  501    0  0.00000000000E+00  0.00000000000E+00  0.15362834663E+04  0.15362834663E+04  0.50400001928E-02 0.  1.
       -1   -1    0    0    0  501  0.00000000000E+00  0.00000000000E+00 -0.32161248468E+03  0.32161248472E+03  0.50400001928E-02 0. -1.
    10030    2    1    2    0    0  0.00000000000E+00  0.00000000000E+00  0.12146709816E+04  0.18578959511E+04  0.14058277886E+04 0.  0.
        1    1    3    3  502    0 -0.28854612970E+03  0.65058077184E+02 -0.23536082156E+03  0.37800282899E+03  0.50400001928E-02 0. -1.
       -1    1    3    3    0  502  0.28854612970E+03 -0.65058077184E+02  0.14500318032E+04  0.14798931221E+04  0.50400001928E-02 0.  1.
</event>
<event>
 5   0  0.2195980E-03  0.1379324E+04  0.7818609E-02  0.8968923E-01
       -2   -1    0    0    0  501  0.00000000000E+00  0.00000000000E+00  0.48187953257E+03  0.48187953258E+03  0.25500000920E-02 0. -1.
        2   -1    0    0  501    0  0.00000000000E+00  0.00000000000E+00 -0.98703786297E+03  0.98703786297E+03  0.25500000920E-02 0.  1.
    10030    2    1    2    0    0  0.00000000000E+00  0.00000000000E+00 -0.50515833040E+03  0.14689173955E+04  0.13793235212E+04 0.  0.
        4    1    3    3  502    0  0.37251006855E+03  0.52732288348E+03 -0.51081384401E+03  0.82326518859E+03  0.12699999809E+01 0.  1.
       -4    1    3    3    0  502 -0.37251006855E+03 -0.52732288348E+03  0.56555136179E+01  0.64565220696E+03  0.12699999809E+01 0. -1.
</event>
<event>
 5   0  0.2172901E-03  0.1401040E+04  0.7818609E-02  0.8953066E-01
       -2   -1    0    0    0  501  0.00000000000E+00  0.00000000000E+00  0.12196208838E+04  0.12196208838E+04  0.25500000920E-02 0.  1.
        2   -1    0    0  501    0  0.00000000000E+00  0.00000000000E+00 -0.40236124372E+03  0.40236124372E+03  0.25500000920E-02 0. -1.
    10030    2    1    2    0    0  0.00000000000E+00  0.00000000000E+00  0.81725964011E+03  0.16219821276E+04  0.14010398648E+04 0.  0.
        2    1    3    3  502    0 -0.12389993562E+03 -0.68939173405E+03  0.42109961972E+03  0.81727415643E+03  0.25500000920E-02 0. -1.
       -2    1    3    3    0  502  0.12389993562E+03  0.68939173405E+03  0.39616002039E+03  0.80470797112E+03  0.25500000920E-02 0.  1.
</event>
<event>
 5   0  0.2172901E-03  0.1406074E+04  0.7818609E-02  0.8949433E-01
       -2   -1    0    0    0  501  0.00000000000E+00  0.00000000000E+00  0.12194489772E+04  0.12194489772E+04  0.25500000920E-02 0.  1.
        2   -1    0    0  501    0  0.00000000000E+00  0.00000000000E+00 -0.40531531524E+03  0.40531531525E+03  0.25500000920E-02 0. -1.
    10030    2    1    2    0    0  0.00000000000E+00  0.00000000000E+00  0.81413366199E+03  0.16247642925E+04  0.14060744598E+04 0.  0.
        2    1    3    3  502    0 -0.19207367266E+02  0.55699762859E+03  0.90225796493E+03  0.10605115353E+04  0.25500000920E-02 0.  1.
       -2    1    3    3    0  502  0.19207367266E+02 -0.55699762859E+03 -0.88124302942E+02  0.56425275718E+03  0.25500000920E-02 0. -1.
</event>
<event>
 5   0  0.2083966E-03  0.1441130E+04  0.7818609E-02  0.8924573E-01
       -2   -1    0    0    0  501  0.00000000000E+00  0.00000000000E+00  0.62724224976E+03  0.62724224977E+03  0.25500000920E-02 0. -1.
        2   -1    0    0  501    0  0.00000000000E+00  0.00000000000E+00 -0.82777246509E+03  0.82777246509E+03  0.25500000920E-02 0.  1.
    10030    2    1    2    0    0  0.00000000000E+00  0.00000000000E+00 -0.20053021533E+03  0.14550147149E+04  0.14411299224E+04 0.  0.
        1    1    3    3  502    0  0.50491351642E+03 -0.36684958382E+03 -0.46387040187E+03  0.77761946090E+03  0.50400001928E-02 0.  1.
       -1    1    3    3    0  502 -0.50491351642E+03  0.36684958382E+03  0.26334018654E+03  0.67739525396E+03  0.50400001928E-02 0. -1.
</event>
<event>
 5   0  0.2190704E-03  0.1394662E+04  0.7818609E-02  0.8957692E-01
       -2   -1    0    0    0  501  0.00000000000E+00  0.00000000000E+00  0.75367633436E+03  0.75367633436E+03  0.25500000920E-02 0. -1.
        2   -1    0    0  501    0  0.00000000000E+00  0.00000000000E+00 -0.64519768760E+03  0.64519768761E+03  0.25500000920E-02 0.  1.
    10030    2    1    2    0    0  0.00000000000E+00  0.00000000000E+00  0.10847864676E+03  0.13988740220E+04  0.13946615763E+04 0.  0.
        5    1    3    3  502    0  0.61050411687E+03  0.32735838026E+03  0.13428859861E+03  0.70564460146E+03  0.46999998093E+01 0.  1.
       -5    1    3    3    0  502 -0.61050411687E+03 -0.32735838026E+03 -0.25809951857E+02  0.69322942051E+03  0.46999998093E+01 0. -1.
</event>
<event>
 5   0  0.1238683E-03  0.1416253E+04  0.7818609E-02  0.8942137E-01
        1   -1    0    0  501    0  0.00000000000E+00  0.00000000000E+00  0.74354915859E+03  0.74354915860E+03  0.50400001928E-02 0.  1.
       -1   -1    0    0    0  501  0.00000000000E+00  0.00000000000E+00 -0.67439175424E+03  0.67439175426E+03  0.50400001928E-02 0. -1.
    10030    2    1    2    0    0  0.00000000000E+00  0.00000000000E+00  0.69157404343E+02  0.14179409129E+04  0.14162533975E+04 0.  0.
        2    1    3    3  502    0  0.19910140740E+03 -0.48566813343E+03 -0.44130703979E+03  0.68576002335E+03  0.25500000920E-02 0. -1.
       -2    1    3    3    0  502 -0.19910140740E+03  0.48566813343E+03  0.51046444413E+03  0.73218088952E+03  0.25500000920E-02 0.  1.
</event>
<event>
 5   0  0.1175374E-03  0.1374705E+04  0.7818609E-02  0.8972335E-01
       -1   -1    0    0    0  501  0.00000000000E+00  0.00000000000E+00  0.49110017890E+03  0.49110017892E+03  0.50400001928E-02 0.  1.
        1   -1    0    0  501    0  0.00000000000E+00  0.00000000000E+00 -0.96203030094E+03  0.96203030096E+03  0.50400001928E-02 0. -1.
    10030    2    1    2    0    0  0.00000000000E+00  0.00000000000E+00 -0.47093012205E+03  0.14531304799E+04  0.13747046998E+04 0.  0.
        3    1    3    3  502    0  0.10457776372E+03  0.13546962333E+02  0.48249875364E+03  0.49388772643E+03  0.10100000352E+00 0.  1.
       -3    1    3    3    0  502 -0.10457776372E+03 -0.13546962333E+02 -0.95342887569E+03  0.95924275345E+03  0.10100000352E+00 0. -1.
</event>
<event>
 5   0  0.1210275E-03  0.1419822E+04  0.7818609E-02  0.8939594E-01
        1   -1    0    0  501    0  0.00000000000E+00  0.00000000000E+00  0.36172606889E+03  0.36172606893E+03  0.50400001928E-02 0. -1.
       -1   -1    0    0    0  501  0.00000000000E+00  0.00000000000E+00 -0.13932475307E+04  0.13932475307E+04  0.50400001928E-02 0.  1.
    10030    2    1    2    0    0  0.00000000000E+00  0.00000000000E+00 -0.10315214618E+04  0.17549735997E+04  0.14198224570E+04 0.  0.
        1    1    3    3  502    0 -0.47364541154E+03  0.18619009942E+03  0.96012593797E+02  0.51790457344E+03  0.50400001928E-02 0. -1.
       -1    1    3    3    0  502  0.47364541154E+03 -0.18619009942E+03 -0.11275340556E+04  0.12370690262E+04  0.50400001928E-02 0.  1.
</event>
<event>
 5   0  0.1238683E-03  0.1395191E+04  0.7818609E-02  0.8957307E-01
        1   -1    0    0  501    0  0.00000000000E+00  0.00000000000E+00  0.11076019477E+04  0.11076019478E+04  0.50400001928E-02 0.  1.
       -1   -1    0    0    0  501  0.00000000000E+00  0.00000000000E+00 -0.43936316302E+03  0.43936316305E+03  0.50400001928E-02 0. -1.
    10030    2    1    2    0    0  0.00000000000E+00  0.00000000000E+00  0.66823878473E+03  0.15469651108E+04  0.13951910194E+04 0.  0.
        2    1    3    3  502    0  0.21024734459E+03  0.64837945704E+03  0.16951213227E+03  0.70237755460E+03  0.25500000920E-02 0. -1.
       -2    1    3    3    0  502 -0.21024734459E+03 -0.64837945704E+03  0.49872665246E+03  0.84458755620E+03  0.25500000920E-02 0.  1.
</event>
<event>
 5   0  0.2236184E-03  0.1400950E+04  0.7818609E-02  0.8953131E-01
       -2   -1    0    0    0  501  0.00000000000E+00  0.00000000000E+00  0.59779726821E+03  0.59779726821E+03  0.25500000920E-02 0.  1.
        2   -1    0    0  501    0  0.00000000000E+00  0.00000000000E+00 -0.82078840677E+03  0.82078840677E+03  0.25500000920E-02 0. -1.
    10030    2    1    2    0    0  0.00000000000E+00  0.00000000000E+00 -0.22299113856E+03  0.14185856750E+04  0.14009497740E+04 0.  0.
        3    1    3    3  502    0  0.60021566752E+03 -0.21020487967E+03  0.18583345888E+03  0.66255492121E+03  0.10100000352E+00 0.  1.
       -3    1    3    3    0  502 -0.60021566752E+03  0.21020487967E+03 -0.40882459744E+03  0.75603075378E+03  0.10100000352E+00 0. -1.
</event>
<event>
 5   0  0.1238683E-03  0.1611649E+04  0.7818609E-02  0.8813424E-01
       -1   -1    0    0    0  501  0.00000000000E+00  0.00000000000E+00  0.10323652552E+04  0.10323652552E+04  0.50400001928E-02 0. -1.
        1   -1    0    0  501    0  0.00000000000E+00  0.00000000000E+00 -0.62899528622E+03  0.62899528624E+03  0.50400001928E-02 0.  1.
    10030    2    1    2    0    0  0.00000000000E+00  0.00000000000E+00  0.40336996895E+03  0.16613605414E+04  0.16116486952E+04 0.  0.
        2    1    3    3  502    0 -0.43167151259E+03 -0.57002968230E+03  0.58473627261E+03  0.92368319352E+03  0.25500000920E-02 0.  1.
       -2    1    3    3    0  502  0.43167151259E+03  0.57002968230E+03 -0.18136630366E+03  0.73767734789E+03  0.25500000920E-02 0. -1.
</event>
<event>
 5   0  0.2190704E-03  0.9171631E+03  0.7818609E-02  0.9404377E-01
        2   -1    0    0  501    0  0.00000000000E+00  0.00000000000E+00  0.20871305221E+04  0.20871305221E+04  0.25500000920E-02 0. -1.
       -2   -1    0    0    0  501  0.00000000000E+00  0.00000000000E+00 -0.10075893155E+03  0.10075893159E+03  0.25500000920E-02 0.  1.
    10030    2    1    2    0    0  0.00000000000E+00  0.00000000000E+00  0.19863715906E+04  0.21878894537E+04  0.91716310754E+03 0.  0.
        5    1    3    3  502    0 -0.31569098554E+03 -0.16399164219E+03  0.30295278201E+03  0.46728635245E+03  0.46999998093E+01 0.  1.
       -5    1    3    3    0  502  0.31569098554E+03  0.16399164219E+03  0.16834188086E+04  0.17206031013E+04  0.46999998093E+01 0. -1.
</event>
<event>
 5   0  0.2083966E-03  0.1408079E+04  0.7818609E-02  0.8947991E-01
       -2   -1    0    0    0  501  0.00000000000E+00  0.00000000000E+00  0.44966860001E+03  0.44966860002E+03  0.25500000920E-02 0. -1.
        2   -1    0    0  501    0  0.00000000000E+00  0.00000000000E+00 -0.11023041317E+04  0.11023041317E+04  0.25500000920E-02 0.  1.
    10030    2    1    2    0    0  0.00000000000E+00  0.00000000000E+00 -0.65263553170E+03  0.15519727317E+04  0.14080789121E+04 0.  0.
        1    1    3    3  502    0 -0.38916746141E+02 -0.84071808138E+02 -0.10955566713E+04  0.10994666898E+04  0.50400001928E-02 0.  1.
       -1    1    3    3    0  502  0.38916746141E+02  0.84071808138E+02  0.44292113957E+03  0.45250604190E+03  0.50400001928E-02 0. -1.
</event>
<event>
 5   0  0.1199720E-03  0.1399564E+04  0.7818609E-02  0.8954134E-01
        1   -1    0    0  501    0  0.00000000000E+00  0.00000000000E+00  0.50160177385E+03  0.50160177387E+03  0.50400001928E-02 0. -1.
       -1   -1    0    0    0  501  0.00000000000E+00  0.00000000000E+00 -0.97626173109E+03  0.97626173111E+03  0.50400001928E-02 0.  1.
    10030    2    1    2    0    0  0.00000000000E+00  0.00000000000E+00 -0.47465995725E+03  0.14778635050E+04  0.13995636693E+04 0.  0.
        5    1    3    3  502    0 -0.15458187854E+03 -0.44777189057E+03  0.30653577276E+03  0.56425303999E+03  0.46999998093E+01 0. -1.
       -5    1    3    3    0  502  0.15458187854E+03  0.44777189057E+03 -0.78119573001E+03  0.91361046499E+03  0.46999998093E+01 0.  1.
</event>
<event>
 5   0  0.1175374E-03  0.1386898E+04  0.7818609E-02  0.8963357E-01
        1   -1    0    0  501    0  0.00000000000E+00  0.00000000000E+00  0.89479259008E+03  0.89479259010E+03  0.50400001928E-02 0.  1.
       -1   -1    0    0    0  501  0.00000000000E+00  0.00000000000E+00 -0.53741105536E+03  0.53741105539E+03  0.50400001928E-02 0. -1.
    10030    2    1    2    0    0  0.00000000000E+00  0.00000000000E+00  0.35738153472E+03  0.14322036455E+04  0.13868978768E+04 0.  0.
        3    1    3    3  502    0  0.46045355712E+03  0.48560562855E+03 -0.90193323604E+01  0.66926202888E+03  0.10100000352E+00 0. -1.
       -3    1    3    3    0  502 -0.46045355712E+03 -0.48560562855E+03  0.36640086708E+03  0.76294161660E+03  0.10100000352E+00 0.  1.
</event>
<event>
 5   0  0.1225690E-03  0.1364534E+04  0.7818609E-02  0.8979898E-01
       -1   -1    0    0    0  501  0.00000000000E+00  0.00000000000E+00  0.69330263196E+03  0.69330263198E+03  0.50400001928E-02 0. -1.
        1   -1    0    0  501    0  0.00000000000E+00  0.00000000000E+00 -0.67140710390E+03  0.67140710392E+03  0.50400001928E-02 0.  1.
    10030    2    1    2    0    0  0.00000000000E+00  0.00000000000E+00  0.21895528058E+02  0.13647097359E+04  0.13645340777E+04 0.  0.
        4    1    3    3  502    0  0.50607462322E+03 -0.16766930627E+03 -0.41485600542E+03  0.67552323326E+03  0.12699999809E+01 0.  1.
       -4    1    3    3    0  502 -0.50607462322E+03  0.16766930627E+03  0.43675153348E+03  0.68918650265E+03  0.12699999809E+01 0. -1.
</event>
<event>
 5   0  0.1199720E-03  0.1356077E+04  0.7818609E-02  0.8986241E-01
       -1   -1    0    0    0  501  0.00000000000E+00  0.00000000000E+00  0.27853316005E+03  0.27853316009E+03  0.50400001928E-02 0. -1.
        1   -1    0    0  501    0  0.00000000000E+00  0.00000000000E+00 -0.16505617285E+04  0.16505617285E+04  0.50400001928E-02 0.  1.
    10030    2    1    2    0    0  0.00000000000E+00  0.00000000000E+00 -0.13720285685E+04  0.19290948886E+04  0.13560769508E+04 0.  0.
        5    1    3    3  502    0  0.10915557553E+03 -0.60245281234E+03 -0.11003902407E+04  0.12592637145E+04  0.46999998093E+01 0.  1.
       -5    1    3    3    0  502 -0.10915557553E+03  0.60245281234E+03 -0.27163832781E+03  0.66983117418E+03  0.46999998093E+01 0. -1.
</event>
<event>
 5   0  0.2172901E-03  0.1405991E+04  0.7818609E-02  0.8949493E-01
        2   -1    0    0  501    0  0.00000000000E+00  0.00000000000E+00  0.13665591357E+04  0.13665591357E+04  0.25500000920E-02 0. -1.
       -2   -1    0    0    0  501  0.00000000000E+00  0.00000000000E+00 -0.36164038378E+03  0.36164038379E+03  0.25500000920E-02 0.  1.
    10030    2    1    2    0    0  0.00000000000E+00  0.00000000000E+00  0.10049187519E+04  0.17281995195E+04  0.14059914229E+04 0.  0.
        2    1    3    3  502    0 -0.31846709974E+03  0.26086264630E+03 -0.19798554541E+03  0.45680290066E+03  0.25500000920E-02 0.  1.
       -2    1    3    3    0  502  0.31846709974E+03 -0.26086264630E+03  0.12029042973E+04  0.12713966188E+04  0.25500000920E-02 0. -1.
</event>
<event>
 5   0  0.1238683E-03  0.1397092E+04  0.7818609E-02  0.8955926E-01
       -1   -1    0    0    0  501  0.00000000000E+00  0.00000000000E+00  0.64712013026E+03  0.64712013028E+03  0.50400001928E-02 0. -1.
        1   -1    0    0  501    0  0.00000000000E+00  0.00000000000E+00 -0.75405857175E+03  0.75405857177E+03  0.50400001928E-02 0.  1.
    10030    2    1    2    0    0  0.00000000000E+00  0.00000000000E+00 -0.10693844149E+03  0.14011787020E+04  0.13970919529E+04 0.  0.
        2    1    3    3  502    0  0.81422269668E+02 -0.27830396557E+03 -0.69084675535E+03  0.74923422415E+03  0.25500000920E-02 0.  1.
       -2    1    3    3    0  502 -0.81422269668E+02  0.27830396557E+03  0.58390831387E+03  0.65194447790E+03  0.25500000920E-02 0. -1.
</event>
<event>
 5   0  0.2190704E-03  0.1402743E+04  0.7818609E-02  0.8951835E-01
        2   -1    0    0  501    0  0.00000000000E+00  0.00000000000E+00  0.34926127862E+03  0.34926127863E+03  0.25500000920E-02 0.  1.
       -2   -1    0    0    0  501  0.00000000000E+00  0.00000000000E+00 -0.14084642678E+04  0.14084642678E+04  0.25500000920E-02 0. -1.
    10030    2    1    2    0    0  0.00000000000E+00  0.00000000000E+00 -0.10592029892E+04  0.17577255464E+04  0.14027430714E+04 0.  0.
        5    1    3    3  502    0  0.66878650802E+03 -0.14699317441E+03 -0.71971042657E+03  0.99342215333E+03  0.46999998093E+01 0. -1.
       -5    1    3    3    0  502 -0.66878650802E+03  0.14699317441E+03 -0.33949256261E+03  0.76430339309E+03  0.46999998093E+01 0.  1.
</event>
<event>
 5   0  0.1210275E-03  0.1347638E+04  0.7818609E-02  0.8992618E-01
       -1   -1    0    0    0  501  0.00000000000E+00  0.00000000000E+00  0.36865622715E+03  0.36865622718E+03  0.50400001928E-02 0.  1.
        1   -1    0    0  501    0  0.00000000000E+00  0.00000000000E+00 -0.12315862300E+04  0.12315862300E+04  0.50400001928E-02 0. -1.
    10030    2    1    2    0    0  0.00000000000E+00  0.00000000000E+00 -0.86293000281E+03  0.16002424571E+04  0.13476378341E+04 0.  0.
        1    1    3    3  502    0  0.48948833691E+03 -0.33862864031E+03 -0.80652346087E+03  0.10023713289E+04  0.50400001928E-02 0. -1.
       -1    1    3    3    0  502 -0.48948833691E+03  0.33862864031E+03 -0.56406541937E+02  0.59787112826E+03  0.50400001928E-02 0.  1.
</event>
<event>
 5   0  0.2236184E-03  0.1366209E+04  0.7818609E-02  0.8978648E-01
        2   -1    0    0  501    0  0.00000000000E+00  0.00000000000E+00  0.18085791996E+04  0.18085791997E+04  0.25500000920E-02 0.  1.
       -2   -1    0    0    0  501  0.00000000000E+00  0.00000000000E+00 -0.25801005480E+03  0.25801005481E+03  0.25500000920E-02 0. -1.
    10030    2    1    2    0    0  0.00000000000E+00  0.00000000000E+00  0.15505691449E+04  0.20665892545E+04  0.13662087958E+04 0.  0.
        3    1    3    3  502    0 -0.14161895943E+03 -0.29878142976E+03  0.16794686203E+04  0.17117070805E+04  0.10100000352E+00 0.  1.
       -3    1    3    3    0  502  0.14161895943E+03  0.29878142976E+03 -0.12889947548E+03  0.35488217400E+03  0.10100000352E+00 0. -1.
</event>
<event>
 5   0  0.2190704E-03  0.1380400E+04  0.7818609E-02  0.8968129E-01
        2   -1    0    0  501    0  0.00000000000E+00  0.00000000000E+00  0.22148502307E+04  0.22148502307E+04  0.25500000920E-02 0. -1.
       -2   -1    0    0    0  501  0.00000000000E+00  0.00000000000E+00 -0.21508281110E+03  0.21508281111E+03  0.25500000920E-02 0.  1.
    10030    2    1    2    0    0  0.00000000000E+00  0.00000000000E+00  0.19997674196E+04  0.24299330418E+04  0.13804002518E+04 0.  0.
        5    1    3    3  502    0  0.52053081904E+03 -0.38078482400E+03  0.14325217190E+04  0.15710155891E+04  0.46999998093E+01 0. -1.
       -5    1    3    3    0  502 -0.52053081904E+03  0.38078482400E+03  0.56724570062E+03  0.85891745274E+03  0.46999998093E+01 0.  1.
</event>
<event>
 5   0  0.2190704E-03  0.1439397E+04  0.7818609E-02  0.8925784E-01
       -2   -1    0    0    0  501  0.00000000000E+00  0.00000000000E+00  0.77538124955E+03  0.77538124955E+03  0.25500000920E-02 0. -1.
        2   -1    0    0  501    0  0.00000000000E+00  0.00000000000E+00 -0.66801480360E+03  0.66801480361E+03  0.25500000920E-02 0.  1.
    10030    2    1    2    0    0  0.00000000000E+00  0.00000000000E+00  0.10736644594E+03  0.14433960532E+04  0.14393973088E+04 0.  0.
        5    1    3    3  502    0 -0.30297772155E+03  0.13590990810E+03 -0.58658649848E+03  0.67407181596E+03  0.46999998093E+01 0.  1.
       -5    1    3    3    0  502  0.30297772155E+03 -0.13590990810E+03  0.69395294442E+03  0.76932423720E+03  0.46999998093E+01 0. -1.
</event>
<event>
 5   0  0.2236184E-03  0.1408765E+04  0.7818609E-02  0.8947499E-01
       -2   -1    0    0    0  501  0.00000000000E+00  0.00000000000E+00  0.56708487892E+03  0.56708487892E+03  0.25500000920E-02 0. -1.
        2   -1    0    0  501    0  0.00000000000E+00  0.00000000000E+00 -0.87492105005E+03  0.87492105005E+03  0.25500000920E-02 0.  1.
    10030    2    1    2    0    0  0.00000000000E+00  0.00000000000E+00 -0.30783617113E+03  0.14420059290E+04  0.14087647039E+04 0.  0.
        3    1    3    3  502    0  0.52325544083E+03 -0.23415412942E+03  0.26504424361E+03  0.63156383205E+03  0.10100000352E+00 0. -1.
       -3    1    3    3    0  502 -0.52325544083E+03  0.23415412942E+03 -0.57288041474E+03  0.81044209693E+03  0.10100000352E+00 0.  1.
</event>
<event>
 5   0  0.1210275E-03  0.1424108E+04  0.7818609E-02  0.8936550E-01
       -1   -1    0    0    0  501  0.00000000000E+00  0.00000000000E+00  0.87356267380E+03  0.87356267381E+03  0.50400001928E-02 0.  1.
        1   -1    0    0  501    0  0.00000000000E+00  0.00000000000E+00 -0.58040608799E+03  0.58040608801E+03  0.50400001928E-02 0. -1.
    10030    2    1    2    0    0  0.00000000000E+00  0.00000000000E+00  0.29315658581E+03  0.14539687618E+04  0.14241082742E+04 0.  0.
        1    1    3    3  502    0 -0.61176148452E+03  0.35623730068E+03  0.68396112281E+02  0.71122089153E+03  0.50400001928E-02 0.  1.
       -1    1    3    3    0  502  0.61176148452E+03 -0.35623730068E+03  0.22476047353E+03  0.74274787030E+03  0.50400001928E-02 0. -1.
</event>
<event>
 5   0  0.1238683E-03  0.1457378E+04  0.7818609E-02  0.8913302E-01
       -1   -1    0    0    0  501  0.00000000000E+00  0.00000000000E+00  0.35337895616E+03  0.35337895620E+03  0.50400001928E-02 0. -1.
        1   -1    0    0  501    0  0.00000000000E+00  0.00000000000E+00 -0.15026005654E+04  0.15026005654E+04  0.50400001928E-02 0.  1.
    10030    2    1    2    0    0  0.00000000000E+00  0.00000000000E+00 -0.11492216093E+04  0.18559795216E+04  0.14573776715E+04 0.  0.
        2    1    3    3  502    0  0.60835736532E+03 -0.37351963437E+03 -0.76078599381E+03  0.10432693466E+04  0.25500000920E-02 0.  1.
       -2    1    3    3    0  502 -0.60835736532E+03  0.37351963437E+03 -0.38843561545E+03  0.81271017501E+03  0.25500000920E-02 0. -1.
</event>
<event>
 5   0  0.1199720E-03  0.1428879E+04  0.7818609E-02  0.8933175E-01
       -1   -1    0    0    0  501  0.00000000000E+00  0.00000000000E+00  0.78321878443E+03  0.78321878445E+03  0.50400001928E-02 0. -1.
        1   -1    0    0  501    0  0.00000000000E+00  0.00000000000E+00 -0.65170052812E+03  0.65170052814E+03  0.50400001928E-02 0.  1.
    10030    2    1    2    0    0  0.00000000000E+00  0.00000000000E+00  0.13151825632E+03  0.14349193126E+04  0.14288794147E+04 0.  0.
        5    1    3    3  502    0  0.49354170351E+03  0.18109900143E+03 -0.42004366449E+03  0.67293315529E+03  0.46999998093E+01 0.  1.
       -5    1    3    3    0  502 -0.49354170351E+03 -0.18109900143E+03  0.55156192080E+03  0.76198615729E+03  0.46999998093E+01 0. -1.
</event>
<event>
 5   0  0.2172901E-03  0.1328091E+04  0.7818609E-02  0.9007580E-01
        2   -1    0    0  501    0  0.00000000000E+00  0.00000000000E+00  0.12263011027E+04  0.12263011027E+04  0.25500000920E-02 0.  1.
       -2   -1    0    0    0  501  0.00000000000E+00  0.00000000000E+00 -0.35958271421E+03  0.35958271422E+03  0.25500000920E-02 0. -1.
    10030    2    1    2    0    0  0.00000000000E+00  0.00000000000E+00  0.86671838849E+03  0.15858838169E+04  0.13280913808E+04 0.  0.
        2    1    3    3  502    0 -0.69934723507E+02  0.32926412852E+03 -0.25015749489E+03  0.41938586545E+03  0.25500000920E-02 0. -1.
       -2    1    3    3    0  502  0.69934723507E+02 -0.32926412852E+03  0.11168758834E+04  0.11664979515E+04  0.25500000920E-02 0.  1.
</event>
<event>
 5   0  0.1175374E-03  0.1410311E+04  0.7818609E-02  0.8946388E-01
        1   -1    0    0  501    0  0.00000000000E+00  0.00000000000E+00  0.20074031852E+04  0.20074031852E+04  0.50400001928E-02 0. -1.
       -1   -1    0    0    0  501  0.00000000000E+00  0.00000000000E+00 -0.24770541085E+03  0.24770541090E+03  0.50400001928E-02 0.  1.
    10030    2    1    2    0    0  0.00000000000E+00  0.00000000000E+00  0.17596977743E+04  0.22551085961E+04  0.14103114986E+04 0.  0.
        3    1    3    3  502    0 -0.32237194930E+03  0.13670821441E+03  0.18585604955E+04  0.18912588229E+04  0.10100000352E+00 0. -1.
       -3    1    3    3    0  502  0.32237194930E+03 -0.13670821441E+03 -0.98862721198E+02  0.36384977315E+03  0.10100000352E+00 0.  1.
</event>
<event>
 5   0  0.1225690E-03  0.1368694E+04  0.7818609E-02  0.8976797E-01
        1   -1    0    0  501    0  0.00000000000E+00  0.00000000000E+00  0.16080499595E+04  0.16080499596E+04  0.50400001928E-02 0. -1.
       -1   -1    0    0    0  501  0.00000000000E+00  0.00000000000E+00 -0.29124132763E+03  0.29124132767E+03  0.50400001928E-02 0.  1.
    10030    2    1    2    0    0  0.00000000000E+00  0.00000000000E+00  0.13168086319E+04  0.18992912872E+04  0.13686936913E+04 0.  0.
        4    1    3    3  502    0  0.29422892288E+03 -0.52576645650E+03  0.11087615676E+04  0.12618854356E+04  0.12699999809E+01 0. -1.
       -4    1    3    3    0  502 -0.29422892288E+03  0.52576645650E+03  0.20804706430E+03  0.63740585164E+03  0.12699999809E+01 0.  1.
</event>
<event>
 5   0  0.2195980E-03  0.1413665E+04  0.7818609E-02  0.8943986E-01
       -2   -1    0    0    0  501  0.00000000000E+00  0.00000000000E+00  0.25727187594E+03  0.25727187595E+03  0.25500000920E-02 0.  1.
        2   -1    0    0  501    0  0.00000000000E+00  0.00000000000E+00 -0.19419631496E+04  0.19419631496E+04  0.25500000920E-02 0. -1.
    10030    2    1    2    0    0  0.00000000000E+00  0.00000000000E+00 -0.16846912737E+04  0.21992350256E+04  0.14136654520E+04 0.  0.
        4    1    3    3  502    0  0.56303820724E+03 -0.70265174648E+02 -0.18662044090E+03  0.59730898155E+03  0.12699999809E+01 0.  1.
       -4    1    3    3    0  502 -0.56303820724E+03  0.70265174648E+02 -0.14980708328E+04  0.16019260440E+04  0.12699999809E+01 0. -1.
</event>
<event>
 5   0  0.1225690E-03  0.1501378E+04  0.7818609E-02  0.8883537E-01
       -1   -1    0    0    0  501  0.00000000000E+00  0.00000000000E+00  0.68081030499E+03  0.68081030501E+03  0.50400001928E-02 0.  1.
        1   -1    0    0  501    0  0.00000000000E+00  0.00000000000E+00 -0.82773959953E+03  0.82773959955E+03  0.50400001928E-02 0. -1.
    10030    2    1    2    0    0  0.00000000000E+00  0.00000000000E+00 -0.14692929454E+03  0.15085499046E+04  0.15013775664E+04 0.  0.
        4    1    3    3  502    0  0.56875121935E+03  0.46343058316E+03 -0.23324058829E+03  0.76983676182E+03  0.12699999809E+01 0. -1.
       -4    1    3    3    0  502 -0.56875121935E+03 -0.46343058316E+03  0.86311293751E+02  0.73871314274E+03  0.12699999809E+01 0.  1.
</event>
<event>
 5   0  0.1225690E-03  0.1401701E+04  0.7818609E-02  0.8952588E-01
       -1   -1    0    0    0  501  0.00000000000E+00  0.00000000000E+00  0.27449590376E+03  0.27449590381E+03  0.50400001928E-02 0.  1.
        1   -1    0    0  501    0  0.00000000000E+00  0.00000000000E+00 -0.17894298350E+04  0.17894298350E+04  0.50400001928E-02 0. -1.
    10030    2    1    2    0    0  0.00000000000E+00  0.00000000000E+00 -0.15149339313E+04  0.20639257388E+04  0.14017006240E+04 0.  0.
        4    1    3    3  502    0 -0.45408083236E+03  0.13570165582E+03  0.27837229853E+01  0.47393428207E+03  0.12699999809E+01 0.  1.
       -4    1    3    3    0  502  0.45408083236E+03 -0.13570165582E+03 -0.15177176542E+04  0.15899914568E+04  0.12699999809E+01 0. -1.
</event>
<event>
 5   0  0.1210275E-03  0.1418156E+04  0.7818609E-02  0.8940780E-01
        1   -1    0    0  501    0  0.00000000000E+00  0.00000000000E+00  0.60752785377E+03  0.60752785379E+03  0.50400001928E-02 0.  1.
       -1   -1    0    0    0  501  0.00000000000E+00  0.00000000000E+00 -0.82760303612E+03  0.82760303614E+03  0.50400001928E-02 0. -1.
    10030    2    1    2    0    0  0.00000000000E+00  0.00000000000E+00 -0.22007518235E+03  0.14351308899E+04  0.14181564037E+04 0.  0.
        1    1    3    3  502    0 -0.67341908836E+03  0.10978465053E+03 -0.30533971139E+03  0.74751473393E+03  0.50400001928E-02 0. -1.
       -1    1    3    3    0  502  0.67341908836E+03 -0.10978465053E+03  0.85264529040E+02  0.68761615600E+03  0.50400001928E-02 0.  1.
</event>
<event>
 5   0  0.2083966E-03  0.1376497E+04  0.7818609E-02  0.8971009E-01
        2   -1    0    0  501    0  0.00000000000E+00  0.00000000000E+00  0.12480091548E+04  0.12480091548E+04  0.25500000920E-02 0. -1.
       -2   -1    0    0    0  501  0.00000000000E+00  0.00000000000E+00 -0.37955315522E+03  0.37955315523E+03  0.25500000920E-02 0.  1.
    10030    2    1    2    0    0  0.00000000000E+00  0.00000000000E+00  0.86845599954E+03  0.16275623100E+04  0.13764967308E+04 0.  0.
        1    1    3    3  502    0 -0.13673441364E+03 -0.29082794382E+03  0.11538475975E+04  0.11977651986E+04  0.50400001928E-02 0. -1.
       -1    1    3    3    0  502  0.13673441364E+03  0.29082794382E+03 -0.28539159792E+03  0.42979711140E+03  0.50400001928E-02 0.  1.
</event>
<event>
 5   0  0.1175374E-03  0.1272965E+04  0.7818609E-02  0.9051284E-01
       -1   -1    0    0    0  501  0.00000000000E+00  0.00000000000E+00  0.65386601339E+03  0.65386601341E+03  0.50400001928E-02 0.  1.
        1   -1    0    0  501    0  0.00000000000E+00  0.00000000000E+00 -0.61956065514E+03  0.61956065516E+03  0.50400001928E-02 0. -1.
    10030    2    1    2    0    0  0.00000000000E+00  0.00000000000E+00  0.34305358250E+02  0.12734266686E+04  0.12729645017E+04 0.  0.
        3    1    3    3  502    0 -0.60184705335E+03 -0.20041704682E+03 -0.35046502975E+02  0.63530711931E+03  0.10100000352E+00 0. -1.
       -3    1    3    3    0  502  0.60184705335E+03  0.20041704682E+03  0.69351861225E+02  0.63811954925E+03  0.10100000352E+00 0.  1.
</event>
<event>
 5   0  0.2172901E-03  0.1379739E+04  0.7818609E-02  0.8968617E-01
        2   -1    0    0  501    0  0.00000000000E+00  0.00000000000E+00  0.98041125573E+03  0.98041125573E+03  0.25500000920E-02 0. -1.
       -2   -1    0    0    0  501  0.00000000000E+00  0.00000000000E+00 -0.48542859788E+03  0.48542859789E+03  0.25500000920E-02 0.  1.
    10030    2    1    2    0    0  0.00000000000E+00  0.00000000000E+00  0.49498265785E+03  0.14658398536E+04  0.13797386147E+04 0.  0.
        2    1    3    3  502    0 -0.18680742609E+03 -0.47422159849E+03  0.74140811457E+03  0.89970502459E+03  0.25500000920E-02 0. -1.
       -2    1    3    3    0  502  0.18680742609E+03  0.47422159849E+03 -0.24642545672E+03  0.56613482903E+03  0.25500000920E-02 0.  1.
</event>
<event>
 5   0  0.2236184E-03  0.8820341E+03  0.7818609E-02  0.9448323E-01
       -2   -1    0    0    0  501  0.00000000000E+00  0.00000000000E+00  0.12696545635E+04  0.12696545635E+04  0.25500000920E-02 0.  1.
        2   -1    0    0  501    0  0.00000000000E+00  0.00000000000E+00 -0.15318816581E+03  0.15318816583E+03  0.25500000920E-02 0. -1.
    10030    2    1    2    0    0  0.00000000000E+00  0.00000000000E+00  0.11164663977E+04  0.14228427293E+04  0.88203413497E+03 0.  0.
        3    1    3    3  502    0  0.30558406134E+03  0.78347529836E+02  0.10553731309E+04  0.11015136901E+04  0.10100000352E+00 0.  1.
       -3    1    3    3    0  502 -0.30558406134E+03 -0.78347529836E+02  0.61093266809E+02  0.32132903919E+03  0.10100000352E+00 0. -1.
</event>
<event>
 5   0  0.8293000E-04  0.1389342E+04  0.7818609E-02  0.8961569E-01
        3   -1    0    0  501    0  0.00000000000E+00  0.00000000000E+00  0.76991852515E+03  0.76991853177E+03  0.10100000352E+00 0.  1.
       -3   -1    0    0    0  501  0.00000000000E+00  0.00000000000E+00 -0.62677806267E+03  0.62677807081E+03  0.10100000352E+00 0. -1.
    10030    2    1    2    0    0  0.00000000000E+00  0.00000000000E+00  0.14314046248E+03  0.13966966026E+04  0.13893423652E+04 0.  0.
        4    1    3    3  502    0  0.33222780297E+03  0.32699994787E+03  0.58933255982E+03  0.75141117767E+03  0.12699999809E+01 0.  1.
       -4    1    3    3    0  502 -0.33222780297E+03 -0.32699994787E+03 -0.44619209734E+03  0.64528542491E+03  0.12699999809E+01 0. -1.
</event>
<event>
 5   0  0.1199720E-03  0.1419645E+04  0.7818609E-02  0.8939720E-01
       -1   -1    0    0    0  501  0.00000000000E+00  0.00000000000E+00  0.57381210400E+03  0.57381210402E+03  0.50400001928E-02 0.  1.
        1   -1    0    0  501    0  0.00000000000E+00  0.00000000000E+00 -0.87807160720E+03  0.87807160722E+03  0.50400001928E-02 0. -1.
    10030    2    1    2    0    0  0.00000000000E+00  0.00000000000E+00 -0.30425950320E+03  0.14518837112E+04  0.14196451901E+04 0.  0.
        5    1    3    3  502    0  0.45658768223E+03  0.48043729527E+03 -0.41193347347E+03  0.78038681614E+03  0.46999998093E+01 0. -1.
       -5    1    3    3    0  502 -0.45658768223E+03 -0.48043729527E+03  0.10767397026E+03  0.67149689509E+03  0.46999998093E+01 0.  1.
</event>
<event>
 5   0  0.2195980E-03  0.1350266E+04  0.7818609E-02  0.8990627E-01
        2   -1    0    0  501    0  0.00000000000E+00  0.00000000000E+00  0.92294377533E+03  0.92294377533E+03  0.25500000920E-02 0.  1.
       -2   -1    0    0    0  501  0.00000000000E+00  0.00000000000E+00 -0.49385963167E+03  0.49385963168E+03  0.25500000920E-02 0. -1.
    10030    2    1    2    0    0  0.00000000000E+00  0.00000000000E+00  0.42908414365E+03  0.14168034070E+04  0.13502661559E+04 0.  0.
        4    1    3    3  502    0  0.57403447121E+03 -0.97568455122E+02 -0.14400973266E+03  0.59981296549E+03  0.12699999809E+01 0. -1.
       -4    1    3    3    0  502 -0.57403447121E+03  0.97568455122E+02  0.57309387632E+03  0.81699044152E+03  0.12699999809E+01 0.  1.
</event>
<event>
 5   0  0.2195980E-03  0.1404805E+04  0.7818609E-02  0.8950348E-01
        2   -1    0    0  501    0  0.00000000000E+00  0.00000000000E+00  0.99755069105E+03  0.99755069106E+03  0.25500000920E-02 0. -1.
       -2   -1    0    0    0  501  0.00000000000E+00  0.00000000000E+00 -0.49458061153E+03  0.49458061154E+03  0.25500000920E-02 0.  1.
    10030    2    1    2    0    0  0.00000000000E+00  0.00000000000E+00  0.50297007952E+03  0.14921313026E+04  0.14048049414E+04 0.  0.
        4    1    3    3  502    0  0.21606093081E+03  0.58816929253E+03 -0.85644398930E+02  0.63242550429E+03  0.12699999809E+01 0.  1.
       -4    1    3    3    0  502 -0.21606093081E+03 -0.58816929253E+03  0.58861447845E+03  0.85970579831E+03  0.12699999809E+01 0. -1.
</event>
<event>
 5   0  0.2172901E-03  0.1397149E+04  0.7818609E-02  0.8955885E-01
        2   -1    0    0  501    0  0.00000000000E+00  0.00000000000E+00  0.26984433874E+04  0.26984433874E+04  0.25500000920E-02 0.  1.
       -2   -1    0    0    0  501  0.00000000000E+00  0.00000000000E+00 -0.18084730395E+03  0.18084730397E+03  0.25500000920E-02 0. -1.
    10030    2    1    2    0    0  0.00000000000E+00  0.00000000000E+00  0.25175960835E+04  0.28792906914E+04  0.13971488275E+04 0.  0.
        2    1    3    3  502    0 -0.28234787381E+03 -0.29882017373E+03  0.94851575397E+02  0.42191307095E+03  0.25500000920E-02 0. -1.
       -2    1    3    3    0  502  0.28234787381E+03  0.29882017373E+03  0.24227445081E+04  0.24573776204E+04  0.25500000920E-02 0.  1.
</event>
<event>
 5   0  0.1199720E-03  0.1359078E+04  0.7818609E-02  0.8983985E-01
       -1   -1    0    0    0  501  0.00000000000E+00  0.00000000000E+00  0.33085146004E+03  0.33085146008E+03  0.50400001928E-02 0.  1.
        1   -1    0    0  501    0  0.00000000000E+00  0.00000000000E+00 -0.13957115695E+04  0.13957115695E+04  0.50400001928E-02 0. -1.
    10030    2    1    2    0    0  0.00000000000E+00  0.00000000000E+00 -0.10648601095E+04  0.17265630296E+04  0.13590779383E+04 0.  0.
        5    1    3    3  502    0  0.66776449760E+02 -0.69540899158E+02 -0.13869580465E+04  0.13903128223E+04  0.46999998093E+01 0. -1.
       -5    1    3    3    0  502 -0.66776449760E+02  0.69540899158E+02  0.32209793704E+03  0.33625020735E+03  0.46999998093E+01 0.  1.
</event>
<event>
 5   0  0.2236184E-03  0.1385568E+04  0.7818609E-02  0.8964332E-01
       -2   -1    0    0    0  501  0.00000000000E+00  0.00000000000E+00  0.85933178759E+03  0.85933178759E+03  0.25500000920E-02 0. -1.
        2   -1    0    0  501    0  0.00000000000E+00  0.00000000000E+00 -0.55851474106E+03  0.55851474107E+03  0.25500000920E-02 0.  1.
    10030    2    1    2    0    0  0.00000000000E+00  0.00000000000E+00  0.30081704653E+03  0.14178465287E+04  0.13855677116E+04 0.  0.
        3    1    3    3  502    0 -0.11556257617E+03  0.12869809226E+03  0.83688071966E+03  0.85456846250E+03  0.10100000352E+00 0. -1.
       -3    1    3    3    0  502  0.11556257617E+03 -0.12869809226E+03 -0.53606367313E+03  0.56327806616E+03  0.10100000352E+00 0.  1.
</event>
<event>
 5   0  0.1199720E-03  0.1410254E+04  0.7818609E-02  0.8946430E-01
       -1   -1    0    0    0  501  0.00000000000E+00  0.00000000000E+00  0.15067482173E+04  0.15067482173E+04  0.50400001928E-02 0. -1.
        1   -1    0    0  501    0  0.00000000000E+00  0.00000000000E+00 -0.32998465083E+03  0.32998465087E+03  0.50400001928E-02 0.  1.
    10030    2    1    2    0    0  0.00000000000E+00  0.00000000000E+00  0.11767635664E+04  0.18367328682E+04  0.14102535721E+04 0.  0.
        5    1    3    3  502    0 -0.68296014486E+03 -0.14942739726E+03  0.70788192334E+03  0.99492814510E+03  0.46999998093E+01 0. -1.
       -5    1    3    3    0  502  0.68296014486E+03  0.14942739726E+03  0.46888164311E+03  0.84180472306E+03  0.46999998093E+01 0.  1.
</event>
<event>
 5   0  0.1175374E-03  0.1318121E+04  0.7818609E-02  0.9015317E-01
        1   -1    0    0  501    0  0.00000000000E+00  0.00000000000E+00  0.56702277970E+03  0.56702277972E+03  0.50400001928E-02 0. -1.
       -1   -1    0    0    0  501  0.00000000000E+00  0.00000000000E+00 -0.76603774158E+03  0.76603774160E+03  0.50400001928E-02 0.  1.
    10030    2    1    2    0    0  0.00000000000E+00  0.00000000000E+00 -0.19901496189E+03  0.13330605213E+04  0.13181211623E+04 0.  0.
        3    1    3    3  502    0 -0.57462074354E+03  0.58856148766E+02 -0.42044912743E+03  0.71444420644E+03  0.10100000352E+00 0.  1.
       -3    1    3    3    0  502  0.57462074354E+03 -0.58856148766E+02  0.22143416554E+03  0.61861631488E+03  0.10100000352E+00 0. -1.
</event>
<event>
 5   0  0.8293000E-04  0.1384059E+04  0.7818609E-02  0.8965439E-01
       -3   -1    0    0    0  501  0.00000000000E+00  0.00000000000E+00  0.13647433498E+04  0.13647433535E+04  0.10100000352E+00 0. -1.
        3   -1    0    0  501    0  0.00000000000E+00  0.00000000000E+00 -0.35091176874E+03  0.35091178327E+03  0.10100000352E+00 0.  1.
    10030    2    1    2    0    0  0.00000000000E+00  0.00000000000E+00  0.10138315810E+04  0.17156551368E+04  0.13840585514E+04 0.  0.
        2    1    3    3  502    0  0.53636437002E+03  0.30502166662E+02  0.10476458920E+04  0.11773610469E+04  0.25500000920E-02 0. -1.
       -2    1    3    3    0  502 -0.53636437002E+03 -0.30502166662E+02 -0.33814310994E+02  0.53829408991E+03  0.25500000920E-02 0.  1.
</event>
<event>
 5   0  0.2195980E-03  0.1353305E+04  0.7818609E-02  0.8988330E-01
        2   -1    0    0  501    0  0.00000000000E+00  0.00000000000E+00  0.10075319224E+04  0.10075319224E+04  0.25500000920E-02 0. -1.
       -2   -1    0    0    0  501  0.00000000000E+00  0.00000000000E+00 -0.45443610847E+03  0.45443610847E+03  0.25500000920E-02 0.  1.
    10030    2    1    2    0    0  0.00000000000E+00  0.00000000000E+00  0.55309581391E+03  0.14619680309E+04  0.13533054141E+04 0.  0.
        4    1    3    3  502    0  0.48669540248E+03 -0.21628626496E+03 -0.17434406363E+03  0.56040131034E+03  0.12699999809E+01 0.  1.
       -4    1    3    3    0  502 -0.48669540248E+03  0.21628626496E+03  0.72743987755E+03  0.90156672052E+03  0.12699999809E+01 0. -1.
</event>
<event>
 5   0  0.1225690E-03  0.1308843E+04  0.7818609E-02  0.9022582E-01
        1   -1    0    0  501    0  0.00000000000E+00  0.00000000000E+00  0.19672959575E+04  0.19672959575E+04  0.50400001928E-02 0. -1.
       -1   -1    0    0    0  501  0.00000000000E+00  0.00000000000E+00 -0.21769351297E+03  0.21769351303E+03  0.50400001928E-02 0.  1.
    10030    2    1    2    0    0  0.00000000000E+00  0.00000000000E+00  0.17496024445E+04  0.21849894705E+04  0.13088431046E+04 0.  0.
        4    1    3    3  502    0 -0.55946783271E+03  0.18048675913E+03  0.13548422451E+04  0.14768814604E+04  0.12699999809E+01 0. -1.
       -4    1    3    3    0  502  0.55946783271E+03 -0.18048675913E+03  0.39476019940E+03  0.70810801011E+03  0.12699999809E+01 0.  1.
</event>
<event>
 5   0  0.1175374E-03  0.1415403E+04  0.7818609E-02  0.8942744E-01
       -1   -1    0    0    0  501  0.00000000000E+00  0.00000000000E+00  0.50206474275E+03  0.50206474277E+03  0.50400001928E-02 0.  1.
        1   -1    0    0  501    0  0.00000000000E+00  0.00000000000E+00 -0.99756394032E+03  0.99756394033E+03  0.50400001928E-02 0. -1.
    10030    2    1    2    0    0  0.00000000000E+00  0.00000000000E+00 -0.49549919757E+03  0.14996286831E+04  0.14154033815E+04 0.  0.
        3    1    3    3  502    0 -0.10831165773E+03  0.15338886396E+03  0.47518940062E+03  0.51094474794E+03  0.10100000352E+00 0.  1.
       -3    1    3    3    0  502  0.10831165773E+03 -0.15338886396E+03 -0.97068859819E+03  0.98868393516E+03  0.10100000352E+00 0. -1.
</event>
<event>
 5   0  0.2172901E-03  0.1418791E+04  0.7818609E-02  0.8940328E-01
        2   -1    0    0  501    0  0.00000000000E+00  0.00000000000E+00  0.42039059470E+03  0.42039059471E+03  0.25500000920E-02 0. -1.
       -2   -1    0    0    0  501  0.00000000000E+00  0.00000000000E+00 -0.11970811332E+04  0.11970811332E+04  0.25500000920E-02 0.  1.
    10030    2    1    2    0    0  0.00000000000E+00  0.00000000000E+00 -0.77669053850E+03  0.16174717279E+04  0.14187905406E+04 0.  0.
        2    1    3    3  502    0 -0.34997246526E+03 -0.30493592689E+03  0.22322300524E+03  0.51506810813E+03  0.25500000920E-02 0. -1.
       -2    1    3    3    0  502  0.34997246526E+03  0.30493592689E+03 -0.99991354373E+03  0.11024036198E+04  0.25500000920E-02 0.  1.
</event>
<event>
 5   0  0.1175374E-03  0.1539685E+04  0.7818609E-02  0.8858483E-01
       -1   -1    0    0    0  501  0.00000000000E+00  0.00000000000E+00  0.11885219309E+04  0.11885219310E+04  0.50400001928E-02 0. -1.
        1   -1    0    0  501    0  0.00000000000E+00  0.00000000000E+00 -0.49865115171E+03  0.49865115173E+03  0.50400001928E-02 0.  1.
    10030    2    1    2    0    0  0.00000000000E+00  0.00000000000E+00  0.68987077923E+03  0.16871730827E+04  0.15396854610E+04 0.  0.
        3    1    3    3  502    0  0.53649270765E+03 -0.44201916086E+03 -0.17591632754E+02  0.69535231334E+03  0.10100000352E+00 0.  1.
       -3    1    3    3    0  502 -0.53649270765E+03  0.44201916086E+03  0.70746241199E+03  0.99182076934E+03  0.10100000352E+00 0. -1.
</event>
<event>
 5   0  0.2195980E-03  0.1418209E+04  0.7818609E-02  0.8940743E-01
       -2   -1    0    0    0  501  0.00000000000E+00  0.00000000000E+00  0.17952425298E+03  0.17952425299E+03  0.25500000920E-02 0. -1.
        2   -1    0    0  501    0  0.00000000000E+00  0.00000000000E+00 -0.28008964776E+04  0.28008964776E+04  0.25500000920E-02 0.  1.
    10030    2    1    2    0    0  0.00000000000E+00  0.00000000000E+00 -0.26213722247E+04  0.29804207306E+04  0.14182085148E+04 0.  0.
        4    1    3    3  502    0 -0.64169901910E+03  0.43486085502E+01 -0.67662457038E+03  0.93253362602E+03  0.12699999809E+01 0. -1.
       -4    1    3    3    0  502  0.64169901910E+03 -0.43486085502E+01 -0.19447476543E+04  0.20478871046E+04  0.12699999809E+01 0.  1.
</event>
<event>
 5   0  0.2083966E-03  0.1405521E+04  0.7818609E-02  0.8949832E-01
        2   -1    0    0  501    0  0.00000000000E+00  0.00000000000E+00  0.74472883549E+03  0.74472883549E+03  0.25500000920E-02 0.  1.
       -2   -1    0    0    0  501  0.00000000000E+00  0.00000000000E+00 -0.66315739931E+03  0.66315739932E+03  0.25500000920E-02 0. -1.
    10030    2    1    2    0    0  0.00000000000E+00  0.00000000000E+00  0.81571436174E+02  0.14078862348E+04  0.14055211670E+04 0.  0.
        1    1    3    3  502    0 -0.10232671750E+03 -0.58638244589E+03 -0.33341659154E+03  0.68226223221E+03  0.50400001928E-02 0.  1.
       -1    1    3    3    0  502  0.10232671750E+03  0.58638244589E+03  0.41498802772E+03  0.72562400259E+03  0.50400001928E-02 0. -1.
</event>
<event>
 5   0  0.2083966E-03  0.1386698E+04  0.7818609E-02  0.8963504E-01
       -2   -1    0    0    0  501  0.00000000000E+00  0.00000000000E+00  0.10348529135E+04  0.10348529135E+04  0.25500000920E-02 0. -1.
        2   -1    0    0  501    0  0.00000000000E+00  0.00000000000E+00 -0.46454225224E+03  0.46454225225E+03  0.25500000920E-02 0.  1.
    10030    2    1    2    0    0  0.00000000000E+00  0.00000000000E+00  0.57031066130E+03  0.14993951658E+04  0.13866980972E+04 0.  0.
        1    1    3    3  502    0 -0.66917678108E+02 -0.25723434119E+03 -0.40726745649E+03  0.48632732092E+03  0.50400001928E-02 0.  1.
       -1    1    3    3    0  502  0.66917678108E+02  0.25723434119E+03  0.97757811778E+03  0.10130678449E+04  0.50400001928E-02 0. -1.
</event>
<event>
 5   0  0.2236184E-03  0.1408962E+04  0.7818609E-02  0.8947357E-01
        2   -1    0    0  501    0  0.00000000000E+00  0.00000000000E+00  0.12226968537E+04  0.12226968538E+04  0.25500000920E-02 0. -1.
       -2   -1    0    0    0  501  0.00000000000E+00  0.00000000000E+00 -0.40590057951E+03  0.40590057952E+03  0.25500000920E-02 0.  1.
    10030    2    1    2    0    0  0.00000000000E+00  0.00000000000E+00  0.81679627424E+03  0.16285974333E+04  0.14089618327E+04 0.  0.
        3    1    3    3  502    0  0.29838689286E+03 -0.14317663492E+03  0.11272423288E+04  0.11748232057E+04  0.10100000352E+00 0. -1.
       -3    1    3    3    0  502 -0.29838689286E+03  0.14317663492E+03 -0.31044605456E+03  0.45377422757E+03  0.10100000352E+00 0.  1.
</event>
<event>
 5   0  0.2190704E-03  0.1348024E+04  0.7818609E-02  0.8992325E-01
       -2   -1    0    0    0  501  0.00000000000E+00  0.00000000000E+00  0.11833123722E+04  0.11833123722E+04  0.25500000920E-02 0. -1.
        2   -1    0    0  501    0  0.00000000000E+00  0.00000000000E+00 -0.38391576873E+03  0.38391576874E+03  0.25500000920E-02 0.  1.
    10030    2    1    2    0    0  0.00000000000E+00  0.00000000000E+00  0.79939660343E+03  0.15672281409E+04  0.13480241526E+04 0.  0.
        5    1    3    3  502    0 -0.36176155963E+03  0.39620174745E+03  0.87398521367E+03  0.10255337607E+04  0.46999998093E+01 0. -1.
       -5    1    3    3    0  502  0.36176155963E+03 -0.39620174745E+03 -0.74588610245E+02  0.54169438015E+03  0.46999998093E+01 0.  1.
</event>
<event>
 5   0  0.1175374E-03  0.1398443E+04  0.7818609E-02  0.8954946E-01
        1   -1    0    0  501    0  0.00000000000E+00  0.00000000000E+00  0.53598053338E+03  0.53598053341E+03  0.50400001928E-02 0. -1.
       -1   -1    0    0    0  501  0.00000000000E+00  0.00000000000E+00 -0.91218045853E+03  0.91218045854E+03  0.50400001928E-02 0.  1.
    10030    2    1    2    0    0  0.00000000000E+00  0.00000000000E+00 -0.37619992515E+03  0.14481609919E+04  0.13984433757E+04 0.  0.
        3    1    3    3  502    0 -0.67862933633E+03  0.83043804178E+02 -0.36339777558E+02  0.68465658485E+03  0.10100000352E+00 0. -1.
       -3    1    3    3    0  502  0.67862933633E+03 -0.83043804178E+02 -0.33986014759E+03  0.76350440710E+03  0.10100000352E+00 0.  1.
</event>
<event>
 5   0  0.1225690E-03  0.1411415E+04  0.7818609E-02  0.8945597E-01
       -1   -1    0    0    0  501  0.00000000000E+00  0.00000000000E+00  0.35922841054E+03  0.35922841058E+03  0.50400001928E-02 0.  1.
        1   -1    0    0  501    0  0.00000000000E+00  0.00000000000E+00 -0.13863695937E+04  0.13863695938E+04  0.50400001928E-02 0. -1.
    10030    2    1    2    0    0  0.00000000000E+00  0.00000000000E+00 -0.10271411832E+04  0.17455980043E+04  0.14114153827E+04 0.  0.
        4    1    3    3  502    0 -0.56267338993E+03 -0.13744418125E+03 -0.10121742622E+04  0.11661863473E+04  0.12699999809E+01 0. -1.
       -4    1    3    3    0  502  0.56267338993E+03  0.13744418125E+03 -0.14966921037E+02  0.57941165705E+03  0.12699999809E+01 0.  1.
</event>
<event>
 5   0  0.2195980E-03  0.1396341E+04  0.7818609E-02  0.8956472E-01
       -2   -1    0    0    0  501  0.00000000000E+00  0.00000000000E+00  0.29171056695E+03  0.29171056696E+03  0.25500000920E-02 0.  1.
        2   -1    0    0  501    0  0.00000000000E+00  0.00000000000E+00 -0.16709779521E+04  0.16709779521E+04  0.25500000920E-02 0. -1.
    10030    2    1    2    0    0  0.00000000000E+00  0.00000000000E+00 -0.13792673851E+04  0.19626885190E+04  0.13963408263E+04 0.  0.
        4    1    3    3  502    0 -0.48042678748E+03 -0.23972433202E+02  0.21624368389E+02  0.48151199558E+03  0.12699999809E+01 0.  1.
       -4    1    3    3    0  502  0.48042678748E+03  0.23972433202E+02 -0.14008917535E+04  0.14811765235E+04  0.12699999809E+01 0. -1.
</event>
<event>
 5   0  0.1175374E-03  0.1398372E+04  0.7818609E-02  0.8954998E-01
       -1   -1    0    0    0  501  0.00000000000E+00  0.00000000000E+00  0.34650844911E+03  0.34650844914E+03  0.50400001928E-02 0. -1.
        1   -1    0    0  501    0  0.00000000000E+00  0.00000000000E+00 -0.14108207472E+04  0.14108207473E+04  0.50400001928E-02 0.  1.
    10030    2    1    2    0    0  0.00000000000E+00  0.00000000000E+00 -0.10643122981E+04  0.17573291964E+04  0.13983723526E+04 0.  0.
        3    1    3    3  502    0 -0.26872491315E+02  0.67660957377E+03 -0.31326487871E+03  0.74609486028E+03  0.10100000352E+00 0. -1.
       -3    1    3    3    0  502  0.26872491315E+02 -0.67660957377E+03 -0.75104741943E+03  0.10112343361E+04  0.10100000352E+00 0.  1.
</event>
<event>
 5   0  0.1238683E-03  0.1402860E+04  0.7818609E-02  0.8951751E-01
       -1   -1    0    0    0  501  0.00000000000E+00  0.00000000000E+00  0.66861742171E+03  0.66861742173E+03  0.50400001928E-02 0. -1.
        1   -1    0    0  501    0  0.00000000000E+00  0.00000000000E+00 -0.73585310814E+03  0.73585310816E+03  0.50400001928E-02 0.  1.
    10030    2    1    2    0    0  0.00000000000E+00  0.00000000000E+00 -0.67235686430E+02  0.14044705299E+04  0.14028602325E+04 0.  0.
        2    1    3    3  502    0 -0.73965966899E+02 -0.27413583615E+03  0.60850967900E+03  0.67149493696E+03  0.25500000920E-02 0. -1.
       -2    1    3    3    0  502  0.73965966899E+02  0.27413583615E+03 -0.67574536543E+03  0.73297559293E+03  0.25500000920E-02 0.  1.
</event>
<event>
 5   0  0.1175374E-03  0.1385169E+04  0.7818609E-02  0.8964625E-01
        1   -1    0    0  501    0  0.00000000000E+00  0.00000000000E+00  0.15718703990E+04  0.15718703990E+04  0.50400001928E-02 0. -1.
       -1   -1    0    0    0  501  0.00000000000E+00  0.00000000000E+00 -0.30516065789E+03  0.30516065793E+03  0.50400001928E-02 0.  1.
    10030    2    1    2    0    0  0.00000000000E+00  0.00000000000E+00  0.12667097411E+04  0.18770310569E+04  0.13851685892E+04 0.  0.
        3    1    3    3  502    0 -0.11687632521E+03 -0.38666812668E+03  0.13957079290E+04  0.14529875942E+04  0.10100000352E+00 0. -1.
       -3    1    3    3    0  502  0.11687632521E+03  0.38666812668E+03 -0.12899818792E+03  0.42404346272E+03  0.10100000352E+00 0.  1.
</event>
<event>
 5   0  0.1175374E-03  0.1449908E+04  0.7818609E-02  0.8918464E-01
       -1   -1    0    0    0  501  0.00000000000E+00  0.00000000000E+00  0.29591438513E+03  0.29591438517E+03  0.50400001928E-02 0.  1.
        1   -1    0    0  501    0  0.00000000000E+00  0.00000000000E+00 -0.17760496512E+04  0.17760496512E+04  0.50400001928E-02 0. -1.
    10030    2    1    2    0    0  0.00000000000E+00  0.00000000000E+00 -0.14801352661E+04  0.20719640364E+04  0.14499084668E+04 0.  0.
        3    1    3    3  502    0 -0.11014648509E+03 -0.66595537696E+03 -0.11179640953E+04  0.13059374184E+04  0.10100000352E+00 0. -1.
       -3    1    3    3    0  502  0.11014648509E+03  0.66595537696E+03 -0.36217117080E+03  0.76602661797E+03  0.10100000352E+00 0.  1.
</event>
<event>
 5   0  0.1199720E-03  0.1417430E+04  0.7818609E-02  0.8941298E-01
        1   -1    0    0  501    0  0.00000000000E+00  0.00000000000E+00  0.11176139026E+04  0.11176139026E+04  0.50400001928E-02 0. -1.
       -1   -1    0    0    0  501  0.00000000000E+00  0.00000000000E+00 -0.44941885728E+03  0.44941885731E+03  0.50400001928E-02 0.  1.
    10030    2    1    2    0    0  0.00000000000E+00  0.00000000000E+00  0.66819504532E+03  0.15670327599E+04  0.14174297344E+04 0.  0.
        5    1    3    3  502    0 -0.11936969672E+03  0.29440822546E+03  0.10344666519E+04  0.10821592635E+04  0.46999998093E+01 0. -1.
       -5    1    3    3    0  502  0.11936969672E+03 -0.29440822546E+03 -0.36627160659E+03  0.48487349640E+03  0.46999998093E+01 0.  1.
</event>
<event>
 5   0  0.1238683E-03  0.1388140E+04  0.7818609E-02  0.8962448E-01
        1   -1    0    0  501    0  0.00000000000E+00  0.00000000000E+00  0.66699760256E+03  0.66699760258E+03  0.50400001928E-02 0.  1.
       -1   -1    0    0    0  501  0.00000000000E+00  0.00000000000E+00 -0.72224136710E+03  0.72224136712E+03  0.50400001928E-02 0. -1.
    10030    2    1    2    0    0  0.00000000000E+00  0.00000000000E+00 -0.55243764543E+02  0.13892389697E+04  0.13881401375E+04 0.  0.
        2    1    3    3  502    0  0.91368864923E+02 -0.34056683735E+03 -0.62592386997E+03  0.71841125492E+03  0.25500000920E-02 0. -1.
       -2    1    3    3    0  502 -0.91368864923E+02  0.34056683735E+03  0.57068010543E+03  0.67082771478E+03  0.25500000920E-02 0.  1.
</event>
<event>
 5   0  0.8293000E-04  0.1314927E+04  0.7818609E-02  0.9017811E-01
        3   -1    0    0  501    0  0.00000000000E+00  0.00000000000E+00  0.67035216417E+03  0.67035217178E+03  0.10100000352E+00 0.  1.
       -3   -1    0    0    0  501  0.00000000000E+00  0.00000000000E+00 -0.64482223024E+03  0.64482223815E+03  0.10100000352E+00 0. -1.
    10030    2    1    2    0    0  0.00000000000E+00  0.00000000000E+00  0.25529933935E+02  0.13151744099E+04  0.13149265953E+04 0.  0.
        1    1    3    3  502    0 -0.11792386057E+03  0.62445046302E+01 -0.63412810352E+03  0.64502983065E+03  0.50400001928E-02 0. -1.
       -1    1    3    3    0  502  0.11792386057E+03 -0.62445046302E+01  0.65965803746E+03  0.67014457928E+03  0.50400001928E-02 0.  1.
</event>
<event>
 5   0  0.8293000E-04  0.1384618E+04  0.7818609E-02  0.8965028E-01
        4   -1    0    0  501    0  0.00000000000E+00  0.00000000000E+00  0.76246396765E+03  0.76246502534E+03  0.12699999809E+01 0.  1.
       -4   -1    0    0    0  501  0.00000000000E+00  0.00000000000E+00 -0.62860734349E+03  0.62860862640E+03  0.12699999809E+01 0. -1.
    10030    2    1    2    0    0  0.00000000000E+00  0.00000000000E+00  0.13385662417E+03  0.13910736517E+04  0.13846184705E+04 0.  0.
        3    1    3    3  502    0 -0.42191805605E+03 -0.50324408928E+03 -0.15323394708E+03  0.67435162353E+03  0.10100000352E+00 0. -1.
       -3    1    3    3    0  502  0.42191805605E+03  0.50324408928E+03  0.28709057125E+03  0.71672202821E+03  0.10100000352E+00 0.  1.
</event>
<event>
 5   0  0.2190704E-03  0.1405501E+04  0.7818609E-02  0.8949846E-01
       -2   -1    0    0    0  501  0.00000000000E+00  0.00000000000E+00  0.52227847257E+03  0.52227847258E+03  0.25500000920E-02 0. -1.
        2   -1    0    0  501    0  0.00000000000E+00  0.00000000000E+00 -0.94558456858E+03  0.94558456858E+03  0.25500000920E-02 0.  1.
    10030    2    1    2    0    0  0.00000000000E+00  0.00000000000E+00 -0.42330609601E+03  0.14678630412E+04  0.14055012831E+04 0.  0.
        5    1    3    3  502    0 -0.51105002251E+03  0.47967055396E+03 -0.26470465053E+03  0.74923067733E+03  0.46999998093E+01 0.  1.
       -5    1    3    3    0  502  0.51105002251E+03 -0.47967055396E+03 -0.15860144547E+03  0.71863236383E+03  0.46999998093E+01 0. -1.
</event>
<event>
 5   0  0.1175374E-03  0.1381001E+04  0.7818609E-02  0.8967687E-01
       -1   -1    0    0    0  501  0.00000000000E+00  0.00000000000E+00  0.18362128564E+03  0.18362128571E+03  0.50400001928E-02 0. -1.
        1   -1    0    0  501    0  0.00000000000E+00  0.00000000000E+00 -0.25966012883E+04  0.25966012883E+04  0.50400001928E-02 0.  1.
    10030    2    1    2    0    0  0.00000000000E+00  0.00000000000E+00 -0.24129800027E+04  0.27802225740E+04  0.13810014728E+04 0.  0.
        3    1    3    3  502    0  0.23425524796E+03 -0.50656154790E+03 -0.38795646868E+03  0.67969872355E+03  0.10100000352E+00 0. -1.
       -3    1    3    3    0  502 -0.23425524796E+03  0.50656154790E+03 -0.20250235340E+04  0.21005238505E+04  0.10100000352E+00 0.  1.
</event>
<event>
 5   0  0.2190704E-03  0.1366576E+04  0.7818609E-02  0.8978374E-01
       -2   -1    0    0    0  501  0.00000000000E+00  0.00000000000E+00  0.27479456223E+03  0.27479456225E+03  0.25500000920E-02 0.  1.
        2   -1    0    0  501    0  0.00000000000E+00  0.00000000000E+00 -0.16990234105E+04  0.16990234105E+04  0.25500000920E-02 0. -1.
    10030    2    1    2    0    0  0.00000000000E+00  0.00000000000E+00 -0.14242288483E+04  0.19738179728E+04  0.13665758586E+04 0.  0.
        5    1    3    3  502    0  0.61633196097E+03 -0.26519810928E+03 -0.89857128699E+03  0.11214488714E+04  0.46999998093E+01 0. -1.
       -5    1    3    3    0  502 -0.61633196097E+03  0.26519810928E+03 -0.52565756128E+03  0.85236910140E+03  0.46999998093E+01 0.  1.
</event>
<event>
 5   0  0.1175374E-03  0.1401967E+04  0.7818609E-02  0.8952396E-01
        1   -1    0    0  501    0  0.00000000000E+00  0.00000000000E+00  0.61623077408E+03  0.61623077411E+03  0.50400001928E-02 0.  1.
       -1   -1    0    0    0  501  0.00000000000E+00  0.00000000000E+00 -0.79739231704E+03  0.79739231706E+03  0.50400001928E-02 0. -1.
    10030    2    1    2    0    0  0.00000000000E+00  0.00000000000E+00 -0.18116154296E+03  0.14136230912E+04  0.14019667397E+04 0.  0.
        3    1    3    3  502    0  0.52562142953E+03  0.73010366316E+02 -0.55239451945E+03  0.76599485382E+03  0.10100000352E+00 0. -1.
       -3    1    3    3    0  502 -0.52562142953E+03 -0.73010366316E+02  0.37123297649E+03  0.64762823734E+03  0.10100000352E+00 0.  1.
</event>
<event>
 5   0  0.2195980E-03  0.1429268E+04  0.7818609E-02  0.8932901E-01
       -2   -1    0    0    0  501  0.00000000000E+00  0.00000000000E+00  0.67751992410E+03  0.67751992410E+03  0.25500000920E-02 0. -1.
        2   -1    0    0  501    0  0.00000000000E+00  0.00000000000E+00 -0.75378078295E+03  0.75378078295E+03  0.25500000920E-02 0.  1.
    10030    2    1    2    0    0  0.00000000000E+00  0.00000000000E+00 -0.76260858850E+02  0.14313007071E+04  0.14292676430E+04 0.  0.
        4    1    3    3  502    0 -0.60064497447E+03  0.37450978906E+03 -0.13659586675E+03  0.72089667164E+03  0.12699999809E+01 0. -1.
       -4    1    3    3    0  502  0.60064497447E+03 -0.37450978906E+03  0.60335007899E+02  0.71040403542E+03  0.12699999809E+01 0.  1.
</event>
<event>
 5   0  0.1225690E-03  0.1441182E+04  0.7818609E-02  0.8924537E-01
        1   -1    0    0  501    0  0.00000000000E+00  0.00000000000E+00  0.40971168502E+03  0.40971168505E+03  0.50400001928E-02 0. -1.
       -1   -1    0    0    0  501  0.00000000000E+00  0.00000000000E+00 -0.12673577878E+04  0.12673577878E+04  0.50400001928E-02 0.  1.
    10030    2    1    2    0    0  0.00000000000E+00  0.00000000000E+00 -0.85764610276E+03  0.16770694728E+04  0.14411818689E+04 0.  0.
        4    1    3    3  502    0 -0.16503095750E+03  0.46854438679E+03  0.17861231693E+03  0.52789490620E+03  0.12699999809E+01 0. -1.
       -4    1    3    3    0  502  0.16503095750E+03 -0.46854438679E+03 -0.10362584197E+04  0.11491745666E+04  0.12699999809E+01 0.  1.
</event>
<event>
 5   0  0.2195980E-03  0.1367265E+04  0.7818609E-02  0.8977860E-01
        2   -1    0    0  501    0  0.00000000000E+00  0.00000000000E+00  0.10793130392E+04  0.10793130392E+04  0.25500000920E-02 0.  1.
       -2   -1    0    0    0  501  0.00000000000E+00  0.00000000000E+00 -0.43301028711E+03  0.43301028712E+03  0.25500000920E-02 0. -1.
    10030    2    1    2    0    0  0.00000000000E+00  0.00000000000E+00  0.64630275211E+03  0.15123233263E+04  0.13672653715E+04 0.  0.
        4    1    3    3  502    0 -0.40033767859E+03  0.10632714192E+03  0.92470387524E+03  0.10132396497E+04  0.12699999809E+01 0.  1.
       -4    1    3    3    0  502  0.40033767859E+03 -0.10632714192E+03 -0.27840112312E+03  0.49908367662E+03  0.12699999809E+01 0. -1.
</event>
<event>
 5   0  0.2172901E-03  0.1366356E+04  0.7818609E-02  0.8978539E-01
        2   -1    0    0  501    0  0.00000000000E+00  0.00000000000E+00  0.70186428934E+03  0.70186428935E+03  0.25500000920E-02 0.  1.
       -2   -1    0    0    0  501  0.00000000000E+00  0.00000000000E+00 -0.66498903656E+03  0.66498903656E+03  0.25500000920E-02 0. -1.
    10030    2    1    2    0    0  0.00000000000E+00  0.00000000000E+00  0.36875252788E+02  0.13668533259E+04  0.13663558213E+04 0.  0.
        2    1    3    3  502    0 -0.43692403412E+03  0.43738866127E+03  0.30926775872E+03  0.69127273864E+03  0.25500000920E-02 0. -1.
       -2    1    3    3    0  502  0.43692403412E+03 -0.43738866127E+03 -0.27239250593E+03  0.67558058727E+03  0.25500000920E-02 0.  1.
</event>
<event>
 5   0  0.1210275E-03  0.1376701E+04  0.7818609E-02  0.8970859E-01
        1   -1    0    0  501    0  0.00000000000E+00  0.00000000000E+00  0.11646204826E+04  0.11646204826E+04  0.50400001928E-02 0.  1.
       -1   -1    0    0    0  501  0.00000000000E+00  0.00000000000E+00 -0.40685022662E+03  0.40685022665E+03  0.50400001928E-02 0. -1.
    10030    2    1    2    0    0  0.00000000000E+00  0.00000000000E+00  0.75777025599E+03  0.15714707093E+04  0.13767005590E+04 0.  0.
        1    1    3    3  502    0 -0.37663174040E+03 -0.44708854524E+03 -0.35969531454E+02  0.58569056880E+03  0.50400001928E-02 0. -1.
       -1    1    3    3    0  502  0.37663174040E+03  0.44708854524E+03  0.79373978744E+03  0.98578014047E+03  0.50400001928E-02 0.  1.
</event>
<event>
 5   0  0.8293000E-04  0.1393505E+04  0.7818609E-02  0.8958533E-01
        3   -1    0    0  501    0  0.00000000000E+00  0.00000000000E+00  0.89665212683E+03  0.89665213252E+03  0.10100000352E+00 0.  1.
       -3   -1    0    0    0  501  0.00000000000E+00  0.00000000000E+00 -0.54141880549E+03  0.54141881491E+03  0.10100000352E+00 0. -1.
    10030    2    1    2    0    0  0.00000000000E+00  0.00000000000E+00  0.35523332134E+03  0.14380709474E+04  0.13935054134E+04 0.  0.
        2    1    3    3  502    0  0.16922309945E+03  0.64723683078E+03 -0.23321338056E+02  0.66939962453E+03  0.25500000920E-02 0. -1.
       -2    1    3    3    0  502 -0.16922309945E+03 -0.64723683078E+03  0.37855465940E+03  0.76867132291E+03  0.25500000920E-02 0.  1.
</event>
<event>
 5   0  0.1210275E-03  0.1393229E+04  0.7818609E-02  0.8958734E-01
        1   -1    0    0  501    0  0.00000000000E+00  0.00000000000E+00  0.16697829053E+04  0.16697829053E+04  0.50400001928E-02 0. -1.
       -1   -1    0    0    0  501  0.00000000000E+00  0.00000000000E+00 -0.29061973741E+03  0.29061973746E+03  0.50400001928E-02 0.  1.
    10030    2    1    2    0    0  0.00000000000E+00  0.00000000000E+00  0.13791631679E+04  0.19604026427E+04  0.13932291549E+04 0.  0.
        1    1    3    3  502    0 -0.25982020247E+03 -0.31051943130E+03  0.14872220106E+04  0.15413494619E+04  0.50400001928E-02 0. -1.
       -1    1    3    3    0  502  0.25982020247E+03  0.31051943130E+03 -0.10805884277E+03  0.41905318082E+03  0.50400001928E-02 0.  1.
</event>
<event>
 5   0  0.2190704E-03  0.1406966E+04  0.7818609E-02  0.8948791E-01
       -2   -1    0    0    0  501  0.00000000000E+00  0.00000000000E+00  0.23663602416E+03  0.23663602417E+03  0.25500000920E-02 0.  1.
        2   -1    0    0  501    0  0.00000000000E+00  0.00000000000E+00 -0.20913495384E+04  0.20913495384E+04  0.25500000920E-02 0. -1.
    10030    2    1    2    0    0  0.00000000000E+00  0.00000000000E+00 -0.18547135142E+04  0.23279855626E+04  0.14069664387E+04 0.  0.
        5    1    3    3  502    0  0.60714785772E+03 -0.35264118448E+03 -0.85557201016E+03  0.11068016447E+04  0.46999998093E+01 0. -1.
       -5    1    3    3    0  502 -0.60714785772E+03  0.35264118448E+03 -0.99914150409E+03  0.12211839179E+04  0.46999998093E+01 0.  1.
</event>
<event>
 5   0  0.2236184E-03  0.1406002E+04  0.7818609E-02  0.8949485E-01
        2   -1    0    0  501    0  0.00000000000E+00  0.00000000000E+00  0.85817847515E+03  0.85817847516E+03  0.25500000920E-02 0. -1.
       -2   -1    0    0    0  501  0.00000000000E+00  0.00000000000E+00 -0.57588319574E+03  0.57588319574E+03  0.25500000920E-02 0.  1.
    10030    2    1    2    0    0  0.00000000000E+00  0.00000000000E+00  0.28229527941E+03  0.14340616709E+04  0.14060022230E+04 0.  0.
        3    1    3    3  502    0  0.23811790839E+03 -0.35802895812E+03 -0.42612235003E+03  0.60536364323E+03  0.10100000352E+00 0.  1.
       -3    1    3    3    0  502 -0.23811790839E+03  0.35802895812E+03  0.70841762944E+03  0.82869802767E+03  0.10100000352E+00 0. -1.
</event>
<event>
 5   0  0.2236184E-03  0.1448752E+04  0.7818609E-02  0.8919266E-01
        2   -1    0    0  501    0  0.00000000000E+00  0.00000000000E+00  0.10456697397E+04  0.10456697397E+04  0.25500000920E-02 0.  1.
       -2   -1    0    0    0  501  0.00000000000E+00  0.00000000000E+00 -0.50180315579E+03  0.50180315580E+03  0.25500000920E-02 0. -1.
    10030    2    1    2    0    0  0.00000000000E+00  0.00000000000E+00  0.54386658394E+03  0.15474728955E+04  0.14487517045E+04 0.  0.
        3    1    3    3  502    0 -0.72341176780E+03  0.18493802482E+02  0.23725963422E+03  0.76155022864E+03  0.10100000352E+00 0.  1.
       -3    1    3    3    0  502  0.72341176780E+03 -0.18493802482E+02  0.30660694972E+03  0.78592266689E+03  0.10100000352E+00 0. -1.
</event>
<event>
 5   0  0.1238683E-03  0.1475998E+04  0.7818609E-02  0.8900572E-01
       -1   -1    0    0    0  501  0.00000000000E+00  0.00000000000E+00  0.39367864606E+03  0.39367864609E+03  0.50400001928E-02 0.  1.
        1   -1    0    0  501    0  0.00000000000E+00  0.00000000000E+00 -0.13834705945E+04  0.13834705945E+04  0.50400001928E-02 0. -1.
    10030    2    1    2    0    0  0.00000000000E+00  0.00000000000E+00 -0.98979194842E+03  0.17771492406E+04  0.14759984154E+04 0.  0.
        2    1    3    3  502    0 -0.18121946726E+02  0.54445149591E+03  0.10457047241E+03  0.55469885529E+03  0.25500000920E-02 0.  1.
       -2    1    3    3    0  502  0.18121946726E+02 -0.54445149591E+03 -0.10943624208E+04  0.12224503853E+04  0.25500000920E-02 0. -1.
</event>
<event>
 5   0  0.2195980E-03  0.1385291E+04  0.7818609E-02  0.8964535E-01
       -2   -1    0    0    0  501  0.00000000000E+00  0.00000000000E+00  0.32899430722E+03  0.32899430723E+03  0.25500000920E-02 0.  1.
        2   -1    0    0  501    0  0.00000000000E+00  0.00000000000E+00 -0.14582562040E+04  0.14582562040E+04  0.25500000920E-02 0. -1.
    10030    2    1    2    0    0  0.00000000000E+00  0.00000000000E+00 -0.11292618968E+04  0.17872505112E+04  0.13852912901E+04 0.  0.
        4    1    3    3  502    0 -0.96596205812E+01 -0.48631735146E+03  0.71562300261E+02  0.49165094358E+03  0.12699999809E+01 0.  1.
       -4    1    3    3    0  502  0.96596205812E+01  0.48631735146E+03 -0.12008241970E+04  0.12955995676E+04  0.12699999809E+01 0. -1.
</event>
<event>
 5   0  0.1210275E-03  0.1395506E+04  0.7818609E-02  0.8957078E-01
       -1   -1    0    0    0  501  0.00000000000E+00  0.00000000000E+00  0.85234727668E+03  0.85234727670E+03  0.50400001928E-02 0. -1.
        1   -1    0    0  501    0  0.00000000000E+00  0.00000000000E+00 -0.57119786684E+03  0.57119786687E+03  0.50400001928E-02 0.  1.
    10030    2    1    2    0    0  0.00000000000E+00  0.00000000000E+00  0.28114940984E+03  0.14235451436E+04  0.13955055661E+04 0.  0.
        1    1    3    3  502    0 -0.49840686020E+03 -0.98347445941E+02 -0.34734253379E+03  0.61540917626E+03  0.50400001928E-02 0.  1.
       -1    1    3    3    0  502  0.49840686020E+03  0.98347445941E+02  0.62849194362E+03  0.80813596730E+03  0.50400001928E-02 0. -1.
</event>
<event>
 5   0  0.2236184E-03  0.1366742E+04  0.7818609E-02  0.8978251E-01
       -2   -1    0    0    0  501  0.00000000000E+00  0.00000000000E+00  0.62159628385E+03  0.62159628385E+03  0.25500000920E-02 0. -1.
        2   -1    0    0  501    0  0.00000000000E+00  0.00000000000E+00 -0.75128464981E+03  0.75128464982E+03  0.25500000920E-02 0.  1.
    10030    2    1    2    0    0  0.00000000000E+00  0.00000000000E+00 -0.12968836596E+03  0.13728809337E+04  0.13667417407E+04 0.  0.
        3    1    3    3  502    0 -0.64887167948E+03 -0.21404709233E+03 -0.76944957016E+02  0.68758355912E+03  0.10100000352E+00 0.  1.
       -3    1    3    3    0  502  0.64887167948E+03  0.21404709233E+03 -0.52743408948E+02  0.68529737454E+03  0.10100000352E+00 0. -1.
</event>
<event>
 5   0  0.1210275E-03  0.1267849E+04  0.7818609E-02  0.9055457E-01
       -1   -1    0    0    0  501  0.00000000000E+00  0.00000000000E+00  0.19772142784E+03  0.19772142790E+03  0.50400001928E-02 0. -1.
        1   -1    0    0  501    0  0.00000000000E+00  0.00000000000E+00 -0.20324568121E+04  0.20324568121E+04  0.50400001928E-02 0.  1.
    10030    2    1    2    0    0  0.00000000000E+00  0.00000000000E+00 -0.18347353842E+04  0.22301782400E+04  0.12678489863E+04 0.  0.
        1    1    3    3  502    0  0.63386618313E+03  0.49324678662E+01 -0.92975547694E+03  0.11252803714E+04  0.50400001928E-02 0.  1.
       -1    1    3    3    0  502 -0.63386618313E+03 -0.49324678662E+01 -0.90497990731E+03  0.11048978686E+04  0.50400001928E-02 0. -1.
</event>
<event>
 5   0  0.2190704E-03  0.1391393E+04  0.7818609E-02  0.8960073E-01
       -2   -1    0    0    0  501  0.00000000000E+00  0.00000000000E+00  0.59913309955E+03  0.59913309955E+03  0.25500000920E-02 0.  1.
        2   -1    0    0  501    0  0.00000000000E+00  0.00000000000E+00 -0.80782289015E+03  0.80782289016E+03  0.25500000920E-02 0. -1.
    10030    2    1    2    0    0  0.00000000000E+00  0.00000000000E+00 -0.20868979061E+03  0.14069559897E+04  0.13913927297E+04 0.  0.
        5    1    3    3  502    0  0.33139923499E+03 -0.33140961405E+03 -0.62420980309E+03  0.78058808184E+03  0.46999998093E+01 0. -1.
       -5    1    3    3    0  502 -0.33139923499E+03  0.33140961405E+03  0.41552001248E+03  0.62636790787E+03  0.46999998093E+01 0.  1.
</event>
<event>
 5   0  0.8293000E-04  0.1408440E+04  0.7818609E-02  0.8947732E-01
       -3   -1    0    0    0  501  0.00000000000E+00  0.00000000000E+00  0.90348250635E+03  0.90348251199E+03  0.10100000352E+00 0. -1.
        3   -1    0    0  501    0  0.00000000000E+00  0.00000000000E+00 -0.54890462076E+03  0.54890463005E+03  0.10100000352E+00 0.  1.
    10030    2    1    2    0    0  0.00000000000E+00  0.00000000000E+00  0.35457788559E+03  0.14523871420E+04  0.14084398934E+04 0.  0.
        4    1    3    3  502    0 -0.20391385471E+03 -0.63098636219E+03 -0.67172399284E+02  0.66651211057E+03  0.12699999809E+01 0.  1.
       -4    1    3    3    0  502  0.20391385471E+03  0.63098636219E+03  0.42175028487E+03  0.78587503148E+03  0.12699999809E+01 0. -1.
</event>
<event>
 5   0  0.1225690E-03  0.1394039E+04  0.7818609E-02  0.8958144E-01
       -1   -1    0    0    0  501  0.00000000000E+00  0.00000000000E+00  0.61592649006E+03  0.61592649008E+03  0.50400001928E-02 0.  1.
        1   -1    0    0  501    0  0.00000000000E+00  0.00000000000E+00 -0.78878965460E+03  0.78878965461E+03  0.50400001928E-02 0. -1.
    10030    2    1    2    0    0  0.00000000000E+00  0.00000000000E+00 -0.17286316453E+03  0.14047161447E+04  0.13940393730E+04 0.  0.
        4    1    3    3  502    0  0.13103529218E+03  0.49727670051E+03  0.38768285723E+03  0.64401395587E+03  0.12699999809E+01 0.  1.
       -4    1    3    3    0  502 -0.13103529218E+03 -0.49727670051E+03 -0.56054602177E+03  0.76070218882E+03  0.12699999809E+01 0. -1.
</event>
<event>
 5   0  0.2172901E-03  0.1375643E+04  0.7818609E-02  0.8971641E-01
        2   -1    0    0  501    0  0.00000000000E+00  0.00000000000E+00  0.73845502980E+03  0.73845502980E+03  0.25500000920E-02 0. -1.
       -2   -1    0    0    0  501  0.00000000000E+00  0.00000000000E+00 -0.64065930803E+03  0.64065930804E+03  0.25500000920E-02 0.  1.
    10030    2    1    2    0    0  0.00000000000E+00  0.00000000000E+00  0.97795721766E+02  0.13791143378E+04  0.13756425239E+04 0.  0.
        2    1    3    3  502    0  0.60042736411E+03 -0.29096813948E+03  0.21642018575E+03  0.70143650787E+03  0.25500000920E-02 0. -1.
       -2    1    3    3    0  502 -0.60042736411E+03  0.29096813948E+03 -0.11862446398E+03  0.67767782997E+03  0.25500000920E-02 0.  1.
</event>
<event>
 5   0  0.2236184E-03  0.1380235E+04  0.7818609E-02  0.8968251E-01
       -2   -1    0    0    0  501  0.00000000000E+00  0.00000000000E+00  0.35415484671E+03  0.35415484671E+03  0.25500000920E-02 0.  1.
        2   -1    0    0  501    0  0.00000000000E+00  0.00000000000E+00 -0.13447848569E+04  0.13447848569E+04  0.25500000920E-02 0. -1.
    10030    2    1    2    0    0  0.00000000000E+00  0.00000000000E+00 -0.99063001015E+03  0.16989397036E+04  0.13802348711E+04 0.  0.
        3    1    3    3  502    0 -0.49871246512E+03 -0.40227126105E+03 -0.17974710063E+03  0.66546624311E+03  0.10100000352E+00 0.  1.
       -3    1    3    3    0  502  0.49871246512E+03  0.40227126105E+03 -0.81088290952E+03  0.10334734605E+04  0.10100000352E+00 0. -1.
</event>
<event>
 5   0  0.1199720E-03  0.1453489E+04  0.7818609E-02  0.8915985E-01
       -1   -1    0    0    0  501  0.00000000000E+00  0.00000000000E+00  0.37327484739E+03  0.37327484743E+03  0.50400001928E-02 0. -1.
        1   -1    0    0  501    0  0.00000000000E+00  0.00000000000E+00 -0.14149288704E+04  0.14149288704E+04  0.50400001928E-02 0.  1.
    10030    2    1    2    0    0  0.00000000000E+00  0.00000000000E+00 -0.10416540230E+04  0.17882037178E+04  0.14534887109E+04 0.  0.
        5    1    3    3  502    0 -0.14090343389E+03 -0.71080215263E+03 -0.45297386878E+03  0.85457644109E+03  0.46999998093E+01 0.  1.
       -5    1    3    3    0  502  0.14090343389E+03  0.71080215263E+03 -0.58868015418E+03  0.93362727670E+03  0.46999998093E+01 0. -1.
</event>
<event>
 5   0  0.2190704E-03  0.1391289E+04  0.7818609E-02  0.8960149E-01
       -2   -1    0    0    0  501  0.00000000000E+00  0.00000000000E+00  0.57326152257E+03  0.57326152257E+03  0.25500000920E-02 0.  1.
        2   -1    0    0  501    0  0.00000000000E+00  0.00000000000E+00 -0.84415403050E+03  0.84415403050E+03  0.25500000920E-02 0. -1.
    10030    2    1    2    0    0  0.00000000000E+00  0.00000000000E+00 -0.27089250793E+03  0.14174155531E+04  0.13912886470E+04 0.  0.
        5    1    3    3  502    0 -0.10833408012E+03 -0.32169534559E+03 -0.75403449426E+03  0.82693063604E+03  0.46999998093E+01 0. -1.
       -5    1    3    3    0  502  0.10833408012E+03  0.32169534559E+03  0.48314198633E+03  0.59048491703E+03  0.46999998093E+01 0.  1.
</event>
<event>
 5   0  0.2195980E-03  0.1365997E+04  0.7818609E-02  0.8978806E-01
       -2   -1    0    0    0  501  0.00000000000E+00  0.00000000000E+00  0.55345471706E+03  0.55345471707E+03  0.25500000920E-02 0.  1.
        2   -1    0    0  501    0  0.00000000000E+00  0.00000000000E+00 -0.84286410633E+03  0.84286410633E+03  0.25500000920E-02 0. -1.
    10030    2    1    2    0    0  0.00000000000E+00  0.00000000000E+00 -0.28940938927E+03  0.13963188234E+04  0.13659972408E+04 0.  0.
        4    1    3    3  502    0 -0.28504173609E+02  0.65161218535E+03 -0.35187204313E+03  0.74109815520E+03  0.12699999809E+01 0. -1.
       -4    1    3    3    0  502  0.28504173609E+02 -0.65161218535E+03  0.62462653864E+02  0.65522066820E+03  0.12699999809E+01 0.  1.
</event>
<event>
 5   0  0.2172901E-03  0.1414193E+04  0.7818609E-02  0.8943608E-01
       -2   -1    0    0    0  501  0.00000000000E+00  0.00000000000E+00  0.84140866396E+03  0.84140866397E+03  0.25500000920E-02 0. -1.
        2   -1    0    0  501    0  0.00000000000E+00  0.00000000000E+00 -0.59422456845E+03  0.59422456845E+03  0.25500000920E-02 0.  1.
    10030    2    1    2    0    0  0.00000000000E+00  0.00000000000E+00  0.24718409552E+03  0.14356332324E+04  0.14141933393E+04 0.  0.
        2    1    3    3  502    0 -0.65248700004E+02  0.73369815430E+02 -0.58727055890E+03  0.59542189415E+03  0.25500000920E-02 0.  1.
       -2    1    3    3    0  502  0.65248700004E+02 -0.73369815430E+02  0.83445465442E+03  0.84021133827E+03  0.25500000920E-02 0. -1.
</event>
<event>
 5   0  0.1238683E-03  0.1380973E+04  0.7818609E-02  0.8967708E-01
        1   -1    0    0  501    0  0.00000000000E+00  0.00000000000E+00  0.13777062982E+04  0.13777062982E+04  0.50400001928E-02 0. -1.
       -1   -1    0    0    0  501  0.00000000000E+00  0.00000000000E+00 -0.34606190061E+03  0.34606190064E+03  0.50400001928E-02 0.  1.
    10030    2    1    2    0    0  0.00000000000E+00  0.00000000000E+00  0.10316443976E+04  0.17237681988E+04  0.13809730773E+04 0.  0.
        2    1    3    3  502    0  0.24272736082E+03 -0.52872491573E+01 -0.29102625684E+03  0.37899974785E+03  0.25500000920E-02 0.  1.
       -2    1    3    3    0  502 -0.24272736082E+03  0.52872491573E+01  0.13226706544E+04  0.13447684510E+04  0.25500000920E-02 0. -1.
</event>
<event>
 5   0  0.2172901E-03  0.1328504E+04  0.7818609E-02  0.9007262E-01
       -2   -1    0    0    0  501  0.00000000000E+00  0.00000000000E+00  0.43567214694E+03  0.43567214695E+03  0.25500000920E-02 0. -1.
        2   -1    0    0  501    0  0.00000000000E+00  0.00000000000E+00 -0.10127588647E+04  0.10127588647E+04  0.25500000920E-02 0.  1.
    10030    2    1    2    0    0  0.00000000000E+00  0.00000000000E+00 -0.57708671773E+03  0.14484310116E+04  0.13285041647E+04 0.  0.
        2    1    3    3  502    0  0.17653014416E+03  0.36341495557E+03  0.28630771274E+03  0.49518221707E+03  0.25500000920E-02 0. -1.
       -2    1    3    3    0  502 -0.17653014416E+03 -0.36341495557E+03 -0.86339443046E+03  0.95324879454E+03  0.25500000920E-02 0.  1.
</event>
<event>
 5   0  0.2190704E-03  0.1545392E+04  0.7818609E-02  0.8854816E-01
       -2   -1    0    0    0  501  0.00000000000E+00  0.00000000000E+00  0.10963073841E+04  0.10963073841E+04  0.25500000920E-02 0. -1.
        2   -1    0    0  501    0  0.00000000000E+00  0.00000000000E+00 -0.54460936066E+03  0.54460936066E+03  0.25500000920E-02 0.  1.
    10030    2    1    2    0    0  0.00000000000E+00  0.00000000000E+00  0.55169802341E+03  0.16409167447E+04  0.15453922007E+04 0.  0.
        5    1    3    3  502    0  0.51802535080E+03 -0.16759166450E+03 -0.30631087573E+03  0.62472847916E+03  0.46999998093E+01 0.  1.
       -5    1    3    3    0  502 -0.51802535080E+03  0.16759166450E+03  0.85800889914E+03  0.10161882656E+04  0.46999998093E+01 0. -1.
</event>
<event>
 5   0  0.2195980E-03  0.1301180E+04  0.7818609E-02  0.9028630E-01
        2   -1    0    0  501    0  0.00000000000E+00  0.00000000000E+00  0.80268323392E+03  0.80268323392E+03  0.25500000920E-02 0.  1.
       -2   -1    0    0    0  501  0.00000000000E+00  0.00000000000E+00 -0.52731585852E+03  0.52731585853E+03  0.25500000920E-02 0. -1.
    10030    2    1    2    0    0  0.00000000000E+00  0.00000000000E+00  0.27536737539E+03  0.13299990925E+04  0.13011803851E+04 0.  0.
        4    1    3    3  502    0  0.41343048465E+02  0.10605806635E+03 -0.51705658345E+03  0.52943997250E+03  0.12699999809E+01 0. -1.
       -4    1    3    3    0  502 -0.41343048465E+02 -0.10605806635E+03  0.79242395884E+03  0.80055911995E+03  0.12699999809E+01 0.  1.
</event>
<event>
 5   0  0.2172901E-03  0.1413197E+04  0.7818609E-02  0.8944321E-01
       -2   -1    0    0    0  501  0.00000000000E+00  0.00000000000E+00  0.15918834355E+04  0.15918834355E+04  0.25500000920E-02 0.  1.
        2   -1    0    0  501    0  0.00000000000E+00  0.00000000000E+00 -0.31364202375E+03  0.31364202376E+03  0.25500000920E-02 0. -1.
    10030    2    1    2    0    0  0.00000000000E+00  0.00000000000E+00  0.12782414117E+04  0.19055254592E+04  0.14131971445E+04 0.  0.
        2    1    3    3  502    0 -0.29017190990E+03  0.28161834285E+03  0.14204513075E+04  0.14768854205E+04  0.25500000920E-02 0.  1.
       -2    1    3    3    0  502  0.29017190990E+03 -0.28161834285E+03 -0.14220989579E+03  0.42864003872E+03  0.25500000920E-02 0. -1.
</event>
<event>
 5   0  0.2190704E-03  0.1538601E+04  0.7818609E-02  0.8859182E-01
        2   -1    0    0  501    0  0.00000000000E+00  0.00000000000E+00  0.18051048084E+04  0.18051048084E+04  0.25500000920E-02 0. -1.
       -2   -1    0    0    0  501  0.00000000000E+00  0.00000000000E+00 -0.32786103576E+03  0.32786103577E+03  0.25500000920E-02 0.  1.
    10030    2    1    2    0    0  0.00000000000E+00  0.00000000000E+00  0.14772437727E+04  0.21329658442E+04  0.15386013547E+04 0.  0.
        5    1    3    3  502    0 -0.90026085026E+02  0.30345506305E+03  0.17106278443E+04  0.17396722056E+04  0.46999998093E+01 0. -1.
       -5    1    3    3    0  502  0.90026085026E+02 -0.30345506305E+03 -0.23338407163E+03  0.39329363860E+03  0.46999998093E+01 0.  1.
</event>
<event>
 5   0  0.1210275E-03  0.1411156E+04  0.7818609E-02  0.8945783E-01
        1   -1    0    0  501    0  0.00000000000E+00  0.00000000000E+00  0.54671814491E+03  0.54671814493E+03  0.50400001928E-02 0.  1.
       -1   -1    0    0    0  501  0.00000000000E+00  0.00000000000E+00 -0.91059733475E+03  0.91059733476E+03  0.50400001928E-02 0. -1.
    10030    2    1    2    0    0  0.00000000000E+00  0.00000000000E+00 -0.36387918984E+03  0.14573154797E+04  0.14111556762E+04 0.  0.
        1    1    3    3  502    0 -0.58358585965E+03  0.47322304523E+01  0.22757312822E+03  0.62640592135E+03  0.50400001928E-02 0.  1.
       -1    1    3    3    0  502  0.58358585965E+03 -0.47322304523E+01 -0.59145231806E+03  0.83090955835E+03  0.50400001928E-02 0. -1.
</event>
<event>
 5   0  0.2236184E-03  0.1393806E+04  0.7818609E-02  0.8958314E-01
        2   -1    0    0  501    0  0.00000000000E+00  0.00000000000E+00  0.24746236341E+04  0.24746236341E+04  0.25500000920E-02 0.  1.
       -2   -1    0    0    0  501  0.00000000000E+00  0.00000000000E+00 -0.19626180742E+03  0.19626180744E+03  0.25500000920E-02 0. -1.
    10030    2    1    2    0    0  0.00000000000E+00  0.00000000000E+00  0.22783618267E+04  0.26708854415E+04  0.13938064531E+04 0.  0.
        3    1    3    3  502    0  0.33475082431E+02  0.27732966723E+03 -0.84285721131E+02  0.29178145667E+03  0.10100000352E+00 0. -1.
       -3    1    3    3    0  502 -0.33475082431E+02 -0.27732966723E+03  0.23626475478E+04  0.23791039849E+04  0.10100000352E+00 0.  1.
</event>
<event>
 5   0  0.1210275E-03  0.1435870E+04  0.7818609E-02  0.8928256E-01
        1   -1    0    0  501    0  0.00000000000E+00  0.00000000000E+00  0.72174736974E+03  0.72174736976E+03  0.50400001928E-02 0. -1.
       -1   -1    0    0    0  501  0.00000000000E+00  0.00000000000E+00 -0.71414287502E+03  0.71414287503E+03  0.50400001928E-02 0.  1.
    10030    2    1    2    0    0  0.00000000000E+00  0.00000000000E+00  0.76044947256E+01  0.14358902448E+04  0.14358701079E+04 0.  0.
        1    1    3    3  502    0  0.38680908735E+03  0.59767110005E+03  0.96532873120E+02  0.71843622508E+03  0.50400001928E-02 0. -1.
       -1    1    3    3    0  502 -0.38680908735E+03 -0.59767110005E+03 -0.88928378395E+02  0.71745401971E+03  0.50400001928E-02 0.  1.
</event>
<event>
 5   0  0.2172901E-03  0.1412776E+04  0.7818609E-02  0.8944622E-01
       -2   -1    0    0    0  501  0.00000000000E+00  0.00000000000E+00  0.26320226667E+03  0.26320226668E+03  0.25500000920E-02 0.  1.
        2   -1    0    0  501    0  0.00000000000E+00  0.00000000000E+00 -0.18958194285E+04  0.18958194285E+04  0.25500000920E-02 0. -1.
    10030    2    1    2    0    0  0.00000000000E+00  0.00000000000E+00 -0.16326171618E+04  0.21590216952E+04  0.14127759494E+04 0.  0.
        2    1    3    3  502    0  0.61398862136E+03  0.31694725317E+03 -0.59198708406E+03  0.90988257273E+03  0.25500000920E-02 0.  1.
       -2    1    3    3    0  502 -0.61398862136E+03 -0.31694725317E+03 -0.10406300777E+04  0.12491391224E+04  0.25500000920E-02 0. -1.
</event>
<event>
 5   0  0.2190704E-03  0.1459734E+04  0.7818609E-02  0.8911680E-01
       -2   -1    0    0    0  501  0.00000000000E+00  0.00000000000E+00  0.35832836585E+03  0.35832836586E+03  0.25500000920E-02 0.  1.
        2   -1    0    0  501    0  0.00000000000E+00  0.00000000000E+00 -0.14866423560E+04  0.14866423560E+04  0.25500000920E-02 0. -1.
    10030    2    1    2    0    0  0.00000000000E+00  0.00000000000E+00 -0.11283139902E+04  0.18449707219E+04  0.14597343951E+04 0.  0.
        5    1    3    3  502    0  0.46475714793E+03 -0.56272823987E+03 -0.55826149524E+03  0.91887989724E+03  0.46999998093E+01 0. -1.
       -5    1    3    3    0  502 -0.46475714793E+03  0.56272823987E+03 -0.57005249493E+03  0.92609082463E+03  0.46999998093E+01 0.  1.
</event>
<event>
 5   0  0.1210275E-03  0.1395205E+04  0.7818609E-02  0.8957297E-01
        1   -1    0    0  501    0  0.00000000000E+00  0.00000000000E+00  0.10387792900E+04  0.10387792900E+04  0.50400001928E-02 0. -1.
       -1   -1    0    0    0  501  0.00000000000E+00  0.00000000000E+00 -0.46848197972E+03  0.46848197975E+03  0.50400001928E-02 0.  1.
    10030    2    1    2    0    0  0.00000000000E+00  0.00000000000E+00  0.57029731029E+03  0.15072612698E+04  0.13952051868E+04 0.  0.
        1    1    3    3  502    0 -0.27584667793E+03 -0.18337558704E+03 -0.37810798474E+03  0.50267648025E+03  0.50400001928E-02 0.  1.
       -1    1    3    3    0  502  0.27584667793E+03  0.18337558704E+03  0.94840529503E+03  0.10045847895E+04  0.50400001928E-02 0. -1.
</event>
<event>
 5   0  0.1225690E-03  0.1355295E+04  0.7818609E-02  0.8986830E-01
       -1   -1    0    0    0  501  0.00000000000E+00  0.00000000000E+00  0.12683979477E+04  0.12683979477E+04  0.50400001928E-02 0.  1.
        1   -1    0    0  501    0  0.00000000000E+00  0.00000000000E+00 -0.36203625652E+03  0.36203625656E+03  0.50400001928E-02 0. -1.
    10030    2    1    2    0    0  0.00000000000E+00  0.00000000000E+00  0.90636169114E+03  0.16304342042E+04  0.13552948680E+04 0.  0.
        4    1    3    3  502    0  0.63389893894E+03  0.22603449901E+03  0.35780878410E+03  0.76219957911E+03  0.12699999809E+01 0.  1.
       -4    1    3    3    0  502 -0.63389893894E+03 -0.22603449901E+03  0.54855290704E+03  0.86823462512E+03  0.12699999809E+01 0. -1.
</event>
<event>
 5   0  0.1175374E-03  0.1070115E+04  0.7818609E-02  0.9234820E-01
        1   -1    0    0  501    0  0.00000000000E+00  0.00000000000E+00  0.68194761048E+03  0.68194761050E+03  0.50400001928E-02 0.  1.
       -1   -1    0    0    0  501  0.00000000000E+00  0.00000000000E+00 -0.41980709810E+03  0.41980709813E+03  0.50400001928E-02 0. -1.
    10030    2    1    2    0    0  0.00000000000E+00  0.00000000000E+00  0.26214051238E+03  0.11017547086E+04  0.10701148489E+04 0.  0.
        3    1    3    3  502    0 -0.28979783315E+01 -0.46273028141E+03  0.40763636046E+03  0.61668073116E+03  0.10100000352E+00 0.  1.
       -3    1    3    3    0  502  0.28979783315E+01  0.46273028141E+03 -0.14549584808E+03  0.48507397747E+03  0.10100000352E+00 0. -1.
</event>
<event>
 5   0  0.8293000E-04  0.1401571E+04  0.7818609E-02  0.8952682E-01
       -3   -1    0    0    0  501  0.00000000000E+00  0.00000000000E+00  0.50793027372E+03  0.50793028376E+03  0.10100000352E+00 0.  1.
        3   -1    0    0  501    0  0.00000000000E+00  0.00000000000E+00 -0.96686553576E+03  0.96686554103E+03  0.10100000352E+00 0. -1.
    10030    2    1    2    0    0  0.00000000000E+00  0.00000000000E+00 -0.45893526203E+03  0.14747958248E+04  0.14015709579E+04 0.  0.
        4    1    3    3  502    0  0.34563316272E+03 -0.59976693630E+03 -0.34433119944E+03  0.77314180385E+03  0.12699999809E+01 0. -1.
       -4    1    3    3    0  502 -0.34563316272E+03  0.59976693630E+03 -0.11460406259E+03  0.70165402095E+03  0.12699999809E+01 0.  1.
</event>
<event>
 5   0  0.1199720E-03  0.1464463E+04  0.7818609E-02  0.8908435E-01
       -1   -1    0    0    0  501  0.00000000000E+00  0.00000000000E+00  0.42872217011E+03  0.42872217014E+03  0.50400001928E-02 0. -1.
        1   -1    0    0  501    0  0.00000000000E+00  0.00000000000E+00 -0.12506071748E+04  0.12506071748E+04  0.50400001928E-02 0.  1.
    10030    2    1    2    0    0  0.00000000000E+00  0.00000000000E+00 -0.82188500468E+03  0.16793293449E+04  0.14644630715E+04 0.  0.
        5    1    3    3  502    0 -0.45420110834E+03 -0.12968374933E+03 -0.10525162062E+04  0.11536589513E+04  0.46999998093E+01 0.  1.
       -5    1    3    3    0  502  0.45420110834E+03  0.12968374933E+03  0.23063120149E+03  0.52567039364E+03  0.46999998093E+01 0. -1.
</event>
<event>
 5   0  0.1175374E-03  0.1380652E+04  0.7818609E-02  0.8967944E-01
       -1   -1    0    0    0  501  0.00000000000E+00  0.00000000000E+00  0.10602681405E+04  0.10602681405E+04  0.50400001928E-02 0.  1.
        1   -1    0    0  501    0  0.00000000000E+00  0.00000000000E+00 -0.44946170775E+03  0.44946170778E+03  0.50400001928E-02 0. -1.
    10030    2    1    2    0    0  0.00000000000E+00  0.00000000000E+00  0.61080643271E+03  0.15097298483E+04  0.13806519172E+04 0.  0.
        3    1    3    3  502    0 -0.47763249700E+03  0.18204953895E+03 -0.20195175810E+03  0.54959927185E+03  0.10100000352E+00 0. -1.
       -3    1    3    3    0  502  0.47763249700E+03 -0.18204953895E+03  0.81275819082E+03  0.96013057641E+03  0.10100000352E+00 0.  1.
</event>
<event>
 5   0  0.2190704E-03  0.1380867E+04  0.7818609E-02  0.8967786E-01
       -2   -1    0    0    0  501  0.00000000000E+00  0.00000000000E+00  0.26938093412E+03  0.26938093413E+03  0.25500000920E-02 0.  1.
        2   -1    0    0  501    0  0.00000000000E+00  0.00000000000E+00 -0.17696060573E+04  0.17696060573E+04  0.25500000920E-02 0. -1.
    10030    2    1    2    0    0  0.00000000000E+00  0.00000000000E+00 -0.15002251232E+04  0.20389869915E+04  0.13808665870E+04 0.  0.
        5    1    3    3  502    0 -0.10991062005E+03 -0.60946633160E+03 -0.29945570951E+03  0.68791377782E+03  0.46999998093E+01 0.  1.
       -5    1    3    3    0  502  0.10991062005E+03  0.60946633160E+03 -0.12007694137E+04  0.13510732136E+04  0.46999998093E+01 0. -1.
</event>
<event>
 5   0  0.1199720E-03  0.1400337E+04  0.7818609E-02  0.8953575E-01
        1   -1    0    0  501    0  0.00000000000E+00  0.00000000000E+00  0.45045270903E+03  0.45045270905E+03  0.50400001928E-02 0. -1.
       -1   -1    0    0    0  501  0.00000000000E+00  0.00000000000E+00 -0.10883179837E+04  0.10883179837E+04  0.50400001928E-02 0.  1.
    10030    2    1    2    0    0  0.00000000000E+00  0.00000000000E+00 -0.63786527463E+03  0.15387706927E+04  0.14003367938E+04 0.  0.
        5    1    3    3  502    0 -0.54859341468E+03 -0.32692425727E+03 -0.63432484138E+03  0.90012460193E+03  0.46999998093E+01 0.  1.
       -5    1    3    3    0  502  0.54859341468E+03  0.32692425727E+03 -0.35404332556E+01  0.63864609079E+03  0.46999998093E+01 0. -1.
</event>
<event>
 5   0  0.2190704E-03  0.1405532E+04  0.7818609E-02  0.8949824E-01
        2   -1    0    0  501    0  0.00000000000E+00  0.00000000000E+00  0.53828416112E+03  0.53828416112E+03  0.25500000920E-02 0.  1.
       -2   -1    0    0    0  501  0.00000000000E+00  0.00000000000E+00 -0.91750770410E+03  0.91750770410E+03  0.25500000920E-02 0. -1.
    10030    2    1    2    0    0  0.00000000000E+00  0.00000000000E+00 -0.37922354298E+03  0.14557918652E+04  0.14055317354E+04 0.  0.
        5    1    3    3  502    0 -0.41584918677E+03  0.56526915894E+03 -0.15088482554E+03  0.71780783554E+03  0.46999998093E+01 0.  1.
       -5    1    3    3    0  502  0.41584918677E+03 -0.56526915894E+03 -0.22833871745E+03  0.73798402969E+03  0.46999998093E+01 0. -1.
</event>
<event>
 5   0  0.1225690E-03  0.1500638E+04  0.7818609E-02  0.8884029E-01
       -1   -1    0    0    0  501  0.00000000000E+00  0.00000000000E+00  0.31922539553E+03  0.31922539557E+03  0.50400001928E-02 0. -1.
        1   -1    0    0  501    0  0.00000000000E+00  0.00000000000E+00 -0.17635768548E+04  0.17635768548E+04  0.50400001928E-02 0.  1.
    10030    2    1    2    0    0  0.00000000000E+00  0.00000000000E+00 -0.14443514593E+04  0.20828022504E+04  0.15006378898E+04 0.  0.
        4    1    3    3  502    0  0.34383843957E+03  0.66279350853E+03 -0.61964805741E+03  0.97030172391E+03  0.12699999809E+01 0. -1.
       -4    1    3    3    0  502 -0.34383843957E+03 -0.66279350853E+03 -0.82470340190E+03  0.11125005265E+04  0.12699999809E+01 0.  1.
</event>
<event>
 5   0  0.1199720E-03  0.1442725E+04  0.7818609E-02  0.8923459E-01
        1   -1    0    0  501    0  0.00000000000E+00  0.00000000000E+00  0.20451752455E+04  0.20451752456E+04  0.50400001928E-02 0.  1.
       -1   -1    0    0    0  501  0.00000000000E+00  0.00000000000E+00 -0.25443499715E+03  0.25443499720E+03  0.50400001928E-02 0. -1.
    10030    2    1    2    0    0  0.00000000000E+00  0.00000000000E+00  0.17907402484E+04  0.22996102428E+04  0.14427254179E+04 0.  0.
        5    1    3    3  502    0  0.34253006418E+03 -0.45600705615E+03  0.19137622378E+03  0.60159473830E+03  0.46999998093E+01 0. -1.
       -5    1    3    3    0  502 -0.34253006418E+03  0.45600705615E+03  0.15993640246E+04  0.16980155045E+04  0.46999998093E+01 0.  1.
</event>
<event>
 5   0  0.2236184E-03  0.1490143E+04  0.7818609E-02  0.8891034E-01
        2   -1    0    0  501    0  0.00000000000E+00  0.00000000000E+00  0.18671169937E+04  0.18671169937E+04  0.25500000920E-02 0.  1.
       -2   -1    0    0    0  501  0.00000000000E+00  0.00000000000E+00 -0.29732011582E+03  0.29732011583E+03  0.25500000920E-02 0. -1.
    10030    2    1    2    0    0  0.00000000000E+00  0.00000000000E+00  0.15697968779E+04  0.21644371096E+04  0.14901428668E+04 0.  0.
        3    1    3    3  502    0  0.21030417129E+03 -0.43804723813E+03  0.16052968217E+04  0.16772272128E+04  0.10100000352E+00 0.  1.
       -3    1    3    3    0  502 -0.21030417129E+03  0.43804723813E+03 -0.35499943821E+02  0.48720989677E+03  0.10100000352E+00 0. -1.
</event>
<event>
 5   0  0.2190704E-03  0.1403796E+04  0.7818609E-02  0.8951075E-01
        2   -1    0    0  501    0  0.00000000000E+00  0.00000000000E+00  0.78798765686E+03  0.78798765687E+03  0.25500000920E-02 0.  1.
       -2   -1    0    0    0  501  0.00000000000E+00  0.00000000000E+00 -0.62521404896E+03  0.62521404897E+03  0.25500000920E-02 0. -1.
    10030    2    1    2    0    0  0.00000000000E+00  0.00000000000E+00  0.16277360790E+03  0.14132017058E+04  0.14037962152E+04 0.  0.
        5    1    3    3  502    0  0.25550759337E+03 -0.50015491580E+03  0.50515825104E+03  0.75541115868E+03  0.46999998093E+01 0.  1.
       -5    1    3    3    0  502 -0.25550759337E+03  0.50015491580E+03 -0.34238464314E+03  0.65779054715E+03  0.46999998093E+01 0. -1.
</event>
<event>
 5   0  0.8293000E-04  0.1398152E+04  0.7818609E-02  0.8955157E-01
       -3   -1    0    0    0  501  0.00000000000E+00  0.00000000000E+00  0.84686278356E+03  0.84686278958E+03  0.10100000352E+00 0.  1.
        3   -1    0    0  501    0  0.00000000000E+00  0.00000000000E+00 -0.57707996079E+03  0.57707996963E+03  0.10100000352E+00 0. -1.
    10030    2    1    2    0    0  0.00000000000E+00  0.00000000000E+00  0.26978282277E+03  0.14239427592E+04  0.13981524273E+04 0.  0.
        2    1    3    3  502    0  0.58128920415E+03 -0.27252388149E+03 -0.14687258303E+03  0.65858785328E+03  0.25500000920E-02 0. -1.
       -2    1    3    3    0  502 -0.58128920415E+03  0.27252388149E+03  0.41665540580E+03  0.76535490593E+03  0.25500000920E-02 0.  1.
</event>
<event>
 5   0  0.2195980E-03  0.9112323E+03  0.7818609E-02  0.9411648E-01
        2   -1    0    0  501    0  0.00000000000E+00  0.00000000000E+00  0.17040846635E+04  0.17040846635E+04  0.25500000920E-02 0.  1.
       -2   -1    0    0    0  501  0.00000000000E+00  0.00000000000E+00 -0.12181676908E+03  0.12181676911E+03  0.25500000920E-02 0. -1.
    10030    2    1    2    0    0  0.00000000000E+00  0.00000000000E+00  0.15822678944E+04  0.18259014326E+04  0.91123232599E+03 0.  0.
        4    1    3    3  502    0  0.47773371542E+02  0.28976501456E+03  0.93146884944E+02  0.30809740955E+03  0.12699999809E+01 0. -1.
       -4    1    3    3    0  502 -0.47773371542E+02 -0.28976501456E+03  0.14891210095E+04  0.15178040231E+04  0.12699999809E+01 0.  1.
</event>
<event>
 5   0  0.1210275E-03  0.1420908E+04  0.7818609E-02  0.8938821E-01
        1   -1    0    0  501    0  0.00000000000E+00  0.00000000000E+00  0.44411906101E+03  0.44411906104E+03  0.50400001928E-02 0.  1.
       -1   -1    0    0    0  501  0.00000000000E+00  0.00000000000E+00 -0.11365088143E+04  0.11365088143E+04  0.50400001928E-02 0. -1.
    10030    2    1    2    0    0  0.00000000000E+00  0.00000000000E+00 -0.69238975327E+03  0.15806278753E+04  0.14209084805E+04 0.  0.
        1    1    3    3  502    0 -0.45649566931E+03 -0.46164451222E+03 -0.25248191839E+02  0.64972411297E+03  0.50400001928E-02 0. -1.
       -1    1    3    3    0  502  0.45649566931E+03  0.46164451222E+03 -0.66714156143E+03  0.93090376236E+03  0.50400001928E-02 0.  1.
</event>
<event>
 5   0  0.1238683E-03  0.1360444E+04  0.7818609E-02  0.8982960E-01
        1   -1    0    0  501    0  0.00000000000E+00  0.00000000000E+00  0.71171328574E+03  0.71171328576E+03  0.50400001928E-02 0. -1.
       -1   -1    0    0    0  501  0.00000000000E+00  0.00000000000E+00 -0.65012397415E+03  0.65012397417E+03  0.50400001928E-02 0.  1.
    10030    2    1    2    0    0  0.00000000000E+00  0.00000000000E+00  0.61589311593E+02  0.13618372599E+04  0.13604438538E+04 0.  0.
        2    1    3    3  502    0 -0.25137865245E+03  0.55114322233E+03 -0.27896014298E+03  0.66690991881E+03  0.25500000920E-02 0.  1.
       -2    1    3    3    0  502  0.25137865245E+03 -0.55114322233E+03  0.34054945457E+03  0.69492734113E+03  0.25500000920E-02 0. -1.
</event>
<event>
 5   0  0.1225690E-03  0.1404159E+04  0.7818609E-02  0.8950813E-01
       -1   -1    0    0    0  501  0.00000000000E+00  0.00000000000E+00  0.74139883365E+03  0.74139883366E+03  0.50400001928E-02 0. -1.
        1   -1    0    0  501    0  0.00000000000E+00  0.00000000000E+00 -0.66484574681E+03  0.66484574683E+03  0.50400001928E-02 0.  1.
    10030    2    1    2    0    0  0.00000000000E+00  0.00000000000E+00  0.76553086839E+02  0.14062445805E+04  0.14041593375E+04 0.  0.
        4    1    3    3  502    0  0.22021598840E+03  0.85387613762E+02  0.70041504714E+03  0.73916775991E+03  0.12699999809E+01 0. -1.
       -4    1    3    3    0  502 -0.22021598840E+03 -0.85387613762E+02 -0.62386196030E+03  0.66707682057E+03  0.12699999809E+01 0.  1.
</event>
<event>
 5   0  0.1225690E-03  0.1387008E+04  0.7818609E-02  0.8963277E-01
        1   -1    0    0  501    0  0.00000000000E+00  0.00000000000E+00  0.10731066062E+04  0.10731066062E+04  0.50400001928E-02 0. -1.
       -1   -1    0    0    0  501  0.00000000000E+00  0.00000000000E+00 -0.44818250902E+03  0.44818250904E+03  0.50400001928E-02 0.  1.
    10030    2    1    2    0    0  0.00000000000E+00  0.00000000000E+00  0.62492409716E+03  0.15212891152E+04  0.13870077307E+04 0.  0.
        4    1    3    3  502    0  0.20262878604E+03  0.60734777614E+03  0.60475056363E+03  0.88071255426E+03  0.12699999809E+01 0.  1.
       -4    1    3    3    0  502 -0.20262878604E+03 -0.60734777614E+03  0.20173533527E+02  0.64057656097E+03  0.12699999809E+01 0. -1.
</event>
<event>
 5   0  0.1210275E-03  0.1380639E+04  0.7818609E-02  0.8967953E-01
        1   -1    0    0  501    0  0.00000000000E+00  0.00000000000E+00  0.62390534894E+03  0.62390534896E+03  0.50400001928E-02 0.  1.
       -1   -1    0    0    0  501  0.00000000000E+00  0.00000000000E+00 -0.76380348427E+03  0.76380348428E+03  0.50400001928E-02 0. -1.
    10030    2    1    2    0    0  0.00000000000E+00  0.00000000000E+00 -0.13989813533E+03  0.13877088332E+04  0.13806390975E+04 0.  0.
        1    1    3    3  502    0  0.20925519548E+03  0.13500655484E+03  0.57718516304E+03  0.62861531889E+03  0.50400001928E-02 0.  1.
       -1    1    3    3    0  502 -0.20925519548E+03 -0.13500655484E+03 -0.71708329838E+03  0.75909351434E+03  0.50400001928E-02 0. -1.
</event>
<event>
 5   0  0.1199720E-03  0.1358889E+04  0.7818609E-02  0.8984126E-01
       -1   -1    0    0    0  501  0.00000000000E+00  0.00000000000E+00  0.74265475798E+03  0.74265475799E+03  0.50400001928E-02 0. -1.
        1   -1    0    0  501    0  0.00000000000E+00  0.00000000000E+00 -0.62161470186E+03  0.62161470188E+03  0.50400001928E-02 0.  1.
    10030    2    1    2    0    0  0.00000000000E+00  0.00000000000E+00  0.12104005612E+03  0.13642694599E+04  0.13588894230E+04 0.  0.
        5    1    3    3  502    0  0.24481031470E+03 -0.11489280554E+03  0.68627784677E+03  0.73765291291E+03  0.46999998093E+01 0. -1.
       -5    1    3    3    0  502 -0.24481031470E+03  0.11489280554E+03 -0.56523779065E+03  0.62661654696E+03  0.46999998093E+01 0.  1.
</event>
<event>
 5   0  0.2195980E-03  0.1392351E+04  0.7818609E-02  0.8959374E-01
       -2   -1    0    0    0  501  0.00000000000E+00  0.00000000000E+00  0.11261481637E+04  0.11261481637E+04  0.25500000920E-02 0. -1.
        2   -1    0    0  501    0  0.00000000000E+00  0.00000000000E+00 -0.43036987611E+03  0.43036987612E+03  0.25500000920E-02 0.  1.
    10030    2    1    2    0    0  0.00000000000E+00  0.00000000000E+00  0.69577828759E+03  0.15565180398E+04  0.13923508835E+04 0.  0.
        4    1    3    3  502    0  0.21132448144E+03  0.60048654363E+03  0.66292563023E+03  0.91908330942E+03  0.12699999809E+01 0. -1.
       -4    1    3    3    0  502 -0.21132448144E+03 -0.60048654363E+03  0.32852657357E+02  0.63743473041E+03  0.12699999809E+01 0.  1.
</event>
<event>
 5   0  0.1199720E-03  0.1416229E+04  0.7818609E-02  0.8942154E-01
        1   -1    0    0  501    0  0.00000000000E+00  0.00000000000E+00  0.10831792709E+04  0.10831792709E+04  0.50400001928E-02 0. -1.
       -1   -1    0    0    0  501  0.00000000000E+00  0.00000000000E+00 -0.46292100681E+03  0.46292100684E+03  0.50400001928E-02 0.  1.
    10030    2    1    2    0    0  0.00000000000E+00  0.00000000000E+00  0.62025826409E+03  0.15461002777E+04  0.14162294146E+04 0.  0.
        5    1    3    3  502    0  0.57936808569E+03  0.38945177267E+03  0.18066099354E+03  0.72111063404E+03  0.46999998093E+01 0.  1.
       -5    1    3    3    0  502 -0.57936808569E+03 -0.38945177267E+03  0.43959727054E+03  0.82498964370E+03  0.46999998093E+01 0. -1.
</event>
<event>
 5   0  0.2195980E-03  0.1401037E+04  0.7818609E-02  0.8953068E-01
       -2   -1    0    0    0  501  0.00000000000E+00  0.00000000000E+00  0.91761801342E+03  0.91761801343E+03  0.25500000920E-02 0. -1.
        2   -1    0    0  501    0  0.00000000000E+00  0.00000000000E+00 -0.53478247331E+03  0.53478247331E+03  0.25500000920E-02 0.  1.
    10030    2    1    2    0    0  0.00000000000E+00  0.00000000000E+00  0.38283554011E+03  0.14524004867E+04  0.14010368029E+04 0.  0.
        4    1    3    3  502    0 -0.45895322632E+03 -0.25696283268E+03 -0.28820634192E+03  0.59977701669E+03  0.12699999809E+01 0.  1.
       -4    1    3    3    0  502  0.45895322632E+03  0.25696283268E+03  0.67104188204E+03  0.85262347005E+03  0.12699999809E+01 0. -1.
</event>
<event>
 5   0  0.1210275E-03  0.1435674E+04  0.7818609E-02  0.8928393E-01
        1   -1    0    0  501    0  0.00000000000E+00  0.00000000000E+00  0.27979308592E+03  0.27979308597E+03  0.50400001928E-02 0.  1.
       -1   -1    0    0    0  501  0.00000000000E+00  0.00000000000E+00 -0.18416814748E+04  0.18416814748E+04  0.50400001928E-02 0. -1.
    10030    2    1    2    0    0  0.00000000000E+00  0.00000000000E+00 -0.15618883889E+04  0.21214745608E+04  0.14356736999E+04 0.  0.
        1    1    3    3  502    0  0.14601832081E+03  0.25366718513E+03 -0.17495008118E+04  0.17738155150E+04  0.50400001928E-02 0. -1.
       -1    1    3    3    0  502 -0.14601832081E+03 -0.25366718513E+03  0.18761242293E+03  0.34765904574E+03  0.50400001928E-02 0.  1.
</event>
<event>
 5   0  0.2083966E-03  0.1372782E+04  0.7818609E-02  0.8973759E-01
       -2   -1    0    0    0  501  0.00000000000E+00  0.00000000000E+00  0.68865652950E+03  0.68865652951E+03  0.25500000920E-02 0.  1.
        2   -1    0    0  501    0  0.00000000000E+00  0.00000000000E+00 -0.68413322029E+03  0.68413322030E+03  0.25500000920E-02 0. -1.
    10030    2    1    2    0    0  0.00000000000E+00  0.00000000000E+00  0.45233092062E+01  0.13727897498E+04  0.13727822977E+04 0.  0.
        1    1    3    3  502    0 -0.19984229525E+03 -0.62919320209E+03 -0.18565365620E+03  0.68577569847E+03  0.50400001928E-02 0. -1.
       -1    1    3    3    0  502  0.19984229525E+03  0.62919320209E+03  0.19017696541E+03  0.68701405133E+03  0.50400001928E-02 0.  1.
</event>
<event>
 5   0  0.1175374E-03  0.1211837E+04  0.7818609E-02  0.9102558E-01
       -1   -1    0    0    0  501  0.00000000000E+00  0.00000000000E+00  0.40726970656E+03  0.40726970659E+03  0.50400001928E-02 0.  1.
        1   -1    0    0  501    0  0.00000000000E+00  0.00000000000E+00 -0.90146008913E+03  0.90146008914E+03  0.50400001928E-02 0. -1.
    10030    2    1    2    0    0  0.00000000000E+00  0.00000000000E+00 -0.49419038257E+03  0.13087297957E+04  0.12118372597E+04 0.  0.
        3    1    3    3  502    0  0.34555317709E+03 -0.45273306775E+03 -0.23768558677E+02  0.57003437038E+03  0.10100000352E+00 0.  1.
       -3    1    3    3    0  502 -0.34555317709E+03  0.45273306775E+03 -0.47042182390E+03  0.73869542535E+03  0.10100000352E+00 0. -1.
</event>
<event>
 5   0  0.2172901E-03  0.1375204E+04  0.7818609E-02  0.8971965E-01
       -2   -1    0    0    0  501  0.00000000000E+00  0.00000000000E+00  0.44320417321E+03  0.44320417322E+03  0.25500000920E-02 0. -1.
        2   -1    0    0  501    0  0.00000000000E+00  0.00000000000E+00 -0.10667689390E+04  0.10667689390E+04  0.25500000920E-02 0.  1.
    10030    2    1    2    0    0  0.00000000000E+00  0.00000000000E+00 -0.62356476576E+03  0.15099731122E+04  0.13752039058E+04 0.  0.
        2    1    3    3  502    0 -0.46783203661E+03 -0.23422314870E+03 -0.80167861067E+03  0.95729613636E+03  0.25500000920E-02 0.  1.
       -2    1    3    3    0  502  0.46783203661E+03  0.23422314870E+03  0.17811384491E+03  0.55267697584E+03  0.25500000920E-02 0. -1.
</event>
<event>
 5   0  0.1210275E-03  0.1491263E+04  0.7818609E-02  0.8890284E-01
        1   -1    0    0  501    0  0.00000000000E+00  0.00000000000E+00  0.88132256443E+03  0.88132256445E+03  0.50400001928E-02 0. -1.
       -1   -1    0    0    0  501  0.00000000000E+00  0.00000000000E+00 -0.63083176338E+03  0.63083176340E+03  0.50400001928E-02 0.  1.
    10030    2    1    2    0    0  0.00000000000E+00  0.00000000000E+00  0.25049080106E+03  0.15121543278E+04  0.14912629110E+04 0.  0.
        1    1    3    3  502    0 -0.19484462787E+03 -0.64572388369E+03 -0.19707956963E+03  0.70268351323E+03  0.50400001928E-02 0.  1.
       -1    1    3    3    0  502  0.19484462787E+03  0.64572388369E+03  0.44757037069E+03  0.80947081462E+03  0.50400001928E-02 0. -1.
</event>
<event>
 5   0  0.1175374E-03  0.1411539E+04  0.7818609E-02  0.8945508E-01
       -1   -1    0    0    0  501  0.00000000000E+00  0.00000000000E+00  0.68695346497E+03  0.68695346499E+03  0.50400001928E-02 0.  1.
        1   -1    0    0  501    0  0.00000000000E+00  0.00000000000E+00 -0.72510092860E+03  0.72510092862E+03  0.50400001928E-02 0. -1.
    10030    2    1    2    0    0  0.00000000000E+00  0.00000000000E+00 -0.38147463633E+02  0.14120543936E+04  0.14115390117E+04 0.  0.
        3    1    3    3  502    0  0.33414698734E+03  0.51745984674E+03 -0.36371611518E+03  0.71533790951E+03  0.10100000352E+00 0. -1.
       -3    1    3    3    0  502 -0.33414698734E+03 -0.51745984674E+03  0.32556865154E+03  0.69671648410E+03  0.10100000352E+00 0.  1.
</event>
<event>
 5   0  0.1210275E-03  0.1404501E+04  0.7818609E-02  0.8950567E-01
        1   -1    0    0  501    0  0.00000000000E+00  0.00000000000E+00  0.10230493232E+04  0.10230493232E+04  0.50400001928E-02 0. -1.
       -1   -1    0    0    0  501  0.00000000000E+00  0.00000000000E+00 -0.48204503390E+03  0.48204503393E+03  0.50400001928E-02 0.  1.
    10030    2    1    2    0    0  0.00000000000E+00  0.00000000000E+00  0.54100428927E+03  0.15050943571E+04  0.14045011153E+04 0.  0.
        1    1    3    3  502    0  0.36392846746E+03  0.46585626419E+03  0.67671596582E+03  0.89856022989E+03  0.50400001928E-02 0. -1.
       -1    1    3    3    0  502 -0.36392846746E+03 -0.46585626419E+03 -0.13571167655E+03  0.60653412723E+03  0.50400001928E-02 0.  1.
</event>
<event>
 5   0  0.2190704E-03  0.1407413E+04  0.7818609E-02  0.8948470E-01
        2   -1    0    0  501    0  0.00000000000E+00  0.00000000000E+00  0.22261251356E+04  0.22261251356E+04  0.25500000920E-02 0. -1.
       -2   -1    0    0    0  501  0.00000000000E+00  0.00000000000E+00 -0.22245051326E+03  0.22245051328E+03  0.25500000920E-02 0.  1.
    10030    2    1    2    0    0  0.00000000000E+00  0.00000000000E+00  0.20036746224E+04  0.24485756489E+04  0.14074127739E+04 0.  0.
        5    1    3    3  502    0 -0.31655515450E+03  0.60737331393E+03  0.12827501282E+04  0.14541593756E+04  0.46999998093E+01 0. -1.
       -5    1    3    3    0  502  0.31655515450E+03 -0.60737331393E+03  0.72092449420E+03  0.99441627332E+03  0.46999998093E+01 0.  1.
</event>
<event>
 5   0  0.2236184E-03  0.1421386E+04  0.7818609E-02  0.8938482E-01
        2   -1    0    0  501    0  0.00000000000E+00  0.00000000000E+00  0.18359778616E+04  0.18359778616E+04  0.25500000920E-02 0.  1.
       -2   -1    0    0    0  501  0.00000000000E+00  0.00000000000E+00 -0.27510381684E+03  0.27510381686E+03  0.25500000920E-02 0. -1.
    10030    2    1    2    0    0  0.00000000000E+00  0.00000000000E+00  0.15608740447E+04  0.21110816784E+04  0.14213859678E+04 0.  0.
        3    1    3    3  502    0 -0.59232017367E+03  0.19583324717E+03  0.27482519102E+03  0.68170576106E+03  0.10100000352E+00 0. -1.
       -3    1    3    3    0  502  0.59232017367E+03 -0.19583324717E+03  0.12860488537E+04  0.14293759174E+04  0.10100000352E+00 0.  1.
</event>
<event>
 5   0  0.2083966E-03  0.1408132E+04  0.7818609E-02  0.8947953E-01
        2   -1    0    0  501    0  0.00000000000E+00  0.00000000000E+00  0.17316909645E+04  0.17316909645E+04  0.25500000920E-02 0.  1.
       -2   -1    0    0    0  501  0.00000000000E+00  0.00000000000E+00 -0.28625707286E+03  0.28625707287E+03  0.25500000920E-02 0. -1.
    10030    2    1    2    0    0  0.00000000000E+00  0.00000000000E+00  0.14454338916E+04  0.20179480374E+04  0.14081317930E+04 0.  0.
        1    1    3    3  502    0 -0.39760623059E+03  0.10820128626E+03  0.15408348304E+04  0.15949828236E+04  0.50400001928E-02 0.  1.
       -1    1    3    3    0  502  0.39760623059E+03 -0.10820128626E+03 -0.95400938740E+02  0.42296521381E+03  0.50400001928E-02 0. -1.
</event>
<event>
 5   0  0.1238683E-03  0.1249853E+04  0.7818609E-02  0.9070306E-01
        1   -1    0    0  501    0  0.00000000000E+00  0.00000000000E+00  0.10810635409E+04  0.10810635410E+04  0.50400001928E-02 0. -1.
       -1   -1    0    0    0  501  0.00000000000E+00  0.00000000000E+00 -0.36124887486E+03  0.36124887490E+03  0.50400001928E-02 0.  1.
    10030    2    1    2    0    0  0.00000000000E+00  0.00000000000E+00  0.71981466608E+03  0.14423124159E+04  0.12498527719E+04 0.  0.
        2    1    3    3  502    0 -0.18573273766E+03 -0.34724000294E+03  0.91987082956E+03  0.10006171159E+04  0.25500000920E-02 0. -1.
       -2    1    3    3    0  502  0.18573273766E+03  0.34724000294E+03 -0.20005616348E+03  0.44169529999E+03  0.25500000920E-02 0.  1.
</event>
<event>
 5   0  0.1210275E-03  0.1379369E+04  0.7818609E-02  0.8968889E-01
        1   -1    0    0  501    0  0.00000000000E+00  0.00000000000E+00  0.13510447505E+04  0.13510447505E+04  0.50400001928E-02 0.  1.
       -1   -1    0    0    0  501  0.00000000000E+00  0.00000000000E+00 -0.35207193753E+03  0.35207193757E+03  0.50400001928E-02 0. -1.
    10030    2    1    2    0    0  0.00000000000E+00  0.00000000000E+00  0.99897281301E+03  0.17031166881E+04  0.13793693386E+04 0.  0.
        1    1    3    3  502    0  0.35959014105E+02  0.58914914621E+01 -0.35088259662E+03  0.35276955226E+03  0.50400001928E-02 0. -1.
       -1    1    3    3    0  502 -0.35959014105E+02 -0.58914914621E+01  0.13498554096E+04  0.13503471359E+04  0.50400001928E-02 0.  1.
</event>
<event>
 5   0  0.2190704E-03  0.1317378E+04  0.7818609E-02  0.9015897E-01
       -2   -1    0    0    0  501  0.00000000000E+00  0.00000000000E+00  0.20120529199E+04  0.20120529199E+04  0.25500000920E-02 0.  1.
        2   -1    0    0  501    0  0.00000000000E+00  0.00000000000E+00 -0.21563600671E+03  0.21563600672E+03  0.25500000920E-02 0. -1.
    10030    2    1    2    0    0  0.00000000000E+00  0.00000000000E+00  0.17964169132E+04  0.22276889266E+04  0.13173777848E+04 0.  0.
        5    1    3    3  502    0  0.58312740433E+03  0.30628592394E+03  0.89723694925E+03  0.11130610361E+04  0.46999998093E+01 0. -1.
       -5    1    3    3    0  502 -0.58312740433E+03 -0.30628592394E+03  0.89917996394E+03  0.11146278906E+04  0.46999998093E+01 0.  1.
</event>
<event>
 5   0  0.1175374E-03  0.1375029E+04  0.7818609E-02  0.8972095E-01
       -1   -1    0    0    0  501  0.00000000000E+00  0.00000000000E+00  0.13634712575E+04  0.13634712575E+04  0.50400001928E-02 0. -1.
        1   -1    0    0  501    0  0.00000000000E+00  0.00000000000E+00 -0.34667104862E+03  0.34667104866E+03  0.50400001928E-02 0.  1.
    10030    2    1    2    0    0  0.00000000000E+00  0.00000000000E+00  0.10168002089E+04  0.17101423062E+04  0.13750287425E+04 0.  0.
        3    1    3    3  502    0  0.37188347996E+03  0.13000182792E+03  0.12091732178E+04  0.12717301910E+04  0.10100000352E+00 0. -1.
       -3    1    3    3    0  502 -0.37188347996E+03 -0.13000182792E+03 -0.19237300893E+03  0.43841211513E+03  0.10100000352E+00 0.  1.
</event>
<event>
 5   0  0.1225690E-03  0.1090329E+04  0.7818609E-02  0.9214670E-01
       -1   -1    0    0    0  501  0.00000000000E+00  0.00000000000E+00  0.24464873140E+03  0.24464873145E+03  0.50400001928E-02 0.  1.
        1   -1    0    0  501    0  0.00000000000E+00  0.00000000000E+00 -0.12148201111E+04  0.12148201111E+04  0.50400001928E-02 0. -1.
    10030    2    1    2    0    0  0.00000000000E+00  0.00000000000E+00 -0.97017137968E+03  0.14594688425E+04  0.10903287561E+04 0.  0.
        4    1    3    3  502    0 -0.46373690975E+03  0.27513264084E+03 -0.37756106900E+03  0.65825820560E+03  0.12699999809E+01 0. -1.
       -4    1    3    3    0  502  0.46373690975E+03 -0.27513264084E+03 -0.59261031068E+03  0.80121063693E+03  0.12699999809E+01 0.  1.
</event>
<event>
 5   0  0.2236184E-03  0.1417772E+04  0.7818609E-02  0.8941054E-01
        2   -1    0    0  501    0  0.00000000000E+00  0.00000000000E+00  0.14032343031E+04  0.14032343031E+04  0.25500000920E-02 0. -1.
       -2   -1    0    0    0  501  0.00000000000E+00  0.00000000000E+00 -0.35811484157E+03  0.35811484158E+03  0.25500000920E-02 0.  1.
    10030    2    1    2    0    0  0.00000000000E+00  0.00000000000E+00  0.10451194615E+04  0.17613491446E+04  0.14177715333E+04 0.  0.
        3    1    3    3  502    0 -0.97420490408E+02 -0.34014378543E+03 -0.24057310543E+03  0.42785976204E+03  0.10100000352E+00 0.  1.
       -3    1    3    3    0  502  0.97420490408E+02  0.34014378543E+03  0.12856925669E+04  0.13334893826E+04  0.10100000352E+00 0. -1.
</event>
<event>
 5   0  0.1199720E-03  0.1380858E+04  0.7818609E-02  0.8967792E-01
        1   -1    0    0  501    0  0.00000000000E+00  0.00000000000E+00  0.67118014801E+03  0.67118014803E+03  0.50400001928E-02 0. -1.
       -1   -1    0    0    0  501  0.00000000000E+00  0.00000000000E+00 -0.71022959100E+03  0.71022959101E+03  0.50400001928E-02 0.  1.
    10030    2    1    2    0    0  0.00000000000E+00  0.00000000000E+00 -0.39049442982E+02  0.13814097390E+04  0.13808577074E+04 0.  0.
        5    1    3    3  502    0 -0.20794388939E+02  0.51564994995E+03  0.43928988963E+03  0.67773518031E+03  0.46999998093E+01 0. -1.
       -5    1    3    3    0  502  0.20794388939E+02 -0.51564994995E+03 -0.47833933262E+03  0.70367455874E+03  0.46999998093E+01 0.  1.
</event>
<event>
 5   0  0.2190704E-03  0.1388887E+04  0.7818609E-02  0.8961902E-01
        2   -1    0    0  501    0  0.00000000000E+00  0.00000000000E+00  0.11003400691E+04  0.11003400691E+04  0.25500000920E-02 0. -1.
       -2   -1    0    0    0  501  0.00000000000E+00  0.00000000000E+00 -0.43827523289E+03  0.43827523290E+03  0.25500000920E-02 0.  1.
    10030    2    1    2    0    0  0.00000000000E+00  0.00000000000E+00  0.66206483617E+03  0.15386153020E+04  0.13888870365E+04 0.  0.
        5    1    3    3  502    0 -0.61275492910E+03 -0.17977696684E+01  0.69299450469E+03  0.92505962437E+03  0.46999998093E+01 0. -1.
       -5    1    3    3    0  502  0.61275492910E+03  0.17977696684E+01 -0.30929668513E+02  0.61355567760E+03  0.46999998093E+01 0.  1.
</event>
<event>
 5   0  0.2195980E-03  0.1329112E+04  0.7818609E-02  0.9006792E-01
       -2   -1    0    0    0  501  0.00000000000E+00  0.00000000000E+00  0.21482535944E+03  0.21482535945E+03  0.25500000920E-02 0.  1.
        2   -1    0    0  501    0  0.00000000000E+00  0.00000000000E+00 -0.20557842811E+04  0.20557842811E+04  0.25500000920E-02 0. -1.
    10030    2    1    2    0    0  0.00000000000E+00  0.00000000000E+00 -0.18409589216E+04  0.22706096405E+04  0.13291118796E+04 0.  0.
        4    1    3    3  502    0  0.75020581427E+02 -0.24325102687E+03  0.12823168192E+03  0.28503355391E+03  0.12699999809E+01 0.  1.
       -4    1    3    3    0  502 -0.75020581427E+02  0.24325102687E+03 -0.19691906036E+04  0.19855760866E+04  0.12699999809E+01 0. -1.
</event>
<event>
 5   0  0.2083966E-03  0.1411899E+04  0.7818609E-02  0.8945250E-01
        2   -1    0    0  501    0  0.00000000000E+00  0.00000000000E+00  0.93449682742E+03  0.93449682742E+03  0.25500000920E-02 0. -1.
       -2   -1    0    0    0  501  0.00000000000E+00  0.00000000000E+00 -0.53329747182E+03  0.53329747183E+03  0.25500000920E-02 0.  1.
    10030    2    1    2    0    0  0.00000000000E+00  0.00000000000E+00  0.40119935560E+03  0.14677942992E+04  0.14118991402E+04 0.  0.
        1    1    3    3  502    0  0.67663276010E+03  0.17243902830E+03  0.30862531793E+03  0.76342432331E+03  0.50400001928E-02 0.  1.
       -1    1    3    3    0  502 -0.67663276010E+03 -0.17243902830E+03  0.92574037667E+02  0.70436997594E+03  0.50400001928E-02 0. -1.
</event>
<event>
 5   0  0.2083966E-03  0.1370389E+04  0.7818609E-02  0.8975536E-01
        2   -1    0    0  501    0  0.00000000000E+00  0.00000000000E+00  0.11337198753E+04  0.11337198753E+04  0.25500000920E-02 0. -1.
       -2   -1    0    0    0  501  0.00000000000E+00  0.00000000000E+00 -0.41411569934E+03  0.41411569935E+03  0.25500000920E-02 0.  1.
    10030    2    1    2    0    0  0.00000000000E+00  0.00000000000E+00  0.71960417592E+03  0.15478355746E+04  0.13703885566E+04 0.  0.
        1    1    3    3  502    0 -0.44607411267E+03 -0.85801521503E+02 -0.21960054441E+03  0.50454773235E+03  0.50400001928E-02 0.  1.
       -1    1    3    3    0  502  0.44607411267E+03  0.85801521503E+02  0.93920472033E+03  0.10432878423E+04  0.50400001928E-02 0. -1.
</event>
<event>
 5   0  0.1238683E-03  0.1395543E+04  0.7818609E-02  0.8957051E-01
        1   -1    0    0  501    0  0.00000000000E+00  0.00000000000E+00  0.12297786692E+04  0.12297786692E+04  0.50400001928E-02 0. -1.
       -1   -1    0    0    0  501  0.00000000000E+00  0.00000000000E+00 -0.39591301190E+03  0.39591301194E+03  0.50400001928E-02 0.  1.
    10030    2    1    2    0    0  0.00000000000E+00  0.00000000000E+00  0.83386565733E+03  0.16256916812E+04  0.13955434453E+04 0.  0.
        2    1    3    3  502    0 -0.43599740311E+03 -0.54037240168E+03  0.33631497206E+03  0.77149454208E+03  0.25500000920E-02 0.  1.
       -2    1    3    3    0  502  0.43599740311E+03  0.54037240168E+03  0.49755068527E+03  0.85419713910E+03  0.25500000920E-02 0. -1.
</event>
<event>
 5   0  0.2083966E-03  0.1402297E+04  0.7818609E-02  0.8952158E-01
       -2   -1    0    0    0  501  0.00000000000E+00  0.00000000000E+00  0.18296945010E+03  0.18296945012E+03  0.25500000920E-02 0.  1.
        2   -1    0    0  501    0  0.00000000000E+00  0.00000000000E+00 -0.26868360263E+04  0.26868360263E+04  0.25500000920E-02 0. -1.
    10030    2    1    2    0    0  0.00000000000E+00  0.00000000000E+00 -0.25038665762E+04  0.28698054764E+04  0.14022965596E+04 0.  0.
        1    1    3    3  502    0 -0.23502484850E+03  0.49494989216E+03 -0.35660982165E+03  0.65374508800E+03  0.50400001928E-02 0.  1.
       -1    1    3    3    0  502  0.23502484850E+03 -0.49494989216E+03 -0.21472567545E+04  0.22160603884E+04  0.50400001928E-02 0. -1.
</event>
<event>
 5   0  0.1199720E-03  0.1387541E+04  0.7818609E-02  0.8962887E-01
       -1   -1    0    0    0  501  0.00000000000E+00  0.00000000000E+00  0.96181742669E+03  0.96181742670E+03  0.50400001928E-02 0. -1.
        1   -1    0    0  501    0  0.00000000000E+00  0.00000000000E+00 -0.50042494276E+03  0.50042494279E+03  0.50400001928E-02 0.  1.
    10030    2    1    2    0    0  0.00000000000E+00  0.00000000000E+00  0.46139248392E+03  0.14622423695E+04  0.13875408905E+04 0.  0.
        5    1    3    3  502    0  0.68975258058E+03  0.39776637277E+01  0.30899923738E+03  0.75582872592E+03  0.46999998093E+01 0.  1.
       -5    1    3    3    0  502 -0.68975258058E+03 -0.39776637277E+01  0.15239324654E+03  0.70641364356E+03  0.46999998093E+01 0. -1.
</event>
<event>
 5   0  0.1175374E-03  0.1439610E+04  0.7818609E-02  0.8925636E-01
        1   -1    0    0  501    0  0.00000000000E+00  0.00000000000E+00  0.93562766261E+03  0.93562766263E+03  0.50400001928E-02 0.  1.
       -1   -1    0    0    0  501  0.00000000000E+00  0.00000000000E+00 -0.55376620449E+03  0.55376620451E+03  0.50400001928E-02 0. -1.
    10030    2    1    2    0    0  0.00000000000E+00  0.00000000000E+00  0.38186145812E+03  0.14893938671E+04  0.14396096409E+04 0.  0.
        3    1    3    3  502    0 -0.85228870657E+02 -0.62868596319E+03 -0.16084071230E+03  0.65450725407E+03  0.10100000352E+00 0. -1.
       -3    1    3    3    0  502  0.85228870657E+02  0.62868596319E+03  0.54270217042E+03  0.83488661307E+03  0.10100000352E+00 0.  1.
</event>
<event>
 5   0  0.2195980E-03  0.1417816E+04  0.7818609E-02  0.8941023E-01
       -2   -1    0    0    0  501  0.00000000000E+00  0.00000000000E+00  0.24878266153E+03  0.24878266155E+03  0.25500000920E-02 0.  1.
        2   -1    0    0  501    0  0.00000000000E+00  0.00000000000E+00 -0.20200378885E+04  0.20200378885E+04  0.25500000920E-02 0. -1.
    10030    2    1    2    0    0  0.00000000000E+00  0.00000000000E+00 -0.17712552269E+04  0.22688205500E+04  0.14178157882E+04 0.  0.
        4    1    3    3  502    0 -0.59612595723E+03  0.27737778030E+03 -0.13097445081E+04  0.14655159090E+04  0.12699999809E+01 0. -1.
       -4    1    3    3    0  502  0.59612595723E+03 -0.27737778030E+03 -0.46151071880E+03  0.80330464107E+03  0.12699999809E+01 0.  1.
</event>
<event>
 5   0  0.1225690E-03  0.1394809E+04  0.7818609E-02  0.8957584E-01
       -1   -1    0    0    0  501  0.00000000000E+00  0.00000000000E+00  0.12822777654E+04  0.12822777654E+04  0.50400001928E-02 0. -1.
        1   -1    0    0  501    0  0.00000000000E+00  0.00000000000E+00 -0.37930410157E+03  0.37930410160E+03  0.50400001928E-02 0.  1.
    10030    2    1    2    0    0  0.00000000000E+00  0.00000000000E+00  0.90297366382E+03  0.16615818670E+04  0.13948092569E+04 0.  0.
        4    1    3    3  502    0 -0.15926657552E+03  0.67680171177E+03  0.51613624654E+03  0.86592415200E+03  0.12699999809E+01 0. -1.
       -4    1    3    3    0  502  0.15926657552E+03 -0.67680171177E+03  0.38683741728E+03  0.79565771500E+03  0.12699999809E+01 0.  1.
</event>
<event>
 5   0  0.2083966E-03  0.1411565E+04  0.7818609E-02  0.8945490E-01
        2   -1    0    0  501    0  0.00000000000E+00  0.00000000000E+00  0.64493872276E+03  0.64493872276E+03  0.25500000920E-02 0.  1.
       -2   -1    0    0    0  501  0.00000000000E+00  0.00000000000E+00 -0.77236600188E+03  0.77236600189E+03  0.25500000920E-02 0. -1.
    10030    2    1    2    0    0  0.00000000000E+00  0.00000000000E+00 -0.12742727912E+03  0.14173047246E+04  0.14115647244E+04 0.  0.
        1    1    3    3  502    0 -0.13884357184E+02  0.11230087107E+03 -0.76319885250E+03  0.77154180023E+03  0.50400001928E-02 0. -1.
       -1    1    3    3    0  502  0.13884357184E+02 -0.11230087107E+03  0.63577157338E+03  0.64576292442E+03  0.50400001928E-02 0.  1.
</event>
<event>
 5   0  0.2236184E-03  0.1431838E+04  0.7818609E-02  0.8931089E-01
        2   -1    0    0  501    0  0.00000000000E+00  0.00000000000E+00  0.13597342725E+04  0.13597342725E+04  0.25500000920E-02 0. -1.
       -2   -1    0    0    0  501  0.00000000000E+00  0.00000000000E+00 -0.37694155697E+03  0.37694155698E+03  0.25500000920E-02 0.  1.
    10030    2    1    2    0    0  0.00000000000E+00  0.00000000000E+00  0.98279271550E+03  0.17366758295E+04  0.14318384738E+04 0.  0.
        3    1    3    3  502    0  0.63337847063E+03  0.43540669400E+02  0.89271073740E+03  0.10954435393E+04  0.10100000352E+00 0.  1.
       -3    1    3    3    0  502 -0.63337847063E+03 -0.43540669400E+02  0.90081978103E+02  0.64123229015E+03  0.10100000352E+00 0. -1.
</event>
<event>
 5   0  0.2236184E-03  0.1502674E+04  0.7818609E-02  0.8882677E-01
       -2   -1    0    0    0  501  0.00000000000E+00  0.00000000000E+00  0.38058509466E+03  0.38058509467E+03  0.25500000920E-02 0.  1.
        2   -1    0    0  501    0  0.00000000000E+00  0.00000000000E+00 -0.14832618707E+04  0.14832618707E+04  0.25500000920E-02 0. -1.
    10030    2    1    2    0    0  0.00000000000E+00  0.00000000000E+00 -0.11026767760E+04  0.18638469653E+04  0.15026740957E+04 0.  0.
        3    1    3    3  502    0  0.11090598276E+03  0.37259105743E+03  0.24614531822E+03  0.46012146328E+03  0.10100000352E+00 0.  1.
       -3    1    3    3    0  502 -0.11090598276E+03 -0.37259105743E+03 -0.13488220942E+04  0.14037255021E+04  0.10100000352E+00 0. -1.
</event>
<event>
 5   0  0.1238683E-03  0.1389619E+04  0.7818609E-02  0.8961367E-01
        1   -1    0    0  501    0  0.00000000000E+00  0.00000000000E+00  0.77527021209E+03  0.77527021211E+03  0.50400001928E-02 0. -1.
       -1   -1    0    0    0  501  0.00000000000E+00  0.00000000000E+00 -0.62269931981E+03  0.62269931984E+03  0.50400001928E-02 0.  1.
    10030    2    1    2    0    0  0.00000000000E+00  0.00000000000E+00  0.15257089227E+03  0.13979695319E+04  0.13896189892E+04 0.  0.
        2    1    3    3  502    0 -0.44537017891E+03  0.53275243702E+03  0.10052334543E+03  0.70163002957E+03  0.25500000920E-02 0.  1.
       -2    1    3    3    0  502  0.44537017891E+03 -0.53275243702E+03  0.52047546847E+02  0.69633950237E+03  0.25500000920E-02 0. -1.
</event>
<event>
 5   0  0.2190704E-03  0.1404442E+04  0.7818609E-02  0.8950610E-01
       -2   -1    0    0    0  501  0.00000000000E+00  0.00000000000E+00  0.47928430835E+03  0.47928430836E+03  0.25500000920E-02 0.  1.
        2   -1    0    0  501    0  0.00000000000E+00  0.00000000000E+00 -0.10288549156E+04  0.10288549156E+04  0.25500000920E-02 0. -1.
    10030    2    1    2    0    0  0.00000000000E+00  0.00000000000E+00 -0.54957060725E+03  0.15081392240E+04  0.14044415497E+04 0.  0.
        5    1    3    3  502    0 -0.64854176996E+03 -0.26883572064E+03 -0.25911854182E+03  0.74836059543E+03  0.46999998093E+01 0. -1.
       -5    1    3    3    0  502  0.64854176996E+03  0.26883572064E+03 -0.29045206544E+03  0.75977862854E+03  0.46999998093E+01 0.  1.
</event>
<event>
 5   0  0.2190704E-03  0.1398276E+04  0.7818609E-02  0.8955068E-01
        2   -1    0    0  501    0  0.00000000000E+00  0.00000000000E+00  0.11354550834E+04  0.11354550834E+04  0.25500000920E-02 0. -1.
       -2   -1    0    0    0  501  0.00000000000E+00  0.00000000000E+00 -0.43048257972E+03  0.43048257973E+03  0.25500000920E-02 0.  1.
    10030    2    1    2    0    0  0.00000000000E+00  0.00000000000E+00  0.70497250372E+03  0.15659376632E+04  0.13982755572E+04 0.  0.
        5    1    3    3  502    0  0.50971234482E+03 -0.24718412670E+03 -0.10635411824E+03  0.57640259838E+03  0.46999998093E+01 0.  1.
       -5    1    3    3    0  502 -0.50971234482E+03  0.24718412670E+03  0.81132662195E+03  0.98953506478E+03  0.46999998093E+01 0. -1.
</event>
<event>
 5   0  0.2195980E-03  0.1402382E+04  0.7818609E-02  0.8952096E-01
       -2   -1    0    0    0  501  0.00000000000E+00  0.00000000000E+00  0.54607905097E+03  0.54607905098E+03  0.25500000920E-02 0. -1.
        2   -1    0    0  501    0  0.00000000000E+00  0.00000000000E+00 -0.90036190600E+03  0.90036190600E+03  0.25500000920E-02 0.  1.
    10030    2    1    2    0    0  0.00000000000E+00  0.00000000000E+00 -0.35428285502E+03  0.14464409570E+04  0.14023819382E+04 0.  0.
        4    1    3    3  502    0  0.40237115728E+03 -0.75194681130E+02 -0.76433442385E+03  0.86704412382E+03  0.12699999809E+01 0.  1.
       -4    1    3    3    0  502 -0.40237115728E+03  0.75194681130E+02  0.41005156882E+03  0.57939683316E+03  0.12699999809E+01 0. -1.
</event>
<event>
 5   0  0.2195980E-03  0.1484348E+04  0.7818609E-02  0.8894929E-01
        2   -1    0    0  501    0  0.00000000000E+00  0.00000000000E+00  0.99297380500E+03  0.99297380501E+03  0.25500000920E-02 0.  1.
       -2   -1    0    0    0  501  0.00000000000E+00  0.00000000000E+00 -0.55471964528E+03  0.55471964529E+03  0.25500000920E-02 0. -1.
    10030    2    1    2    0    0  0.00000000000E+00  0.00000000000E+00  0.43825415972E+03  0.15476934503E+04  0.14843477718E+04 0.  0.
        4    1    3    3  502    0 -0.33333986623E+02 -0.21724537746E+03 -0.52000705074E+03  0.56454907175E+03  0.12699999809E+01 0. -1.
       -4    1    3    3    0  502  0.33333986623E+02  0.21724537746E+03  0.95826121046E+03  0.98314437854E+03  0.12699999809E+01 0.  1.
</event>
<event>
 5   0  0.1238683E-03  0.1352070E+04  0.7818609E-02  0.8989262E-01
        1   -1    0    0  501    0  0.00000000000E+00  0.00000000000E+00  0.14403650322E+04  0.14403650322E+04  0.50400001928E-02 0.  1.
       -1   -1    0    0    0  501  0.00000000000E+00  0.00000000000E+00 -0.31729696442E+03  0.31729696446E+03  0.50400001928E-02 0. -1.
    10030    2    1    2    0    0  0.00000000000E+00  0.00000000000E+00  0.11230680678E+04  0.17576619967E+04  0.13520701941E+04 0.  0.
        2    1    3    3  502    0  0.33070890027E+03  0.28764833683E+03  0.12306296389E+04  0.13063534171E+04  0.25500000920E-02 0.  1.
       -2    1    3    3    0  502 -0.33070890027E+03 -0.28764833683E+03 -0.10756157106E+03  0.45130857955E+03  0.25500000920E-02 0. -1.
</event>
<event>
 5   0  0.2236184E-03  0.1319811E+04  0.7818609E-02  0.9014000E-01
        2   -1    0    0  501    0  0.00000000000E+00  0.00000000000E+00  0.12471179612E+04  0.12471179613E+04  0.25500000920E-02 0. -1.
       -2   -1    0    0    0  501  0.00000000000E+00  0.00000000000E+00 -0.34918548559E+03  0.34918548560E+03  0.25500000920E-02 0.  1.
    10030    2    1    2    0    0  0.00000000000E+00  0.00000000000E+00  0.89793247566E+03  0.15963034469E+04  0.13198113364E+04 0.  0.
        3    1    3    3  502    0 -0.57527498656E+03  0.19029256117E+03  0.76511157455E+03  0.97598580969E+03  0.10100000352E+00 0. -1.
       -3    1    3    3    0  502  0.57527498656E+03 -0.19029256117E+03  0.13282090111E+03  0.62031763716E+03  0.10100000352E+00 0.  1.
</event>
<event>
 5   0  0.1225690E-03  0.1398918E+04  0.7818609E-02  0.8954602E-01
       -1   -1    0    0    0  501  0.00000000000E+00  0.00000000000E+00  0.53063171638E+03  0.53063171641E+03  0.50400001928E-02 0. -1.
        1   -1    0    0  501    0  0.00000000000E+00  0.00000000000E+00 -0.92200027456E+03  0.92200027458E+03  0.50400001928E-02 0.  1.
    10030    2    1    2    0    0  0.00000000000E+00  0.00000000000E+00 -0.39136855818E+03  0.14526319910E+04  0.13989175647E+04 0.  0.
        4    1    3    3  502    0 -0.35408201862E+03  0.27632127860E+03  0.36110717952E+03  0.57630506931E+03  0.12699999809E+01 0. -1.
       -4    1    3    3    0  502  0.35408201862E+03 -0.27632127860E+03 -0.75247573770E+03  0.87632692167E+03  0.12699999809E+01 0.  1.
</event>
<event>
 5   0  0.2083966E-03  0.1395103E+04  0.7818609E-02  0.8957371E-01
        2   -1    0    0  501    0  0.00000000000E+00  0.00000000000E+00  0.12544150007E+04  0.12544150007E+04  0.25500000920E-02 0.  1.
       -2   -1    0    0    0  501  0.00000000000E+00  0.00000000000E+00 -0.38789221291E+03  0.38789221292E+03  0.25500000920E-02 0. -1.
    10030    2    1    2    0    0  0.00000000000E+00  0.00000000000E+00  0.86652278780E+03  0.16423072136E+04  0.13951025920E+04 0.  0.
        1    1    3    3  502    0  0.24412864407E+03  0.29353064756E+03  0.11205038958E+04  0.11837601178E+04  0.50400001928E-02 0.  1.
       -1    1    3    3    0  502 -0.24412864407E+03 -0.29353064756E+03 -0.25398110797E+03  0.45854709589E+03  0.50400001928E-02 0. -1.
</event>
<event>
 5   0  0.2172901E-03  0.1394878E+04  0.7818609E-02  0.8957534E-01
       -2   -1    0    0    0  501  0.00000000000E+00  0.00000000000E+00  0.22997789431E+03  0.22997789433E+03  0.25500000920E-02 0. -1.
        2   -1    0    0  501    0  0.00000000000E+00  0.00000000000E+00 -0.21150779306E+04  0.21150779307E+04  0.25500000920E-02 0.  1.
    10030    2    1    2    0    0  0.00000000000E+00  0.00000000000E+00 -0.18851000363E+04  0.23450558250E+04  0.13948780145E+04 0.  0.
        2    1    3    3  502    0  0.49590224874E+03  0.83151414209E+01 -0.17669044602E+04  0.18351946908E+04  0.25500000920E-02 0.  1.
       -2    1    3    3    0  502 -0.49590224874E+03 -0.83151414209E+01 -0.11819557618E+03  0.50986113415E+03  0.25500000920E-02 0. -1.
</event>
<event>
 5   0  0.1225690E-03  0.1123243E+04  0.7818609E-02  0.9182830E-01
       -1   -1    0    0    0  501  0.00000000000E+00  0.00000000000E+00  0.11971372206E+04  0.11971372206E+04  0.50400001928E-02 0.  1.
        1   -1    0    0  501    0  0.00000000000E+00  0.00000000000E+00 -0.26347727834E+03  0.26347727839E+03  0.50400001928E-02 0. -1.
    10030    2    1    2    0    0  0.00000000000E+00  0.00000000000E+00  0.93365994229E+03  0.14606144990E+04  0.11232425504E+04 0.  0.
        4    1    3    3  502    0  0.13741669159E+03 -0.18611172456E+03 -0.19863688342E+03  0.30492481942E+03  0.12699999809E+01 0. -1.
       -4    1    3    3    0  502 -0.13741669159E+03  0.18611172456E+03  0.11322968257E+04  0.11556896796E+04  0.12699999809E+01 0.  1.
</event>
<event>
 5   0  0.1238683E-03  0.1393638E+04  0.7818609E-02  0.8958437E-01
        1   -1    0    0  501    0  0.00000000000E+00  0.00000000000E+00  0.49577646131E+03  0.49577646134E+03  0.50400001928E-02 0.  1.
       -1   -1    0    0    0  501  0.00000000000E+00  0.00000000000E+00 -0.97938602357E+03  0.97938602359E+03  0.50400001928E-02 0. -1.
    10030    2    1    2    0    0  0.00000000000E+00  0.00000000000E+00 -0.48360956226E+03  0.14751624849E+04  0.13936377392E+04 0.  0.
        2    1    3    3  502    0  0.38376877690E+03  0.31325493967E+03  0.27691250259E+03  0.56752767814E+03  0.25500000920E-02 0.  1.
       -2    1    3    3    0  502 -0.38376877690E+03 -0.31325493967E+03 -0.76052206485E+03  0.90763480679E+03  0.25500000920E-02 0. -1.
</event>
<event>
 5   0  0.2195980E-03  0.1363604E+04  0.7818609E-02  0.8980593E-01
        2   -1    0    0  501    0  0.00000000000E+00  0.00000000000E+00  0.13332148279E+04  0.13332148279E+04  0.25500000920E-02 0. -1.
       -2   -1    0    0    0  501  0.00000000000E+00  0.00000000000E+00 -0.34867169342E+03  0.34867169343E+03  0.25500000920E-02 0.  1.
    10030    2    1    2    0    0  0.00000000000E+00  0.00000000000E+00  0.98454313452E+03  0.16818865214E+04  0.13636044467E+04 0.  0.
        4    1    3    3  502    0  0.11133550591E+03 -0.49490566520E+03  0.10541520668E+04  0.11698570020E+04  0.12699999809E+01 0. -1.
       -4    1    3    3    0  502 -0.11133550591E+03  0.49490566520E+03 -0.69608932290E+02  0.51202951934E+03  0.12699999809E+01 0.  1.
</event>
<event>
 5   0  0.2195980E-03  0.1419540E+04  0.7818609E-02  0.8939794E-01
        2   -1    0    0  501    0  0.00000000000E+00  0.00000000000E+00  0.11004537710E+04  0.11004537710E+04  0.25500000920E-02 0.  1.
       -2   -1    0    0    0  501  0.00000000000E+00  0.00000000000E+00 -0.45778727363E+03  0.45778727364E+03  0.25500000920E-02 0. -1.
    10030    2    1    2    0    0  0.00000000000E+00  0.00000000000E+00  0.64266649733E+03  0.15582410446E+04  0.14195403926E+04 0.  0.
        4    1    3    3  502    0  0.10809738961E+03 -0.12808088732E+01 -0.44869585373E+03  0.46153685462E+03  0.12699999809E+01 0. -1.
       -4    1    3    3    0  502 -0.10809738961E+03  0.12808088732E+01  0.10913623511E+04  0.10967041900E+04  0.12699999809E+01 0.  1.
</event>
<event>
 5   0  0.1225690E-03  0.1438633E+04  0.7818609E-02  0.8926319E-01
        1   -1    0    0  501    0  0.00000000000E+00  0.00000000000E+00  0.17693178418E+04  0.17693178418E+04  0.50400001928E-02 0.  1.
       -1   -1    0    0    0  501  0.00000000000E+00  0.00000000000E+00 -0.29243822272E+03  0.29243822276E+03  0.50400001928E-02 0. -1.
    10030    2    1    2    0    0  0.00000000000E+00  0.00000000000E+00  0.14768796191E+04  0.20617560646E+04  0.14386329138E+04 0.  0.
        4    1    3    3  502    0 -0.33173532682E+03 -0.96860174092E+02  0.16425477344E+04  0.16785097238E+04  0.12699999809E+01 0.  1.
       -4    1    3    3    0  502  0.33173532682E+03  0.96860174092E+02 -0.16566811527E+03  0.38324634076E+03  0.12699999809E+01 0. -1.
</event>
<event>
 5   0  0.1238683E-03  0.1364483E+04  0.7818609E-02  0.8979937E-01
        1   -1    0    0  501    0  0.00000000000E+00  0.00000000000E+00  0.17712087742E+04  0.17712087742E+04  0.50400001928E-02 0. -1.
       -1   -1    0    0    0  501  0.00000000000E+00  0.00000000000E+00 -0.26278841317E+03  0.26278841322E+03  0.50400001928E-02 0.  1.
    10030    2    1    2    0    0  0.00000000000E+00  0.00000000000E+00  0.15084203610E+04  0.20339971874E+04  0.13644825293E+04 0.  0.
        2    1    3    3  502    0 -0.22647555135E+03 -0.35311501312E+03 -0.47810313631E+02  0.42221702233E+03  0.25500000920E-02 0.  1.
       -2    1    3    3    0  502  0.22647555135E+03  0.35311501312E+03  0.15562306747E+04  0.16117801651E+04  0.25500000920E-02 0. -1.
</event>
<event>
 5   0  0.2190704E-03  0.1395667E+04  0.7818609E-02  0.8956961E-01
       -2   -1    0    0    0  501  0.00000000000E+00  0.00000000000E+00  0.38248423117E+03  0.38248423118E+03  0.25500000920E-02 0.  1.
        2   -1    0    0  501    0  0.00000000000E+00  0.00000000000E+00 -0.12731810261E+04  0.12731810261E+04  0.25500000920E-02 0. -1.
    10030    2    1    2    0    0  0.00000000000E+00  0.00000000000E+00 -0.89069679491E+03  0.16556652573E+04  0.13956671034E+04 0.  0.
        5    1    3    3  502    0  0.17269725933E+03  0.66224394509E+03 -0.60695477610E+03  0.91477187125E+03  0.46999998093E+01 0. -1.
       -5    1    3    3    0  502 -0.17269725933E+03 -0.66224394509E+03 -0.28374201881E+03  0.74089338601E+03  0.46999998093E+01 0.  1.
</event>
<event>
 5   0  0.2190704E-03  0.1356259E+04  0.7818609E-02  0.8986104E-01
        2   -1    0    0  501    0  0.00000000000E+00  0.00000000000E+00  0.16659773757E+04  0.16659773757E+04  0.25500000920E-02 0.  1.
       -2   -1    0    0    0  501  0.00000000000E+00  0.00000000000E+00 -0.27602987258E+03  0.27602987259E+03  0.25500000920E-02 0. -1.
    10030    2    1    2    0    0  0.00000000000E+00  0.00000000000E+00  0.13899475031E+04  0.19420072483E+04  0.13562588584E+04 0.  0.
        5    1    3    3  502    0  0.54688924177E+03 -0.54346975625E+02  0.12617812492E+03  0.56390109570E+03  0.46999998093E+01 0. -1.
       -5    1    3    3    0  502 -0.54688924177E+03  0.54346975625E+02  0.12637693782E+04  0.13781061526E+04  0.46999998093E+01 0.  1.
</event>
<event>
 5   0  0.1199720E-03  0.1330309E+04  0.7818609E-02  0.9005869E-01
       -1   -1    0    0    0  501  0.00000000000E+00  0.00000000000E+00  0.36352738050E+03  0.36352738054E+03  0.50400001928E-02 0.  1.
        1   -1    0    0  501    0  0.00000000000E+00  0.00000000000E+00 -0.12170483728E+04  0.12170483728E+04  0.50400001928E-02 0. -1.
    10030    2    1    2    0    0  0.00000000000E+00  0.00000000000E+00 -0.85352099228E+03  0.15805757533E+04  0.13303088468E+04 0.  0.
        5    1    3    3  502    0 -0.30705818755E+03 -0.20920930888E+03  0.22870991730E+03  0.43632967093E+03  0.46999998093E+01 0.  1.
       -5    1    3    3    0  502  0.30705818755E+03  0.20920930888E+03 -0.10822309096E+04  0.11442460824E+04  0.46999998093E+01 0. -1.
</event>
<event>
 5   0  0.2172901E-03  0.1402877E+04  0.7818609E-02  0.8951739E-01
        2   -1    0    0  501    0  0.00000000000E+00  0.00000000000E+00  0.99694702245E+03  0.99694702245E+03  0.25500000920E-02 0.  1.
       -2   -1    0    0    0  501  0.00000000000E+00  0.00000000000E+00 -0.49352274035E+03  0.49352274036E+03  0.25500000920E-02 0. -1.
    10030    2    1    2    0    0  0.00000000000E+00  0.00000000000E+00  0.50342428210E+03  0.14904697628E+04  0.14028770816E+04 0.  0.
        2    1    3    3  502    0 -0.17288440411E+02 -0.69726954699E+03  0.17268850544E+03  0.71854368778E+03  0.25500000920E-02 0.  1.
       -2    1    3    3    0  502  0.17288440411E+02  0.69726954699E+03  0.33073577666E+03  0.77192607503E+03  0.25500000920E-02 0. -1.
</event>
<event>
 5   0  0.1225690E-03  0.1390792E+04  0.7818609E-02  0.8960511E-01
        1   -1    0    0  501    0  0.00000000000E+00  0.00000000000E+00  0.28971755757E+03  0.28971755762E+03  0.50400001928E-02 0.  1.
       -1   -1    0    0    0  501  0.00000000000E+00  0.00000000000E+00 -0.16691268864E+04  0.16691268864E+04  0.50400001928E-02 0. -1.
    10030    2    1    2    0    0  0.00000000000E+00  0.00000000000E+00 -0.13794093289E+04  0.19588444441E+04  0.13907916665E+04 0.  0.
        4    1    3    3  502    0  0.48743663759E+03  0.45116617928E+03 -0.39959248194E+03  0.77512654548E+03  0.12699999809E+01 0.  1.
       -4    1    3    3    0  502 -0.48743663759E+03 -0.45116617928E+03 -0.97981684692E+03  0.11837178986E+04  0.12699999809E+01 0. -1.
</event>
<event>
 5   0  0.2236184E-03  0.1287946E+04  0.7818609E-02  0.9039179E-01
       -2   -1    0    0    0  501  0.00000000000E+00  0.00000000000E+00  0.36296764123E+03  0.36296764124E+03  0.25500000920E-02 0.  1.
        2   -1    0    0  501    0  0.00000000000E+00  0.00000000000E+00 -0.11425291703E+04  0.11425291703E+04  0.25500000920E-02 0. -1.
    10030    2    1    2    0    0  0.00000000000E+00  0.00000000000E+00 -0.77956152909E+03  0.15054968116E+04  0.12879458343E+04 0.  0.
        3    1    3    3  502    0  0.87242715866E+02  0.18830781905E+03 -0.11023673021E+04  0.11217329473E+04  0.10100000352E+00 0. -1.
       -3    1    3    3    0  502 -0.87242715866E+02 -0.18830781905E+03  0.32280577302E+03  0.38376386422E+03  0.10100000352E+00 0.  1.
</event>
<event>
 5   0  0.2190704E-03  0.1212144E+04  0.7818609E-02  0.9102293E-01
       -2   -1    0    0    0  501  0.00000000000E+00  0.00000000000E+00  0.27345445471E+03  0.27345445472E+03  0.25500000920E-02 0. -1.
        2   -1    0    0  501    0  0.00000000000E+00  0.00000000000E+00 -0.13432709506E+04  0.13432709506E+04  0.25500000920E-02 0.  1.
    10030    2    1    2    0    0  0.00000000000E+00  0.00000000000E+00 -0.10698164959E+04  0.16167254053E+04  0.12121442576E+04 0.  0.
        5    1    3    3  502    0  0.17168071208E+03 -0.37660497516E+03  0.55571890132E+02  0.41763129575E+03  0.46999998093E+01 0. -1.
       -5    1    3    3    0  502 -0.17168071208E+03  0.37660497516E+03 -0.11253883860E+04  0.11990941096E+04  0.46999998093E+01 0.  1.
</event>
<event>
 5   0  0.2172901E-03  0.1384905E+04  0.7818609E-02  0.8964818E-01
        2   -1    0    0  501    0  0.00000000000E+00  0.00000000000E+00  0.95361223479E+03  0.95361223479E+03  0.25500000920E-02 0. -1.
       -2   -1    0    0    0  501  0.00000000000E+00  0.00000000000E+00 -0.50281520582E+03  0.50281520582E+03  0.25500000920E-02 0.  1.
    10030    2    1    2    0    0  0.00000000000E+00  0.00000000000E+00  0.45079702897E+03  0.14564274406E+04  0.13849053861E+04 0.  0.
        2    1    3    3  502    0  0.28673661087E+03 -0.61830758059E+03  0.96733905003E+02  0.68838913168E+03  0.25500000920E-02 0.  1.
       -2    1    3    3    0  502 -0.28673661087E+03  0.61830758059E+03  0.35406312397E+03  0.76803830893E+03  0.25500000920E-02 0. -1.
</event>
<event>
 5   0  0.1175374E-03  0.1411163E+04  0.7818609E-02  0.8945778E-01
        1   -1    0    0  501    0  0.00000000000E+00  0.00000000000E+00  0.59154168167E+03  0.59154168169E+03  0.50400001928E-02 0.  1.
       -1   -1    0    0    0  501  0.00000000000E+00  0.00000000000E+00 -0.84160601586E+03  0.84160601587E+03  0.50400001928E-02 0. -1.
    10030    2    1    2    0    0  0.00000000000E+00  0.00000000000E+00 -0.25006433419E+03  0.14331476976E+04  0.14111626950E+04 0.  0.
        3    1    3    3  502    0 -0.48351728715E+03  0.11271599465E+03 -0.63419221039E+03  0.80541519252E+03  0.10100000352E+00 0. -1.
       -3    1    3    3    0  502  0.48351728715E+03 -0.11271599465E+03  0.38412787620E+03  0.62773250505E+03  0.10100000352E+00 0.  1.
</event>
<event>
 5   0  0.2172901E-03  0.1431341E+04  0.7818609E-02  0.8931439E-01
        2   -1    0    0  501    0  0.00000000000E+00  0.00000000000E+00  0.14182318385E+04  0.14182318385E+04  0.25500000920E-02 0. -1.
       -2   -1    0    0    0  501  0.00000000000E+00  0.00000000000E+00 -0.36114305295E+03  0.36114305296E+03  0.25500000920E-02 0.  1.
    10030    2    1    2    0    0  0.00000000000E+00  0.00000000000E+00  0.10570887855E+04  0.17793748915E+04  0.14313414351E+04 0.  0.
        2    1    3    3  502    0  0.43786643090E+03  0.27296215107E+03 -0.87975290868E+02  0.52342621164E+03  0.25500000920E-02 0.  1.
       -2    1    3    3    0  502 -0.43786643090E+03 -0.27296215107E+03  0.11450640764E+04  0.12559486798E+04  0.25500000920E-02 0. -1.
</event>
<event>
 5   0  0.1199720E-03  0.1395653E+04  0.7818609E-02  0.8956971E-01
        1   -1    0    0  501    0  0.00000000000E+00  0.00000000000E+00  0.20685510345E+04  0.20685510345E+04  0.50400001928E-02 0. -1.
       -1   -1    0    0    0  501  0.00000000000E+00  0.00000000000E+00 -0.23541206259E+03  0.23541206264E+03  0.50400001928E-02 0.  1.
    10030    2    1    2    0    0  0.00000000000E+00  0.00000000000E+00  0.18331389719E+04  0.23039630971E+04  0.13956530596E+04 0.  0.
        5    1    3    3  502    0  0.38921746484E+03  0.27327909964E+03  0.73573985182E+02  0.48125556883E+03  0.46999998093E+01 0.  1.
       -5    1    3    3    0  502 -0.38921746484E+03 -0.27327909964E+03  0.17595649867E+04  0.18227075283E+04  0.46999998093E+01 0. -1.
</event>
<event>
 5   0  0.1225690E-03  0.1220004E+04  0.7818609E-02  0.9095525E-01
       -1   -1    0    0    0  501  0.00000000000E+00  0.00000000000E+00  0.17344634748E+04  0.17344634748E+04  0.50400001928E-02 0.  1.
        1   -1    0    0  501    0  0.00000000000E+00  0.00000000000E+00 -0.21453449985E+03  0.21453449991E+03  0.50400001928E-02 0. -1.
    10030    2    1    2    0    0  0.00000000000E+00  0.00000000000E+00  0.15199289749E+04  0.19489979747E+04  0.12200036953E+04 0.  0.
        4    1    3    3  502    0 -0.57524363129E+03  0.16055056718E+03  0.95833505563E+03  0.11291985705E+04  0.12699999809E+01 0.  1.
       -4    1    3    3    0  502  0.57524363129E+03 -0.16055056718E+03  0.56159391930E+03  0.81979940416E+03  0.12699999809E+01 0. -1.
</event>
<event>
 5   0  0.2236184E-03  0.1437486E+04  0.7818609E-02  0.8927123E-01
        2   -1    0    0  501    0  0.00000000000E+00  0.00000000000E+00  0.18120932934E+04  0.18120932934E+04  0.25500000920E-02 0.  1.
       -2   -1    0    0    0  501  0.00000000000E+00  0.00000000000E+00 -0.28507987743E+03  0.28507987744E+03  0.25500000920E-02 0. -1.
    10030    2    1    2    0    0  0.00000000000E+00  0.00000000000E+00  0.15270134160E+04  0.20971731709E+04  0.14374857690E+04 0.  0.
        3    1    3    3  502    0 -0.32763137259E+03 -0.61283422274E+03  0.49575172677E+03  0.85362631500E+03  0.10100000352E+00 0. -1.
       -3    1    3    3    0  502  0.32763137259E+03  0.61283422274E+03  0.10312616892E+04  0.12435468559E+04  0.10100000352E+00 0.  1.
</event>
<event>
 5   0  0.1175374E-03  0.1403366E+04  0.7818609E-02  0.8951385E-01
       -1   -1    0    0    0  501  0.00000000000E+00  0.00000000000E+00  0.11709753373E+04  0.11709753373E+04  0.50400001928E-02 0.  1.
        1   -1    0    0  501    0  0.00000000000E+00  0.00000000000E+00 -0.42046941296E+03  0.42046941299E+03  0.50400001928E-02 0. -1.
    10030    2    1    2    0    0  0.00000000000E+00  0.00000000000E+00  0.75050592435E+03  0.15914447503E+04  0.14033663994E+04 0.  0.
        3    1    3    3  502    0 -0.37920594834E+03 -0.22326712771E+03  0.99504820377E+03  0.10880102479E+04  0.10100000352E+00 0.  1.
       -3    1    3    3    0  502  0.37920594834E+03  0.22326712771E+03 -0.24454227942E+03  0.50343450239E+03  0.10100000352E+00 0. -1.
</event>
<event>
 5   0  0.1238683E-03  0.1384390E+04  0.7818609E-02  0.8965196E-01
       -1   -1    0    0    0  501  0.00000000000E+00  0.00000000000E+00  0.87501639590E+03  0.87501639591E+03  0.50400001928E-02 0. -1.
        1   -1    0    0  501    0  0.00000000000E+00  0.00000000000E+00 -0.54757161883E+03  0.54757161885E+03  0.50400001928E-02 0.  1.
    10030    2    1    2    0    0  0.00000000000E+00  0.00000000000E+00  0.32744477707E+03  0.14225880148E+04  0.13843903271E+04 0.  0.
        2    1    3    3  502    0 -0.40441796529E+03  0.86307141289E+02 -0.40668943545E+03  0.57999923293E+03  0.25500000920E-02 0.  1.
       -2    1    3    3    0  502  0.40441796529E+03 -0.86307141289E+02  0.73413421251E+03  0.84258878184E+03  0.25500000920E-02 0. -1.
</event>
<event>
 5   0  0.1238683E-03  0.1492921E+04  0.7818609E-02  0.8889174E-01
        1   -1    0    0  501    0  0.00000000000E+00  0.00000000000E+00  0.13649768731E+04  0.13649768731E+04  0.50400001928E-02 0.  1.
       -1   -1    0    0    0  501  0.00000000000E+00  0.00000000000E+00 -0.40821467649E+03  0.40821467652E+03  0.50400001928E-02 0. -1.
    10030    2    1    2    0    0  0.00000000000E+00  0.00000000000E+00  0.95676219664E+03  0.17731915497E+04  0.14929214215E+04 0.  0.
        2    1    3    3  502    0 -0.17387648244E+03 -0.48754650187E+03  0.11171880417E+04  0.12312772812E+04  0.25500000920E-02 0.  1.
       -2    1    3    3    0  502  0.17387648244E+03  0.48754650187E+03 -0.16042584505E+03  0.54191426849E+03  0.25500000920E-02 0. -1.
</event>
<event>
 5   0  0.2195980E-03  0.1406233E+04  0.7818609E-02  0.8949319E-01
        2   -1    0    0  501    0  0.00000000000E+00  0.00000000000E+00  0.10537312515E+04  0.10537312515E+04  0.25500000920E-02 0.  1.
       -2   -1    0    0    0  501  0.00000000000E+00  0.00000000000E+00 -0.46916377375E+03  0.46916377375E+03  0.25500000920E-02 0. -1.
    10030    2    1    2    0    0  0.00000000000E+00  0.00000000000E+00  0.58456747772E+03  0.15228950252E+04  0.14062325988E+04 0.  0.
        4    1    3    3  502    0  0.23068724541E+03 -0.29365249958E+03  0.93746179241E+03  0.10091008973E+04  0.12699999809E+01 0.  1.
       -4    1    3    3    0  502 -0.23068724541E+03  0.29365249958E+03 -0.35289431469E+03  0.51379412797E+03  0.12699999809E+01 0. -1.
</event>
<event>
 5   0  0.1225690E-03  0.1392370E+04  0.7818609E-02  0.8959360E-01
       -1   -1    0    0    0  501  0.00000000000E+00  0.00000000000E+00  0.10363755364E+04  0.10363755364E+04  0.50400001928E-02 0.  1.
        1   -1    0    0  501    0  0.00000000000E+00  0.00000000000E+00 -0.46766209122E+03  0.46766209125E+03  0.50400001928E-02 0. -1.
    10030    2    1    2    0    0  0.00000000000E+00  0.00000000000E+00  0.56871344518E+03  0.15040376277E+04  0.13923699949E+04 0.  0.
        4    1    3    3  502    0  0.32248890194E+03  0.28839276400E+02 -0.38138388368E+03  0.50028599357E+03  0.12699999809E+01 0. -1.
       -4    1    3    3    0  502 -0.32248890194E+03 -0.28839276400E+02  0.95009732886E+03  0.10037516341E+04  0.12699999809E+01 0.  1.
</event>
<event>
 5   0  0.1210275E-03  0.1742123E+04  0.7818609E-02  0.8737698E-01
        1   -1    0    0  501    0  0.00000000000E+00  0.00000000000E+00  0.13062895725E+04  0.13062895725E+04  0.50400001928E-02 0. -1.
       -1   -1    0    0    0  501  0.00000000000E+00  0.00000000000E+00 -0.58084237042E+03  0.58084237045E+03  0.50400001928E-02 0.  1.
    10030    2    1    2    0    0  0.00000000000E+00  0.00000000000E+00  0.72544720208E+03  0.18871319430E+04  0.17421232239E+04 0.  0.
        1    1    3    3  502    0  0.82809899950E+03  0.16819730013E+03  0.13367588853E+03  0.85551594255E+03  0.50400001928E-02 0.  1.
       -1    1    3    3    0  502 -0.82809899950E+03 -0.16819730013E+03  0.59177131355E+03  0.10316160004E+04  0.50400001928E-02 0. -1.
</event>
<event>
 5   0  0.2190704E-03  0.1475745E+04  0.7818609E-02  0.8900744E-01
       -2   -1    0    0    0  501  0.00000000000E+00  0.00000000000E+00  0.18275320659E+04  0.18275320659E+04  0.25500000920E-02 0.  1.
        2   -1    0    0  501    0  0.00000000000E+00  0.00000000000E+00 -0.29791873417E+03  0.29791873418E+03  0.25500000920E-02 0. -1.
    10030    2    1    2    0    0  0.00000000000E+00  0.00000000000E+00  0.15296133317E+04  0.21254508001E+04  0.14757452893E+04 0.  0.
        5    1    3    3  502    0  0.39784202022E+03 -0.61009524868E+03  0.59476212585E+03  0.94035023361E+03  0.46999998093E+01 0. -1.
       -5    1    3    3    0  502 -0.39784202022E+03  0.61009524868E+03  0.93485120589E+03  0.11851005665E+04  0.46999998093E+01 0.  1.
</event>
<event>
 5   0  0.2083966E-03  0.1430046E+04  0.7818609E-02  0.8932352E-01
       -2   -1    0    0    0  501  0.00000000000E+00  0.00000000000E+00  0.99383936993E+03  0.99383936993E+03  0.25500000920E-02 0. -1.
        2   -1    0    0  501    0  0.00000000000E+00  0.00000000000E+00 -0.51442720844E+03  0.51442720844E+03  0.25500000920E-02 0.  1.
    10030    2    1    2    0    0  0.00000000000E+00  0.00000000000E+00  0.47941216149E+03  0.15082665784E+04  0.14300461709E+04 0.  0.
        1    1    3    3  502    0  0.11308947363E+03  0.24046856535E+03  0.93982499003E+03  0.97667055442E+03  0.50400001928E-02 0. -1.
       -1    1    3    3    0  502 -0.11308947363E+03 -0.24046856535E+03 -0.46041282854E+03  0.53159602395E+03  0.50400001928E-02 0.  1.
</event>
<event>
 5   0  0.2083966E-03  0.1290755E+04  0.7818609E-02  0.9036929E-01
        2   -1    0    0  501    0  0.00000000000E+00  0.00000000000E+00  0.86218354872E+03  0.86218354872E+03  0.25500000920E-02 0.  1.
       -2   -1    0    0    0  501  0.00000000000E+00  0.00000000000E+00 -0.48308954250E+03  0.48308954250E+03  0.25500000920E-02 0. -1.
    10030    2    1    2    0    0  0.00000000000E+00  0.00000000000E+00  0.37909400622E+03  0.13452730912E+04  0.12907545950E+04 0.  0.
        1    1    3    3  502    0 -0.46437368776E+03  0.21338059555E+03  0.60032308561E+03  0.78839203927E+03  0.50400001928E-02 0.  1.
       -1    1    3    3    0  502  0.46437368776E+03 -0.21338059555E+03 -0.22122907939E+03  0.55688105196E+03  0.50400001928E-02 0. -1.
</event>
<event>
 5   0  0.1175374E-03  0.1393232E+04  0.7818609E-02  0.8958732E-01
        1   -1    0    0  501    0  0.00000000000E+00  0.00000000000E+00  0.55363295102E+03  0.55363295104E+03  0.50400001928E-02 0. -1.
       -1   -1    0    0    0  501  0.00000000000E+00  0.00000000000E+00 -0.87652626743E+03  0.87652626744E+03  0.50400001928E-02 0.  1.
    10030    2    1    2    0    0  0.00000000000E+00  0.00000000000E+00 -0.32289331641E+03  0.14301592185E+04  0.13932319607E+04 0.  0.
        3    1    3    3  502    0 -0.16545162935E+03 -0.10003916757E+03 -0.84843202509E+03  0.87018330719E+03  0.10100000352E+00 0.  1.
       -3    1    3    3    0  502  0.16545162935E+03  0.10003916757E+03  0.52553870868E+03  0.55997591129E+03  0.10100000352E+00 0. -1.
</event>
<event>
 5   0  0.2190704E-03  0.1392312E+04  0.7818609E-02  0.8959403E-01
       -2   -1    0    0    0  501  0.00000000000E+00  0.00000000000E+00  0.53939581371E+03  0.53939581372E+03  0.25500000920E-02 0. -1.
        2   -1    0    0  501    0  0.00000000000E+00  0.00000000000E+00 -0.89847386957E+03  0.89847386957E+03  0.25500000920E-02 0.  1.
    10030    2    1    2    0    0  0.00000000000E+00  0.00000000000E+00 -0.35907805586E+03  0.14378696833E+04  0.13923118099E+04 0.  0.
        5    1    3    3  502    0 -0.19748740586E+03  0.65285637211E+03 -0.32333680343E+03  0.75484534610E+03  0.46999998093E+01 0.  1.
       -5    1    3    3    0  502  0.19748740586E+03 -0.65285637211E+03 -0.35741252433E+02  0.68302433719E+03  0.46999998093E+01 0. -1.
</event>
<event>
 5   0  0.2172901E-03  0.1455275E+04  0.7818609E-02  0.8914751E-01
        2   -1    0    0  501    0  0.00000000000E+00  0.00000000000E+00  0.13344394651E+04  0.13344394651E+04  0.25500000920E-02 0.  1.
       -2   -1    0    0    0  501  0.00000000000E+00  0.00000000000E+00 -0.39676320247E+03  0.39676320248E+03  0.25500000920E-02 0. -1.
    10030    2    1    2    0    0  0.00000000000E+00  0.00000000000E+00  0.93767626259E+03  0.17312026675E+04  0.14552751983E+04 0.  0.
        2    1    3    3  502    0 -0.68902514041E+03 -0.20865336585E+03  0.59453499903E+03  0.93368288850E+03  0.25500000920E-02 0.  1.
       -2    1    3    3    0  502  0.68902514041E+03  0.20865336585E+03  0.34314126355E+03  0.79751977904E+03  0.25500000920E-02 0. -1.
</event>
<event>
 5   0  0.1199720E-03  0.1320413E+04  0.7818609E-02  0.9013532E-01
       -1   -1    0    0    0  501  0.00000000000E+00  0.00000000000E+00  0.17115421686E+04  0.17115421686E+04  0.50400001928E-02 0. -1.
        1   -1    0    0  501    0  0.00000000000E+00  0.00000000000E+00 -0.25466657097E+03  0.25466657102E+03  0.50400001928E-02 0.  1.
    10030    2    1    2    0    0  0.00000000000E+00  0.00000000000E+00  0.14568755976E+04  0.19662087396E+04  0.13204129281E+04 0.  0.
        5    1    3    3  502    0 -0.14930390785E+01 -0.52013213035E+03  0.13338769456E+04  0.14317085800E+04  0.46999998093E+01 0. -1.
       -5    1    3    3    0  502  0.14930390785E+01  0.52013213035E+03  0.12299865203E+03  0.53450015958E+03  0.46999998093E+01 0.  1.
</event>
<event>
 5   0  0.2083966E-03  0.1412842E+04  0.7818609E-02  0.8944575E-01
        2   -1    0    0  501    0  0.00000000000E+00  0.00000000000E+00  0.12300191589E+04  0.12300191589E+04  0.25500000920E-02 0.  1.
       -2   -1    0    0    0  501  0.00000000000E+00  0.00000000000E+00 -0.40570940016E+03  0.40570940017E+03  0.25500000920E-02 0. -1.
    10030    2    1    2    0    0  0.00000000000E+00  0.00000000000E+00  0.82430975874E+03  0.16357285591E+04  0.14128415837E+04 0.  0.
        1    1    3    3  502    0  0.33969242032E+02 -0.31162240876E+03  0.11450878049E+04  0.11872188156E+04  0.50400001928E-02 0.  1.
       -1    1    3    3    0  502 -0.33969242032E+02  0.31162240876E+03 -0.32077804620E+03  0.44850974348E+03  0.50400001928E-02 0. -1.
</event>
<event>
 5   0  0.2195980E-03  0.1388643E+04  0.7818609E-02  0.8962081E-01
       -2   -1    0    0    0  501  0.00000000000E+00  0.00000000000E+00  0.90733550432E+03  0.90733550433E+03  0.25500000920E-02 0.  1.
        2   -1    0    0  501    0  0.00000000000E+00  0.00000000000E+00 -0.53131622906E+03  0.53131622906E+03  0.25500000920E-02 0. -1.
    10030    2    1    2    0    0  0.00000000000E+00  0.00000000000E+00  0.37601927526E+03  0.14386517334E+04  0.13886426159E+04 0.  0.
        4    1    3    3  502    0 -0.11344776348E+03  0.54137448887E+03 -0.24677493506E+03  0.60568656392E+03  0.12699999809E+01 0.  1.
       -4    1    3    3    0  502  0.11344776348E+03 -0.54137448887E+03  0.62279421033E+03  0.83296516947E+03  0.12699999809E+01 0. -1.
</event>
<event>
 5   0  0.2083966E-03  0.1446285E+04  0.7818609E-02  0.8920980E-01
       -2   -1    0    0    0  501  0.00000000000E+00  0.00000000000E+00  0.72394515138E+03  0.72394515138E+03  0.25500000920E-02 0.  1.
        2   -1    0    0  501    0  0.00000000000E+00  0.00000000000E+00 -0.72234070384E+03  0.72234070384E+03  0.25500000920E-02 0. -1.
    10030    2    1    2    0    0  0.00000000000E+00  0.00000000000E+00  0.16044475380E+01  0.14462858552E+04  0.14462849653E+04 0.  0.
        1    1    3    3  502    0  0.35342485160E+03 -0.82696220593E+02 -0.62464780698E+03  0.72244908016E+03  0.50400001928E-02 0. -1.
       -1    1    3    3    0  502 -0.35342485160E+03  0.82696220593E+02  0.62625225451E+03  0.72383677507E+03  0.50400001928E-02 0.  1.
</event>
<event>
 5   0  0.2172901E-03  0.1392329E+04  0.7818609E-02  0.8959390E-01
        2   -1    0    0  501    0  0.00000000000E+00  0.00000000000E+00  0.13349372633E+04  0.13349372633E+04  0.25500000920E-02 0. -1.
       -2   -1    0    0    0  501  0.00000000000E+00  0.00000000000E+00 -0.36304718674E+03  0.36304718674E+03  0.25500000920E-02 0.  1.
    10030    2    1    2    0    0  0.00000000000E+00  0.00000000000E+00  0.97189007656E+03  0.16979844500E+04  0.13923292971E+04 0.  0.
        2    1    3    3  502    0 -0.16402690157E+03  0.37050116841E+03  0.11763198660E+04  0.12441480488E+04  0.25500000920E-02 0. -1.
       -2    1    3    3    0  502  0.16402690157E+03 -0.37050116841E+03 -0.20442978946E+03  0.45383640120E+03  0.25500000920E-02 0.  1.
</event>
<event>
 5   0  0.1238683E-03  0.1397498E+04  0.7818609E-02  0.8955631E-01
       -1   -1    0    0    0  501  0.00000000000E+00  0.00000000000E+00  0.91366522687E+03  0.91366522689E+03  0.50400001928E-02 0. -1.
        1   -1    0    0  501    0  0.00000000000E+00  0.00000000000E+00 -0.53438648362E+03  0.53438648364E+03  0.50400001928E-02 0.  1.
    10030    2    1    2    0    0  0.00000000000E+00  0.00000000000E+00  0.37927874326E+03  0.14480517105E+04  0.13974982616E+04 0.  0.
        2    1    3    3  502    0  0.41661861331E+03  0.19751444547E+03  0.73367261571E+03  0.86652093580E+03  0.25500000920E-02 0. -1.
       -2    1    3    3    0  502 -0.41661861331E+03 -0.19751444547E+03 -0.35439387245E+03  0.58153077473E+03  0.25500000920E-02 0.  1.
</event>
<event>
 5   0  0.1238683E-03  0.1238031E+04  0.7818609E-02  0.9080204E-01
        1   -1    0    0  501    0  0.00000000000E+00  0.00000000000E+00  0.22499178491E+04  0.22499178491E+04  0.50400001928E-02 0. -1.
       -1   -1    0    0    0  501  0.00000000000E+00  0.00000000000E+00 -0.17030849678E+03  0.17030849685E+03  0.50400001928E-02 0.  1.
    10030    2    1    2    0    0  0.00000000000E+00  0.00000000000E+00  0.20796093523E+04  0.24202263460E+04  0.12380308992E+04 0.  0.
        2    1    3    3  502    0 -0.52479685656E+03  0.71070899265E+02  0.41326824899E+03  0.67175401674E+03  0.25500000920E-02 0.  1.
       -2    1    3    3    0  502  0.52479685656E+03 -0.71070899265E+02  0.16663411034E+04  0.17484723292E+04  0.25500000920E-02 0. -1.
</event>
<event>
 5   0  0.2083966E-03  0.1403259E+04  0.7818609E-02  0.8951463E-01
        2   -1    0    0  501    0  0.00000000000E+00  0.00000000000E+00  0.91065354872E+03  0.91065354872E+03  0.25500000920E-02 0. -1.
       -2   -1    0    0    0  501  0.00000000000E+00  0.00000000000E+00 -0.54058319167E+03  0.54058319167E+03  0.25500000920E-02 0.  1.
    10030    2    1    2    0    0  0.00000000000E+00  0.00000000000E+00  0.37007035705E+03  0.14512367404E+04  0.14032590664E+04 0.  0.
        1    1    3    3  502    0  0.12741918891E+03 -0.54042093502E+03  0.62864558459E+03  0.83874054854E+03  0.50400001928E-02 0. -1.
       -1    1    3    3    0  502 -0.12741918891E+03  0.54042093502E+03 -0.25857522754E+03  0.61249619185E+03  0.50400001928E-02 0.  1.
</event>
<event>
 5   0  0.1210275E-03  0.1431356E+04  0.7818609E-02  0.8931429E-01
        1   -1    0    0  501    0  0.00000000000E+00  0.00000000000E+00  0.95207636627E+03  0.95207636628E+03  0.50400001928E-02 0. -1.
       -1   -1    0    0    0  501  0.00000000000E+00  0.00000000000E+00 -0.53797709229E+03  0.53797709232E+03  0.50400001928E-02 0.  1.
    10030    2    1    2    0    0  0.00000000000E+00  0.00000000000E+00  0.41409927398E+03  0.14900534586E+04  0.14313563850E+04 0.  0.
        1    1    3    3  502    0 -0.28502415858E+03  0.44744230031E+03 -0.29301564703E+03  0.60605408382E+03  0.50400001928E-02 0.  1.
       -1    1    3    3    0  502  0.28502415858E+03 -0.44744230031E+03  0.70711492100E+03  0.88399937478E+03  0.50400001928E-02 0. -1.
</event>
<event>
 5   0  0.1199720E-03  0.1379549E+04  0.7818609E-02  0.8968757E-01
        1   -1    0    0  501    0  0.00000000000E+00  0.00000000000E+00  0.52747862452E+03  0.52747862454E+03  0.50400001928E-02 0. -1.
       -1   -1    0    0    0  501  0.00000000000E+00  0.00000000000E+00 -0.90200560122E+03  0.90200560124E+03  0.50400001928E-02 0.  1.
    10030    2    1    2    0    0  0.00000000000E+00  0.00000000000E+00 -0.37452697671E+03  0.14294842258E+04  0.13795487289E+04 0.  0.
        5    1    3    3  502    0  0.22178801944E+03  0.22969960484E+03  0.44627140371E+03  0.54875503623E+03  0.46999998093E+01 0. -1.
       -5    1    3    3    0  502 -0.22178801944E+03 -0.22969960484E+03 -0.82079838041E+03  0.88072918954E+03  0.46999998093E+01 0.  1.
</event>
<event>
 5   0  0.2083966E-03  0.1384705E+04  0.7818609E-02  0.8964965E-01
       -2   -1    0    0    0  501  0.00000000000E+00  0.00000000000E+00  0.10709436028E+04  0.10709436028E+04  0.25500000920E-02 0. -1.
        2   -1    0    0  501    0  0.00000000000E+00  0.00000000000E+00 -0.44759800680E+03  0.44759800681E+03  0.25500000920E-02 0.  1.
    10030    2    1    2    0    0  0.00000000000E+00  0.00000000000E+00  0.62334559596E+03  0.15185416096E+04  0.13847053434E+04 0.  0.
        1    1    3    3  502    0 -0.41512725900E+03 -0.44471626172E+03 -0.50802251693E+02  0.61047855278E+03  0.50400001928E-02 0.  1.
       -1    1    3    3    0  502  0.41512725900E+03  0.44471626172E+03  0.67414784766E+03  0.90806305680E+03  0.50400001928E-02 0. -1.
</event>
<event>
 5   0  0.1225690E-03  0.1457435E+04  0.7818609E-02  0.8913262E-01
       -1   -1    0    0    0  501  0.00000000000E+00  0.00000000000E+00  0.37626818590E+03  0.37626818594E+03  0.50400001928E-02 0.  1.
        1   -1    0    0  501    0  0.00000000000E+00  0.00000000000E+00 -0.14113051309E+04  0.14113051309E+04  0.50400001928E-02 0. -1.
    10030    2    1    2    0    0  0.00000000000E+00  0.00000000000E+00 -0.10350369450E+04  0.17875733168E+04  0.14574350365E+04 0.  0.
        4    1    3    3  502    0  0.49973241999E+03 -0.54769649168E+02 -0.11645533234E+04  0.12684314179E+04  0.12699999809E+01 0. -1.
       -4    1    3    3    0  502 -0.49973241999E+03  0.54769649168E+02  0.12951637838E+03  0.51914189893E+03  0.12699999809E+01 0.  1.
</event>
<event>
 5   0  0.2172901E-03  0.1370188E+04  0.7818609E-02  0.8975686E-01
       -2   -1    0    0    0  501  0.00000000000E+00  0.00000000000E+00  0.30586794442E+03  0.30586794444E+03  0.25500000920E-02 0.  1.
        2   -1    0    0  501    0  0.00000000000E+00  0.00000000000E+00 -0.15344970460E+04  0.15344970460E+04  0.25500000920E-02 0. -1.
    10030    2    1    2    0    0  0.00000000000E+00  0.00000000000E+00 -0.12286291016E+04  0.18403649904E+04  0.13701875159E+04 0.  0.
        2    1    3    3  502    0  0.42776629915E+02  0.41833689232E+03  0.11212612167E+03  0.43521013627E+03  0.25500000920E-02 0.  1.
       -2    1    3    3    0  502 -0.42776629915E+02 -0.41833689232E+03 -0.13407552232E+04  0.14051548542E+04  0.25500000920E-02 0. -1.
</event>
<event>
 5   0  0.1225690E-03  0.1436242E+04  0.7818609E-02  0.8927995E-01
       -1   -1    0    0    0  501  0.00000000000E+00  0.00000000000E+00  0.21996567912E+03  0.21996567918E+03  0.50400001928E-02 0. -1.
        1   -1    0    0  501    0  0.00000000000E+00  0.00000000000E+00 -0.23444460832E+04  0.23444460832E+04  0.50400001928E-02 0.  1.
    10030    2    1    2    0    0  0.00000000000E+00  0.00000000000E+00 -0.21244804041E+04  0.25644117624E+04  0.14362418667E+04 0.  0.
        4    1    3    3  502    0 -0.59524524118E+03 -0.14820872318E+03 -0.17289123976E+04  0.18345087665E+04  0.12699999809E+01 0.  1.
       -4    1    3    3    0  502  0.59524524118E+03  0.14820872318E+03 -0.39556800642E+03  0.72990299586E+03  0.12699999809E+01 0. -1.
</event>
<event>
 5   0  0.1210275E-03  0.1560185E+04  0.7818609E-02  0.8845388E-01
        1   -1    0    0  501    0  0.00000000000E+00  0.00000000000E+00  0.10251064361E+04  0.10251064361E+04  0.50400001928E-02 0.  1.
       -1   -1    0    0    0  501  0.00000000000E+00  0.00000000000E+00 -0.59364008991E+03  0.59364008994E+03  0.50400001928E-02 0. -1.
    10030    2    1    2    0    0  0.00000000000E+00  0.00000000000E+00  0.43146634617E+03  0.16187465260E+04  0.15601849594E+04 0.  0.
        1    1    3    3  502    0  0.21502610909E+03 -0.40296362523E+03  0.87186917339E+03  0.98426204152E+03  0.50400001928E-02 0.  1.
       -1    1    3    3    0  502 -0.21502610909E+03  0.40296362523E+03 -0.44040282722E+03  0.63448448451E+03  0.50400001928E-02 0. -1.
</event>
<event>
 5   0  0.2190704E-03  0.1385955E+04  0.7818609E-02  0.8964048E-01
       -2   -1    0    0    0  501  0.00000000000E+00  0.00000000000E+00  0.48356543648E+03  0.48356543648E+03  0.25500000920E-02 0.  1.
        2   -1    0    0  501    0  0.00000000000E+00  0.00000000000E+00 -0.99307760262E+03  0.99307760262E+03  0.25500000920E-02 0. -1.
    10030    2    1    2    0    0  0.00000000000E+00  0.00000000000E+00 -0.50951216614E+03  0.14766430391E+04  0.13859552725E+04 0.  0.
        5    1    3    3  502    0  0.67327874530E+02  0.40378581618E+03 -0.85046569542E+03  0.94386970347E+03  0.46999998093E+01 0. -1.
       -5    1    3    3    0  502 -0.67327874530E+02 -0.40378581618E+03  0.34095352928E+03  0.53277333564E+03  0.46999998093E+01 0.  1.
</event>
<event>
 5   0  0.1175374E-03  0.1189668E+04  0.7818609E-02  0.9121949E-01
        1   -1    0    0  501    0  0.00000000000E+00  0.00000000000E+00  0.49851839490E+03  0.49851839493E+03  0.50400001928E-02 0.  1.
       -1   -1    0    0    0  501  0.00000000000E+00  0.00000000000E+00 -0.70975773838E+03  0.70975773840E+03  0.50400001928E-02 0. -1.
    10030    2    1    2    0    0  0.00000000000E+00  0.00000000000E+00 -0.21123934348E+03  0.12082761333E+04  0.11896676654E+04 0.  0.
        3    1    3    3  502    0 -0.95577583204E+02 -0.18652600392E+03  0.45977473157E+03  0.50529183502E+03  0.10100000352E+00 0.  1.
       -3    1    3    3    0  502  0.95577583204E+02  0.18652600392E+03 -0.67101407505E+03  0.70298429831E+03  0.10100000352E+00 0. -1.
</event>
<event>
 5   0  0.1175374E-03  0.1406127E+04  0.7818609E-02  0.8949395E-01
        1   -1    0    0  501    0  0.00000000000E+00  0.00000000000E+00  0.57257229162E+03  0.57257229164E+03  0.50400001928E-02 0.  1.
       -1   -1    0    0    0  501  0.00000000000E+00  0.00000000000E+00 -0.86329460512E+03  0.86329460514E+03  0.50400001928E-02 0. -1.
    10030    2    1    2    0    0  0.00000000000E+00  0.00000000000E+00 -0.29072231350E+03  0.14358668968E+04  0.14061274059E+04 0.  0.
        3    1    3    3  502    0  0.47782417791E+03  0.48670478093E+03 -0.31955949185E+03  0.75320366954E+03  0.10100000352E+00 0. -1.
       -3    1    3    3    0  502 -0.47782417791E+03 -0.48670478093E+03  0.28837178344E+02  0.68266322724E+03  0.10100000352E+00 0.  1.
</event>
<event>
 5   0  0.2172901E-03  0.1405002E+04  0.7818609E-02  0.8950206E-01
        2   -1    0    0  501    0  0.00000000000E+00  0.00000000000E+00  0.76220211818E+03  0.76220211819E+03  0.25500000920E-02 0.  1.
       -2   -1    0    0    0  501  0.00000000000E+00  0.00000000000E+00 -0.64747585726E+03  0.64747585727E+03  0.25500000920E-02 0. -1.
    10030    2    1    2    0    0  0.00000000000E+00  0.00000000000E+00  0.11472626092E+03  0.14096779755E+04  0.14050017365E+04 0.  0.
        2    1    3    3  502    0 -0.50626111374E+03 -0.41475768787E+03 -0.19879664969E+03  0.68399149327E+03  0.25500000920E-02 0. -1.
       -2    1    3    3    0  502  0.50626111374E+03  0.41475768787E+03  0.31352291061E+03  0.72568648218E+03  0.25500000920E-02 0.  1.
</event>
<event>
 5   0  0.2195980E-03  0.1412480E+04  0.7818609E-02  0.8944834E-01
        2   -1    0    0  501    0  0.00000000000E+00  0.00000000000E+00  0.29673317916E+03  0.29673317917E+03  0.25500000920E-02 0.  1.
       -2   -1    0    0    0  501  0.00000000000E+00  0.00000000000E+00 -0.16808865682E+04  0.16808865682E+04  0.25500000920E-02 0. -1.
    10030    2    1    2    0    0  0.00000000000E+00  0.00000000000E+00 -0.13841533890E+04  0.19776197474E+04  0.14124798267E+04 0.  0.
        4    1    3    3  502    0  0.11212579382E+03  0.11433806815E+02  0.28405871805E+03  0.30560414556E+03  0.12699999809E+01 0.  1.
       -4    1    3    3    0  502 -0.11212579382E+03 -0.11433806815E+02 -0.16682121071E+04  0.16720156018E+04  0.12699999809E+01 0. -1.
</event>
<event>
 5   0  0.1175374E-03  0.1415575E+04  0.7818609E-02  0.8942621E-01
        1   -1    0    0  501    0  0.00000000000E+00  0.00000000000E+00  0.93242097789E+03  0.93242097790E+03  0.50400001928E-02 0.  1.
       -1   -1    0    0    0  501  0.00000000000E+00  0.00000000000E+00 -0.53727176481E+03  0.53727176483E+03  0.50400001928E-02 0. -1.
    10030    2    1    2    0    0  0.00000000000E+00  0.00000000000E+00  0.39514921308E+03  0.14696927427E+04  0.14155754510E+04 0.  0.
        3    1    3    3  502    0 -0.38053572490E+03  0.50603869536E+03 -0.13087521536E+03  0.64653764881E+03  0.10100000352E+00 0. -1.
       -3    1    3    3    0  502  0.38053572490E+03 -0.50603869536E+03  0.52602442844E+03  0.82315509392E+03  0.10100000352E+00 0.  1.
</event>
<event>
 5   0  0.2172901E-03  0.1407263E+04  0.7818609E-02  0.8948578E-01
        2   -1    0    0  501    0  0.00000000000E+00  0.00000000000E+00  0.14649787333E+04  0.14649787333E+04  0.25500000920E-02 0. -1.
       -2   -1    0    0    0  501  0.00000000000E+00  0.00000000000E+00 -0.33795521370E+03  0.33795521371E+03  0.25500000920E-02 0.  1.
    10030    2    1    2    0    0  0.00000000000E+00  0.00000000000E+00  0.11270235196E+04  0.18029339470E+04  0.14072628765E+04 0.  0.
        2    1    3    3  502    0  0.59483312296E+02  0.23245435891E+03 -0.28392144990E+03  0.37173200446E+03  0.25500000920E-02 0.  1.
       -2    1    3    3    0  502 -0.59483312296E+02 -0.23245435891E+03  0.14109449695E+04  0.14312019425E+04  0.25500000920E-02 0. -1.
</event>
<event>
 5   0  0.2195980E-03  0.1394985E+04  0.7818609E-02  0.8957456E-01
       -2   -1    0    0    0  501  0.00000000000E+00  0.00000000000E+00  0.39469486135E+03  0.39469486136E+03  0.25500000920E-02 0. -1.
        2   -1    0    0  501    0  0.00000000000E+00  0.00000000000E+00 -0.12325875638E+04  0.12325875638E+04  0.25500000920E-02 0.  1.
    10030    2    1    2    0    0  0.00000000000E+00  0.00000000000E+00 -0.83789270241E+03  0.16272824251E+04  0.13949852724E+04 0.  0.
        4    1    3    3  502    0 -0.35901488259E+03 -0.18478592596E+03  0.24449338757E+03  0.47203406003E+03  0.12699999809E+01 0. -1.
       -4    1    3    3    0  502  0.35901488259E+03  0.18478592596E+03 -0.10823860900E+04  0.11552483651E+04  0.12699999809E+01 0.  1.
</event>
<event>
 5   0  0.2236184E-03  0.1413241E+04  0.7818609E-02  0.8944290E-01
        2   -1    0    0  501    0  0.00000000000E+00  0.00000000000E+00  0.91760359028E+03  0.91760359028E+03  0.25500000920E-02 0. -1.
       -2   -1    0    0    0  501  0.00000000000E+00  0.00000000000E+00 -0.54414831621E+03  0.54414831622E+03  0.25500000920E-02 0.  1.
    10030    2    1    2    0    0  0.00000000000E+00  0.00000000000E+00  0.37345527407E+03  0.14617519065E+04  0.14132408834E+04 0.  0.
        3    1    3    3  502    0  0.65005802595E+03  0.12479776688E+03 -0.69072137353E+02  0.66552301995E+03  0.10100000352E+00 0.  1.
       -3    1    3    3    0  502 -0.65005802595E+03 -0.12479776688E+03  0.44252741142E+03  0.79622888655E+03  0.10100000352E+00 0. -1.
</event>
<event>
 5   0  0.1175374E-03  0.1392197E+04  0.7818609E-02  0.8959486E-01
       -1   -1    0    0    0  501  0.00000000000E+00  0.00000000000E+00  0.58300594058E+03  0.58300594061E+03  0.50400001928E-02 0. -1.
        1   -1    0    0  501    0  0.00000000000E+00  0.00000000000E+00 -0.83112919601E+03  0.83112919603E+03  0.50400001928E-02 0.  1.
    10030    2    1    2    0    0  0.00000000000E+00  0.00000000000E+00 -0.24812325543E+03  0.14141351366E+04  0.13921971968E+04 0.  0.
        3    1    3    3  502    0 -0.14734433446E+03 -0.52338408766E+03 -0.56555066342E+03  0.78453095491E+03  0.10100000352E+00 0.  1.
       -3    1    3    3    0  502  0.14734433446E+03  0.52338408766E+03  0.31742740799E+03  0.62960418173E+03  0.10100000352E+00 0. -1.
</event>
<event>
 5   0  0.2172901E-03  0.1426473E+04  0.7818609E-02  0.8934876E-01
        2   -1    0    0  501    0  0.00000000000E+00  0.00000000000E+00  0.13249861239E+04  0.13249861239E+04  0.25500000920E-02 0.  1.
       -2   -1    0    0    0  501  0.00000000000E+00  0.00000000000E+00 -0.38393306233E+03  0.38393306234E+03  0.25500000920E-02 0. -1.
    10030    2    1    2    0    0  0.00000000000E+00  0.00000000000E+00  0.94105306154E+03  0.17089191862E+04  0.14264725446E+04 0.  0.
        2    1    3    3  502    0  0.43612712227E+03 -0.46745570610E+03  0.84933873468E+03  0.10630606710E+04  0.25500000920E-02 0.  1.
       -2    1    3    3    0  502 -0.43612712227E+03  0.46745570610E+03  0.91714326867E+02  0.64585851524E+03  0.25500000920E-02 0. -1.
</event>
<event>
 5   0  0.1199720E-03  0.1455702E+04  0.7818609E-02  0.8914457E-01
       -1   -1    0    0    0  501  0.00000000000E+00  0.00000000000E+00  0.38720669226E+03  0.38720669229E+03  0.50400001928E-02 0. -1.
        1   -1    0    0  501    0  0.00000000000E+00  0.00000000000E+00 -0.13681772815E+04  0.13681772815E+04  0.50400001928E-02 0.  1.
    10030    2    1    2    0    0  0.00000000000E+00  0.00000000000E+00 -0.98097058921E+03  0.17553839738E+04  0.14557024416E+04 0.  0.
        5    1    3    3  502    0 -0.69402177046E+03  0.10129665083E+03 -0.72498875646E+03  0.10087408073E+04  0.46999998093E+01 0. -1.
       -5    1    3    3    0  502  0.69402177046E+03 -0.10129665083E+03 -0.25598183275E+03  0.74664316647E+03  0.46999998093E+01 0.  1.
</event>
<event>
 5   0  0.1225690E-03  0.1404325E+04  0.7818609E-02  0.8950694E-01
        1   -1    0    0  501    0  0.00000000000E+00  0.00000000000E+00  0.11293443013E+04  0.11293443013E+04  0.50400001928E-02 0. -1.
       -1   -1    0    0    0  501  0.00000000000E+00  0.00000000000E+00 -0.43656507504E+03  0.43656507507E+03  0.50400001928E-02 0.  1.
    10030    2    1    2    0    0  0.00000000000E+00  0.00000000000E+00  0.69277922624E+03  0.15659093764E+04  0.14043251471E+04 0.  0.
        4    1    3    3  502    0  0.30085872254E+03 -0.48836488901E+03  0.79797510685E+03  0.98274214309E+03  0.12699999809E+01 0. -1.
       -4    1    3    3    0  502 -0.30085872254E+03  0.48836488901E+03 -0.10519588061E+03  0.58316723326E+03  0.12699999809E+01 0.  1.
</event>
<event>
 5   0  0.2172901E-03  0.1523372E+04  0.7818609E-02  0.8869058E-01
       -2   -1    0    0    0  501  0.00000000000E+00  0.00000000000E+00  0.45370229343E+03  0.45370229344E+03  0.25500000920E-02 0. -1.
        2   -1    0    0  501    0  0.00000000000E+00  0.00000000000E+00 -0.12787368861E+04  0.12787368861E+04  0.25500000920E-02 0.  1.
    10030    2    1    2    0    0  0.00000000000E+00  0.00000000000E+00 -0.82503459262E+03  0.17324391795E+04  0.15233723877E+04 0.  0.
        2    1    3    3  502    0 -0.74403090341E+03 -0.15513120491E+03 -0.35544892615E+03  0.83904208182E+03  0.25500000920E-02 0. -1.
       -2    1    3    3    0  502  0.74403090341E+03  0.15513120491E+03 -0.46958566647E+03  0.89339709767E+03  0.25500000920E-02 0.  1.
</event>
<event>
 5   0  0.1199720E-03  0.1170628E+04  0.7818609E-02  0.9138962E-01
        1   -1    0    0  501    0  0.00000000000E+00  0.00000000000E+00  0.11662327901E+04  0.11662327901E+04  0.50400001928E-02 0. -1.
       -1   -1    0    0    0  501  0.00000000000E+00  0.00000000000E+00 -0.29375988029E+03  0.29375988033E+03  0.50400001928E-02 0.  1.
    10030    2    1    2    0    0  0.00000000000E+00  0.00000000000E+00  0.87247290984E+03  0.14599926705E+04  0.11706278740E+04 0.  0.
        5    1    3    3  502    0 -0.24293705233E+03  0.53247739421E+03  0.43069690347E+03  0.72668597028E+03  0.46999998093E+01 0.  1.
       -5    1    3    3    0  502  0.24293705233E+03 -0.53247739421E+03  0.44177600637E+03  0.73330670019E+03  0.46999998093E+01 0. -1.
</event>
<event>
 5   0  0.1175374E-03  0.1297898E+04  0.7818609E-02  0.9031234E-01
       -1   -1    0    0    0  501  0.00000000000E+00  0.00000000000E+00  0.29522541816E+03  0.29522541820E+03  0.50400001928E-02 0.  1.
        1   -1    0    0  501    0  0.00000000000E+00  0.00000000000E+00 -0.14264847463E+04  0.14264847463E+04  0.50400001928E-02 0. -1.
    10030    2    1    2    0    0  0.00000000000E+00  0.00000000000E+00 -0.11312593282E+04  0.17217101645E+04  0.12978976166E+04 0.  0.
        3    1    3    3  502    0  0.32645176506E+03 -0.36557143570E+03 -0.11298704525E+04  0.12315926596E+04  0.10100000352E+00 0. -1.
       -3    1    3    3    0  502 -0.32645176506E+03  0.36557143570E+03 -0.13888756992E+01  0.49011750498E+03  0.10100000352E+00 0.  1.
</event>
<event>
 5   0  0.1175374E-03  0.1409339E+04  0.7818609E-02  0.8947086E-01
        1   -1    0    0  501    0  0.00000000000E+00  0.00000000000E+00  0.24178956338E+04  0.24178956338E+04  0.50400001928E-02 0. -1.
       -1   -1    0    0    0  501  0.00000000000E+00  0.00000000000E+00 -0.20536838136E+03  0.20536838143E+03  0.50400001928E-02 0.  1.
    10030    2    1    2    0    0  0.00000000000E+00  0.00000000000E+00  0.22125272524E+04  0.26232640152E+04  0.14093392959E+04 0.  0.
        3    1    3    3  502    0  0.39544218633E+03 -0.62719022325E+02  0.21856036954E+04  0.22219747348E+04  0.10100000352E+00 0. -1.
       -3    1    3    3    0  502 -0.39544218633E+03  0.62719022325E+02  0.26923557055E+02  0.40128928046E+03  0.10100000352E+00 0.  1.
</event>
<event>
 5   0  0.1238683E-03  0.1395239E+04  0.7818609E-02  0.8957272E-01
       -1   -1    0    0    0  501  0.00000000000E+00  0.00000000000E+00  0.68707736732E+03  0.68707736733E+03  0.50400001928E-02 0.  1.
        1   -1    0    0  501    0  0.00000000000E+00  0.00000000000E+00 -0.70832289411E+03  0.70832289413E+03  0.50400001928E-02 0. -1.
    10030    2    1    2    0    0  0.00000000000E+00  0.00000000000E+00 -0.21245526792E+02  0.13954002615E+04  0.13952385163E+04 0.  0.
        2    1    3    3  502    0 -0.32891302619E+02 -0.95473326450E+02  0.67972940342E+03  0.68718924302E+03  0.25500000920E-02 0.  1.
       -2    1    3    3    0  502  0.32891302619E+02  0.95473326450E+02 -0.70097493021E+03  0.70821101844E+03  0.25500000920E-02 0. -1.
</event>
<event>
 5   0  0.2190704E-03  0.1400987E+04  0.7818609E-02  0.8953105E-01
       -2   -1    0    0    0  501  0.00000000000E+00  0.00000000000E+00  0.42925111381E+03  0.42925111382E+03  0.25500000920E-02 0.  1.
        2   -1    0    0  501    0  0.00000000000E+00  0.00000000000E+00 -0.11431324920E+04  0.11431324920E+04  0.25500000920E-02 0. -1.
    10030    2    1    2    0    0  0.00000000000E+00  0.00000000000E+00 -0.71388137821E+03  0.15723836058E+04  0.14009866458E+04 0.  0.
        5    1    3    3  502    0 -0.88931220755E+02 -0.69475582072E+03 -0.34726035161E+03  0.78179681136E+03  0.46999998093E+01 0. -1.
       -5    1    3    3    0  502  0.88931220755E+02  0.69475582072E+03 -0.36662102660E+03  0.79058679448E+03  0.46999998093E+01 0.  1.
</event>
<event>
 5   0  0.1225690E-03  0.1401264E+04  0.7818609E-02  0.8952904E-01
        1   -1    0    0  501    0  0.00000000000E+00  0.00000000000E+00  0.66279333850E+03  0.66279333852E+03  0.50400001928E-02 0. -1.
       -1   -1    0    0    0  501  0.00000000000E+00  0.00000000000E+00 -0.74063118140E+03  0.74063118142E+03  0.50400001928E-02 0.  1.
    10030    2    1    2    0    0  0.00000000000E+00  0.00000000000E+00 -0.77837842900E+02  0.14034245199E+04  0.14012643053E+04 0.  0.
        4    1    3    3  502    0 -0.54679275673E+03 -0.14573798378E+03  0.37483042100E+03  0.67876456606E+03  0.12699999809E+01 0. -1.
       -4    1    3    3    0  502  0.54679275673E+03  0.14573798378E+03 -0.45266826390E+03  0.72465995389E+03  0.12699999809E+01 0.  1.
</event>
<event>
 5   0  0.1175374E-03  0.1392069E+04  0.7818609E-02  0.8959580E-01
        1   -1    0    0  501    0  0.00000000000E+00  0.00000000000E+00  0.70708009613E+03  0.70708009615E+03  0.50400001928E-02 0.  1.
       -1   -1    0    0    0  501  0.00000000000E+00  0.00000000000E+00 -0.68516143060E+03  0.68516143062E+03  0.50400001928E-02 0. -1.
    10030    2    1    2    0    0  0.00000000000E+00  0.00000000000E+00  0.21918665528E+02  0.13922415268E+04  0.13920689785E+04 0.  0.
        3    1    3    3  502    0 -0.45336740508E+03  0.45726588109E+03 -0.25332691749E+03  0.69195998969E+03  0.10100000352E+00 0. -1.
       -3    1    3    3    0  502  0.45336740508E+03 -0.45726588109E+03  0.27524558302E+03  0.70028153708E+03  0.10100000352E+00 0.  1.
</event>
<event>
 5   0  0.2172901E-03  0.1508942E+04  0.7818609E-02  0.8878528E-01
       -2   -1    0    0    0  501  0.00000000000E+00  0.00000000000E+00  0.50466715784E+03  0.50466715785E+03  0.25500000920E-02 0.  1.
        2   -1    0    0  501    0  0.00000000000E+00  0.00000000000E+00 -0.11279247267E+04  0.11279247267E+04  0.25500000920E-02 0. -1.
    10030    2    1    2    0    0  0.00000000000E+00  0.00000000000E+00 -0.62325756889E+03  0.16325918846E+04  0.15089421011E+04 0.  0.
        2    1    3    3  502    0 -0.30433664553E+03  0.66788832716E+03 -0.50067816121E+03  0.88846735027E+03  0.25500000920E-02 0.  1.
       -2    1    3    3    0  502  0.30433664553E+03 -0.66788832716E+03 -0.12257940768E+03  0.74412453431E+03  0.25500000920E-02 0. -1.
</event>
<event>
 5   0  0.8293000E-04  0.1395222E+04  0.7818609E-02  0.8957284E-01
        4   -1    0    0  501    0  0.00000000000E+00  0.00000000000E+00  0.14679028828E+04  0.14679034322E+04  0.12699999809E+01 0.  1.
       -4   -1    0    0    0  501  0.00000000000E+00  0.00000000000E+00 -0.33153332487E+03  0.33153575735E+03  0.12699999809E+01 0. -1.
    10030    2    1    2    0    0  0.00000000000E+00  0.00000000000E+00  0.11363695580E+04  0.17994391896E+04  0.13952224284E+04 0.  0.
        3    1    3    3  502    0 -0.22981291181E+03  0.33609676983E+03  0.12987674546E+04  0.13610921807E+04  0.10100000352E+00 0.  1.
       -3    1    3    3    0  502  0.22981291181E+03 -0.33609676983E+03 -0.16239789664E+03  0.43834700884E+03  0.10100000352E+00 0. -1.
</event>
<event>
 5   0  0.2190704E-03  0.1423898E+04  0.7818609E-02  0.8936699E-01
        2   -1    0    0  501    0  0.00000000000E+00  0.00000000000E+00  0.17189739835E+04  0.17189739835E+04  0.25500000920E-02 0. -1.
       -2   -1    0    0    0  501  0.00000000000E+00  0.00000000000E+00 -0.29486856774E+03  0.29486856775E+03  0.25500000920E-02 0.  1.
    10030    2    1    2    0    0  0.00000000000E+00  0.00000000000E+00  0.14241054157E+04  0.20138425512E+04  0.14238980251E+04 0.  0.
        5    1    3    3  502    0 -0.84180834473E+02 -0.62738128384E+03  0.11728586995E+04  0.13327840438E+04  0.46999998093E+01 0. -1.
       -5    1    3    3    0  502  0.84180834473E+02  0.62738128384E+03  0.25124671619E+03  0.68105850747E+03  0.46999998093E+01 0.  1.
</event>
<event>
 5   0  0.1210275E-03  0.1434642E+04  0.7818609E-02  0.8929118E-01
       -1   -1    0    0    0  501  0.00000000000E+00  0.00000000000E+00  0.41808445611E+03  0.41808445614E+03  0.50400001928E-02 0. -1.
        1   -1    0    0  501    0  0.00000000000E+00  0.00000000000E+00 -0.12307303759E+04  0.12307303759E+04  0.50400001928E-02 0.  1.
    10030    2    1    2    0    0  0.00000000000E+00  0.00000000000E+00 -0.81264591982E+03  0.16488148321E+04  0.14346417530E+04 0.  0.
        1    1    3    3  502    0  0.34071956964E+02 -0.51160734654E+03  0.17020936656E+03  0.54025383273E+03  0.50400001928E-02 0. -1.
       -1    1    3    3    0  502 -0.34071956964E+02  0.51160734654E+03 -0.98285528638E+03  0.11085609994E+04  0.50400001928E-02 0.  1.
</event>
<event>
 5   0  0.2236184E-03  0.1334970E+04  0.7818609E-02  0.9002284E-01
        2   -1    0    0  501    0  0.00000000000E+00  0.00000000000E+00  0.12773447808E+04  0.12773447808E+04  0.25500000920E-02 0.  1.
       -2   -1    0    0    0  501  0.00000000000E+00  0.00000000000E+00 -0.34879887303E+03  0.34879887304E+03  0.25500000920E-02 0. -1.
    10030    2    1    2    0    0  0.00000000000E+00  0.00000000000E+00  0.92854590782E+03  0.16261436539E+04  0.13349702919E+04 0.  0.
        3    1    3    3  502    0  0.65285986912E+03  0.12150557263E+03  0.54641019049E+03  0.85997309223E+03  0.10100000352E+00 0. -1.
       -3    1    3    3    0  502 -0.65285986912E+03 -0.12150557263E+03  0.38213571733E+03  0.76617056166E+03  0.10100000352E+00 0.  1.
</event>
<event>
 5   0  0.2190704E-03  0.1418736E+04  0.7818609E-02  0.8940367E-01
       -2   -1    0    0    0  501  0.00000000000E+00  0.00000000000E+00  0.47324988944E+03  0.47324988944E+03  0.25500000920E-02 0.  1.
        2   -1    0    0  501    0  0.00000000000E+00  0.00000000000E+00 -0.10632922258E+04  0.10632922258E+04  0.25500000920E-02 0. -1.
    10030    2    1    2    0    0  0.00000000000E+00  0.00000000000E+00 -0.59004233634E+03  0.15365421152E+04  0.14187359561E+04 0.  0.
        5    1    3    3  502    0  0.63247142060E+03 -0.29748530668E+03 -0.42616798585E+03  0.81863230313E+03  0.46999998093E+01 0.  1.
       -5    1    3    3    0  502 -0.63247142060E+03  0.29748530668E+03 -0.16387435049E+03  0.71790981210E+03  0.46999998093E+01 0. -1.
</event>
<event>
 5   0  0.1210275E-03  0.1472258E+04  0.7818609E-02  0.8903114E-01
       -1   -1    0    0    0  501  0.00000000000E+00  0.00000000000E+00  0.11838330436E+04  0.11838330436E+04  0.50400001928E-02 0.  1.
        1   -1    0    0  501    0  0.00000000000E+00  0.00000000000E+00 -0.45773834605E+03  0.45773834608E+03  0.50400001928E-02 0. -1.
    10030    2    1    2    0    0  0.00000000000E+00  0.00000000000E+00  0.72609469757E+03  0.16415713897E+04  0.14722578299E+04 0.  0.
        1    1    3    3  502    0 -0.43091524748E+03 -0.31892301978E+02  0.10275559201E+04  0.11147090375E+04  0.50400001928E-02 0.  1.
       -1    1    3    3    0  502  0.43091524748E+03  0.31892301978E+02 -0.30146122252E+03  0.52686235218E+03  0.50400001928E-02 0. -1.
</event>
<event>
 5   0  0.2172901E-03  0.1402598E+04  0.7818609E-02  0.8951940E-01
       -2   -1    0    0    0  501  0.00000000000E+00  0.00000000000E+00  0.37049134684E+03  0.37049134685E+03  0.25500000920E-02 0. -1.
        2   -1    0    0  501    0  0.00000000000E+00  0.00000000000E+00 -0.13274809837E+04  0.13274809837E+04  0.25500000920E-02 0.  1.
    10030    2    1    2    0    0  0.00000000000E+00  0.00000000000E+00 -0.95698963682E+03  0.16979723305E+04  0.14025979004E+04 0.  0.
        2    1    3    3  502    0  0.52600272989E+03 -0.26823664029E+03 -0.93658865873E+03  0.11071712075E+04  0.25500000920E-02 0.  1.
       -2    1    3    3    0  502 -0.52600272989E+03  0.26823664029E+03 -0.20400978098E+02  0.59080112302E+03  0.25500000920E-02 0. -1.
</event>
<event>
 5   0  0.2190704E-03  0.1223267E+04  0.7818609E-02  0.9092731E-01
        2   -1    0    0  501    0  0.00000000000E+00  0.00000000000E+00  0.22456118679E+04  0.22456118679E+04  0.25500000920E-02 0.  1.
       -2   -1    0    0    0  501  0.00000000000E+00  0.00000000000E+00 -0.16658963542E+03  0.16658963544E+03  0.25500000920E-02 0. -1.
    10030    2    1    2    0    0  0.00000000000E+00  0.00000000000E+00  0.20790222325E+04  0.24122015034E+04  0.12232672029E+04 0.  0.
        5    1    3    3  502    0  0.57397792190E+03 -0.79441734157E+02  0.65353604299E+03  0.87343751547E+03  0.46999998093E+01 0.  1.
       -5    1    3    3    0  502 -0.57397792190E+03  0.79441734157E+02  0.14254861895E+04  0.15387639879E+04  0.46999998093E+01 0. -1.
</event>
<event>
 5   0  0.1238683E-03  0.1386605E+04  0.7818609E-02  0.8963572E-01
        1   -1    0    0  501    0  0.00000000000E+00  0.00000000000E+00  0.12999045488E+04  0.12999045488E+04  0.50400001928E-02 0. -1.
       -1   -1    0    0    0  501  0.00000000000E+00  0.00000000000E+00 -0.36977203003E+03  0.36977203006E+03  0.50400001928E-02 0.  1.
    10030    2    1    2    0    0  0.00000000000E+00  0.00000000000E+00  0.93013251878E+03  0.16696765789E+04  0.13866049818E+04 0.  0.
        2    1    3    3  502    0  0.42123866233E+02 -0.69190022126E+03  0.44945837416E+03  0.82614355072E+03  0.25500000920E-02 0. -1.
       -2    1    3    3    0  502 -0.42123866233E+02  0.69190022126E+03  0.48067414462E+03  0.84353302816E+03  0.25500000920E-02 0.  1.
</event>
<event>
 5   0  0.2190704E-03  0.1399804E+04  0.7818609E-02  0.8953960E-01
        2   -1    0    0  501    0  0.00000000000E+00  0.00000000000E+00  0.11257145971E+04  0.11257145971E+04  0.25500000920E-02 0. -1.
       -2   -1    0    0    0  501  0.00000000000E+00  0.00000000000E+00 -0.43515727670E+03  0.43515727671E+03  0.25500000920E-02 0.  1.
    10030    2    1    2    0    0  0.00000000000E+00  0.00000000000E+00  0.69055732038E+03  0.15608718738E+04  0.13998041269E+04 0.  0.
        5    1    3    3  502    0  0.20107334938E+03 -0.65393486714E+03  0.18071876615E+03  0.70763172960E+03  0.46999998093E+01 0.  1.
       -5    1    3    3    0  502 -0.20107334938E+03  0.65393486714E+03  0.50983855424E+03  0.85324014420E+03  0.46999998093E+01 0. -1.
</event>
<event>
 5   0  0.1225690E-03  0.1369143E+04  0.7818609E-02  0.8976462E-01
       -1   -1    0    0    0  501  0.00000000000E+00  0.00000000000E+00  0.72633662253E+03  0.72633662255E+03  0.50400001928E-02 0.  1.
        1   -1    0    0  501    0  0.00000000000E+00  0.00000000000E+00 -0.64520775150E+03  0.64520775152E+03  0.50400001928E-02 0. -1.
    10030    2    1    2    0    0  0.00000000000E+00  0.00000000000E+00  0.81128871028E+02  0.13715443741E+04  0.13691428254E+04 0.  0.
        4    1    3    3  502    0 -0.50434620950E+03 -0.86975102424E+02 -0.41488306240E+03  0.65883179632E+03  0.12699999809E+01 0. -1.
       -4    1    3    3    0  502  0.50434620950E+03  0.86975102424E+02  0.49601193343E+03  0.71271257775E+03  0.12699999809E+01 0.  1.
</event>
<event>
 5   0  0.1199720E-03  0.1426878E+04  0.7818609E-02  0.8934589E-01
       -1   -1    0    0    0  501  0.00000000000E+00  0.00000000000E+00  0.32362646266E+03  0.32362646270E+03  0.50400001928E-02 0.  1.
        1   -1    0    0  501    0  0.00000000000E+00  0.00000000000E+00 -0.15727865662E+04  0.15727865662E+04  0.50400001928E-02 0. -1.
    10030    2    1    2    0    0  0.00000000000E+00  0.00000000000E+00 -0.12491601035E+04  0.18964130289E+04  0.14268782050E+04 0.  0.
        5    1    3    3  502    0 -0.19271381645E+03  0.76676768195E+02 -0.15318116415E+04  0.15457965380E+04  0.46999998093E+01 0. -1.
       -5    1    3    3    0  502  0.19271381645E+03 -0.76676768195E+02  0.28265153793E+03  0.35061649095E+03  0.46999998093E+01 0.  1.
</event>
<event>
 5   0  0.1199720E-03  0.1477854E+04  0.7818609E-02  0.8899315E-01
        1   -1    0    0  501    0  0.00000000000E+00  0.00000000000E+00  0.69826418569E+03  0.69826418570E+03  0.50400001928E-02 0.  1.
       -1   -1    0    0    0  501  0.00000000000E+00  0.00000000000E+00 -0.78195799335E+03  0.78195799336E+03  0.50400001928E-02 0. -1.
    10030    2    1    2    0    0  0.00000000000E+00  0.00000000000E+00 -0.83693807660E+02  0.14802221791E+04  0.14778542032E+04 0.  0.
        5    1    3    3  502    0  0.16897246311E+03 -0.25813390988E+03  0.63065007042E+03  0.70208718122E+03  0.46999998093E+01 0.  1.
       -5    1    3    3    0  502 -0.16897246311E+03  0.25813390988E+03 -0.71434387808E+03  0.77813499784E+03  0.46999998093E+01 0. -1.
</event>
<event>
 5   0  0.1199720E-03  0.1410402E+04  0.7818609E-02  0.8946323E-01
       -1   -1    0    0    0  501  0.00000000000E+00  0.00000000000E+00  0.64776951098E+03  0.64776951100E+03  0.50400001928E-02 0.  1.
        1   -1    0    0  501    0  0.00000000000E+00  0.00000000000E+00 -0.76772411985E+03  0.76772411987E+03  0.50400001928E-02 0. -1.
    10030    2    1    2    0    0  0.00000000000E+00  0.00000000000E+00 -0.11995460888E+03  0.14154936309E+04  0.14104017551E+04 0.  0.
        5    1    3    3  502    0 -0.32996285382E+03  0.30470462402E+03 -0.60559967263E+03  0.75398504381E+03  0.46999998093E+01 0. -1.
       -5    1    3    3    0  502  0.32996285382E+03 -0.30470462402E+03  0.48564506375E+03  0.66150858705E+03  0.46999998093E+01 0.  1.
</event>
<event>
 5   0  0.2236184E-03  0.1177541E+04  0.7818609E-02  0.9132745E-01
        2   -1    0    0  501    0  0.00000000000E+00  0.00000000000E+00  0.13208426379E+04  0.13208426379E+04  0.25500000920E-02 0. -1.
       -2   -1    0    0    0  501  0.00000000000E+00  0.00000000000E+00 -0.26244679733E+03  0.26244679734E+03  0.25500000920E-02 0.  1.
    10030    2    1    2    0    0  0.00000000000E+00  0.00000000000E+00  0.10583958406E+04  0.15832894353E+04  0.11775413710E+04 0.  0.
        3    1    3    3  502    0  0.36315052422E+03  0.26397364153E+03  0.10413555691E+04  0.11340113836E+04  0.10100000352E+00 0. -1.
       -3    1    3    3    0  502 -0.36315052422E+03 -0.26397364153E+03  0.17040271524E+02  0.44927805168E+03  0.10100000352E+00 0.  1.
</event>
<event>
 5   0  0.1199720E-03  0.1405229E+04  0.7818609E-02  0.8950042E-01
       -1   -1    0    0    0  501  0.00000000000E+00  0.00000000000E+00  0.40983780380E+03  0.40983780383E+03  0.50400001928E-02 0. -1.
        1   -1    0    0  501    0  0.00000000000E+00  0.00000000000E+00 -0.12045429620E+04  0.12045429620E+04  0.50400001928E-02 0.  1.
    10030    2    1    2    0    0  0.00000000000E+00  0.00000000000E+00 -0.79470515823E+03  0.16143807659E+04  0.14052291517E+04 0.  0.
        5    1    3    3  502    0 -0.61666943433E+03 -0.32167527482E+03 -0.28310827931E+03  0.75095177041E+03  0.46999998093E+01 0.  1.
       -5    1    3    3    0  502  0.61666943433E+03  0.32167527482E+03 -0.51159687892E+03  0.86342899545E+03  0.46999998093E+01 0. -1.
</event>
<event>
 5   0  0.1199720E-03  0.1392105E+04  0.7818609E-02  0.8959554E-01
       -1   -1    0    0    0  501  0.00000000000E+00  0.00000000000E+00  0.70799681364E+03  0.70799681366E+03  0.50400001928E-02 0.  1.
        1   -1    0    0  501    0  0.00000000000E+00  0.00000000000E+00 -0.68430929507E+03  0.68430929509E+03  0.50400001928E-02 0. -1.
    10030    2    1    2    0    0  0.00000000000E+00  0.00000000000E+00  0.23687518568E+02  0.13923061088E+04  0.13921045945E+04 0.  0.
        5    1    3    3  502    0 -0.55380646304E+03 -0.65778138238E+02 -0.40467582529E+03  0.68906674244E+03  0.46999998093E+01 0. -1.
       -5    1    3    3    0  502  0.55380646304E+03  0.65778138238E+02  0.42836334385E+03  0.70323936631E+03  0.46999998093E+01 0.  1.
</event>
<event>
 5   0  0.2236184E-03  0.1413245E+04  0.7818609E-02  0.8944287E-01
       -2   -1    0    0    0  501  0.00000000000E+00  0.00000000000E+00  0.46710030902E+03  0.46710030903E+03  0.25500000920E-02 0. -1.
        2   -1    0    0  501    0  0.00000000000E+00  0.00000000000E+00 -0.10689680438E+04  0.10689680438E+04  0.25500000920E-02 0.  1.
    10030    2    1    2    0    0  0.00000000000E+00  0.00000000000E+00 -0.60186773477E+03  0.15360683528E+04  0.14132449237E+04 0.  0.
        3    1    3    3  502    0 -0.69174237305E+03  0.74100030371E+02 -0.16641614257E+03  0.71532696571E+03  0.10100000352E+00 0. -1.
       -3    1    3    3    0  502  0.69174237305E+03 -0.74100030371E+02 -0.43545159220E+03  0.82074138711E+03  0.10100000352E+00 0.  1.
</event>
<event>
 5   0  0.2083966E-03  0.1525579E+04  0.7818609E-02  0.8867619E-01
        2   -1    0    0  501    0  0.00000000000E+00  0.00000000000E+00  0.17236816116E+04  0.17236816116E+04  0.25500000920E-02 0. -1.
       -2   -1    0    0    0  501  0.00000000000E+00  0.00000000000E+00 -0.33756096637E+03  0.33756096638E+03  0.25500000920E-02 0.  1.
    10030    2    1    2    0    0  0.00000000000E+00  0.00000000000E+00  0.13861206452E+04  0.20612425780E+04  0.15255787499E+04 0.  0.
        1    1    3    3  502    0  0.26537551022E+03 -0.40166114456E+02 -0.27165397272E+03  0.38188134164E+03  0.50400001928E-02 0.  1.
       -1    1    3    3    0  502 -0.26537551022E+03  0.40166114456E+02  0.16577746180E+04  0.16793612363E+04  0.50400001928E-02 0. -1.
</event>
<event>
 5   0  0.2195980E-03  0.1108981E+04  0.7818609E-02  0.9196483E-01
       -2   -1    0    0    0  501  0.00000000000E+00  0.00000000000E+00  0.23990129143E+03  0.23990129145E+03  0.25500000920E-02 0. -1.
        2   -1    0    0  501    0  0.00000000000E+00  0.00000000000E+00 -0.12816086634E+04  0.12816086634E+04  0.25500000920E-02 0.  1.
    10030    2    1    2    0    0  0.00000000000E+00  0.00000000000E+00 -0.10417073720E+04  0.15215099549E+04  0.11089807455E+04 0.  0.
        4    1    3    3  502    0 -0.24868538274E+03 -0.22120015591E+03  0.87610952288E+02  0.34416743080E+03  0.12699999809E+01 0. -1.
       -4    1    3    3    0  502  0.24868538274E+03  0.22120015591E+03 -0.11293183243E+04  0.11773425241E+04  0.12699999809E+01 0.  1.
</event>
<event>
 5   0  0.1238683E-03  0.1381283E+04  0.7818609E-02  0.8967480E-01
       -1   -1    0    0    0  501  0.00000000000E+00  0.00000000000E+00  0.59351839220E+03  0.59351839223E+03  0.50400001928E-02 0. -1.
        1   -1    0    0  501    0  0.00000000000E+00  0.00000000000E+00 -0.80365761408E+03  0.80365761410E+03  0.50400001928E-02 0.  1.
    10030    2    1    2    0    0  0.00000000000E+00  0.00000000000E+00 -0.21013922188E+03  0.13971760063E+04  0.13812828458E+04 0.  0.
        2    1    3    3  502    0 -0.28523501467E+03 -0.42407902319E+03  0.36480032801E+03  0.62791823578E+03  0.25500000920E-02 0. -1.
       -2    1    3    3    0  502  0.28523501467E+03  0.42407902319E+03 -0.57493954989E+03  0.76925777054E+03  0.25500000920E-02 0.  1.
</event>
<event>
 5   0  0.2190704E-03  0.1397728E+04  0.7818609E-02  0.8955464E-01
       -2   -1    0    0    0  501  0.00000000000E+00  0.00000000000E+00  0.33314259429E+03  0.33314259430E+03  0.25500000920E-02 0.  1.
        2   -1    0    0  501    0  0.00000000000E+00  0.00000000000E+00 -0.14660725615E+04  0.14660725615E+04  0.25500000920E-02 0. -1.
    10030    2    1    2    0    0  0.00000000000E+00  0.00000000000E+00 -0.11329299673E+04  0.17992151558E+04  0.13977284666E+04 0.  0.
        5    1    3    3  502    0 -0.59687241152E+02  0.19616439008E+03  0.29353047681E+03  0.35808555612E+03  0.46999998093E+01 0.  1.
       -5    1    3    3    0  502  0.59687241152E+02 -0.19616439008E+03 -0.14264604441E+04  0.14411295997E+04  0.46999998093E+01 0. -1.
</event>
<event>
 5   0  0.1225690E-03  0.1616703E+04  0.7818609E-02  0.8810352E-01
       -1   -1    0    0    0  501  0.00000000000E+00  0.00000000000E+00  0.77220797814E+03  0.77220797815E+03  0.50400001928E-02 0.  1.
        1   -1    0    0  501    0  0.00000000000E+00  0.00000000000E+00 -0.84618690574E+03  0.84618690575E+03  0.50400001928E-02 0. -1.
    10030    2    1    2    0    0  0.00000000000E+00  0.00000000000E+00 -0.73978927604E+02  0.16183948839E+04  0.16167031634E+04 0.  0.
        4    1    3    3  502    0  0.50188161053E+03  0.60119640157E+03  0.16349092272E+03  0.80003322366E+03  0.12699999809E+01 0.  1.
       -4    1    3    3    0  502 -0.50188161053E+03 -0.60119640157E+03 -0.23746985032E+03  0.81836166025E+03  0.12699999809E+01 0. -1.
</event>
<event>
 5   0  0.2083966E-03  0.1530110E+04  0.7818609E-02  0.8864673E-01
       -2   -1    0    0    0  501  0.00000000000E+00  0.00000000000E+00  0.10785073007E+04  0.10785073007E+04  0.25500000920E-02 0. -1.
        2   -1    0    0  501    0  0.00000000000E+00  0.00000000000E+00 -0.54270318032E+03  0.54270318033E+03  0.25500000920E-02 0.  1.
    10030    2    1    2    0    0  0.00000000000E+00  0.00000000000E+00  0.53580412041E+03  0.16212104811E+04  0.15301102472E+04 0.  0.
        1    1    3    3  502    0 -0.39826180099E+02 -0.76340500304E+03  0.23548609427E+03  0.79989188263E+03  0.50400001928E-02 0.  1.
       -1    1    3    3    0  502  0.39826180099E+02  0.76340500304E+03  0.30031802615E+03  0.82131859844E+03  0.50400001928E-02 0. -1.
</event>
<event>
 5   0  0.2190704E-03  0.1376243E+04  0.7818609E-02  0.8971197E-01
        2   -1    0    0  501    0  0.00000000000E+00  0.00000000000E+00  0.11788262807E+04  0.11788262807E+04  0.25500000920E-02 0.  1.
       -2   -1    0    0    0  501  0.00000000000E+00  0.00000000000E+00 -0.40168049599E+03  0.40168049600E+03  0.25500000920E-02 0. -1.
    10030    2    1    2    0    0  0.00000000000E+00  0.00000000000E+00  0.77714578472E+03  0.15805067767E+04  0.13762434743E+04 0.  0.
        5    1    3    3  502    0 -0.39388734840E+01  0.32756188035E+03  0.10835119176E+04  0.11319595690E+04  0.46999998093E+01 0.  1.
       -5    1    3    3    0  502  0.39388734840E+01 -0.32756188035E+03 -0.30636613290E+03  0.44854720773E+03  0.46999998093E+01 0. -1.
</event>
<event>
 5   0  0.2172901E-03  0.1379663E+04  0.7818609E-02  0.8968672E-01
       -2   -1    0    0    0  501  0.00000000000E+00  0.00000000000E+00  0.42104665494E+03  0.42104665495E+03  0.25500000920E-02 0. -1.
        2   -1    0    0  501    0  0.00000000000E+00  0.00000000000E+00 -0.11302015084E+04  0.11302015084E+04  0.25500000920E-02 0.  1.
    10030    2    1    2    0    0  0.00000000000E+00  0.00000000000E+00 -0.70915485349E+03  0.15512481634E+04  0.13796630959E+04 0.  0.
        2    1    3    3  502    0  0.66242471223E+03 -0.45594500181E+02 -0.14428102899E+03  0.67948684546E+03  0.25500000920E-02 0. -1.
       -2    1    3    3    0  502 -0.66242471223E+03  0.45594500181E+02 -0.56487382450E+03  0.87176131793E+03  0.25500000920E-02 0.  1.
</event>
<event>
 5   0  0.1210275E-03  0.1396881E+04  0.7818609E-02  0.8956079E-01
        1   -1    0    0  501    0  0.00000000000E+00  0.00000000000E+00  0.20739954323E+04  0.20739954323E+04  0.50400001928E-02 0.  1.
       -1   -1    0    0    0  501  0.00000000000E+00  0.00000000000E+00 -0.23520755492E+03  0.23520755498E+03  0.50400001928E-02 0. -1.
    10030    2    1    2    0    0  0.00000000000E+00  0.00000000000E+00  0.18387878774E+04  0.23092029873E+04  0.13968813760E+04 0.  0.
        1    1    3    3  502    0  0.61187277373E+03 -0.11603013117E+03  0.39671701219E+03  0.73840075187E+03  0.50400001928E-02 0. -1.
       -1    1    3    3    0  502 -0.61187277373E+03  0.11603013117E+03  0.14420708652E+04  0.15708022354E+04  0.50400001928E-02 0.  1.
</event>
<event>
 5   0  0.1225690E-03  0.1224600E+04  0.7818609E-02  0.9091593E-01
       -1   -1    0    0    0  501  0.00000000000E+00  0.00000000000E+00  0.22497216483E+03  0.22497216489E+03  0.50400001928E-02 0. -1.
        1   -1    0    0  501    0  0.00000000000E+00  0.00000000000E+00 -0.16664786088E+04  0.16664786088E+04  0.50400001928E-02 0.  1.
    10030    2    1    2    0    0  0.00000000000E+00  0.00000000000E+00 -0.14415064440E+04  0.18914507737E+04  0.12246000169E+04 0.  0.
        4    1    3    3  502    0  0.10877647586E+02  0.54354344273E+02  0.22108663549E+03  0.22793339214E+03  0.12699999809E+01 0. -1.
       -4    1    3    3    0  502 -0.10877647586E+02 -0.54354344273E+02 -0.16625930794E+04  0.16635173815E+04  0.12699999809E+01 0.  1.
</event>
<event>
 5   0  0.2172901E-03  0.1322839E+04  0.7818609E-02  0.9011647E-01
        2   -1    0    0  501    0  0.00000000000E+00  0.00000000000E+00  0.13878266766E+04  0.13878266766E+04  0.25500000920E-02 0.  1.
       -2   -1    0    0    0  501  0.00000000000E+00  0.00000000000E+00 -0.31522349263E+03  0.31522349264E+03  0.25500000920E-02 0. -1.
    10030    2    1    2    0    0  0.00000000000E+00  0.00000000000E+00  0.10726031840E+04  0.17030501693E+04  0.13228387236E+04 0.  0.
        2    1    3    3  502    0 -0.65837441291E+02 -0.63047316750E+03  0.29323943634E+03  0.69844137238E+03  0.25500000920E-02 0. -1.
       -2    1    3    3    0  502  0.65837441291E+02  0.63047316750E+03  0.77936374766E+03  0.10046087969E+04  0.25500000920E-02 0.  1.
</event>
<event>
 5   0  0.2190704E-03  0.1239176E+04  0.7818609E-02  0.9079241E-01
        2   -1    0    0  501    0  0.00000000000E+00  0.00000000000E+00  0.63400216360E+03  0.63400216361E+03  0.25500000920E-02 0.  1.
       -2   -1    0    0    0  501  0.00000000000E+00  0.00000000000E+00 -0.60550123458E+03  0.60550123459E+03  0.25500000920E-02 0. -1.
    10030    2    1    2    0    0  0.00000000000E+00  0.00000000000E+00  0.28500929016E+02  0.12395033982E+04  0.12391756821E+04 0.  0.
        5    1    3    3  502    0 -0.40127978529E+03  0.14828642743E+03 -0.43403395680E+03  0.60944392383E+03  0.46999998093E+01 0. -1.
       -5    1    3    3    0  502  0.40127978529E+03 -0.14828642743E+03  0.46253488582E+03  0.63005947436E+03  0.46999998093E+01 0.  1.
</event>
<event>
 5   0  0.1225690E-03  0.1462279E+04  0.7818609E-02  0.8909932E-01
        1   -1    0    0  501    0  0.00000000000E+00  0.00000000000E+00  0.39688514651E+03  0.39688514654E+03  0.50400001928E-02 0.  1.
       -1   -1    0    0    0  501  0.00000000000E+00  0.00000000000E+00 -0.13469002484E+04  0.13469002484E+04  0.50400001928E-02 0. -1.
    10030    2    1    2    0    0  0.00000000000E+00  0.00000000000E+00 -0.95001510188E+03  0.17437853949E+04  0.14622786362E+04 0.  0.
        4    1    3    3  502    0  0.44401127834E+03 -0.19153114898E+03 -0.11289708366E+04  0.12281722025E+04  0.12699999809E+01 0. -1.
       -4    1    3    3    0  502 -0.44401127834E+03  0.19153114898E+03  0.17895573468E+03  0.51561319243E+03  0.12699999809E+01 0.  1.
</event>
<event>
 5   0  0.1238683E-03  0.1410840E+04  0.7818609E-02  0.8946009E-01
        1   -1    0    0  501    0  0.00000000000E+00  0.00000000000E+00  0.85961194559E+03  0.85961194560E+03  0.50400001928E-02 0.  1.
       -1   -1    0    0    0  501  0.00000000000E+00  0.00000000000E+00 -0.57888581085E+03  0.57888581088E+03  0.50400001928E-02 0. -1.
    10030    2    1    2    0    0  0.00000000000E+00  0.00000000000E+00  0.28072613473E+03  0.14384977565E+04  0.14108396906E+04 0.  0.
        2    1    3    3  502    0  0.21871632089E+03 -0.42961517769E+03  0.66544538249E+03  0.82171989571E+03  0.25500000920E-02 0.  1.
       -2    1    3    3    0  502 -0.21871632089E+03  0.42961517769E+03 -0.38471924776E+03  0.61677786076E+03  0.25500000920E-02 0. -1.
</event>
<event>
 5   0  0.2195980E-03  0.1371866E+04  0.7818609E-02  0.8974439E-01
       -2   -1    0    0    0  501  0.00000000000E+00  0.00000000000E+00  0.47649931124E+03  0.47649931124E+03  0.25500000920E-02 0.  1.
        2   -1    0    0  501    0  0.00000000000E+00  0.00000000000E+00 -0.98741870659E+03  0.98741870660E+03  0.25500000920E-02 0. -1.
    10030    2    1    2    0    0  0.00000000000E+00  0.00000000000E+00 -0.51091939535E+03  0.14639180178E+04  0.13718663690E+04 0.  0.
        4    1    3    3  502    0 -0.34509784280E+03  0.40611458063E+03 -0.71627024652E+03  0.89278567006E+03  0.12699999809E+01 0. -1.
       -4    1    3    3    0  502  0.34509784280E+03 -0.40611458063E+03  0.20535085117E+03  0.57113234778E+03  0.12699999809E+01 0.  1.
</event>
<event>
 5   0  0.1199720E-03  0.1399555E+04  0.7818609E-02  0.8954141E-01
       -1   -1    0    0    0  501  0.00000000000E+00  0.00000000000E+00  0.41639980460E+03  0.41639980464E+03  0.50400001928E-02 0. -1.
        1   -1    0    0  501    0  0.00000000000E+00  0.00000000000E+00 -0.11760054930E+04  0.11760054930E+04  0.50400001928E-02 0.  1.
    10030    2    1    2    0    0  0.00000000000E+00  0.00000000000E+00 -0.75960568840E+03  0.15924052976E+04  0.13995548686E+04 0.  0.
        5    1    3    3  502    0 -0.52514600189E+03 -0.36015184159E+03 -0.49688208452E+02  0.63873208809E+03  0.46999998093E+01 0. -1.
       -5    1    3    3    0  502  0.52514600189E+03  0.36015184159E+03 -0.70991747995E+03  0.95367320956E+03  0.46999998093E+01 0.  1.
</event>
<event>
 5   0  0.2195980E-03  0.1387856E+04  0.7818609E-02  0.8962656E-01
       -2   -1    0    0    0  501  0.00000000000E+00  0.00000000000E+00  0.30087760970E+03  0.30087760971E+03  0.25500000920E-02 0. -1.
        2   -1    0    0  501    0  0.00000000000E+00  0.00000000000E+00 -0.16004376123E+04  0.16004376123E+04  0.25500000920E-02 0.  1.
    10030    2    1    2    0    0  0.00000000000E+00  0.00000000000E+00 -0.12995600026E+04  0.19013152220E+04  0.13878556745E+04 0.  0.
        4    1    3    3  502    0 -0.73211896176E+02 -0.32774347554E+03 -0.14816985696E+04  0.15192787866E+04  0.12699999809E+01 0.  1.
       -4    1    3    3    0  502  0.73211896176E+02  0.32774347554E+03  0.18213856696E+03  0.38203643541E+03  0.12699999809E+01 0. -1.
</event>
<event>
 5   0  0.2195980E-03  0.1469567E+04  0.7818609E-02  0.8904947E-01
       -2   -1    0    0    0  501  0.00000000000E+00  0.00000000000E+00  0.69469543220E+03  0.69469543221E+03  0.25500000920E-02 0.  1.
        2   -1    0    0  501    0  0.00000000000E+00  0.00000000000E+00 -0.77718494764E+03  0.77718494764E+03  0.25500000920E-02 0. -1.
    10030    2    1    2    0    0  0.00000000000E+00  0.00000000000E+00 -0.82489515434E+02  0.14718803798E+04  0.14695670561E+04 0.  0.
        4    1    3    3  502    0 -0.58861951279E+03  0.43041645312E+03 -0.13179706667E+03  0.74101506978E+03  0.12699999809E+01 0. -1.
       -4    1    3    3    0  502  0.58861951279E+03 -0.43041645312E+03  0.49307551237E+02  0.73086531007E+03  0.12699999809E+01 0.  1.
</event>
<event>
 5   0  0.2236184E-03  0.1407422E+04  0.7818609E-02  0.8948463E-01
       -2   -1    0    0    0  501  0.00000000000E+00  0.00000000000E+00  0.31006407908E+03  0.31006407909E+03  0.25500000920E-02 0. -1.
        2   -1    0    0  501    0  0.00000000000E+00  0.00000000000E+00 -0.15971193557E+04  0.15971193557E+04  0.25500000920E-02 0.  1.
    10030    2    1    2    0    0  0.00000000000E+00  0.00000000000E+00 -0.12870552766E+04  0.19071834348E+04  0.14074222426E+04 0.  0.
        3    1    3    3  502    0  0.47570603649E+03  0.44339226955E+03 -0.10079344088E+04  0.11995102003E+04  0.10100000352E+00 0.  1.
       -3    1    3    3    0  502 -0.47570603649E+03 -0.44339226955E+03 -0.27912086784E+03  0.70767323456E+03  0.10100000352E+00 0. -1.
</event>
<event>
 5   0  0.1238683E-03  0.1415837E+04  0.7818609E-02  0.8942434E-01
       -1   -1    0    0    0  501  0.00000000000E+00  0.00000000000E+00  0.13928673481E+04  0.13928673481E+04  0.50400001928E-02 0. -1.
        1   -1    0    0  501    0  0.00000000000E+00  0.00000000000E+00 -0.35979654629E+03  0.35979654633E+03  0.50400001928E-02 0.  1.
    10030    2    1    2    0    0  0.00000000000E+00  0.00000000000E+00  0.10330708018E+04  0.17526638944E+04  0.14158373654E+04 0.  0.
        2    1    3    3  502    0  0.23986690000E+01 -0.45187864025E+02  0.13910751672E+04  0.13918109849E+04  0.25500000920E-02 0. -1.
       -2    1    3    3    0  502 -0.23986690000E+01  0.45187864025E+02 -0.35800436544E+03  0.36085290957E+03  0.25500000920E-02 0.  1.
</event>
<event>
 5   0  0.1225690E-03  0.1343156E+04  0.7818609E-02  0.8996025E-01
       -1   -1    0    0    0  501  0.00000000000E+00  0.00000000000E+00  0.42955337551E+03  0.42955337554E+03  0.50400001928E-02 0. -1.
        1   -1    0    0  501    0  0.00000000000E+00  0.00000000000E+00 -0.10499677445E+04  0.10499677445E+04  0.50400001928E-02 0.  1.
    10030    2    1    2    0    0  0.00000000000E+00  0.00000000000E+00 -0.62041436903E+03  0.14795211201E+04  0.13431562662E+04 0.  0.
        4    1    3    3  502    0  0.36326066286E+02 -0.18814926294E+03  0.39879882595E+03  0.44244982169E+03  0.12699999809E+01 0. -1.
       -4    1    3    3    0  502 -0.36326066286E+02  0.18814926294E+03 -0.10192131950E+04  0.10370712984E+04  0.12699999809E+01 0.  1.
</event>
<event>
 5   0  0.1199720E-03  0.1394646E+04  0.7818609E-02  0.8957703E-01
        1   -1    0    0  501    0  0.00000000000E+00  0.00000000000E+00  0.10358497621E+04  0.10358497621E+04  0.50400001928E-02 0. -1.
       -1   -1    0    0    0  501  0.00000000000E+00  0.00000000000E+00 -0.46943043486E+03  0.46943043489E+03  0.50400001928E-02 0.  1.
    10030    2    1    2    0    0  0.00000000000E+00  0.00000000000E+00  0.56641932723E+03  0.15052801970E+04  0.13946460545E+04 0.  0.
        5    1    3    3  502    0 -0.56541381250E+03  0.21184882360E+03 -0.93264763791E+02  0.61097717600E+03  0.46999998093E+01 0.  1.
       -5    1    3    3    0  502  0.56541381250E+03 -0.21184882360E+03  0.65968409102E+03  0.89430302100E+03  0.46999998093E+01 0. -1.
</event>
<event>
 5   0  0.2083966E-03  0.1417441E+04  0.7818609E-02  0.8941290E-01
        2   -1    0    0  501    0  0.00000000000E+00  0.00000000000E+00  0.65998525326E+03  0.65998525326E+03  0.25500000920E-02 0.  1.
       -2   -1    0    0    0  501  0.00000000000E+00  0.00000000000E+00 -0.76105459489E+03  0.76105459489E+03  0.25500000920E-02 0. -1.
    10030    2    1    2    0    0  0.00000000000E+00  0.00000000000E+00 -0.10106934163E+03  0.14210398482E+04  0.14174410881E+04 0.  0.
        1    1    3    3  502    0 -0.12248055361E+03  0.84304123246E+02  0.64417209089E+03  0.66110994087E+03  0.50400001928E-02 0.  1.
       -1    1    3    3    0  502  0.12248055361E+03 -0.84304123246E+02 -0.74524143252E+03  0.75992990728E+03  0.50400001928E-02 0. -1.
</event>
<event>
 5   0  0.2190704E-03  0.1428181E+04  0.7818609E-02  0.8933669E-01
        2   -1    0    0  501    0  0.00000000000E+00  0.00000000000E+00  0.18273062970E+04  0.18273062970E+04  0.25500000920E-02 0. -1.
       -2   -1    0    0    0  501  0.00000000000E+00  0.00000000000E+00 -0.27905846121E+03  0.27905846122E+03  0.25500000920E-02 0.  1.
    10030    2    1    2    0    0  0.00000000000E+00  0.00000000000E+00  0.15482478358E+04  0.21063647582E+04  0.14281810577E+04 0.  0.
        5    1    3    3  502    0  0.44063678203E+03  0.54771662611E+03  0.95921080928E+03  0.11892273722E+04  0.46999998093E+01 0. -1.
       -5    1    3    3    0  502 -0.44063678203E+03 -0.54771662611E+03  0.58903702647E+03  0.91713738597E+03  0.46999998093E+01 0.  1.
</event>
<event>
 5   0  0.2195980E-03  0.1417408E+04  0.7818609E-02  0.8941313E-01
        2   -1    0    0  501    0  0.00000000000E+00  0.00000000000E+00  0.19927715541E+04  0.19927715541E+04  0.25500000920E-02 0.  1.
       -2   -1    0    0    0  501  0.00000000000E+00  0.00000000000E+00 -0.25204177128E+03  0.25204177129E+03  0.25500000920E-02 0. -1.
    10030    2    1    2    0    0  0.00000000000E+00  0.00000000000E+00  0.17407297828E+04  0.22448133254E+04  0.14174084412E+04 0.  0.
        4    1    3    3  502    0 -0.17361340498E+03 -0.65011850404E+03  0.51813072256E+03  0.84926835703E+03  0.12699999809E+01 0. -1.
       -4    1    3    3    0  502  0.17361340498E+03  0.65011850404E+03  0.12225990603E+04  0.13955449684E+04  0.12699999809E+01 0.  1.
</event>
<event>
 5   0  0.1199720E-03  0.1431609E+04  0.7818609E-02  0.8931251E-01
        1   -1    0    0  501    0  0.00000000000E+00  0.00000000000E+00  0.39281957649E+03  0.39281957652E+03  0.50400001928E-02 0. -1.
       -1   -1    0    0    0  501  0.00000000000E+00  0.00000000000E+00 -0.13043550062E+04  0.13043550062E+04  0.50400001928E-02 0.  1.
    10030    2    1    2    0    0  0.00000000000E+00  0.00000000000E+00 -0.91153542972E+03  0.16971745827E+04  0.14316091382E+04 0.  0.
        5    1    3    3  502    0  0.11397855730E+03 -0.16168523936E+03 -0.12712865554E+04  0.12865942733E+04  0.46999998093E+01 0.  1.
       -5    1    3    3    0  502 -0.11397855730E+03  0.16168523936E+03  0.35975112563E+03  0.41058030949E+03  0.46999998093E+01 0. -1.
</event>
<event>
 5   0  0.1210275E-03  0.1402318E+04  0.7818609E-02  0.8952142E-01
       -1   -1    0    0    0  501  0.00000000000E+00  0.00000000000E+00  0.47768406362E+03  0.47768406365E+03  0.50400001928E-02 0.  1.
        1   -1    0    0  501    0  0.00000000000E+00  0.00000000000E+00 -0.10291827624E+04  0.10291827624E+04  0.50400001928E-02 0. -1.
    10030    2    1    2    0    0  0.00000000000E+00  0.00000000000E+00 -0.55149869877E+03  0.15068668260E+04  0.14023183721E+04 0.  0.
        1    1    3    3  502    0  0.39571045242E+03  0.30692071855E+03  0.25158972880E+03  0.56043240564E+03  0.50400001928E-02 0.  1.
       -1    1    3    3    0  502 -0.39571045242E+03 -0.30692071855E+03 -0.80308842756E+03  0.94643442041E+03  0.50400001928E-02 0. -1.
</event>
<event>
 5   0  0.1238683E-03  0.1421367E+04  0.7818609E-02  0.8938495E-01
        1   -1    0    0  501    0  0.00000000000E+00  0.00000000000E+00  0.99172898134E+03  0.99172898136E+03  0.50400001928E-02 0.  1.
       -1   -1    0    0    0  501  0.00000000000E+00  0.00000000000E+00 -0.50928362195E+03  0.50928362198E+03  0.50400001928E-02 0. -1.
    10030    2    1    2    0    0  0.00000000000E+00  0.00000000000E+00  0.48244535939E+03  0.15010126033E+04  0.14213674087E+04 0.  0.
        2    1    3    3  502    0 -0.18283954568E+03 -0.15764641509E+03 -0.46465434257E+03  0.52362806431E+03  0.25500000920E-02 0. -1.
       -2    1    3    3    0  502  0.18283954568E+03  0.15764641509E+03  0.94709970196E+03  0.97738453902E+03  0.25500000920E-02 0.  1.
</event>
<event>
 5   0  0.1238683E-03  0.1389957E+04  0.7818609E-02  0.8961120E-01
        1   -1    0    0  501    0  0.00000000000E+00  0.00000000000E+00  0.11989208231E+04  0.11989208231E+04  0.50400001928E-02 0. -1.
       -1   -1    0    0    0  501  0.00000000000E+00  0.00000000000E+00 -0.40285824833E+03  0.40285824836E+03  0.50400001928E-02 0.  1.
    10030    2    1    2    0    0  0.00000000000E+00  0.00000000000E+00  0.79606257476E+03  0.16017790715E+04  0.13899570392E+04 0.  0.
        2    1    3    3  502    0  0.41076168725E+03 -0.30549062828E+03  0.93971250101E+03  0.10700977863E+04  0.25500000920E-02 0. -1.
       -2    1    3    3    0  502 -0.41076168725E+03  0.30549062828E+03 -0.14364992624E+03  0.53168128517E+03  0.25500000920E-02 0.  1.
</event>
<event>
 5   0  0.1175374E-03  0.1305031E+04  0.7818609E-02  0.9025585E-01
        1   -1    0    0  501    0  0.00000000000E+00  0.00000000000E+00  0.21034694688E+04  0.21034694688E+04  0.50400001928E-02 0.  1.
       -1   -1    0    0    0  501  0.00000000000E+00  0.00000000000E+00 -0.20241617322E+03  0.20241617328E+03  0.50400001928E-02 0. -1.
    10030    2    1    2    0    0  0.00000000000E+00  0.00000000000E+00  0.19010532956E+04  0.23058856421E+04  0.13050306363E+04 0.  0.
        3    1    3    3  502    0  0.54631338205E+03  0.18545484971E+03  0.14891460355E+04  0.15969996048E+04  0.10100000352E+00 0.  1.
       -3    1    3    3    0  502 -0.54631338205E+03 -0.18545484971E+03  0.41190726013E+03  0.70888603727E+03  0.10100000352E+00 0. -1.
</event>
<event>
 5   0  0.2083966E-03  0.1386914E+04  0.7818609E-02  0.8963346E-01
        2   -1    0    0  501    0  0.00000000000E+00  0.00000000000E+00  0.21335719087E+04  0.21335719087E+04  0.25500000920E-02 0.  1.
       -2   -1    0    0    0  501  0.00000000000E+00  0.00000000000E+00 -0.22538849240E+03  0.22538849241E+03  0.25500000920E-02 0. -1.
    10030    2    1    2    0    0  0.00000000000E+00  0.00000000000E+00  0.19081834163E+04  0.23589604011E+04  0.13869139208E+04 0.  0.
        1    1    3    3  502    0 -0.50239530404E+02  0.80126361628E+02  0.21225514683E+04  0.21246573794E+04  0.50400001928E-02 0.  1.
       -1    1    3    3    0  502  0.50239530404E+02 -0.80126361628E+02 -0.21436805200E+03  0.23430302172E+03  0.50400001928E-02 0. -1.
</event>
<event>
 5   0  0.1238683E-03  0.1371929E+04  0.7818609E-02  0.8974392E-01
       -1   -1    0    0    0  501  0.00000000000E+00  0.00000000000E+00  0.30374529424E+03  0.30374529428E+03  0.50400001928E-02 0.  1.
        1   -1    0    0  501    0  0.00000000000E+00  0.00000000000E+00 -0.15491504012E+04  0.15491504012E+04  0.50400001928E-02 0. -1.
    10030    2    1    2    0    0  0.00000000000E+00  0.00000000000E+00 -0.12454051070E+04  0.18528956955E+04  0.13719287802E+04 0.  0.
        2    1    3    3  502    0 -0.49887933719E+03  0.25247420868E+03 -0.85989020768E+02  0.56570127348E+03  0.25500000920E-02 0.  1.
       -2    1    3    3    0  502  0.49887933719E+03 -0.25247420868E+03 -0.11594160862E+04  0.12871944220E+04  0.25500000920E-02 0. -1.
</event>
<event>
 5   0  0.1210275E-03  0.1412542E+04  0.7818609E-02  0.8944790E-01
        1   -1    0    0  501    0  0.00000000000E+00  0.00000000000E+00  0.39945074903E+03  0.39945074906E+03  0.50400001928E-02 0. -1.
       -1   -1    0    0    0  501  0.00000000000E+00  0.00000000000E+00 -0.12487608400E+04  0.12487608400E+04  0.50400001928E-02 0.  1.
    10030    2    1    2    0    0  0.00000000000E+00  0.00000000000E+00 -0.84931009098E+03  0.16482115891E+04  0.14125416142E+04 0.  0.
        1    1    3    3  502    0  0.28407669069E+02 -0.60966331313E+03 -0.99384793533E+01  0.61040570479E+03  0.50400001928E-02 0. -1.
       -1    1    3    3    0  502 -0.28407669069E+02  0.60966331313E+03 -0.83937161162E+03  0.10378058843E+04  0.50400001928E-02 0.  1.
</event>
<event>
 5   0  0.2195980E-03  0.1417147E+04  0.7818609E-02  0.8941499E-01
       -2   -1    0    0    0  501  0.00000000000E+00  0.00000000000E+00  0.86514927208E+03  0.86514927209E+03  0.25500000920E-02 0. -1.
        2   -1    0    0  501    0  0.00000000000E+00  0.00000000000E+00 -0.58033501018E+03  0.58033501019E+03  0.25500000920E-02 0.  1.
    10030    2    1    2    0    0  0.00000000000E+00  0.00000000000E+00  0.28481426190E+03  0.14454842823E+04  0.14171470095E+04 0.  0.
        4    1    3    3  502    0 -0.33971771326E+03  0.37505393143E+03 -0.36349569073E+03  0.62306043548E+03  0.12699999809E+01 0.  1.
       -4    1    3    3    0  502  0.33971771326E+03 -0.37505393143E+03  0.64830995263E+03  0.82242384679E+03  0.12699999809E+01 0. -1.
</event>
<event>
 5   0  0.1199720E-03  0.1427929E+04  0.7818609E-02  0.8933846E-01
       -1   -1    0    0    0  501  0.00000000000E+00  0.00000000000E+00  0.11290936803E+04  0.11290936803E+04  0.50400001928E-02 0.  1.
        1   -1    0    0  501    0  0.00000000000E+00  0.00000000000E+00 -0.45146433995E+03  0.45146433998E+03  0.50400001928E-02 0. -1.
    10030    2    1    2    0    0  0.00000000000E+00  0.00000000000E+00  0.67762934032E+03  0.15805580203E+04  0.14279293164E+04 0.  0.
        5    1    3    3  502    0 -0.48388002073E+03 -0.50071976147E+03  0.51334986820E+03  0.86510712121E+03  0.46999998093E+01 0.  1.
       -5    1    3    3    0  502  0.48388002073E+03  0.50071976147E+03  0.16427947212E+03  0.71545089905E+03  0.46999998093E+01 0. -1.
</event>
<event>
 5   0  0.1199720E-03  0.1366118E+04  0.7818609E-02  0.8978716E-01
        1   -1    0    0  501    0  0.00000000000E+00  0.00000000000E+00  0.53495759876E+03  0.53495759879E+03  0.50400001928E-02 0.  1.
       -1   -1    0    0    0  501  0.00000000000E+00  0.00000000000E+00 -0.87216206684E+03  0.87216206685E+03  0.50400001928E-02 0. -1.
    10030    2    1    2    0    0  0.00000000000E+00  0.00000000000E+00 -0.33720446807E+03  0.14071196656E+04  0.13661181867E+04 0.  0.
        5    1    3    3  502    0  0.22088054681E+03  0.14931447208E+03 -0.81633604999E+03  0.85878382847E+03  0.46999998093E+01 0. -1.
       -5    1    3    3    0  502 -0.22088054681E+03 -0.14931447208E+03  0.47913158192E+03  0.54833583716E+03  0.46999998093E+01 0.  1.
</event>
<event>
 5   0  0.1238683E-03  0.1377851E+04  0.7818609E-02  0.8970009E-01
        1   -1    0    0  501    0  0.00000000000E+00  0.00000000000E+00  0.61947593950E+03  0.61947593952E+03  0.50400001928E-02 0. -1.
       -1   -1    0    0    0  501  0.00000000000E+00  0.00000000000E+00 -0.76616114424E+03  0.76616114426E+03  0.50400001928E-02 0.  1.
    10030    2    1    2    0    0  0.00000000000E+00  0.00000000000E+00 -0.14668520474E+03  0.13856370838E+04  0.13778510727E+04 0.  0.
        2    1    3    3  502    0 -0.54553719490E+03 -0.11026309715E+03 -0.48165370118E+03  0.73604284487E+03  0.25500000920E-02 0. -1.
       -2    1    3    3    0  502  0.54553719490E+03  0.11026309715E+03  0.33496849644E+03  0.64959423891E+03  0.25500000920E-02 0.  1.
</event>
<event>
 5   0  0.2083966E-03  0.1496256E+04  0.7818609E-02  0.8886947E-01
       -2   -1    0    0    0  501  0.00000000000E+00  0.00000000000E+00  0.41272795908E+03  0.41272795909E+03  0.25500000920E-02 0. -1.
        2   -1    0    0  501    0  0.00000000000E+00  0.00000000000E+00 -0.13560874010E+04  0.13560874010E+04  0.25500000920E-02 0.  1.
    10030    2    1    2    0    0  0.00000000000E+00  0.00000000000E+00 -0.94335944195E+03  0.17688153601E+04  0.14962555736E+04 0.  0.
        1    1    3    3  502    0 -0.83314589423E+02  0.29913334347E+03  0.33294850807E+03  0.45527660497E+03  0.50400001928E-02 0. -1.
       -1    1    3    3    0  502  0.83314589423E+02 -0.29913334347E+03 -0.12763079500E+04  0.13135387552E+04  0.50400001928E-02 0.  1.
</event>
<event>
 5   0  0.1238683E-03  0.1395204E+04  0.7818609E-02  0.8957298E-01
        1   -1    0    0  501    0  0.00000000000E+00  0.00000000000E+00  0.36643518755E+03  0.36643518758E+03  0.50400001928E-02 0. -1.
       -1   -1    0    0    0  501  0.00000000000E+00  0.00000000000E+00 -0.13280614671E+04  0.13280614671E+04  0.50400001928E-02 0.  1.
    10030    2    1    2    0    0  0.00000000000E+00  0.00000000000E+00 -0.96162627954E+03  0.16944966547E+04  0.13952038601E+04 0.  0.
        2    1    3    3  502    0  0.49448316645E+03 -0.61540246343E+02  0.11212376625E+03  0.51075683333E+03  0.25500000920E-02 0. -1.
       -2    1    3    3    0  502 -0.49448316645E+03  0.61540246343E+02 -0.10737500458E+04  0.11837398214E+04  0.25500000920E-02 0.  1.
</event>
<event>
 5   0  0.2083966E-03  0.1358485E+04  0.7818609E-02  0.8984430E-01
       -2   -1    0    0    0  501  0.00000000000E+00  0.00000000000E+00  0.32149529881E+03  0.32149529882E+03  0.25500000920E-02 0. -1.
        2   -1    0    0  501    0  0.00000000000E+00  0.00000000000E+00 -0.14350758935E+04  0.14350758935E+04  0.25500000920E-02 0.  1.
    10030    2    1    2    0    0  0.00000000000E+00  0.00000000000E+00 -0.11135805947E+04  0.17565711923E+04  0.13584846752E+04 0.  0.
        1    1    3    3  502    0 -0.60147755005E+03 -0.31346012031E+03 -0.50949865886E+03  0.84830500036E+03  0.50400001928E-02 0. -1.
       -1    1    3    3    0  502  0.60147755005E+03  0.31346012031E+03 -0.60408193584E+03  0.90826619196E+03  0.50400001928E-02 0.  1.
</event>
<event>
 5   0  0.2236184E-03  0.1388061E+04  0.7818609E-02  0.8962506E-01
        2   -1    0    0  501    0  0.00000000000E+00  0.00000000000E+00  0.21309034784E+04  0.21309034784E+04  0.25500000920E-02 0.  1.
       -2   -1    0    0    0  501  0.00000000000E+00  0.00000000000E+00 -0.22604432945E+03  0.22604432946E+03  0.25500000920E-02 0. -1.
    10030    2    1    2    0    0  0.00000000000E+00  0.00000000000E+00  0.19048591490E+04  0.23569478079E+04  0.13880614510E+04 0.  0.
        3    1    3    3  502    0  0.41537867922E+03 -0.47227175508E+03  0.45418879926E+03  0.77580122027E+03  0.10100000352E+00 0. -1.
       -3    1    3    3    0  502 -0.41537867922E+03  0.47227175508E+03  0.14506703497E+04  0.15811465876E+04  0.10100000352E+00 0.  1.
</event>
<event>
 5   0  0.2236184E-03  0.1492161E+04  0.7818609E-02  0.8889682E-01
       -2   -1    0    0    0  501  0.00000000000E+00  0.00000000000E+00  0.40206247611E+03  0.40206247612E+03  0.25500000920E-02 0. -1.
        2   -1    0    0  501    0  0.00000000000E+00  0.00000000000E+00 -0.13844526590E+04  0.13844526590E+04  0.25500000920E-02 0.  1.
    10030    2    1    2    0    0  0.00000000000E+00  0.00000000000E+00 -0.98239018285E+03  0.17865151351E+04  0.14921614713E+04 0.  0.
        3    1    3    3  502    0  0.53759313378E+03  0.38209374838E+03 -0.73634826191E+02  0.66364456441E+03  0.10100000352E+00 0.  1.
       -3    1    3    3    0  502 -0.53759313378E+03 -0.38209374838E+03 -0.90875535665E+03  0.11228705707E+04  0.10100000352E+00 0. -1.
</event>
<event>
 5   0  0.1210275E-03  0.1388040E+04  0.7818609E-02  0.8962522E-01
       -1   -1    0    0    0  501  0.00000000000E+00  0.00000000000E+00  0.56503596118E+03  0.56503596121E+03  0.50400001928E-02 0. -1.
        1   -1    0    0  501    0  0.00000000000E+00  0.00000000000E+00 -0.85244760422E+03  0.85244760423E+03  0.50400001928E-02 0.  1.
    10030    2    1    2    0    0  0.00000000000E+00  0.00000000000E+00 -0.28741164303E+03  0.14174835654E+04  0.13880396989E+04 0.  0.
        1    1    3    3  502    0 -0.36814470792E+03 -0.15120528715E+03 -0.72433497425E+03  0.82647124558E+03  0.50400001928E-02 0.  1.
       -1    1    3    3    0  502  0.36814470792E+03  0.15120528715E+03  0.43692333121E+03  0.59101231985E+03  0.50400001928E-02 0. -1.
</event>
<event>
 5   0  0.1199720E-03  0.1263404E+04  0.7818609E-02  0.9059100E-01
        1   -1    0    0  501    0  0.00000000000E+00  0.00000000000E+00  0.16623363235E+04  0.16623363235E+04  0.50400001928E-02 0.  1.
       -1   -1    0    0    0  501  0.00000000000E+00  0.00000000000E+00 -0.24005228031E+03  0.24005228036E+03  0.50400001928E-02 0. -1.
    10030    2    1    2    0    0  0.00000000000E+00  0.00000000000E+00  0.14222840432E+04  0.19023886039E+04  0.12634043298E+04 0.  0.
        5    1    3    3  502    0 -0.79490372766E+02 -0.27039948240E+03 -0.14010205206E+03  0.31477813525E+03  0.46999998093E+01 0. -1.
       -5    1    3    3    0  502  0.79490372766E+02  0.27039948240E+03  0.15623860952E+04  0.15876104686E+04  0.46999998093E+01 0.  1.
</event>
<event>
 5   0  0.2236184E-03  0.1219182E+04  0.7818609E-02  0.9096230E-01
       -2   -1    0    0    0  501  0.00000000000E+00  0.00000000000E+00  0.28233643551E+03  0.28233643552E+03  0.25500000920E-02 0.  1.
        2   -1    0    0  501    0  0.00000000000E+00  0.00000000000E+00 -0.13161641051E+04  0.13161641051E+04  0.25500000920E-02 0. -1.
    10030    2    1    2    0    0  0.00000000000E+00  0.00000000000E+00 -0.10338276696E+04  0.15985005406E+04  0.12191818273E+04 0.  0.
        3    1    3    3  502    0  0.53290493864E+03  0.15525058432E+03 -0.18649286605E+03  0.58555103692E+03  0.10100000352E+00 0.  1.
       -3    1    3    3    0  502 -0.53290493864E+03 -0.15525058432E+03 -0.84733480352E+03  0.10129495037E+04  0.10100000352E+00 0. -1.
</event>
<event>
 5   0  0.1199720E-03  0.1387187E+04  0.7818609E-02  0.8963146E-01
       -1   -1    0    0    0  501  0.00000000000E+00  0.00000000000E+00  0.63697960308E+03  0.63697960310E+03  0.50400001928E-02 0.  1.
        1   -1    0    0  501    0  0.00000000000E+00  0.00000000000E+00 -0.75523863464E+03  0.75523863466E+03  0.50400001928E-02 0. -1.
    10030    2    1    2    0    0  0.00000000000E+00  0.00000000000E+00 -0.11825903156E+03  0.13922182378E+04  0.13871865134E+04 0.  0.
        5    1    3    3  502    0  0.53099273559E+03  0.16451682486E+03 -0.47539951957E+03  0.73146829331E+03  0.46999998093E+01 0. -1.
       -5    1    3    3    0  502 -0.53099273559E+03 -0.16451682486E+03  0.35714048801E+03  0.66074994445E+03  0.46999998093E+01 0.  1.
</event>
<event>
 5   0  0.2172901E-03  0.1007637E+04  0.7818609E-02  0.9300208E-01
       -2   -1    0    0    0  501  0.00000000000E+00  0.00000000000E+00  0.48873897336E+03  0.48873897336E+03  0.25500000920E-02 0.  1.
        2   -1    0    0  501    0  0.00000000000E+00  0.00000000000E+00 -0.51936361302E+03  0.51936361303E+03  0.25500000920E-02 0. -1.
    10030    2    1    2    0    0  0.00000000000E+00  0.00000000000E+00 -0.30624639666E+02  0.10081025864E+04  0.10076373138E+04 0.  0.
        2    1    3    3  502    0 -0.35442904312E+02  0.39080942423E+03 -0.33144087105E+03  0.51365480290E+03  0.25500000920E-02 0. -1.
       -2    1    3    3    0  502  0.35442904312E+02 -0.39080942423E+03  0.30081623139E+03  0.49444778350E+03  0.25500000920E-02 0.  1.
</event>
<event>
 5   0  0.1210275E-03  0.1423001E+04  0.7818609E-02  0.8937335E-01
       -1   -1    0    0    0  501  0.00000000000E+00  0.00000000000E+00  0.35793139333E+03  0.35793139336E+03  0.50400001928E-02 0.  1.
        1   -1    0    0  501    0  0.00000000000E+00  0.00000000000E+00 -0.14143304890E+04  0.14143304890E+04  0.50400001928E-02 0. -1.
    10030    2    1    2    0    0  0.00000000000E+00  0.00000000000E+00 -0.10563990957E+04  0.17722618824E+04  0.14230014513E+04 0.  0.
        1    1    3    3  502    0 -0.16799798392E+03 -0.31582632373E+03 -0.12941838741E+04  0.13427142247E+04  0.50400001928E-02 0. -1.
       -1    1    3    3    0  502  0.16799798392E+03  0.31582632373E+03  0.23778477837E+03  0.42954765767E+03  0.50400001928E-02 0.  1.
</event>
<event>
 5   0  0.1210275E-03  0.1397780E+04  0.7818609E-02  0.8955427E-01
        1   -1    0    0  501    0  0.00000000000E+00  0.00000000000E+00  0.13059152990E+04  0.13059152990E+04  0.50400001928E-02 0. -1.
       -1   -1    0    0    0  501  0.00000000000E+00  0.00000000000E+00 -0.37402693869E+03  0.37402693873E+03  0.50400001928E-02 0.  1.
    10030    2    1    2    0    0  0.00000000000E+00  0.00000000000E+00  0.93188836035E+03  0.16799422378E+04  0.13977803855E+04 0.  0.
        1    1    3    3  502    0 -0.53543127451E+03  0.15903736743E+03 -0.38936031696E+02  0.55990673201E+03  0.50400001928E-02 0.  1.
       -1    1    3    3    0  502  0.53543127451E+03 -0.15903736743E+03  0.97082439204E+03  0.11200355058E+04  0.50400001928E-02 0. -1.
</event>
<event>
 5   0  0.1238683E-03  0.1254348E+04  0.7818609E-02  0.9066572E-01
        1   -1    0    0  501    0  0.00000000000E+00  0.00000000000E+00  0.87841144178E+03  0.87841144179E+03  0.50400001928E-02 0.  1.
       -1   -1    0    0    0  501  0.00000000000E+00  0.00000000000E+00 -0.44779394822E+03  0.44779394824E+03  0.50400001928E-02 0. -1.
    10030    2    1    2    0    0  0.00000000000E+00  0.00000000000E+00  0.43061749356E+03  0.13262053900E+04  0.12543481617E+04 0.  0.
        2    1    3    3  502    0 -0.29655272689E+03 -0.10619054848E+03 -0.35809485248E+03  0.47691915017E+03  0.25500000920E-02 0. -1.
       -2    1    3    3    0  502  0.29655272689E+03  0.10619054848E+03  0.78871234605E+03  0.84928623987E+03  0.25500000920E-02 0.  1.
</event>
<event>
 5   0  0.2195980E-03  0.1420854E+04  0.7818609E-02  0.8938861E-01
       -2   -1    0    0    0  501  0.00000000000E+00  0.00000000000E+00  0.75986980854E+03  0.75986980855E+03  0.25500000920E-02 0.  1.
        2   -1    0    0  501    0  0.00000000000E+00  0.00000000000E+00 -0.66420084738E+03  0.66420084738E+03  0.25500000920E-02 0. -1.
    10030    2    1    2    0    0  0.00000000000E+00  0.00000000000E+00  0.95668961165E+02  0.14240706559E+04  0.14208535051E+04 0.  0.
        4    1    3    3  502    0 -0.18954497180E+03  0.21405316537E+03 -0.60399067231E+03  0.66824576248E+03  0.12699999809E+01 0. -1.
       -4    1    3    3    0  502  0.18954497180E+03 -0.21405316537E+03  0.69965963347E+03  0.75582489344E+03  0.12699999809E+01 0.  1.
</event>
<event>
 5   0  0.1175374E-03  0.1411231E+04  0.7818609E-02  0.8945729E-01
        1   -1    0    0  501    0  0.00000000000E+00  0.00000000000E+00  0.76669945365E+03  0.76669945367E+03  0.50400001928E-02 0. -1.
       -1   -1    0    0    0  501  0.00000000000E+00  0.00000000000E+00 -0.64939849010E+03  0.64939849012E+03  0.50400001928E-02 0.  1.
    10030    2    1    2    0    0  0.00000000000E+00  0.00000000000E+00  0.11730096355E+03  0.14160979438E+04  0.14112313313E+04 0.  0.
        3    1    3    3  502    0 -0.34667945968E+03  0.56226346550E+03  0.30763232928E+03  0.72867311781E+03  0.10100000352E+00 0.  1.
       -3    1    3    3    0  502  0.34667945968E+03 -0.56226346550E+03 -0.19033136573E+03  0.68742482598E+03  0.10100000352E+00 0. -1.
</event>
<event>
 5   0  0.1199720E-03  0.1391672E+04  0.7818609E-02  0.8959869E-01
        1   -1    0    0  501    0  0.00000000000E+00  0.00000000000E+00  0.44131748757E+03  0.44131748760E+03  0.50400001928E-02 0.  1.
       -1   -1    0    0    0  501  0.00000000000E+00  0.00000000000E+00 -0.10971418074E+04  0.10971418074E+04  0.50400001928E-02 0. -1.
    10030    2    1    2    0    0  0.00000000000E+00  0.00000000000E+00 -0.65582431982E+03  0.15384592950E+04  0.13916721826E+04 0.  0.
        5    1    3    3  502    0 -0.26803363437E+03  0.62012254356E+03 -0.51213815226E+03  0.84776268801E+03  0.46999998093E+01 0. -1.
       -5    1    3    3    0  502  0.26803363437E+03 -0.62012254356E+03 -0.14368616756E+03  0.69069660700E+03  0.46999998093E+01 0.  1.
</event>
<event>
 5   0  0.1238683E-03  0.1408407E+04  0.7818609E-02  0.8947756E-01
       -1   -1    0    0    0  501  0.00000000000E+00  0.00000000000E+00  0.49486327268E+03  0.49486327270E+03  0.50400001928E-02 0.  1.
        1   -1    0    0  501    0  0.00000000000E+00  0.00000000000E+00 -0.10020999757E+04  0.10020999758E+04  0.50400001928E-02 0. -1.
    10030    2    1    2    0    0  0.00000000000E+00  0.00000000000E+00 -0.50723670306E+03  0.14969632485E+04  0.14084068639E+04 0.  0.
        2    1    3    3  502    0 -0.27431672236E+03 -0.18007041070E+03  0.40863799458E+03  0.52408017287E+03  0.25500000920E-02 0.  1.
       -2    1    3    3    0  502  0.27431672236E+03  0.18007041070E+03 -0.91587469765E+03  0.97288307559E+03  0.25500000920E-02 0. -1.
</event>
<event>
 5   0  0.2172901E-03  0.1388284E+04  0.7818609E-02  0.8962343E-01
        2   -1    0    0  501    0  0.00000000000E+00  0.00000000000E+00  0.13416430013E+04  0.13416430013E+04  0.25500000920E-02 0.  1.
       -2   -1    0    0    0  501  0.00000000000E+00  0.00000000000E+00 -0.35913639430E+03  0.35913639431E+03  0.25500000920E-02 0. -1.
    10030    2    1    2    0    0  0.00000000000E+00  0.00000000000E+00  0.98250660696E+03  0.17007793956E+04  0.13882835876E+04 0.  0.
        2    1    3    3  502    0  0.28984486738E+03 -0.20080352410E+03  0.12237543700E+04  0.12735410714E+04  0.25500000920E-02 0.  1.
       -2    1    3    3    0  502 -0.28984486738E+03  0.20080352410E+03 -0.24124776306E+03  0.42723832416E+03  0.25500000920E-02 0. -1.
</event>
<event>
 5   0  0.8293000E-04  0.1421450E+04  0.7818609E-02  0.8938437E-01
        3   -1    0    0  501    0  0.00000000000E+00  0.00000000000E+00  0.85965153668E+03  0.85965154261E+03  0.10100000352E+00 0. -1.
       -3   -1    0    0    0  501  0.00000000000E+00  0.00000000000E+00 -0.58759833275E+03  0.58759834143E+03  0.10100000352E+00 0.  1.
    10030    2    1    2    0    0  0.00000000000E+00  0.00000000000E+00  0.27205320392E+03  0.14472498840E+04  0.14214497111E+04 0.  0.
        3    1    3    3  502    0  0.10582727414E+03  0.53786575299E+03 -0.32454542425E+03  0.63704687644E+03  0.10100000352E+00 0.  1.
       -3    1    3    3    0  502 -0.10582727414E+03 -0.53786575299E+03  0.59659862817E+03  0.81020300760E+03  0.10100000352E+00 0. -1.
</event>
<event>
 5   0  0.2195980E-03  0.1422772E+04  0.7818609E-02  0.8937498E-01
        2   -1    0    0  501    0  0.00000000000E+00  0.00000000000E+00  0.88713677910E+03  0.88713677910E+03  0.25500000920E-02 0.  1.
       -2   -1    0    0    0  501  0.00000000000E+00  0.00000000000E+00 -0.57045330849E+03  0.57045330850E+03  0.25500000920E-02 0. -1.
    10030    2    1    2    0    0  0.00000000000E+00  0.00000000000E+00  0.31668347060E+03  0.14575900876E+04  0.14227720980E+04 0.  0.
        4    1    3    3  502    0  0.23393741235E+03 -0.41205191086E+03  0.70194454723E+03  0.84690096849E+03  0.12699999809E+01 0.  1.
       -4    1    3    3    0  502 -0.23393741235E+03  0.41205191086E+03 -0.38526107663E+03  0.61068911911E+03  0.12699999809E+01 0. -1.
</event>
<event>
 5   0  0.2195980E-03  0.1432312E+04  0.7818609E-02  0.8930756E-01
        2   -1    0    0  501    0  0.00000000000E+00  0.00000000000E+00  0.24783655726E+04  0.24783655726E+04  0.25500000920E-02 0.  1.
       -2   -1    0    0    0  501  0.00000000000E+00  0.00000000000E+00 -0.20694272966E+03  0.20694272967E+03  0.25500000920E-02 0. -1.
    10030    2    1    2    0    0  0.00000000000E+00  0.00000000000E+00  0.22714228430E+04  0.26853083023E+04  0.14323124473E+04 0.  0.
        4    1    3    3  502    0  0.52851563552E+03 -0.42456639456E+03  0.70290833844E+03  0.97655882851E+03  0.12699999809E+01 0. -1.
       -4    1    3    3    0  502 -0.52851563552E+03  0.42456639456E+03  0.15685145045E+04  0.17087494738E+04  0.12699999809E+01 0.  1.
</event>
<event>
 5   0  0.1225690E-03  0.1424421E+04  0.7818609E-02  0.8936329E-01
       -1   -1    0    0    0  501  0.00000000000E+00  0.00000000000E+00  0.79739239859E+03  0.79739239861E+03  0.50400001928E-02 0.  1.
        1   -1    0    0  501    0  0.00000000000E+00  0.00000000000E+00 -0.63612826752E+03  0.63612826754E+03  0.50400001928E-02 0. -1.
    10030    2    1    2    0    0  0.00000000000E+00  0.00000000000E+00  0.16126413107E+03  0.14335206661E+04  0.14244210685E+04 0.  0.
        4    1    3    3  502    0  0.25122312709E+03 -0.25772608096E+03 -0.53787229294E+03  0.64718158874E+03  0.12699999809E+01 0. -1.
       -4    1    3    3    0  502 -0.25122312709E+03  0.25772608096E+03  0.69913642401E+03  0.78633907741E+03  0.12699999809E+01 0.  1.
</event>
<event>
 5   0  0.2172901E-03  0.1389270E+04  0.7818609E-02  0.8961623E-01
        2   -1    0    0  501    0  0.00000000000E+00  0.00000000000E+00  0.78979780680E+03  0.78979780681E+03  0.25500000920E-02 0.  1.
       -2   -1    0    0    0  501  0.00000000000E+00  0.00000000000E+00 -0.61093807794E+03  0.61093807794E+03  0.25500000920E-02 0. -1.
    10030    2    1    2    0    0  0.00000000000E+00  0.00000000000E+00  0.17885972886E+03  0.14007358848E+04  0.13892696701E+04 0.  0.
        2    1    3    3  502    0  0.66580644162E+03  0.62183416977E+02  0.27900445563E+03  0.72457468995E+03  0.25500000920E-02 0.  1.
       -2    1    3    3    0  502 -0.66580644162E+03 -0.62183416977E+02 -0.10014472677E+03  0.67616119480E+03  0.25500000920E-02 0. -1.
</event>
<event>
 5   0  0.2195980E-03  0.1402678E+04  0.7818609E-02  0.8951882E-01
        2   -1    0    0  501    0  0.00000000000E+00  0.00000000000E+00  0.22253258190E+04  0.22253258190E+04  0.25500000920E-02 0. -1.
       -2   -1    0    0    0  501  0.00000000000E+00  0.00000000000E+00 -0.22103568452E+03  0.22103568453E+03  0.25500000920E-02 0.  1.
    10030    2    1    2    0    0  0.00000000000E+00  0.00000000000E+00  0.20042901345E+04  0.24463615036E+04  0.14026780325E+04 0.  0.
        4    1    3    3  502    0  0.48549739092E+02  0.31271898742E+03  0.20937187072E+04  0.21175008571E+04  0.12699999809E+01 0. -1.
       -4    1    3    3    0  502 -0.48549739092E+02 -0.31271898742E+03 -0.89428572675E+02  0.32886064643E+03  0.12699999809E+01 0.  1.
</event>
<event>
 5   0  0.2190704E-03  0.1423862E+04  0.7818609E-02  0.8936725E-01
        2   -1    0    0  501    0  0.00000000000E+00  0.00000000000E+00  0.20846427261E+04  0.20846427261E+04  0.25500000920E-02 0. -1.
       -2   -1    0    0    0  501  0.00000000000E+00  0.00000000000E+00 -0.24313315784E+03  0.24313315785E+03  0.25500000920E-02 0.  1.
    10030    2    1    2    0    0  0.00000000000E+00  0.00000000000E+00  0.18415095682E+04  0.23277758839E+04  0.14238620284E+04 0.  0.
        5    1    3    3  502    0  0.85415508246E+02  0.26304759171E+03 -0.15169262103E+03  0.31547200482E+03  0.46999998093E+01 0.  1.
       -5    1    3    3    0  502 -0.85415508246E+02 -0.26304759171E+03  0.19932021893E+04  0.20123038791E+04  0.46999998093E+01 0. -1.
</event>
<event>
 5   0  0.8293000E-04  0.1385738E+04  0.7818609E-02  0.8964207E-01
       -4   -1    0    0    0  501  0.00000000000E+00  0.00000000000E+00  0.57424664855E+03  0.57424805291E+03  0.12699999809E+01 0.  1.
        4   -1    0    0  501    0  0.00000000000E+00  0.00000000000E+00 -0.83599281934E+03  0.83599378400E+03  0.12699999809E+01 0. -1.
    10030    2    1    2    0    0  0.00000000000E+00  0.00000000000E+00 -0.26174617078E+03  0.14102418369E+04  0.13857384243E+04 0.  0.
        2    1    3    3  502    0 -0.57821913647E+03  0.34253192738E+03  0.40636635161E+02  0.67328807147E+03  0.25500000920E-02 0.  1.
       -2    1    3    3    0  502  0.57821913647E+03 -0.34253192738E+03 -0.30238280594E+03  0.73695376544E+03  0.25500000920E-02 0. -1.
</event>
<event>
 5   0  0.2236184E-03  0.1404416E+04  0.7818609E-02  0.8950628E-01
        2   -1    0    0  501    0  0.00000000000E+00  0.00000000000E+00  0.14466955946E+04  0.14466955946E+04  0.25500000920E-02 0.  1.
       -2   -1    0    0    0  501  0.00000000000E+00  0.00000000000E+00 -0.34084311282E+03  0.34084311283E+03  0.25500000920E-02 0. -1.
    10030    2    1    2    0    0  0.00000000000E+00  0.00000000000E+00  0.11058524818E+04  0.17875387074E+04  0.14044162200E+04 0.  0.
        3    1    3    3  502    0  0.32424047108E+02  0.20123351398E+03  0.14082145363E+04  0.14228894674E+04  0.10100000352E+00 0.  1.
       -3    1    3    3    0  502 -0.32424047108E+02 -0.20123351398E+03 -0.30236205457E+03  0.36464923999E+03  0.10100000352E+00 0. -1.
</event>
<event>
 5   0  0.1199720E-03  0.1399318E+04  0.7818609E-02  0.8954312E-01
        1   -1    0    0  501    0  0.00000000000E+00  0.00000000000E+00  0.42976768936E+03  0.42976768939E+03  0.50400001928E-02 0.  1.
       -1   -1    0    0    0  501  0.00000000000E+00  0.00000000000E+00 -0.11390403776E+04  0.11390403776E+04  0.50400001928E-02 0. -1.
    10030    2    1    2    0    0  0.00000000000E+00  0.00000000000E+00 -0.70927268826E+03  0.15688080670E+04  0.13993180499E+04 0.  0.
        5    1    3    3  502    0 -0.32569705548E+03  0.57410771647E+03 -0.94539558720E+02  0.66681186269E+03  0.46999998093E+01 0. -1.
       -5    1    3    3    0  502  0.32569705548E+03 -0.57410771647E+03 -0.61473312954E+03  0.90199620433E+03  0.46999998093E+01 0.  1.
</event>
<event>
 5   0  0.1238683E-03  0.1366619E+04  0.7818609E-02  0.8978342E-01
        1   -1    0    0  501    0  0.00000000000E+00  0.00000000000E+00  0.74174456092E+03  0.74174456094E+03  0.50400001928E-02 0.  1.
       -1   -1    0    0    0  501  0.00000000000E+00  0.00000000000E+00 -0.62947832072E+03  0.62947832074E+03  0.50400001928E-02 0. -1.
    10030    2    1    2    0    0  0.00000000000E+00  0.00000000000E+00  0.11226624020E+03  0.13712228817E+04  0.13666193627E+04 0.  0.
        2    1    3    3  502    0  0.63900237669E+03 -0.19115360319E+03 -0.92854044892E+02  0.67341340281E+03  0.25500000920E-02 0. -1.
       -2    1    3    3    0  502 -0.63900237669E+03  0.19115360319E+03  0.20512028509E+03  0.69780947886E+03  0.25500000920E-02 0.  1.
</event>
<event>
 5   0  0.2083966E-03  0.1425473E+04  0.7818609E-02  0.8935583E-01
        2   -1    0    0  501    0  0.00000000000E+00  0.00000000000E+00  0.14382989388E+04  0.14382989388E+04  0.25500000920E-02 0.  1.
       -2   -1    0    0    0  501  0.00000000000E+00  0.00000000000E+00 -0.35319042397E+03  0.35319042398E+03  0.25500000920E-02 0. -1.
    10030    2    1    2    0    0  0.00000000000E+00  0.00000000000E+00  0.10851085148E+04  0.17914893627E+04  0.14254731313E+04 0.  0.
        1    1    3    3  502    0  0.47612799782E+03 -0.36382630152E+03  0.57555743284E+02  0.60198015880E+03  0.50400001928E-02 0. -1.
       -1    1    3    3    0  502 -0.47612799782E+03  0.36382630152E+03  0.10275527715E+04  0.11895092039E+04  0.50400001928E-02 0.  1.
</event>
<event>
 5   0  0.1225690E-03  0.1373752E+04  0.7818609E-02  0.8973041E-01
       -1   -1    0    0    0  501  0.00000000000E+00  0.00000000000E+00  0.24124254734E+03  0.24124254739E+03  0.50400001928E-02 0.  1.
        1   -1    0    0  501    0  0.00000000000E+00  0.00000000000E+00 -0.19557012914E+04  0.19557012914E+04  0.50400001928E-02 0. -1.
    10030    2    1    2    0    0  0.00000000000E+00  0.00000000000E+00 -0.17144587441E+04  0.21969438388E+04  0.13737515954E+04 0.  0.
        4    1    3    3  502    0 -0.20433867677E+03  0.33402989241E+03 -0.17597198165E+04  0.18027605801E+04  0.12699999809E+01 0. -1.
       -4    1    3    3    0  502  0.20433867677E+03 -0.33402989241E+03  0.45261072406E+02  0.39418325869E+03  0.12699999809E+01 0.  1.
</event>
<event>
 5   0  0.2236184E-03  0.1407368E+04  0.7818609E-02  0.8948502E-01
       -2   -1    0    0    0  501  0.00000000000E+00  0.00000000000E+00  0.43527889660E+03  0.43527889661E+03  0.25500000920E-02 0. -1.
        2   -1    0    0  501    0  0.00000000000E+00  0.00000000000E+00 -0.11375953081E+04  0.11375953081E+04  0.25500000920E-02 0.  1.
    10030    2    1    2    0    0  0.00000000000E+00  0.00000000000E+00 -0.70231641149E+03  0.15728742047E+04  0.14073680833E+04 0.  0.
        3    1    3    3  502    0 -0.59025508815E+03 -0.26630730247E+03 -0.43360256480E+02  0.64899982317E+03  0.10100000352E+00 0. -1.
       -3    1    3    3    0  502  0.59025508815E+03  0.26630730247E+03 -0.65895615501E+03  0.92387438154E+03  0.10100000352E+00 0.  1.
</event>
<event>
 5   0  0.1199720E-03  0.1340248E+04  0.7818609E-02  0.8998243E-01
        1   -1    0    0  501    0  0.00000000000E+00  0.00000000000E+00  0.12186174217E+04  0.12186174217E+04  0.50400001928E-02 0.  1.
       -1   -1    0    0    0  501  0.00000000000E+00  0.00000000000E+00 -0.36850457506E+03  0.36850457509E+03  0.50400001928E-02 0. -1.
    10030    2    1    2    0    0  0.00000000000E+00  0.00000000000E+00  0.85011284663E+03  0.15871219968E+04  0.13402478803E+04 0.  0.
        5    1    3    3  502    0  0.28664446844E+03  0.21602736775E+02  0.11418765475E+04  0.11775125771E+04  0.46999998093E+01 0.  1.
       -5    1    3    3    0  502 -0.28664446844E+03 -0.21602736775E+02 -0.29176370089E+03  0.40960941966E+03  0.46999998093E+01 0. -1.
</event>
<event>
 5   0  0.1175374E-03  0.1405108E+04  0.7818609E-02  0.8950129E-01
       -1   -1    0    0    0  501  0.00000000000E+00  0.00000000000E+00  0.55869848481E+03  0.55869848483E+03  0.50400001928E-02 0.  1.
        1   -1    0    0  501    0  0.00000000000E+00  0.00000000000E+00 -0.88344974107E+03  0.88344974108E+03  0.50400001928E-02 0. -1.
    10030    2    1    2    0    0  0.00000000000E+00  0.00000000000E+00 -0.32475125626E+03  0.14421482259E+04  0.14051078703E+04 0.  0.
        3    1    3    3  502    0  0.64047024917E+03 -0.27757955098E+03 -0.80720388708E+02  0.70268651513E+03  0.10100000352E+00 0.  1.
       -3    1    3    3    0  502 -0.64047024917E+03  0.27757955098E+03 -0.24403086755E+03  0.73946171078E+03  0.10100000352E+00 0. -1.
</event>
<event>
 5   0  0.1199720E-03  0.1354756E+04  0.7818609E-02  0.8987235E-01
        1   -1    0    0  501    0  0.00000000000E+00  0.00000000000E+00  0.86788321116E+03  0.86788321117E+03  0.50400001928E-02 0.  1.
       -1   -1    0    0    0  501  0.00000000000E+00  0.00000000000E+00 -0.52869006802E+03  0.52869006804E+03  0.50400001928E-02 0. -1.
    10030    2    1    2    0    0  0.00000000000E+00  0.00000000000E+00  0.33919314314E+03  0.13965732792E+04  0.13547564120E+04 0.  0.
        5    1    3    3  502    0 -0.32618832547E+03  0.56951741958E+03 -0.31166129113E+01  0.65633887448E+03  0.46999998093E+01 0. -1.
       -5    1    3    3    0  502  0.32618832547E+03 -0.56951741958E+03  0.34230975605E+03  0.74023440474E+03  0.46999998093E+01 0.  1.
</event>
<event>
 5   0  0.2172901E-03  0.1389539E+04  0.7818609E-02  0.8961426E-01
        2   -1    0    0  501    0  0.00000000000E+00  0.00000000000E+00  0.87392008256E+03  0.87392008256E+03  0.25500000920E-02 0. -1.
       -2   -1    0    0    0  501  0.00000000000E+00  0.00000000000E+00 -0.55234439813E+03  0.55234439814E+03  0.25500000920E-02 0.  1.
    10030    2    1    2    0    0  0.00000000000E+00  0.00000000000E+00  0.32157568443E+03  0.14262644807E+04  0.13895392935E+04 0.  0.
        2    1    3    3  502    0  0.56207731417E+03 -0.40812897313E+03  0.17547318640E+03  0.71644330199E+03  0.25500000920E-02 0. -1.
       -2    1    3    3    0  502 -0.56207731417E+03  0.40812897313E+03  0.14610249803E+03  0.70982117871E+03  0.25500000920E-02 0.  1.
</event>
<event>
 5   0  0.2190704E-03  0.1563365E+04  0.7818609E-02  0.8843376E-01
        2   -1    0    0  501    0  0.00000000000E+00  0.00000000000E+00  0.39174179977E+03  0.39174179978E+03  0.25500000920E-02 0.  1.
       -2   -1    0    0    0  501  0.00000000000E+00  0.00000000000E+00 -0.15597703984E+04  0.15597703984E+04  0.25500000920E-02 0. -1.
    10030    2    1    2    0    0  0.00000000000E+00  0.00000000000E+00 -0.11680285986E+04  0.19515121981E+04  0.15633646575E+04 0.  0.
        5    1    3    3  502    0 -0.50967412428E+02 -0.70895161376E+03 -0.17799771988E+03  0.73274507577E+03  0.46999998093E+01 0. -1.
       -5    1    3    3    0  502  0.50967412428E+02  0.70895161376E+03 -0.99003087871E+03  0.12187671224E+04  0.46999998093E+01 0.  1.
</event>
<event>
 5   0  0.1225690E-03  0.1409497E+04  0.7818609E-02  0.8946973E-01
        1   -1    0    0  501    0  0.00000000000E+00  0.00000000000E+00  0.39699497554E+03  0.39699497557E+03  0.50400001928E-02 0.  1.
       -1   -1    0    0    0  501  0.00000000000E+00  0.00000000000E+00 -0.12510749914E+04  0.12510749914E+04  0.50400001928E-02 0. -1.
    10030    2    1    2    0    0  0.00000000000E+00  0.00000000000E+00 -0.85408001585E+03  0.16480699670E+04  0.14094970531E+04 0.  0.
        4    1    3    3  502    0  0.44701342421E+03 -0.48981033377E+02  0.20743762343E+03  0.49522936461E+03  0.12699999809E+01 0.  1.
       -4    1    3    3    0  502 -0.44701342421E+03  0.48981033377E+02 -0.10615176393E+04  0.11528406024E+04  0.12699999809E+01 0. -1.
</event>
<event>
 5   0  0.2195980E-03  0.1405797E+04  0.7818609E-02  0.8949633E-01
        2   -1    0    0  501    0  0.00000000000E+00  0.00000000000E+00  0.36532510331E+03  0.36532510332E+03  0.25500000920E-02 0. -1.
       -2   -1    0    0    0  501  0.00000000000E+00  0.00000000000E+00 -0.13524017484E+04  0.13524017484E+04  0.25500000920E-02 0.  1.
    10030    2    1    2    0    0  0.00000000000E+00  0.00000000000E+00 -0.98707664506E+03  0.17177268517E+04  0.14057970102E+04 0.  0.
        4    1    3    3  502    0 -0.51897539218E+03  0.44766136269E+03 -0.68412368064E+03  0.96838162759E+03  0.12699999809E+01 0.  1.
       -4    1    3    3    0  502  0.51897539218E+03 -0.44766136269E+03 -0.30295296442E+03  0.74934522411E+03  0.12699999809E+01 0. -1.
</event>
<event>
 5   0  0.1199720E-03  0.1428355E+04  0.7818609E-02  0.8933546E-01
       -1   -1    0    0    0  501  0.00000000000E+00  0.00000000000E+00  0.39657341171E+03  0.39657341175E+03  0.50400001928E-02 0. -1.
        1   -1    0    0  501    0  0.00000000000E+00  0.00000000000E+00 -0.12861408005E+04  0.12861408005E+04  0.50400001928E-02 0.  1.
    10030    2    1    2    0    0  0.00000000000E+00  0.00000000000E+00 -0.88956738882E+03  0.16827142123E+04  0.14283546412E+04 0.  0.
        5    1    3    3  502    0  0.63391550348E+03  0.25241659971E+03 -0.69319954840E+03  0.97268222420E+03  0.46999998093E+01 0.  1.
       -5    1    3    3    0  502 -0.63391550348E+03 -0.25241659971E+03 -0.19636784042E+03  0.71003198810E+03  0.46999998093E+01 0. -1.
</event>
<event>
 5   0  0.2172901E-03  0.1381929E+04  0.7818609E-02  0.8967004E-01
        2   -1    0    0  501    0  0.00000000000E+00  0.00000000000E+00  0.12252960178E+04  0.12252960178E+04  0.25500000920E-02 0.  1.
       -2   -1    0    0    0  501  0.00000000000E+00  0.00000000000E+00 -0.38964639085E+03  0.38964639085E+03  0.25500000920E-02 0. -1.
    10030    2    1    2    0    0  0.00000000000E+00  0.00000000000E+00  0.83564962698E+03  0.16149424087E+04  0.13819293340E+04 0.  0.
        2    1    3    3  502    0 -0.59511698342E+03  0.26406303824E+03  0.68822373061E+03  0.94738873515E+03  0.25500000920E-02 0.  1.
       -2    1    3    3    0  502  0.59511698342E+03 -0.26406303824E+03  0.14742589637E+03  0.66755367353E+03  0.25500000920E-02 0. -1.
</event>
<event>
 5   0  0.2236184E-03  0.1472943E+04  0.7818609E-02  0.8902648E-01
        2   -1    0    0  501    0  0.00000000000E+00  0.00000000000E+00  0.12393619359E+04  0.12393619359E+04  0.25500000920E-02 0.  1.
       -2   -1    0    0    0  501  0.00000000000E+00  0.00000000000E+00 -0.43763648233E+03  0.43763648234E+03  0.25500000920E-02 0. -1.
    10030    2    1    2    0    0  0.00000000000E+00  0.00000000000E+00  0.80172545356E+03  0.16769984182E+04  0.14729426302E+04 0.  0.
        3    1    3    3  502    0  0.24998717966E+03  0.58953066101E+03  0.81506148250E+03  0.10365159047E+04  0.10100000352E+00 0.  1.
       -3    1    3    3    0  502 -0.24998717966E+03 -0.58953066101E+03 -0.13336028941E+02  0.64048251353E+03  0.10100000352E+00 0. -1.
</event>
<event>
 5   0  0.1238683E-03  0.1414067E+04  0.7818609E-02  0.8943698E-01
       -1   -1    0    0    0  501  0.00000000000E+00  0.00000000000E+00  0.11820272925E+04  0.11820272925E+04  0.50400001928E-02 0.  1.
        1   -1    0    0  501    0  0.00000000000E+00  0.00000000000E+00 -0.42291456960E+03  0.42291456963E+03  0.50400001928E-02 0. -1.
    10030    2    1    2    0    0  0.00000000000E+00  0.00000000000E+00  0.75911272287E+03  0.16049418621E+04  0.14140672738E+04 0.  0.
        2    1    3    3  502    0 -0.53670171014E+03 -0.14573272003E+02  0.90169213517E+03  0.10494330910E+04  0.25500000920E-02 0.  1.
       -2    1    3    3    0  502  0.53670171014E+03  0.14573272003E+02 -0.14257941230E+03  0.55550877107E+03  0.25500000920E-02 0. -1.
</event>
<event>
 5   0  0.1199720E-03  0.1391557E+04  0.7818609E-02  0.8959953E-01
       -1   -1    0    0    0  501  0.00000000000E+00  0.00000000000E+00  0.18142119202E+04  0.18142119203E+04  0.50400001928E-02 0. -1.
        1   -1    0    0  501    0  0.00000000000E+00  0.00000000000E+00 -0.26684195790E+03  0.26684195795E+03  0.50400001928E-02 0.  1.
    10030    2    1    2    0    0  0.00000000000E+00  0.00000000000E+00  0.15473699623E+04  0.20810538782E+04  0.13915572010E+04 0.  0.
        5    1    3    3  502    0 -0.21601351893E+03 -0.33796042088E+03 -0.76517617799E+02  0.40835783606E+03  0.46999998093E+01 0.  1.
       -5    1    3    3    0  502  0.21601351893E+03  0.33796042088E+03  0.16238875801E+04  0.16726960421E+04  0.46999998093E+01 0. -1.
</event>
<event>
 5   0  0.2236184E-03  0.1376389E+04  0.7818609E-02  0.8971089E-01
        2   -1    0    0  501    0  0.00000000000E+00  0.00000000000E+00  0.98960272916E+03  0.98960272917E+03  0.25500000920E-02 0. -1.
       -2   -1    0    0    0  501  0.00000000000E+00  0.00000000000E+00 -0.47858787713E+03  0.47858787713E+03  0.25500000920E-02 0.  1.
    10030    2    1    2    0    0  0.00000000000E+00  0.00000000000E+00  0.51101485204E+03  0.14681906063E+04  0.13763892899E+04 0.  0.
        3    1    3    3  502    0 -0.58664177662E+03  0.35882816727E+03  0.28384287661E+03  0.74395767117E+03  0.10100000352E+00 0.  1.
       -3    1    3    3    0  502  0.58664177662E+03 -0.35882816727E+03  0.22717197543E+03  0.72423293512E+03  0.10100000352E+00 0. -1.
</event>
<event>
 5   0  0.2236184E-03  0.1452106E+04  0.7818609E-02  0.8916941E-01
        2   -1    0    0  501    0  0.00000000000E+00  0.00000000000E+00  0.18856344177E+04  0.18856344177E+04  0.25500000920E-02 0. -1.
       -2   -1    0    0    0  501  0.00000000000E+00  0.00000000000E+00 -0.27956284063E+03  0.27956284064E+03  0.25500000920E-02 0.  1.
    10030    2    1    2    0    0  0.00000000000E+00  0.00000000000E+00  0.16060715771E+04  0.21651972583E+04  0.14521064895E+04 0.  0.
        3    1    3    3  502    0 -0.94941526174E+02 -0.70532745470E+03  0.10173180829E+04  0.12415461344E+04  0.10100000352E+00 0.  1.
       -3    1    3    3    0  502  0.94941526174E+02  0.70532745470E+03  0.58875349417E+03  0.92365112399E+03  0.10100000352E+00 0. -1.
</event>
<event>
 5   0  0.2172901E-03  0.1412164E+04  0.7818609E-02  0.8945060E-01
       -2   -1    0    0    0  501  0.00000000000E+00  0.00000000000E+00  0.67385394405E+03  0.67385394406E+03  0.25500000920E-02 0. -1.
        2   -1    0    0  501    0  0.00000000000E+00  0.00000000000E+00 -0.73985171496E+03  0.73985171496E+03  0.25500000920E-02 0.  1.
    10030    2    1    2    0    0  0.00000000000E+00  0.00000000000E+00 -0.65997770906E+02  0.14137056590E+04  0.14121642909E+04 0.  0.
        2    1    3    3  502    0  0.27426449550E+03 -0.21214352006E+03  0.58275467013E+03  0.67810684421E+03  0.25500000920E-02 0. -1.
       -2    1    3    3    0  502 -0.27426449550E+03  0.21214352006E+03 -0.64875244104E+03  0.73559881481E+03  0.25500000920E-02 0.  1.
</event>
<event>
 5   0  0.1210275E-03  0.1384689E+04  0.7818609E-02  0.8964977E-01
       -1   -1    0    0    0  501  0.00000000000E+00  0.00000000000E+00  0.78965437053E+03  0.78965437055E+03  0.50400001928E-02 0.  1.
        1   -1    0    0  501    0  0.00000000000E+00  0.00000000000E+00 -0.60702581472E+03  0.60702581474E+03  0.50400001928E-02 0. -1.
    10030    2    1    2    0    0  0.00000000000E+00  0.00000000000E+00  0.18262855581E+03  0.13966801853E+04  0.13846885392E+04 0.  0.
        1    1    3    3  502    0  0.55324448917E+03 -0.71939632284E+02  0.50484749747E+03  0.75241329814E+03  0.50400001928E-02 0.  1.
       -1    1    3    3    0  502 -0.55324448917E+03  0.71939632284E+02 -0.32221894166E+03  0.64426688715E+03  0.50400001928E-02 0. -1.
</event>
<event>
 5   0  0.2195980E-03  0.1350822E+04  0.7818609E-02  0.8990206E-01
        2   -1    0    0  501    0  0.00000000000E+00  0.00000000000E+00  0.10829466021E+04  0.10829466021E+04  0.25500000920E-02 0.  1.
       -2   -1    0    0    0  501  0.00000000000E+00  0.00000000000E+00 -0.42123964735E+03  0.42123964736E+03  0.25500000920E-02 0. -1.
    10030    2    1    2    0    0  0.00000000000E+00  0.00000000000E+00  0.66170695476E+03  0.15041862495E+04  0.13508220383E+04 0.  0.
        4    1    3    3  502    0 -0.25758222176E+03  0.36362749636E+03  0.89602531826E+03  0.10007180127E+04  0.12699999809E+01 0.  1.
       -4    1    3    3    0  502  0.25758222176E+03 -0.36362749636E+03 -0.23431836349E+03  0.50346823678E+03  0.12699999809E+01 0. -1.
</event>
<event>
 5   0  0.2236184E-03  0.1390939E+04  0.7818609E-02  0.8960404E-01
        2   -1    0    0  501    0  0.00000000000E+00  0.00000000000E+00  0.11036779031E+04  0.11036779031E+04  0.25500000920E-02 0.  1.
       -2   -1    0    0    0  501  0.00000000000E+00  0.00000000000E+00 -0.43824167562E+03  0.43824167563E+03  0.25500000920E-02 0. -1.
    10030    2    1    2    0    0  0.00000000000E+00  0.00000000000E+00  0.66543622750E+03  0.15419195787E+04  0.13909387529E+04 0.  0.
        3    1    3    3  502    0 -0.40375453338E+03  0.44261267422E+03 -0.58826137972E+02  0.60198357728E+03  0.10100000352E+00 0. -1.
       -3    1    3    3    0  502  0.40375453338E+03 -0.44261267422E+03  0.72426236547E+03  0.93993600146E+03  0.10100000352E+00 0.  1.
</event>
<event>
 5   0  0.1238683E-03  0.1527014E+04  0.7818609E-02  0.8866685E-01
        1   -1    0    0  501    0  0.00000000000E+00  0.00000000000E+00  0.10624528903E+04  0.10624528903E+04  0.50400001928E-02 0.  1.
       -1   -1    0    0    0  501  0.00000000000E+00  0.00000000000E+00 -0.54867615072E+03  0.54867615075E+03  0.50400001928E-02 0. -1.
    10030    2    1    2    0    0  0.00000000000E+00  0.00000000000E+00  0.51377673957E+03  0.16111290411E+04  0.15270135064E+04 0.  0.
        2    1    3    3  502    0 -0.69148633009E+03 -0.30748932174E+03  0.36365303793E+03  0.83961095735E+03  0.25500000920E-02 0.  1.
       -2    1    3    3    0  502  0.69148633009E+03  0.30748932174E+03  0.15012370164E+03  0.77151808371E+03  0.25500000920E-02 0. -1.
</event>
<event>
 5   0  0.1210275E-03  0.1405695E+04  0.7818609E-02  0.8949707E-01
        1   -1    0    0  501    0  0.00000000000E+00  0.00000000000E+00  0.95428830956E+03  0.95428830958E+03  0.50400001928E-02 0.  1.
       -1   -1    0    0    0  501  0.00000000000E+00  0.00000000000E+00 -0.51765757095E+03  0.51765757098E+03  0.50400001928E-02 0. -1.
    10030    2    1    2    0    0  0.00000000000E+00  0.00000000000E+00  0.43663073861E+03  0.14719458806E+04  0.14056949432E+04 0.  0.
        1    1    3    3  502    0  0.40268025036E+03  0.40582044862E+03  0.64642774249E+03  0.86296607513E+03  0.50400001928E-02 0.  1.
       -1    1    3    3    0  502 -0.40268025036E+03 -0.40582044862E+03 -0.20979700388E+03  0.60897980542E+03  0.50400001928E-02 0. -1.
</event>
<event>
 5   0  0.2083966E-03  0.1393554E+04  0.7818609E-02  0.8958498E-01
       -2   -1    0    0    0  501  0.00000000000E+00  0.00000000000E+00  0.40311982883E+03  0.40311982884E+03  0.25500000920E-02 0. -1.
        2   -1    0    0  501    0  0.00000000000E+00  0.00000000000E+00 -0.12043524253E+04  0.12043524253E+04  0.25500000920E-02 0.  1.
    10030    2    1    2    0    0  0.00000000000E+00  0.00000000000E+00 -0.80123259644E+03  0.16074722541E+04  0.13935542236E+04 0.  0.
        1    1    3    3  502    0  0.10819063535E+03 -0.50860841247E+03 -0.93561229485E+03  0.10704009049E+04  0.50400001928E-02 0.  1.
       -1    1    3    3    0  502 -0.10819063535E+03  0.50860841247E+03  0.13437969842E+03  0.53707134925E+03  0.50400001928E-02 0. -1.
</event>
<event>
 5   0  0.1199720E-03  0.1317288E+04  0.7818609E-02  0.9015966E-01
        1   -1    0    0  501    0  0.00000000000E+00  0.00000000000E+00  0.13534975642E+04  0.13534975642E+04  0.50400001928E-02 0.  1.
       -1   -1    0    0    0  501  0.00000000000E+00  0.00000000000E+00 -0.32051202472E+03  0.32051202476E+03  0.50400001928E-02 0. -1.
    10030    2    1    2    0    0  0.00000000000E+00  0.00000000000E+00  0.10329855395E+04  0.16740095890E+04  0.13172884951E+04 0.  0.
        5    1    3    3  502    0 -0.57210088630E+03  0.49946000033E+02  0.10667986772E+03  0.58412045950E+03  0.46999998093E+01 0.  1.
       -5    1    3    3    0  502  0.57210088630E+03 -0.49946000033E+02  0.92630567175E+03  0.10898891295E+04  0.46999998093E+01 0. -1.
</event>
<event>
 5   0  0.1225690E-03  0.1481479E+04  0.7818609E-02  0.8896863E-01
        1   -1    0    0  501    0  0.00000000000E+00  0.00000000000E+00  0.11244488393E+04  0.11244488393E+04  0.50400001928E-02 0. -1.
       -1   -1    0    0    0  501  0.00000000000E+00  0.00000000000E+00 -0.48796812782E+03  0.48796812785E+03  0.50400001928E-02 0.  1.
    10030    2    1    2    0    0  0.00000000000E+00  0.00000000000E+00  0.63648071151E+03  0.16124169672E+04  0.14814792540E+04 0.  0.
        4    1    3    3  502    0 -0.20125504470E+03 -0.11487223754E+03 -0.44750065957E+03  0.50394213675E+03  0.12699999809E+01 0.  1.
       -4    1    3    3    0  502  0.20125504470E+03  0.11487223754E+03  0.10839813711E+04  0.11084748304E+04  0.12699999809E+01 0. -1.
</event>
<event>
 5   0  0.2236184E-03  0.1376010E+04  0.7818609E-02  0.8971369E-01
       -2   -1    0    0    0  501  0.00000000000E+00  0.00000000000E+00  0.35235698205E+03  0.35235698206E+03  0.25500000920E-02 0. -1.
        2   -1    0    0  501    0  0.00000000000E+00  0.00000000000E+00 -0.13433849858E+04  0.13433849858E+04  0.25500000920E-02 0.  1.
    10030    2    1    2    0    0  0.00000000000E+00  0.00000000000E+00 -0.99102800379E+03  0.16957419679E+04  0.13760102897E+04 0.  0.
        3    1    3    3  502    0 -0.13951574233E+03 -0.24690917236E+03  0.27697342394E+03  0.39641275146E+03  0.10100000352E+00 0. -1.
       -3    1    3    3    0  502  0.13951574233E+03  0.24690917236E+03 -0.12680014277E+04  0.12993292164E+04  0.10100000352E+00 0.  1.
</event>
<event>
 5   0  0.1225690E-03  0.1389142E+04  0.7818609E-02  0.8961716E-01
       -1   -1    0    0    0  501  0.00000000000E+00  0.00000000000E+00  0.43588302382E+03  0.43588302385E+03  0.50400001928E-02 0.  1.
        1   -1    0    0  501    0  0.00000000000E+00  0.00000000000E+00 -0.11067852572E+04  0.11067852572E+04  0.50400001928E-02 0. -1.
    10030    2    1    2    0    0  0.00000000000E+00  0.00000000000E+00 -0.67090223339E+03  0.15426682811E+04  0.13891420441E+04 0.  0.
        4    1    3    3  502    0  0.33347444041E+03 -0.56126574338E+03 -0.72178868836E+02  0.65683775706E+03  0.12699999809E+01 0.  1.
       -4    1    3    3    0  502 -0.33347444041E+03  0.56126574338E+03 -0.59872336455E+03  0.88583052400E+03  0.12699999809E+01 0. -1.
</event>
<event>
 5   0  0.1210275E-03  0.1401894E+04  0.7818609E-02  0.8952449E-01
        1   -1    0    0  501    0  0.00000000000E+00  0.00000000000E+00  0.83019753712E+03  0.83019753713E+03  0.50400001928E-02 0. -1.
       -1   -1    0    0    0  501  0.00000000000E+00  0.00000000000E+00 -0.59181889964E+03  0.59181889966E+03  0.50400001928E-02 0.  1.
    10030    2    1    2    0    0  0.00000000000E+00  0.00000000000E+00  0.23837863748E+03  0.14220164368E+04  0.14018938518E+04 0.  0.
        1    1    3    3  502    0  0.42196296218E+03 -0.32878080330E+03  0.57865582685E+03  0.78803053497E+03  0.50400001928E-02 0. -1.
       -1    1    3    3    0  502 -0.42196296218E+03  0.32878080330E+03 -0.34027718937E+03  0.63398590182E+03  0.50400001928E-02 0.  1.
</event>
<event>
 5   0  0.1238683E-03  0.1445595E+04  0.7818609E-02  0.8921460E-01
        1   -1    0    0  501    0  0.00000000000E+00  0.00000000000E+00  0.77121980160E+03  0.77121980161E+03  0.50400001928E-02 0.  1.
       -1   -1    0    0    0  501  0.00000000000E+00  0.00000000000E+00 -0.67741559869E+03  0.67741559870E+03  0.50400001928E-02 0. -1.
    10030    2    1    2    0    0  0.00000000000E+00  0.00000000000E+00  0.93804202911E+02  0.14486354003E+04  0.14455951351E+04 0.  0.
        2    1    3    3  502    0 -0.16890020969E+03  0.17330239893E+03 -0.63561423342E+03  0.68012238314E+03  0.25500000920E-02 0. -1.
       -2    1    3    3    0  502  0.16890020969E+03 -0.17330239893E+03  0.72941843633E+03  0.76851301718E+03  0.25500000920E-02 0.  1.
</event>
<event>
 5   0  0.2083966E-03  0.1481185E+04  0.7818609E-02  0.8897062E-01
        2   -1    0    0  501    0  0.00000000000E+00  0.00000000000E+00  0.62133861926E+03  0.62133861927E+03  0.25500000920E-02 0. -1.
       -2   -1    0    0    0  501  0.00000000000E+00  0.00000000000E+00 -0.88273533838E+03  0.88273533839E+03  0.25500000920E-02 0.  1.
    10030    2    1    2    0    0  0.00000000000E+00  0.00000000000E+00 -0.26139671912E+03  0.15040739577E+04  0.14811854122E+04 0.  0.
        1    1    3    3  502    0  0.79734570086E+02  0.42957332960E+03 -0.73792448685E+03  0.85756830369E+03  0.50400001928E-02 0.  1.
       -1    1    3    3    0  502 -0.79734570086E+02 -0.42957332960E+03  0.47652776773E+03  0.64650565397E+03  0.50400001928E-02 0. -1.
</event>
<event>
 5   0  0.1199720E-03  0.1406109E+04  0.7818609E-02  0.8949408E-01
       -1   -1    0    0    0  501  0.00000000000E+00  0.00000000000E+00  0.43996369363E+03  0.43996369366E+03  0.50400001928E-02 0. -1.
        1   -1    0    0  501    0  0.00000000000E+00  0.00000000000E+00 -0.11234698533E+04  0.11234698533E+04  0.50400001928E-02 0.  1.
    10030    2    1    2    0    0  0.00000000000E+00  0.00000000000E+00 -0.68350615964E+03  0.15634335469E+04  0.14061094500E+04 0.  0.
        5    1    3    3  502    0 -0.48627535765E+02  0.18960331857E+03 -0.10925436591E+04  0.11099494550E+04  0.46999998093E+01 0.  1.
       -5    1    3    3    0  502  0.48627535765E+02 -0.18960331857E+03  0.40903749947E+03  0.45348409191E+03  0.46999998093E+01 0. -1.
</event>
<event>
 5   0  0.2236184E-03  0.1198914E+04  0.7818609E-02  0.9113807E-01
        2   -1    0    0  501    0  0.00000000000E+00  0.00000000000E+00  0.53819227215E+03  0.53819227216E+03  0.25500000920E-02 0.  1.
       -2   -1    0    0    0  501  0.00000000000E+00  0.00000000000E+00 -0.66769597050E+03  0.66769597050E+03  0.25500000920E-02 0. -1.
    10030    2    1    2    0    0  0.00000000000E+00  0.00000000000E+00 -0.12950369834E+03  0.12058882427E+04  0.11989141946E+04 0.  0.
        3    1    3    3  502    0  0.38170341211E+03 -0.29424121463E+03 -0.42329902653E+03  0.64144950173E+03  0.10100000352E+00 0. -1.
       -3    1    3    3    0  502 -0.38170341211E+03  0.29424121463E+03  0.29379532819E+03  0.56443874094E+03  0.10100000352E+00 0.  1.
</event>
<event>
 5   0  0.2172901E-03  0.1101760E+04  0.7818609E-02  0.9203478E-01
       -2   -1    0    0    0  501  0.00000000000E+00  0.00000000000E+00  0.73167221821E+03  0.73167221822E+03  0.25500000920E-02 0. -1.
        2   -1    0    0  501    0  0.00000000000E+00  0.00000000000E+00 -0.41476038560E+03  0.41476038561E+03  0.25500000920E-02 0.  1.
    10030    2    1    2    0    0  0.00000000000E+00  0.00000000000E+00  0.31691183261E+03  0.11464326038E+04  0.11017597767E+04 0.  0.
        2    1    3    3  502    0  0.19711647205E+03  0.24522138917E+03  0.62898585904E+03  0.70328631733E+03  0.25500000920E-02 0. -1.
       -2    1    3    3    0  502 -0.19711647205E+03 -0.24522138917E+03 -0.31207402643E+03  0.44314628650E+03  0.25500000920E-02 0.  1.
</event>
<event>
 5   0  0.2195980E-03  0.1488153E+04  0.7818609E-02  0.8892369E-01
        2   -1    0    0  501    0  0.00000000000E+00  0.00000000000E+00  0.35482849077E+03  0.35482849078E+03  0.25500000920E-02 0. -1.
       -2   -1    0    0    0  501  0.00000000000E+00  0.00000000000E+00 -0.15603308035E+04  0.15603308035E+04  0.25500000920E-02 0.  1.
    10030    2    1    2    0    0  0.00000000000E+00  0.00000000000E+00 -0.12055023127E+04  0.19151592942E+04  0.14881529815E+04 0.  0.
        4    1    3    3  502    0  0.27335250909E+03  0.69038555489E+03 -0.54110696838E+03  0.91877754258E+03  0.12699999809E+01 0. -1.
       -4    1    3    3    0  502 -0.27335250909E+03 -0.69038555489E+03 -0.66439534430E+03  0.99638175167E+03  0.12699999809E+01 0.  1.
</event>
<event>
 5   0  0.2236184E-03  0.1391839E+04  0.7818609E-02  0.8959747E-01
       -2   -1    0    0    0  501  0.00000000000E+00  0.00000000000E+00  0.47101857643E+03  0.47101857644E+03  0.25500000920E-02 0. -1.
        2   -1    0    0  501    0  0.00000000000E+00  0.00000000000E+00 -0.10282054412E+04  0.10282054412E+04  0.25500000920E-02 0.  1.
    10030    2    1    2    0    0  0.00000000000E+00  0.00000000000E+00 -0.55718686476E+03  0.14992240176E+04  0.13918388746E+04 0.  0.
        3    1    3    3  502    0  0.35937933489E+03  0.43548958340E+03  0.15960970026E+03  0.58675373898E+03  0.10100000352E+00 0. -1.
       -3    1    3    3    0  502 -0.35937933489E+03 -0.43548958340E+03 -0.71679656501E+03  0.91247027865E+03  0.10100000352E+00 0.  1.
</event>
<event>
 5   0  0.1210275E-03  0.1398440E+04  0.7818609E-02  0.8954948E-01
       -1   -1    0    0    0  501  0.00000000000E+00  0.00000000000E+00  0.10710722627E+04  0.10710722627E+04  0.50400001928E-02 0.  1.
        1   -1    0    0  501    0  0.00000000000E+00  0.00000000000E+00 -0.45646680422E+03  0.45646680425E+03  0.50400001928E-02 0. -1.
    10030    2    1    2    0    0  0.00000000000E+00  0.00000000000E+00  0.61460545849E+03  0.15275390670E+04  0.13984404641E+04 0.  0.
        1    1    3    3  502    0 -0.16710799347E+03  0.52893343889E+03 -0.15768697973E+03  0.57668088911E+03  0.50400001928E-02 0. -1.
       -1    1    3    3    0  502  0.16710799347E+03 -0.52893343889E+03  0.77229243822E+03  0.95085817787E+03  0.50400001928E-02 0.  1.
</event>
<event>
 5   0  0.1199720E-03  0.1382889E+04  0.7818609E-02  0.8966298E-01
        1   -1    0    0  501    0  0.00000000000E+00  0.00000000000E+00  0.31090733027E+04  0.31090733027E+04  0.50400001928E-02 0.  1.
       -1   -1    0    0    0  501  0.00000000000E+00  0.00000000000E+00 -0.15377422231E+03  0.15377422239E+03  0.50400001928E-02 0. -1.
    10030    2    1    2    0    0  0.00000000000E+00  0.00000000000E+00  0.29552990804E+04  0.32628475251E+04  0.13828887582E+04 0.  0.
        5    1    3    3  502    0  0.10348017546E+03  0.35664001607E+03  0.28537794935E+04  0.28778428962E+04  0.46999998093E+01 0.  1.
       -5    1    3    3    0  502 -0.10348017546E+03 -0.35664001607E+03  0.10151958696E+03  0.38500462895E+03  0.46999998093E+01 0. -1.
</event>
<event>
 5   0  0.8293000E-04  0.1356111E+04  0.7818609E-02  0.8986215E-01
        3   -1    0    0  501    0  0.00000000000E+00  0.00000000000E+00  0.44170105712E+03  0.44170106867E+03  0.10100000352E+00 0.  1.
       -3   -1    0    0    0  501  0.00000000000E+00  0.00000000000E+00 -0.10408825571E+04  0.10408825620E+04  0.10100000352E+00 0. -1.
    10030    2    1    2    0    0  0.00000000000E+00  0.00000000000E+00 -0.59918150001E+03  0.14825836307E+04  0.13561105235E+04 0.  0.
        4    1    3    3  502    0 -0.48951116049E+01  0.48674784275E+03 -0.81564024456E+03  0.94985159156E+03  0.12699999809E+01 0. -1.
       -4    1    3    3    0  502  0.48951116049E+01 -0.48674784275E+03  0.21645874455E+03  0.53273203914E+03  0.12699999809E+01 0.  1.
</event>
<event>
 5   0  0.2195980E-03  0.1361039E+04  0.7818609E-02  0.8982513E-01
        2   -1    0    0  501    0  0.00000000000E+00  0.00000000000E+00  0.59106793860E+03  0.59106793860E+03  0.25500000920E-02 0. -1.
       -2   -1    0    0    0  501  0.00000000000E+00  0.00000000000E+00 -0.78350898567E+03  0.78350898567E+03  0.25500000920E-02 0.  1.
    10030    2    1    2    0    0  0.00000000000E+00  0.00000000000E+00 -0.19244104707E+03  0.13745769243E+04  0.13610393691E+04 0.  0.
        4    1    3    3  502    0  0.35083606382E+03  0.92414955877E+02 -0.67768922799E+03  0.76869419822E+03  0.12699999809E+01 0.  1.
       -4    1    3    3    0  502 -0.35083606382E+03 -0.92414955877E+02  0.48524818092E+03  0.60588272606E+03  0.12699999809E+01 0. -1.
</event>
<event>
 5   0  0.2172901E-03  0.1369446E+04  0.7818609E-02  0.8976237E-01
       -2   -1    0    0    0  501  0.00000000000E+00  0.00000000000E+00  0.76871214986E+03  0.76871214986E+03  0.25500000920E-02 0.  1.
        2   -1    0    0  501    0  0.00000000000E+00  0.00000000000E+00 -0.60991082936E+03  0.60991082937E+03  0.25500000920E-02 0. -1.
    10030    2    1    2    0    0  0.00000000000E+00  0.00000000000E+00  0.15880132049E+03  0.13786229792E+04  0.13694464062E+04 0.  0.
        2    1    3    3  502    0 -0.57081868880E+03 -0.32262072414E+03 -0.11922262773E+03  0.66643239875E+03  0.25500000920E-02 0. -1.
       -2    1    3    3    0  502  0.57081868880E+03  0.32262072414E+03  0.27802394822E+03  0.71219058048E+03  0.25500000920E-02 0.  1.
</event>
<event>
 5   0  0.1238683E-03  0.1411221E+04  0.7818609E-02  0.8945736E-01
       -1   -1    0    0    0  501  0.00000000000E+00  0.00000000000E+00  0.60871833435E+03  0.60871833437E+03  0.50400001928E-02 0.  1.
        1   -1    0    0  501    0  0.00000000000E+00  0.00000000000E+00 -0.81792574413E+03  0.81792574415E+03  0.50400001928E-02 0. -1.
    10030    2    1    2    0    0  0.00000000000E+00  0.00000000000E+00 -0.20920740978E+03  0.14266440785E+04  0.14112213102E+04 0.  0.
        2    1    3    3  502    0 -0.58069667867E+03  0.26347396648E+01 -0.50982197685E+03  0.77274447429E+03  0.25500000920E-02 0. -1.
       -2    1    3    3    0  502  0.58069667867E+03 -0.26347396648E+01  0.30061456706E+03  0.65389960422E+03  0.25500000920E-02 0.  1.
</event>
<event>
 5   0  0.8293000E-04  0.1498646E+04  0.7818609E-02  0.8885354E-01
       -4   -1    0    0    0  501  0.00000000000E+00  0.00000000000E+00  0.91803617260E+03  0.91803705105E+03  0.12699999809E+01 0.  1.
        4   -1    0    0  501    0  0.00000000000E+00  0.00000000000E+00 -0.61161337836E+03  0.61161469692E+03  0.12699999809E+01 0. -1.
    10030    2    1    2    0    0  0.00000000000E+00  0.00000000000E+00  0.30642279424E+03  0.15296517480E+04  0.14986459026E+04 0.  0.
        4    1    3    3  502    0 -0.56645319003E+03 -0.37480329569E+03  0.47620196432E+03  0.82952796859E+03  0.12699999809E+01 0.  1.
       -4    1    3    3    0  502  0.56645319003E+03  0.37480329569E+03 -0.16977917007E+03  0.70012377938E+03  0.12699999809E+01 0. -1.
</event>
<event>
 5   0  0.2083966E-03  0.1411209E+04  0.7818609E-02  0.8945745E-01
        2   -1    0    0  501    0  0.00000000000E+00  0.00000000000E+00  0.65539306462E+03  0.65539306462E+03  0.25500000920E-02 0. -1.
       -2   -1    0    0    0  501  0.00000000000E+00  0.00000000000E+00 -0.75966268378E+03  0.75966268378E+03  0.25500000920E-02 0.  1.
    10030    2    1    2    0    0  0.00000000000E+00  0.00000000000E+00 -0.10426961916E+03  0.14150557484E+04  0.14112089206E+04 0.  0.
        1    1    3    3  502    0 -0.66729699232E+03 -0.13793195294E+03  0.13157802679E+03  0.69399083334E+03  0.50400001928E-02 0. -1.
       -1    1    3    3    0  502  0.66729699232E+03  0.13793195294E+03 -0.23584764595E+03  0.72106491506E+03  0.50400001928E-02 0.  1.
</event>
<event>
 5   0  0.1225690E-03  0.1401270E+04  0.7818609E-02  0.8952900E-01
        1   -1    0    0  501    0  0.00000000000E+00  0.00000000000E+00  0.82529297944E+03  0.82529297945E+03  0.50400001928E-02 0.  1.
       -1   -1    0    0    0  501  0.00000000000E+00  0.00000000000E+00 -0.59480654450E+03  0.59480654453E+03  0.50400001928E-02 0. -1.
    10030    2    1    2    0    0  0.00000000000E+00  0.00000000000E+00  0.23048643493E+03  0.14200995240E+04  0.14012703741E+04 0.  0.
        4    1    3    3  502    0 -0.74572687779E+02  0.45556640985E+03 -0.41889319502E+03  0.62335781160E+03  0.12699999809E+01 0. -1.
       -4    1    3    3    0  502  0.74572687779E+02 -0.45556640985E+03  0.64937962995E+03  0.79674171238E+03  0.12699999809E+01 0.  1.
</event>
<event>
 5   0  0.1199720E-03  0.1321311E+04  0.7818609E-02  0.9012834E-01
        1   -1    0    0  501    0  0.00000000000E+00  0.00000000000E+00  0.15725730687E+04  0.15725730687E+04  0.50400001928E-02 0. -1.
       -1   -1    0    0    0  501  0.00000000000E+00  0.00000000000E+00 -0.27754889068E+03  0.27754889073E+03  0.50400001928E-02 0.  1.
    10030    2    1    2    0    0  0.00000000000E+00  0.00000000000E+00  0.12950241780E+04  0.18501219594E+04  0.13213113347E+04 0.  0.
        5    1    3    3  502    0 -0.51247720058E+03 -0.14554287916E+03  0.11945439260E+04  0.13079651723E+04  0.46999998093E+01 0. -1.
       -5    1    3    3    0  502  0.51247720058E+03  0.14554287916E+03  0.10048025200E+03  0.54215678713E+03  0.46999998093E+01 0.  1.
</event>
<event>
 5   0  0.1210275E-03  0.1123075E+04  0.7818609E-02  0.9182989E-01
       -1   -1    0    0    0  501  0.00000000000E+00  0.00000000000E+00  0.29862514691E+03  0.29862514696E+03  0.50400001928E-02 0. -1.
        1   -1    0    0  501    0  0.00000000000E+00  0.00000000000E+00 -0.10559208070E+04  0.10559208070E+04  0.50400001928E-02 0.  1.
    10030    2    1    2    0    0  0.00000000000E+00  0.00000000000E+00 -0.75729566004E+03  0.13545459539E+04  0.11230752533E+04 0.  0.
        1    1    3    3  502    0  0.10338475094E+03  0.38058032548E+03  0.10348431907E+03  0.40772392031E+03  0.50400001928E-02 0. -1.
       -1    1    3    3    0  502 -0.10338475094E+03 -0.38058032548E+03 -0.86077997912E+03  0.94682203362E+03  0.50400001928E-02 0.  1.
</event>
<event>
 5   0  0.1175374E-03  0.1388861E+04  0.7818609E-02  0.8961921E-01
       -1   -1    0    0    0  501  0.00000000000E+00  0.00000000000E+00  0.35908987196E+03  0.35908987200E+03  0.50400001928E-02 0.  1.
        1   -1    0    0  501    0  0.00000000000E+00  0.00000000000E+00 -0.13429337990E+04  0.13429337990E+04  0.50400001928E-02 0. -1.
    10030    2    1    2    0    0  0.00000000000E+00  0.00000000000E+00 -0.98384392707E+03  0.17020236710E+04  0.13888612976E+04 0.  0.
        3    1    3    3  502    0 -0.34914725331E+03 -0.19987685464E+03 -0.11855697117E+04  0.12519704921E+04  0.10100000352E+00 0. -1.
       -3    1    3    3    0  502  0.34914725331E+03  0.19987685464E+03  0.20172578463E+03  0.45005317897E+03  0.10100000352E+00 0.  1.
</event>
<event>
 5   0  0.2083966E-03  0.1393252E+04  0.7818609E-02  0.8958717E-01
        2   -1    0    0  501    0  0.00000000000E+00  0.00000000000E+00  0.94561220383E+03  0.94561220384E+03  0.25500000920E-02 0. -1.
       -2   -1    0    0    0  501  0.00000000000E+00  0.00000000000E+00 -0.51319990802E+03  0.51319990803E+03  0.25500000920E-02 0.  1.
    10030    2    1    2    0    0  0.00000000000E+00  0.00000000000E+00  0.43241229581E+03  0.14588121119E+04  0.13932524481E+04 0.  0.
        1    1    3    3  502    0 -0.14939386184E+03 -0.12233622166E+03 -0.48461985911E+03  0.52167143391E+03  0.50400001928E-02 0.  1.
       -1    1    3    3    0  502  0.14939386184E+03  0.12233622166E+03  0.91703215492E+03  0.93714067795E+03  0.50400001928E-02 0. -1.
</event>
<event>
 5   0  0.2083966E-03  0.1410623E+04  0.7818609E-02  0.8946165E-01
        2   -1    0    0  501    0  0.00000000000E+00  0.00000000000E+00  0.10885051108E+04  0.10885051108E+04  0.25500000920E-02 0. -1.
       -2   -1    0    0    0  501  0.00000000000E+00  0.00000000000E+00 -0.45701600779E+03  0.45701600779E+03  0.25500000920E-02 0.  1.
    10030    2    1    2    0    0  0.00000000000E+00  0.00000000000E+00  0.63148910302E+03  0.15455211186E+04  0.14106229265E+04 0.  0.
        1    1    3    3  502    0  0.28133355077E+03  0.25521474108E+03  0.96686712386E+03  0.10388046814E+04  0.50400001928E-02 0. -1.
       -1    1    3    3    0  502 -0.28133355077E+03 -0.25521474108E+03 -0.33537802084E+03  0.50671643721E+03  0.50400001928E-02 0.  1.
</event>
<event>
 5   0  0.8293000E-04  0.1227985E+04  0.7818609E-02  0.9088708E-01
        3   -1    0    0  501    0  0.00000000000E+00  0.00000000000E+00  0.46458146032E+03  0.46458147129E+03  0.10100000352E+00 0.  1.
       -3   -1    0    0    0  501  0.00000000000E+00  0.00000000000E+00 -0.81145420453E+03  0.81145421081E+03  0.10100000352E+00 0. -1.
    10030    2    1    2    0    0  0.00000000000E+00  0.00000000000E+00 -0.34687274421E+03  0.12760356821E+04  0.12279846747E+04 0.  0.
        2    1    3    3  502    0 -0.49628767084E+02 -0.58204251309E+03  0.23039142186E+02  0.58460867565E+03  0.25500000920E-02 0.  1.
       -2    1    3    3    0  502  0.49628767084E+02  0.58204251309E+03 -0.36991188640E+03  0.69142700646E+03  0.25500000920E-02 0. -1.
</event>
<event>
 5   0  0.2195980E-03  0.1408121E+04  0.7818609E-02  0.8947961E-01
        2   -1    0    0  501    0  0.00000000000E+00  0.00000000000E+00  0.15055657833E+04  0.15055657834E+04  0.25500000920E-02 0. -1.
       -2   -1    0    0    0  501  0.00000000000E+00  0.00000000000E+00 -0.32924567995E+03  0.32924567996E+03  0.25500000920E-02 0.  1.
    10030    2    1    2    0    0  0.00000000000E+00  0.00000000000E+00  0.11763201034E+04  0.18348114633E+04  0.14081207762E+04 0.  0.
        4    1    3    3  502    0  0.60714019303E+03  0.34516316515E+03  0.47203319214E+03  0.84295537957E+03  0.12699999809E+01 0.  1.
       -4    1    3    3    0  502 -0.60714019303E+03 -0.34516316515E+03  0.70428691126E+03  0.99185608374E+03  0.12699999809E+01 0. -1.
</event>
<event>
 5   0  0.1238683E-03  0.1376276E+04  0.7818609E-02  0.8971173E-01
       -1   -1    0    0    0  501  0.00000000000E+00  0.00000000000E+00  0.88617017187E+03  0.88617017189E+03  0.50400001928E-02 0. -1.
        1   -1    0    0  501    0  0.00000000000E+00  0.00000000000E+00 -0.53435972935E+03  0.53435972937E+03  0.50400001928E-02 0.  1.
    10030    2    1    2    0    0  0.00000000000E+00  0.00000000000E+00  0.35181044252E+03  0.14205299013E+04  0.13762756312E+04 0.  0.
        2    1    3    3  502    0 -0.26595626408E+02 -0.59970510196E+03  0.52314544553E+03  0.79626295522E+03  0.25500000920E-02 0. -1.
       -2    1    3    3    0  502  0.26595626408E+02  0.59970510196E+03 -0.17133500301E+03  0.62426694605E+03  0.25500000920E-02 0.  1.
</event>
<event>
 5   0  0.2190704E-03  0.1385050E+04  0.7818609E-02  0.8964712E-01
        2   -1    0    0  501    0  0.00000000000E+00  0.00000000000E+00  0.10135374917E+04  0.10135374918E+04  0.25500000920E-02 0.  1.
       -2   -1    0    0    0  501  0.00000000000E+00  0.00000000000E+00 -0.47318480656E+03  0.47318480657E+03  0.25500000920E-02 0. -1.
    10030    2    1    2    0    0  0.00000000000E+00  0.00000000000E+00  0.54035268518E+03  0.14867222983E+04  0.13850495182E+04 0.  0.
        5    1    3    3  502    0 -0.35080992171E+03 -0.57446702697E+03  0.95476255910E+02  0.67986599539E+03  0.46999998093E+01 0. -1.
       -5    1    3    3    0  502  0.35080992171E+03  0.57446702697E+03  0.44487642928E+03  0.80685630293E+03  0.46999998093E+01 0.  1.
</event>
<event>
 5   0  0.2190704E-03  0.1068591E+04  0.7818609E-02  0.9236358E-01
       -2   -1    0    0    0  501  0.00000000000E+00  0.00000000000E+00  0.51282047644E+03  0.51282047645E+03  0.25500000920E-02 0.  1.
        2   -1    0    0  501    0  0.00000000000E+00  0.00000000000E+00 -0.55666980343E+03  0.55666980344E+03  0.25500000920E-02 0. -1.
    10030    2    1    2    0    0  0.00000000000E+00  0.00000000000E+00 -0.43849326990E+02  0.10694902799E+04  0.10685909860E+04 0.  0.
        5    1    3    3  502    0  0.28492960349E+03  0.20116976844E+03 -0.42698174063E+03  0.55135256552E+03  0.46999998093E+01 0. -1.
       -5    1    3    3    0  502 -0.28492960349E+03 -0.20116976844E+03  0.38313241364E+03  0.51813771437E+03  0.46999998093E+01 0.  1.
</event>
<event>
 5   0  0.2236184E-03  0.1398114E+04  0.7818609E-02  0.8955185E-01
       -2   -1    0    0    0  501  0.00000000000E+00  0.00000000000E+00  0.12345248340E+04  0.12345248340E+04  0.25500000920E-02 0.  1.
        2   -1    0    0  501    0  0.00000000000E+00  0.00000000000E+00 -0.39584493797E+03  0.39584493798E+03  0.25500000920E-02 0. -1.
    10030    2    1    2    0    0  0.00000000000E+00  0.00000000000E+00  0.83867989605E+03  0.16303697720E+04  0.13981135953E+04 0.  0.
        3    1    3    3  502    0  0.11966532373E+03 -0.27638819636E+03 -0.31630611802E+03  0.43676056975E+03  0.10100000352E+00 0. -1.
       -3    1    3    3    0  502 -0.11966532373E+03  0.27638819636E+03  0.11549860141E+04  0.11936092022E+04  0.10100000352E+00 0.  1.
</event>
<event>
 5   0  0.2190704E-03  0.1423876E+04  0.7818609E-02  0.8936715E-01
        2   -1    0    0  501    0  0.00000000000E+00  0.00000000000E+00  0.11675314971E+04  0.11675314972E+04  0.25500000920E-02 0.  1.
       -2   -1    0    0    0  501  0.00000000000E+00  0.00000000000E+00 -0.43412595962E+03  0.43412595962E+03  0.25500000920E-02 0. -1.
    10030    2    1    2    0    0  0.00000000000E+00  0.00000000000E+00  0.73340553753E+03  0.16016574568E+04  0.14238760221E+04 0.  0.
        5    1    3    3  502    0  0.24772770640E+02 -0.70650074638E+03  0.46132893021E+03  0.84415843694E+03  0.46999998093E+01 0. -1.
       -5    1    3    3    0  502 -0.24772770640E+02  0.70650074638E+03  0.27207660733E+03  0.75749901984E+03  0.46999998093E+01 0.  1.
</event>
<event>
 5   0  0.2172901E-03  0.1387038E+04  0.7818609E-02  0.8963255E-01
        2   -1    0    0  501    0  0.00000000000E+00  0.00000000000E+00  0.16807669383E+04  0.16807669383E+04  0.25500000920E-02 0. -1.
       -2   -1    0    0    0  501  0.00000000000E+00  0.00000000000E+00 -0.28616012265E+03  0.28616012267E+03  0.25500000920E-02 0.  1.
    10030    2    1    2    0    0  0.00000000000E+00  0.00000000000E+00  0.13946068156E+04  0.19669270610E+04  0.13870378124E+04 0.  0.
        2    1    3    3  502    0 -0.35190201321E+03 -0.28536310488E+03  0.14418971757E+04  0.15114015329E+04  0.25500000920E-02 0. -1.
       -2    1    3    3    0  502  0.35190201321E+03  0.28536310488E+03 -0.47290360034E+02  0.45552552803E+03  0.25500000920E-02 0.  1.
</event>
<event>
 5   0  0.2190704E-03  0.1367892E+04  0.7818609E-02  0.8977394E-01
       -2   -1    0    0    0  501  0.00000000000E+00  0.00000000000E+00  0.10422978581E+04  0.10422978581E+04  0.25500000920E-02 0. -1.
        2   -1    0    0  501    0  0.00000000000E+00  0.00000000000E+00 -0.44879878855E+03  0.44879878856E+03  0.25500000920E-02 0.  1.
    10030    2    1    2    0    0  0.00000000000E+00  0.00000000000E+00  0.59349906957E+03  0.14910966467E+04  0.13678918320E+04 0.  0.
        5    1    3    3  502    0  0.16759024975E+03 -0.35718652645E+03 -0.31221894254E+03  0.50316146968E+03  0.46999998093E+01 0.  1.
       -5    1    3    3    0  502 -0.16759024975E+03  0.35718652645E+03  0.90571801211E+03  0.98793517700E+03  0.46999998093E+01 0. -1.
</event>
<event>
 5   0  0.2172901E-03  0.1368537E+04  0.7818609E-02  0.8976914E-01
        2   -1    0    0  501    0  0.00000000000E+00  0.00000000000E+00  0.56692196446E+03  0.56692196447E+03  0.25500000920E-02 0. -1.
       -2   -1    0    0    0  501  0.00000000000E+00  0.00000000000E+00 -0.82590392923E+03  0.82590392924E+03  0.25500000920E-02 0.  1.
    10030    2    1    2    0    0  0.00000000000E+00  0.00000000000E+00 -0.25898196477E+03  0.13928258937E+04  0.13685365586E+04 0.  0.
        2    1    3    3  502    0  0.36028284716E+03 -0.57213125739E+03 -0.23664578828E+03  0.71633730516E+03  0.25500000920E-02 0. -1.
       -2    1    3    3    0  502 -0.36028284716E+03  0.57213125739E+03 -0.22336176492E+02  0.67648858854E+03  0.25500000920E-02 0.  1.
</event>
<event>
 5   0  0.2195980E-03  0.1390801E+04  0.7818609E-02  0.8960504E-01
       -2   -1    0    0    0  501  0.00000000000E+00  0.00000000000E+00  0.10778952976E+04  0.10778952976E+04  0.25500000920E-02 0.  1.
        2   -1    0    0  501    0  0.00000000000E+00  0.00000000000E+00 -0.44863531343E+03  0.44863531344E+03  0.25500000920E-02 0. -1.
    10030    2    1    2    0    0  0.00000000000E+00  0.00000000000E+00  0.62925998420E+03  0.15265306111E+04  0.13908010565E+04 0.  0.
        4    1    3    3  502    0  0.19222051875E+03  0.28374668681E+03 -0.34949811351E+03  0.48950123018E+03  0.12699999809E+01 0. -1.
       -4    1    3    3    0  502 -0.19222051875E+03 -0.28374668681E+03  0.97875809771E+03  0.10370293809E+04  0.12699999809E+01 0.  1.
</event>
<event>
 5   0  0.2083966E-03  0.1396580E+04  0.7818609E-02  0.8956298E-01
       -2   -1    0    0    0  501  0.00000000000E+00  0.00000000000E+00  0.60288315641E+03  0.60288315641E+03  0.25500000920E-02 0. -1.
        2   -1    0    0  501    0  0.00000000000E+00  0.00000000000E+00 -0.80879469646E+03  0.80879469647E+03  0.25500000920E-02 0.  1.
    10030    2    1    2    0    0  0.00000000000E+00  0.00000000000E+00 -0.20591154006E+03  0.14116778529E+04  0.13965796784E+04 0.  0.
        1    1    3    3  502    0 -0.47068981858E+03 -0.50556478045E+03  0.44403556676E+00  0.69075672254E+03  0.50400001928E-02 0. -1.
       -1    1    3    3    0  502  0.47068981858E+03  0.50556478045E+03 -0.20635557562E+03  0.72092113034E+03  0.50400001928E-02 0.  1.
</event>
<event>
 5   0  0.1210275E-03  0.1013115E+04  0.7818609E-02  0.9294276E-01
       -1   -1    0    0    0  501  0.00000000000E+00  0.00000000000E+00  0.14228028679E+03  0.14228028687E+03  0.50400001928E-02 0. -1.
        1   -1    0    0  501    0  0.00000000000E+00  0.00000000000E+00 -0.18034870806E+04  0.18034870806E+04  0.50400001928E-02 0.  1.
    10030    2    1    2    0    0  0.00000000000E+00  0.00000000000E+00 -0.16612067938E+04  0.19457673675E+04  0.10131153126E+04 0.  0.
        1    1    3    3  502    0 -0.36178518683E+03  0.34291196906E+03 -0.10037062161E+04  0.11206709188E+04  0.50400001928E-02 0.  1.
       -1    1    3    3    0  502  0.36178518683E+03 -0.34291196906E+03 -0.65750057773E+03  0.82509644871E+03  0.50400001928E-02 0. -1.
</event>
<event>
 5   0  0.1199720E-03  0.1381984E+04  0.7818609E-02  0.8966963E-01
        1   -1    0    0  501    0  0.00000000000E+00  0.00000000000E+00  0.43089703517E+03  0.43089703520E+03  0.50400001928E-02 0.  1.
       -1   -1    0    0    0  501  0.00000000000E+00  0.00000000000E+00 -0.11080840627E+04  0.11080840627E+04  0.50400001928E-02 0. -1.
    10030    2    1    2    0    0  0.00000000000E+00  0.00000000000E+00 -0.67718702751E+03  0.15389810979E+04  0.13819842797E+04 0.  0.
        5    1    3    3  502    0  0.27028466043E+03  0.42973814358E+03 -0.86058613379E+03  0.99917928991E+03  0.46999998093E+01 0. -1.
       -5    1    3    3    0  502 -0.27028466043E+03 -0.42973814358E+03  0.18339910628E+03  0.53980180798E+03  0.46999998093E+01 0.  1.
</event>
<event>
 5   0  0.1238683E-03  0.1388433E+04  0.7818609E-02  0.8962234E-01
       -1   -1    0    0    0  501  0.00000000000E+00  0.00000000000E+00  0.35745369959E+03  0.35745369962E+03  0.50400001928E-02 0. -1.
        1   -1    0    0  501    0  0.00000000000E+00  0.00000000000E+00 -0.13482482538E+04  0.13482482538E+04  0.50400001928E-02 0.  1.
    10030    2    1    2    0    0  0.00000000000E+00  0.00000000000E+00 -0.99079455419E+03  0.17057019534E+04  0.13884326794E+04 0.  0.
        2    1    3    3  502    0  0.48069257186E+03 -0.31757847043E+03 -0.19574192842E+02  0.57645865641E+03  0.25500000920E-02 0. -1.
       -2    1    3    3    0  502 -0.48069257186E+03  0.31757847043E+03 -0.97122036135E+03  0.11292432970E+04  0.25500000920E-02 0.  1.
</event>
<event>
 5   0  0.1199720E-03  0.1338133E+04  0.7818609E-02  0.8999860E-01
       -1   -1    0    0    0  501  0.00000000000E+00  0.00000000000E+00  0.88997679510E+03  0.88997679512E+03  0.50400001928E-02 0.  1.
        1   -1    0    0  501    0  0.00000000000E+00  0.00000000000E+00 -0.50299064908E+03  0.50299064910E+03  0.50400001928E-02 0. -1.
    10030    2    1    2    0    0  0.00000000000E+00  0.00000000000E+00  0.38698614603E+03  0.13929674442E+04  0.13381330365E+04 0.  0.
        5    1    3    3  502    0 -0.47412912352E+03  0.46677604397E+03  0.12025660741E+03  0.67613759149E+03  0.46999998093E+01 0. -1.
       -5    1    3    3    0  502  0.47412912352E+03 -0.46677604397E+03  0.26672953861E+03  0.71682985273E+03  0.46999998093E+01 0.  1.
</event>
<event>
 5   0  0.2083966E-03  0.1012913E+04  0.7818609E-02  0.9294494E-01
       -2   -1    0    0    0  501  0.00000000000E+00  0.00000000000E+00  0.18734918359E+03  0.18734918361E+03  0.25500000920E-02 0.  1.
        2   -1    0    0  501    0  0.00000000000E+00  0.00000000000E+00 -0.13690923590E+04  0.13690923590E+04  0.25500000920E-02 0. -1.
    10030    2    1    2    0    0  0.00000000000E+00  0.00000000000E+00 -0.11817431754E+04  0.15564415426E+04  0.10129132949E+04 0.  0.
        1    1    3    3  502    0 -0.43121608629E+03 -0.28951548842E+02 -0.18516047772E+03  0.47018071822E+03  0.50400001928E-02 0.  1.
       -1    1    3    3    0  502  0.43121608629E+03  0.28951548842E+02 -0.99658269765E+03  0.10862608244E+04  0.50400001928E-02 0. -1.
</event>
<event>
 5   0  0.2195980E-03  0.1386689E+04  0.7818609E-02  0.8963511E-01
       -2   -1    0    0    0  501  0.00000000000E+00  0.00000000000E+00  0.52034769042E+03  0.52034769042E+03  0.25500000920E-02 0. -1.
        2   -1    0    0  501    0  0.00000000000E+00  0.00000000000E+00 -0.92385589143E+03  0.92385589144E+03  0.25500000920E-02 0.  1.
    10030    2    1    2    0    0  0.00000000000E+00  0.00000000000E+00 -0.40350820101E+03  0.14442035819E+04  0.13866885438E+04 0.  0.
        4    1    3    3  502    0  0.60357104725E+03  0.26187364088E+03 -0.42957064427E+03  0.78575337363E+03  0.12699999809E+01 0. -1.
       -4    1    3    3    0  502 -0.60357104725E+03 -0.26187364088E+03  0.26062443251E+02  0.65845020823E+03  0.12699999809E+01 0.  1.
</event>
<event>
 5   0  0.1225690E-03  0.1368571E+04  0.7818609E-02  0.8976888E-01
        1   -1    0    0  501    0  0.00000000000E+00  0.00000000000E+00  0.98625522188E+03  0.98625522189E+03  0.50400001928E-02 0.  1.
       -1   -1    0    0    0  501  0.00000000000E+00  0.00000000000E+00 -0.47477232278E+03  0.47477232280E+03  0.50400001928E-02 0. -1.
    10030    2    1    2    0    0  0.00000000000E+00  0.00000000000E+00  0.51148289910E+03  0.14610275447E+04  0.13685710542E+04 0.  0.
        4    1    3    3  502    0  0.37375195585E+03 -0.49212240548E+03 -0.58000595075E+02  0.62067758812E+03  0.12699999809E+01 0. -1.
       -4    1    3    3    0  502 -0.37375195585E+03  0.49212240548E+03  0.56948349418E+03  0.84034995657E+03  0.12699999809E+01 0.  1.
</event>
<event>
 5   0  0.1238683E-03  0.1259458E+04  0.7818609E-02  0.9062348E-01
       -1   -1    0    0    0  501  0.00000000000E+00  0.00000000000E+00  0.74431224698E+03  0.74431224700E+03  0.50400001928E-02 0. -1.
        1   -1    0    0  501    0  0.00000000000E+00  0.00000000000E+00 -0.53278532171E+03  0.53278532174E+03  0.50400001928E-02 0.  1.
    10030    2    1    2    0    0  0.00000000000E+00  0.00000000000E+00  0.21152692527E+03  0.12770975687E+04  0.12594580422E+04 0.  0.
        2    1    3    3  502    0 -0.66582893163E+02  0.62489948537E+03  0.14665180559E+03  0.64532116079E+03  0.25500000920E-02 0. -1.
       -2    1    3    3    0  502  0.66582893163E+02 -0.62489948537E+03  0.64875119682E+02  0.63177640794E+03  0.25500000920E-02 0.  1.
</event>
<event>
 5   0  0.1238683E-03  0.1421375E+04  0.7818609E-02  0.8938490E-01
       -1   -1    0    0    0  501  0.00000000000E+00  0.00000000000E+00  0.21445218571E+03  0.21445218577E+03  0.50400001928E-02 0.  1.
        1   -1    0    0  501    0  0.00000000000E+00  0.00000000000E+00 -0.23551942275E+04  0.23551942275E+04  0.50400001928E-02 0. -1.
    10030    2    1    2    0    0  0.00000000000E+00  0.00000000000E+00 -0.21407420418E+04  0.25696464133E+04  0.14213747570E+04 0.  0.
        2    1    3    3  502    0 -0.50113368725E+03  0.41889542584E+03 -0.15767919129E+04  0.17067164635E+04  0.25500000920E-02 0. -1.
       -2    1    3    3    0  502  0.50113368725E+03 -0.41889542584E+03 -0.56395012889E+03  0.86292994974E+03  0.25500000920E-02 0.  1.
</event>
<event>
 5   0  0.2172901E-03  0.1519104E+04  0.7818609E-02  0.8871847E-01
        2   -1    0    0  501    0  0.00000000000E+00  0.00000000000E+00  0.11760820033E+04  0.11760820033E+04  0.25500000920E-02 0. -1.
       -2   -1    0    0    0  501  0.00000000000E+00  0.00000000000E+00 -0.49054345204E+03  0.49054345205E+03  0.25500000920E-02 0.  1.
    10030    2    1    2    0    0  0.00000000000E+00  0.00000000000E+00  0.68553855121E+03  0.16666254553E+04  0.15191041120E+04 0.  0.
        2    1    3    3  502    0  0.42079358858E+03 -0.59588771576E+03  0.57490586037E+03  0.92879823551E+03  0.25500000920E-02 0. -1.
       -2    1    3    3    0  502 -0.42079358858E+03  0.59588771576E+03  0.11063269084E+03  0.73782721980E+03  0.25500000920E-02 0.  1.
</event>
<event>
 5   0  0.1210275E-03  0.1370135E+04  0.7818609E-02  0.8975725E-01
        1   -1    0    0  501    0  0.00000000000E+00  0.00000000000E+00  0.74107275041E+03  0.74107275043E+03  0.50400001928E-02 0. -1.
       -1   -1    0    0    0  501  0.00000000000E+00  0.00000000000E+00 -0.63329479119E+03  0.63329479121E+03  0.50400001928E-02 0.  1.
    10030    2    1    2    0    0  0.00000000000E+00  0.00000000000E+00  0.10777795922E+03  0.13743675416E+04  0.13701350485E+04 0.  0.
        1    1    3    3  502    0 -0.45468930301E+03 -0.38248151665E+03 -0.28816740598E+03  0.66035969497E+03  0.50400001928E-02 0.  1.
       -1    1    3    3    0  502  0.45468930301E+03  0.38248151665E+03  0.39594536520E+03  0.71400784667E+03  0.50400001928E-02 0. -1.
</event>
<event>
 5   0  0.1238683E-03  0.1390397E+04  0.7818609E-02  0.8960799E-01
        1   -1    0    0  501    0  0.00000000000E+00  0.00000000000E+00  0.65251447671E+03  0.65251447673E+03  0.50400001928E-02 0.  1.
       -1   -1    0    0    0  501  0.00000000000E+00  0.00000000000E+00 -0.74067508836E+03  0.74067508837E+03  0.50400001928E-02 0. -1.
    10030    2    1    2    0    0  0.00000000000E+00  0.00000000000E+00 -0.88160611648E+02  0.13931895651E+04  0.13903973788E+04 0.  0.
        2    1    3    3  502    0 -0.55493416326E+03 -0.35637528279E+03 -0.26439898626E+03  0.71053648159E+03  0.25500000920E-02 0. -1.
       -2    1    3    3    0  502  0.55493416326E+03  0.35637528279E+03  0.17623837461E+03  0.68265308351E+03  0.25500000920E-02 0.  1.
</event>
<event>
 5   0  0.1175374E-03  0.1407477E+04  0.7818609E-02  0.8948424E-01
       -1   -1    0    0    0  501  0.00000000000E+00  0.00000000000E+00  0.18959751847E+03  0.18959751854E+03  0.50400001928E-02 0.  1.
        1   -1    0    0  501    0  0.00000000000E+00  0.00000000000E+00 -0.26121017323E+04  0.26121017323E+04  0.50400001928E-02 0. -1.
    10030    2    1    2    0    0  0.00000000000E+00  0.00000000000E+00 -0.24225042138E+04  0.28016992509E+04  0.14074771850E+04 0.  0.
        3    1    3    3  502    0  0.48485952779E+03 -0.48717766845E+03 -0.91056771347E+03  0.11408612595E+04  0.10100000352E+00 0.  1.
       -3    1    3    3    0  502 -0.48485952779E+03  0.48717766845E+03 -0.15119365004E+04  0.16608379914E+04  0.10100000352E+00 0. -1.
</event>
<event>
 5   0  0.1225690E-03  0.1408346E+04  0.7818609E-02  0.8947799E-01
       -1   -1    0    0    0  501  0.00000000000E+00  0.00000000000E+00  0.12787874109E+04  0.12787874109E+04  0.50400001928E-02 0.  1.
        1   -1    0    0  501    0  0.00000000000E+00  0.00000000000E+00 -0.38775790152E+03  0.38775790155E+03  0.50400001928E-02 0. -1.
    10030    2    1    2    0    0  0.00000000000E+00  0.00000000000E+00  0.89102950938E+03  0.16665453125E+04  0.14083464389E+04 0.  0.
        4    1    3    3  502    0 -0.44283717606E+02  0.14880225475E+03 -0.36725203940E+03  0.39872149680E+03  0.12699999809E+01 0. -1.
       -4    1    3    3    0  502  0.44283717606E+02 -0.14880225475E+03  0.12582815488E+04  0.12678238157E+04  0.12699999809E+01 0.  1.
</event>
<event>
 5   0  0.2195980E-03  0.1469324E+04  0.7818609E-02  0.8905113E-01
        2   -1    0    0  501    0  0.00000000000E+00  0.00000000000E+00  0.15073868708E+04  0.15073868708E+04  0.25500000920E-02 0. -1.
       -2   -1    0    0    0  501  0.00000000000E+00  0.00000000000E+00 -0.35805537272E+03  0.35805537273E+03  0.25500000920E-02 0.  1.
    10030    2    1    2    0    0  0.00000000000E+00  0.00000000000E+00  0.11493314981E+04  0.18654422435E+04  0.14693236102E+04 0.  0.
        4    1    3    3  502    0 -0.58677829093E+03  0.12582213445E+03  0.11126890089E+04  0.12642066349E+04  0.12699999809E+01 0. -1.
       -4    1    3    3    0  502  0.58677829093E+03 -0.12582213445E+03  0.36642489194E+02  0.60123560867E+03  0.12699999809E+01 0.  1.
</event>
<event>
 5   0  0.2172901E-03  0.1402992E+04  0.7818609E-02  0.8951656E-01
        2   -1    0    0  501    0  0.00000000000E+00  0.00000000000E+00  0.13317403944E+04  0.13317403944E+04  0.25500000920E-02 0. -1.
       -2   -1    0    0    0  501  0.00000000000E+00  0.00000000000E+00 -0.36951390520E+03  0.36951390521E+03  0.25500000920E-02 0.  1.
    10030    2    1    2    0    0  0.00000000000E+00  0.00000000000E+00  0.96222648918E+03  0.17012542996E+04  0.14029919370E+04 0.  0.
        2    1    3    3  502    0 -0.49883286252E+03 -0.49320820383E+03  0.48455084330E+03  0.85257144968E+03  0.25500000920E-02 0. -1.
       -2    1    3    3    0  502  0.49883286252E+03  0.49320820383E+03  0.47767564588E+03  0.84868284991E+03  0.25500000920E-02 0.  1.
</event>
<event>
 5   0  0.2190704E-03  0.1393920E+04  0.7818609E-02  0.8958232E-01
       -2   -1    0    0    0  501  0.00000000000E+00  0.00000000000E+00  0.66728334154E+03  0.66728334154E+03  0.25500000920E-02 0.  1.
        2   -1    0    0  501    0  0.00000000000E+00  0.00000000000E+00 -0.72795599737E+03  0.72795599738E+03  0.25500000920E-02 0. -1.
    10030    2    1    2    0    0  0.00000000000E+00  0.00000000000E+00 -0.60672655834E+02  0.13952393389E+04  0.13939195248E+04 0.  0.
        5    1    3    3  502    0  0.86098548946E+02 -0.53017367100E+03 -0.47486688025E+03  0.71695029501E+03  0.46999998093E+01 0. -1.
       -5    1    3    3    0  502 -0.86098548946E+02  0.53017367100E+03  0.41419422441E+03  0.67828904391E+03  0.46999998093E+01 0.  1.
</event>
<event>
 5   0  0.2236184E-03  0.1412551E+04  0.7818609E-02  0.8944783E-01
       -2   -1    0    0    0  501  0.00000000000E+00  0.00000000000E+00  0.10250903919E+04  0.10250903919E+04  0.25500000920E-02 0. -1.
        2   -1    0    0  501    0  0.00000000000E+00  0.00000000000E+00 -0.48661593387E+03  0.48661593387E+03  0.25500000920E-02 0.  1.
    10030    2    1    2    0    0  0.00000000000E+00  0.00000000000E+00  0.53847445806E+03  0.15117063258E+04  0.14125513348E+04 0.  0.
        3    1    3    3  502    0 -0.38313582908E+03 -0.62447360829E+02  0.90068221597E+03  0.98077581576E+03  0.10100000352E+00 0. -1.
       -3    1    3    3    0  502  0.38313582908E+03  0.62447360829E+02 -0.36220775791E+03  0.53093051004E+03  0.10100000352E+00 0.  1.
</event>
<event>
 5   0  0.2083966E-03  0.1258209E+04  0.7818609E-02  0.9063379E-01
       -2   -1    0    0    0  501  0.00000000000E+00  0.00000000000E+00  0.24581986443E+03  0.24581986445E+03  0.25500000920E-02 0. -1.
        2   -1    0    0  501    0  0.00000000000E+00  0.00000000000E+00 -0.16100099429E+04  0.16100099429E+04  0.25500000920E-02 0.  1.
    10030    2    1    2    0    0  0.00000000000E+00  0.00000000000E+00 -0.13641900784E+04  0.18558298073E+04  0.12582089269E+04 0.  0.
        1    1    3    3  502    0  0.23153779403E+02  0.54490653669E+03 -0.21961681585E+03  0.58795474065E+03  0.50400001928E-02 0. -1.
       -1    1    3    3    0  502 -0.23153779403E+02 -0.54490653669E+03 -0.11445732626E+04  0.12678750667E+04  0.50400001928E-02 0.  1.
</event>
<event>
 5   0  0.1175374E-03  0.1433619E+04  0.7818609E-02  0.8929836E-01
        1   -1    0    0  501    0  0.00000000000E+00  0.00000000000E+00  0.79266489009E+03  0.79266489011E+03  0.50400001928E-02 0. -1.
       -1   -1    0    0    0  501  0.00000000000E+00  0.00000000000E+00 -0.64821363129E+03  0.64821363131E+03  0.50400001928E-02 0.  1.
    10030    2    1    2    0    0  0.00000000000E+00  0.00000000000E+00  0.14445125880E+03  0.14408785214E+04  0.14336194569E+04 0.  0.
        3    1    3    3  502    0  0.16061949721E+03  0.14786774122E+03  0.75843647206E+03  0.78923341549E+03  0.10100000352E+00 0. -1.
       -3    1    3    3    0  502 -0.16061949721E+03 -0.14786774122E+03 -0.61398521326E+03  0.65164510593E+03  0.10100000352E+00 0.  1.
</event>
<event>
 5   0  0.1175374E-03  0.1401524E+04  0.7818609E-02  0.8952716E-01
        1   -1    0    0  501    0  0.00000000000E+00  0.00000000000E+00  0.87665574650E+03  0.87665574651E+03  0.50400001928E-02 0. -1.
       -1   -1    0    0    0  501  0.00000000000E+00  0.00000000000E+00 -0.56015956078E+03  0.56015956081E+03  0.50400001928E-02 0.  1.
    10030    2    1    2    0    0  0.00000000000E+00  0.00000000000E+00  0.31649618572E+03  0.14368153073E+04  0.14015235966E+04 0.  0.
        3    1    3    3  502    0  0.16716502061E+03  0.41282910880E+03  0.71288432416E+03  0.84058080338E+03  0.10100000352E+00 0. -1.
       -3    1    3    3    0  502 -0.16716502061E+03 -0.41282910880E+03 -0.39638813844E+03  0.59623450394E+03  0.10100000352E+00 0.  1.
</event>
<event>
 5   0  0.2236184E-03  0.1449117E+04  0.7818609E-02  0.8919013E-01
       -2   -1    0    0    0  501  0.00000000000E+00  0.00000000000E+00  0.38737592014E+03  0.38737592015E+03  0.25500000920E-02 0.  1.
        2   -1    0    0  501    0  0.00000000000E+00  0.00000000000E+00 -0.13552342447E+04  0.13552342447E+04  0.25500000920E-02 0. -1.
    10030    2    1    2    0    0  0.00000000000E+00  0.00000000000E+00 -0.96785832452E+03  0.17426101648E+04  0.14491171278E+04 0.  0.
        3    1    3    3  502    0  0.29013871787E+03 -0.40761093625E+03  0.14629179578E+03  0.52127579137E+03  0.10100000352E+00 0.  1.
       -3    1    3    3    0  502 -0.29013871787E+03  0.40761093625E+03 -0.11141501203E+04  0.12213343734E+04  0.10100000352E+00 0. -1.
</event>
<event>
 5   0  0.1225690E-03  0.1367632E+04  0.7818609E-02  0.8977587E-01
       -1   -1    0    0    0  501  0.00000000000E+00  0.00000000000E+00  0.85487010165E+03  0.85487010166E+03  0.50400001928E-02 0. -1.
        1   -1    0    0  501    0  0.00000000000E+00  0.00000000000E+00 -0.54698850729E+03  0.54698850731E+03  0.50400001928E-02 0.  1.
    10030    2    1    2    0    0  0.00000000000E+00  0.00000000000E+00  0.30788159436E+03  0.14018586090E+04  0.13676317061E+04 0.  0.
        4    1    3    3  502    0  0.16597530647E+03  0.66073541972E+03  0.93443301868E+02  0.68764261124E+03  0.12699999809E+01 0. -1.
       -4    1    3    3    0  502 -0.16597530647E+03 -0.66073541972E+03  0.21443829249E+03  0.71421599773E+03  0.12699999809E+01 0.  1.
</event>
<event>
 5   0  0.2083966E-03  0.1369350E+04  0.7818609E-02  0.8976309E-01
        2   -1    0    0  501    0  0.00000000000E+00  0.00000000000E+00  0.10038163799E+04  0.10038163799E+04  0.25500000920E-02 0. -1.
       -2   -1    0    0    0  501  0.00000000000E+00  0.00000000000E+00 -0.46699739386E+03  0.46699739387E+03  0.25500000920E-02 0.  1.
    10030    2    1    2    0    0  0.00000000000E+00  0.00000000000E+00  0.53681898600E+03  0.14708137737E+04  0.13693496753E+04 0.  0.
        1    1    3    3  502    0 -0.44503866119E+03  0.51302488682E+03  0.36158815159E+03  0.76941532078E+03  0.50400001928E-02 0. -1.
       -1    1    3    3    0  502  0.44503866119E+03 -0.51302488682E+03  0.17523083441E+03  0.70139845295E+03  0.50400001928E-02 0.  1.
</event>
<event>
 5   0  0.2236184E-03  0.1424351E+04  0.7818609E-02  0.8936378E-01
       -2   -1    0    0    0  501  0.00000000000E+00  0.00000000000E+00  0.34827343280E+03  0.34827343281E+03  0.25500000920E-02 0.  1.
        2   -1    0    0  501    0  0.00000000000E+00  0.00000000000E+00 -0.14563094797E+04  0.14563094797E+04  0.25500000920E-02 0. -1.
    10030    2    1    2    0    0  0.00000000000E+00  0.00000000000E+00 -0.11080360469E+04  0.18045829125E+04  0.14243509423E+04 0.  0.
        3    1    3    3  502    0 -0.45306643569E+02 -0.71063047067E+03 -0.56930218652E+03  0.91167611989E+03  0.10100000352E+00 0.  1.
       -3    1    3    3    0  502  0.45306643569E+02  0.71063047067E+03 -0.53873386038E+03  0.89290679263E+03  0.10100000352E+00 0. -1.
</event>
<event>
 5   0  0.1210275E-03  0.1394995E+04  0.7818609E-02  0.8957449E-01
       -1   -1    0    0    0  501  0.00000000000E+00  0.00000000000E+00  0.37767757945E+03  0.37767757949E+03  0.50400001928E-02 0.  1.
        1   -1    0    0  501    0  0.00000000000E+00  0.00000000000E+00 -0.12881435387E+04  0.12881435387E+04  0.50400001928E-02 0. -1.
    10030    2    1    2    0    0  0.00000000000E+00  0.00000000000E+00 -0.91046595922E+03  0.16658211182E+04  0.13949952455E+04 0.  0.
        1    1    3    3  502    0  0.72275947028E+02 -0.15138198205E+03  0.35323017350E+03  0.39103947691E+03  0.50400001928E-02 0.  1.
       -1    1    3    3    0  502 -0.72275947028E+02  0.15138198205E+03 -0.12636961327E+04  0.12747816413E+04  0.50400001928E-02 0. -1.
</event>
<event>
 5   0  0.2236184E-03  0.1379162E+04  0.7818609E-02  0.8969042E-01
       -2   -1    0    0    0  501  0.00000000000E+00  0.00000000000E+00  0.78479067154E+03  0.78479067155E+03  0.25500000920E-02 0. -1.
        2   -1    0    0  501    0  0.00000000000E+00  0.00000000000E+00 -0.60592178927E+03  0.60592178928E+03  0.25500000920E-02 0.  1.
    10030    2    1    2    0    0  0.00000000000E+00  0.00000000000E+00  0.17886888227E+03  0.13907124608E+04  0.13791617279E+04 0.  0.
        3    1    3    3  502    0  0.53392467572E+03  0.34082377221E+03  0.36427052377E+03  0.73070474730E+03  0.10100000352E+00 0. -1.
       -3    1    3    3    0  502 -0.53392467572E+03 -0.34082377221E+03 -0.18540164150E+03  0.66000771352E+03  0.10100000352E+00 0.  1.
</event>
<event>
 5   0  0.2083966E-03  0.1833958E+04  0.7818609E-02  0.8688446E-01
        2   -1    0    0  501    0  0.00000000000E+00  0.00000000000E+00  0.89019366929E+03  0.89019366929E+03  0.25500000920E-02 0. -1.
       -2   -1    0    0    0  501  0.00000000000E+00  0.00000000000E+00 -0.94457047174E+03  0.94457047174E+03  0.25500000920E-02 0.  1.
    10030    2    1    2    0    0  0.00000000000E+00  0.00000000000E+00 -0.54376802449E+02  0.18347641410E+04  0.18339581829E+04 0.  0.
        1    1    3    3  502    0 -0.65119091625E+03  0.23649403024E+02  0.61826312845E+03  0.89825285955E+03  0.50400001928E-02 0. -1.
       -1    1    3    3    0  502  0.65119091625E+03 -0.23649403024E+02 -0.67263993090E+03  0.93651128148E+03  0.50400001928E-02 0.  1.
</event>
<event>
 5   0  0.1238683E-03  0.1337127E+04  0.7818609E-02  0.9000630E-01
       -1   -1    0    0    0  501  0.00000000000E+00  0.00000000000E+00  0.25721572647E+03  0.25721572652E+03  0.50400001928E-02 0.  1.
        1   -1    0    0  501    0  0.00000000000E+00  0.00000000000E+00 -0.17377526766E+04  0.17377526766E+04  0.50400001928E-02 0. -1.
    10030    2    1    2    0    0  0.00000000000E+00  0.00000000000E+00 -0.14805369501E+04  0.19949684031E+04  0.13371272448E+04 0.  0.
        2    1    3    3  502    0 -0.19850862285E+03 -0.53813123221E+03 -0.22778567172E+03  0.61715250034E+03  0.25500000920E-02 0.  1.
       -2    1    3    3    0  502  0.19850862285E+03  0.53813123221E+03 -0.12527512784E+04  0.13778159028E+04  0.25500000920E-02 0. -1.
</event>
<event>
 5   0  0.2195980E-03  0.1389127E+04  0.7818609E-02  0.8961727E-01
       -2   -1    0    0    0  501  0.00000000000E+00  0.00000000000E+00  0.27553400809E+03  0.27553400811E+03  0.25500000920E-02 0. -1.
        2   -1    0    0  501    0  0.00000000000E+00  0.00000000000E+00 -0.17508497765E+04  0.17508497765E+04  0.25500000920E-02 0.  1.
    10030    2    1    2    0    0  0.00000000000E+00  0.00000000000E+00 -0.14753157684E+04  0.20263837846E+04  0.13891272893E+04 0.  0.
        4    1    3    3  502    0  0.57481596730E+03  0.22340220275E+02 -0.16986164274E+03  0.59980586216E+03  0.12699999809E+01 0. -1.
       -4    1    3    3    0  502 -0.57481596730E+03 -0.22340220275E+02 -0.13054541256E+04  0.14265779224E+04  0.12699999809E+01 0.  1.
</event>
<event>
 5   0  0.2172901E-03  0.1408933E+04  0.7818609E-02  0.8947377E-01
       -2   -1    0    0    0  501  0.00000000000E+00  0.00000000000E+00  0.48182281229E+03  0.48182281230E+03  0.25500000920E-02 0. -1.
        2   -1    0    0  501    0  0.00000000000E+00  0.00000000000E+00 -0.10299914499E+04  0.10299914499E+04  0.25500000920E-02 0.  1.
    10030    2    1    2    0    0  0.00000000000E+00  0.00000000000E+00 -0.54816863765E+03  0.15118142622E+04  0.14089334648E+04 0.  0.
        2    1    3    3  502    0  0.46961516372E+03 -0.27126661556E+03 -0.75652528670E+03  0.93083537113E+03  0.25500000920E-02 0.  1.
       -2    1    3    3    0  502 -0.46961516372E+03  0.27126661556E+03  0.20835664905E+03  0.58097889112E+03  0.25500000920E-02 0. -1.
</event>
<event>
 5   0  0.1175374E-03  0.1408303E+04  0.7818609E-02  0.8947830E-01
        1   -1    0    0  501    0  0.00000000000E+00  0.00000000000E+00  0.50690328668E+03  0.50690328671E+03  0.50400001928E-02 0.  1.
       -1   -1    0    0    0  501  0.00000000000E+00  0.00000000000E+00 -0.97815414088E+03  0.97815414089E+03  0.50400001928E-02 0. -1.
    10030    2    1    2    0    0  0.00000000000E+00  0.00000000000E+00 -0.47125085420E+03  0.14850574276E+04  0.14083033039E+04 0.  0.
        3    1    3    3  502    0  0.47122040664E+03  0.44772279062E+03 -0.52116978871E+03  0.83314004089E+03  0.10100000352E+00 0. -1.
       -3    1    3    3    0  502 -0.47122040664E+03 -0.44772279062E+03  0.49918934505E+02  0.65191738671E+03  0.10100000352E+00 0.  1.
</event>
<event>
 5   0  0.1225690E-03  0.1429239E+04  0.7818609E-02  0.8932921E-01
        1   -1    0    0  501    0  0.00000000000E+00  0.00000000000E+00  0.16337557649E+04  0.16337557649E+04  0.50400001928E-02 0. -1.
       -1   -1    0    0    0  501  0.00000000000E+00  0.00000000000E+00 -0.31258119244E+03  0.31258119248E+03  0.50400001928E-02 0.  1.
    10030    2    1    2    0    0  0.00000000000E+00  0.00000000000E+00  0.13211745724E+04  0.19463369573E+04  0.14292394134E+04 0.  0.
        4    1    3    3  502    0 -0.61603888414E+03  0.32076140582E+03  0.88962848028E+03  0.11286417643E+04  0.12699999809E+01 0. -1.
       -4    1    3    3    0  502  0.61603888414E+03 -0.32076140582E+03  0.43154609214E+03  0.81769519307E+03  0.12699999809E+01 0.  1.
</event>
<event>
 5   0  0.1199720E-03  0.1422950E+04  0.7818609E-02  0.8937372E-01
        1   -1    0    0  501    0  0.00000000000E+00  0.00000000000E+00  0.53834134246E+03  0.53834134248E+03  0.50400001928E-02 0.  1.
       -1   -1    0    0    0  501  0.00000000000E+00  0.00000000000E+00 -0.94028882410E+03  0.94028882411E+03  0.50400001928E-02 0. -1.
    10030    2    1    2    0    0  0.00000000000E+00  0.00000000000E+00 -0.40194748165E+03  0.14786301666E+04  0.14229495394E+04 0.  0.
        5    1    3    3  502    0  0.18442773505E+03 -0.38489236903E+03  0.39052658529E+03  0.57852297189E+03  0.46999998093E+01 0.  1.
       -5    1    3    3    0  502 -0.18442773505E+03  0.38489236903E+03 -0.79247406693E+03  0.90010719470E+03  0.46999998093E+01 0. -1.
</event>
<event>
 5   0  0.1225690E-03  0.1397984E+04  0.7818609E-02  0.8955279E-01
        1   -1    0    0  501    0  0.00000000000E+00  0.00000000000E+00  0.92889993302E+03  0.92889993303E+03  0.50400001928E-02 0. -1.
       -1   -1    0    0    0  501  0.00000000000E+00  0.00000000000E+00 -0.52598727553E+03  0.52598727556E+03  0.50400001928E-02 0.  1.
    10030    2    1    2    0    0  0.00000000000E+00  0.00000000000E+00  0.40291265749E+03  0.14548872086E+04  0.13979836123E+04 0.  0.
        4    1    3    3  502    0  0.32860084587E+03  0.59056301171E+03  0.15741690856E+02  0.67601227832E+03  0.12699999809E+01 0. -1.
       -4    1    3    3    0  502 -0.32860084587E+03 -0.59056301171E+03  0.38717096663E+03  0.77887493027E+03  0.12699999809E+01 0.  1.
</event>
<event>
 5   0  0.1210275E-03  0.1389448E+04  0.7818609E-02  0.8961492E-01
       -1   -1    0    0    0  501  0.00000000000E+00  0.00000000000E+00  0.32266281241E+03  0.32266281245E+03  0.50400001928E-02 0.  1.
        1   -1    0    0  501    0  0.00000000000E+00  0.00000000000E+00 -0.14958080020E+04  0.14958080020E+04  0.50400001928E-02 0. -1.
    10030    2    1    2    0    0  0.00000000000E+00  0.00000000000E+00 -0.11731451896E+04  0.18184708145E+04  0.13894482600E+04 0.  0.
        1    1    3    3  502    0 -0.66947680036E+03  0.15818990580E+03 -0.45955842944E+03  0.82729510008E+03  0.50400001928E-02 0. -1.
       -1    1    3    3    0  502  0.66947680036E+03 -0.15818990580E+03 -0.71358676017E+03  0.99117571441E+03  0.50400001928E-02 0.  1.
</event>
<event>
 5   0  0.2190704E-03  0.1143763E+04  0.7818609E-02  0.9163557E-01
       -2   -1    0    0    0  501  0.00000000000E+00  0.00000000000E+00  0.32296346944E+03  0.32296346945E+03  0.25500000920E-02 0. -1.
        2   -1    0    0  501    0  0.00000000000E+00  0.00000000000E+00 -0.10126479450E+04  0.10126479450E+04  0.25500000920E-02 0.  1.
    10030    2    1    2    0    0  0.00000000000E+00  0.00000000000E+00 -0.68968447558E+03  0.13356114145E+04  0.11437627265E+04 0.  0.
        5    1    3    3  502    0 -0.69960371104E+02  0.46988719443E+03 -0.71657416567E+03  0.85976104466E+03  0.46999998093E+01 0.  1.
       -5    1    3    3    0  502  0.69960371104E+02 -0.46988719443E+03  0.26889690088E+02  0.47585036981E+03  0.46999998093E+01 0. -1.
</event>
<event>
 5   0  0.1225690E-03  0.1377502E+04  0.7818609E-02  0.8970266E-01
        1   -1    0    0  501    0  0.00000000000E+00  0.00000000000E+00  0.14288358399E+04  0.14288358399E+04  0.50400001928E-02 0.  1.
       -1   -1    0    0    0  501  0.00000000000E+00  0.00000000000E+00 -0.33200333439E+03  0.33200333443E+03  0.50400001928E-02 0. -1.
    10030    2    1    2    0    0  0.00000000000E+00  0.00000000000E+00  0.10968325055E+04  0.17608391744E+04  0.13775024693E+04 0.  0.
        4    1    3    3  502    0 -0.38850812573E+03 -0.11097625226E+03  0.12614218127E+04  0.13245530925E+04  0.12699999809E+01 0.  1.
       -4    1    3    3    0  502  0.38850812573E+03  0.11097625226E+03 -0.16458930717E+03  0.43628608190E+03  0.12699999809E+01 0. -1.
</event>
<event>
 5   0  0.2190704E-03  0.1394366E+04  0.7818609E-02  0.8957907E-01
        2   -1    0    0  501    0  0.00000000000E+00  0.00000000000E+00  0.10316283314E+04  0.10316283314E+04  0.25500000920E-02 0.  1.
       -2   -1    0    0    0  501  0.00000000000E+00  0.00000000000E+00 -0.47116175547E+03  0.47116175548E+03  0.25500000920E-02 0. -1.
    10030    2    1    2    0    0  0.00000000000E+00  0.00000000000E+00  0.56046657593E+03  0.15027900869E+04  0.13943655412E+04 0.  0.
        5    1    3    3  502    0 -0.13704301822E+03 -0.49201869527E+03 -0.23119551092E+03  0.56065732815E+03  0.46999998093E+01 0. -1.
       -5    1    3    3    0  502  0.13704301822E+03  0.49201869527E+03  0.79166208685E+03  0.94213275874E+03  0.46999998093E+01 0.  1.
</event>
<event>
 5   0  0.2236184E-03  0.1516892E+04  0.7818609E-02  0.8873297E-01
        2   -1    0    0  501    0  0.00000000000E+00  0.00000000000E+00  0.16058482367E+04  0.16058482367E+04  0.25500000920E-02 0.  1.
       -2   -1    0    0    0  501  0.00000000000E+00  0.00000000000E+00 -0.35821565017E+03  0.35821565018E+03  0.25500000920E-02 0. -1.
    10030    2    1    2    0    0  0.00000000000E+00  0.00000000000E+00  0.12476325865E+04  0.19640638869E+04  0.15168915191E+04 0.  0.
        3    1    3    3  502    0 -0.54947939744E+03 -0.38759634556E+03  0.16956377409E+03  0.69347705008E+03  0.10100000352E+00 0. -1.
       -3    1    3    3    0  502  0.54947939744E+03  0.38759634556E+03  0.10780688124E+04  0.12705868368E+04  0.10100000352E+00 0.  1.
</event>
<event>
 5   0  0.2236184E-03  0.1168113E+04  0.7818609E-02  0.9141235E-01
       -2   -1    0    0    0  501  0.00000000000E+00  0.00000000000E+00  0.22371294258E+03  0.22371294259E+03  0.25500000920E-02 0.  1.
        2   -1    0    0  501    0  0.00000000000E+00  0.00000000000E+00 -0.15248192985E+04  0.15248192985E+04  0.25500000920E-02 0. -1.
    10030    2    1    2    0    0  0.00000000000E+00  0.00000000000E+00 -0.13011063559E+04  0.17485322411E+04  0.11681126866E+04 0.  0.
        3    1    3    3  502    0  0.11856449837E+03 -0.57135044128E+03 -0.68791346938E+03  0.90206641583E+03  0.10100000352E+00 0. -1.
       -3    1    3    3    0  502 -0.11856449837E+03  0.57135044128E+03 -0.61319288653E+03  0.84646582525E+03  0.10100000352E+00 0.  1.
</event>
<event>
 5   0  0.1199720E-03  0.1402117E+04  0.7818609E-02  0.8952288E-01
       -1   -1    0    0    0  501  0.00000000000E+00  0.00000000000E+00  0.81780082654E+03  0.81780082655E+03  0.50400001928E-02 0. -1.
        1   -1    0    0  501    0  0.00000000000E+00  0.00000000000E+00 -0.60098098942E+03  0.60098098944E+03  0.50400001928E-02 0.  1.
    10030    2    1    2    0    0  0.00000000000E+00  0.00000000000E+00  0.21681983712E+03  0.14187818160E+04  0.14021166141E+04 0.  0.
        5    1    3    3  502    0 -0.20626966230E+03  0.22445339260E+03  0.74720895875E+03  0.80701289771E+03  0.46999998093E+01 0. -1.
       -5    1    3    3    0  502  0.20626966230E+03 -0.22445339260E+03 -0.53038912163E+03  0.61176891828E+03  0.46999998093E+01 0.  1.
</event>
<event>
 5   0  0.2190704E-03  0.1388121E+04  0.7818609E-02  0.8962462E-01
        2   -1    0    0  501    0  0.00000000000E+00  0.00000000000E+00  0.20766946734E+04  0.20766946734E+04  0.25500000920E-02 0. -1.
       -2   -1    0    0    0  501  0.00000000000E+00  0.00000000000E+00 -0.23196481238E+03  0.23196481239E+03  0.25500000920E-02 0.  1.
    10030    2    1    2    0    0  0.00000000000E+00  0.00000000000E+00  0.18447298610E+04  0.23086594858E+04  0.13881211623E+04 0.  0.
        5    1    3    3  502    0  0.33867990806E+03 -0.47942784149E+03  0.15382775682E+04  0.16464735353E+04  0.46999998093E+01 0. -1.
       -5    1    3    3    0  502 -0.33867990806E+03  0.47942784149E+03  0.30645229275E+03  0.66218595051E+03  0.46999998093E+01 0.  1.
</event>
<event>
 5   0  0.2236184E-03  0.1433133E+04  0.7818609E-02  0.8930178E-01
       -2   -1    0    0    0  501  0.00000000000E+00  0.00000000000E+00  0.28283009004E+03  0.28283009005E+03  0.25500000920E-02 0.  1.
        2   -1    0    0  501    0  0.00000000000E+00  0.00000000000E+00 -0.18154637498E+04  0.18154637498E+04  0.25500000920E-02 0. -1.
    10030    2    1    2    0    0  0.00000000000E+00  0.00000000000E+00 -0.15326336598E+04  0.20982938399E+04  0.14331333167E+04 0.  0.
        3    1    3    3  502    0  0.48105309168E+03 -0.14417271127E+03 -0.15147006985E+04  0.15957807067E+04  0.10100000352E+00 0. -1.
       -3    1    3    3    0  502 -0.48105309168E+03  0.14417271127E+03 -0.17932961283E+02  0.50251313315E+03  0.10100000352E+00 0.  1.
</event>
<event>
 5   0  0.1175374E-03  0.1391054E+04  0.7818609E-02  0.8960320E-01
        1   -1    0    0  501    0  0.00000000000E+00  0.00000000000E+00  0.12869884900E+04  0.12869884900E+04  0.50400001928E-02 0. -1.
       -1   -1    0    0    0  501  0.00000000000E+00  0.00000000000E+00 -0.37588359652E+03  0.37588359655E+03  0.50400001928E-02 0.  1.
    10030    2    1    2    0    0  0.00000000000E+00  0.00000000000E+00  0.91110489349E+03  0.16628720866E+04  0.13910540785E+04 0.  0.
        3    1    3    3  502    0 -0.43188379160E+02 -0.47545172391E+03 -0.14908854614E+03  0.50014696106E+03  0.10100000352E+00 0.  1.
       -3    1    3    3    0  502  0.43188379160E+02  0.47545172391E+03  0.10601934396E+04  0.11627251255E+04  0.10100000352E+00 0. -1.
</event>
<event>
 5   0  0.1175374E-03  0.1362027E+04  0.7818609E-02  0.8981773E-01
       -1   -1    0    0    0  501  0.00000000000E+00  0.00000000000E+00  0.72295069548E+03  0.72295069550E+03  0.50400001928E-02 0.  1.
        1   -1    0    0  501    0  0.00000000000E+00  0.00000000000E+00 -0.64150897963E+03  0.64150897965E+03  0.50400001928E-02 0. -1.
    10030    2    1    2    0    0  0.00000000000E+00  0.00000000000E+00  0.81441715853E+02  0.13644596751E+04  0.13620269645E+04 0.  0.
        3    1    3    3  502    0  0.60920879269E+03 -0.84118902071E+02 -0.25232171293E+03  0.66473874552E+03  0.10100000352E+00 0. -1.
       -3    1    3    3    0  502 -0.60920879269E+03  0.84118902071E+02  0.33376342878E+03  0.69972092963E+03  0.10100000352E+00 0.  1.
</event>
<event>
 5   0  0.1225690E-03  0.1401037E+04  0.7818609E-02  0.8953068E-01
        1   -1    0    0  501    0  0.00000000000E+00  0.00000000000E+00  0.59238456861E+03  0.59238456863E+03  0.50400001928E-02 0. -1.
       -1   -1    0    0    0  501  0.00000000000E+00  0.00000000000E+00 -0.82839086666E+03  0.82839086667E+03  0.50400001928E-02 0.  1.
    10030    2    1    2    0    0  0.00000000000E+00  0.00000000000E+00 -0.23600629805E+03  0.14207754353E+04  0.14010367107E+04 0.  0.
        4    1    3    3  502    0  0.25887075304E+03 -0.39937641766E+03  0.40325101095E+03  0.62380171568E+03  0.12699999809E+01 0. -1.
       -4    1    3    3    0  502 -0.25887075304E+03  0.39937641766E+03 -0.63925730899E+03  0.79697371962E+03  0.12699999809E+01 0.  1.
</event>
<event>
 5   0  0.2083966E-03  0.1439406E+04  0.7818609E-02  0.8925778E-01
       -2   -1    0    0    0  501  0.00000000000E+00  0.00000000000E+00  0.29231516860E+03  0.29231516861E+03  0.25500000920E-02 0.  1.
        2   -1    0    0  501    0  0.00000000000E+00  0.00000000000E+00 -0.17719667079E+04  0.17719667079E+04  0.25500000920E-02 0. -1.
    10030    2    1    2    0    0  0.00000000000E+00  0.00000000000E+00 -0.14796515393E+04  0.20642818765E+04  0.14394064707E+04 0.  0.
        1    1    3    3  502    0 -0.69289814092E+03  0.13595756032E+03 -0.54017658818E+03  0.88903489152E+03  0.50400001928E-02 0. -1.
       -1    1    3    3    0  502  0.69289814092E+03 -0.13595756032E+03 -0.93947495112E+03  0.11752469850E+04  0.50400001928E-02 0.  1.
</event>
<event>
 5   0  0.2190704E-03  0.1396677E+04  0.7818609E-02  0.8956228E-01
       -2   -1    0    0    0  501  0.00000000000E+00  0.00000000000E+00  0.27081146536E+03  0.27081146537E+03  0.25500000920E-02 0.  1.
        2   -1    0    0  501    0  0.00000000000E+00  0.00000000000E+00 -0.18007964412E+04  0.18007964412E+04  0.25500000920E-02 0. -1.
    10030    2    1    2    0    0  0.00000000000E+00  0.00000000000E+00 -0.15299849758E+04  0.20716079065E+04  0.13966765167E+04 0.  0.
        5    1    3    3  502    0 -0.66487256906E+03 -0.24227386745E+02 -0.10796764425E+04  0.12682136294E+04  0.46999998093E+01 0. -1.
       -5    1    3    3    0  502  0.66487256906E+03  0.24227386745E+02 -0.45030853330E+03  0.80339427712E+03  0.46999998093E+01 0.  1.
</event>
<event>
 5   0  0.2172901E-03  0.1370512E+04  0.7818609E-02  0.8975444E-01
       -2   -1    0    0    0  501  0.00000000000E+00  0.00000000000E+00  0.12895116716E+04  0.12895116716E+04  0.25500000920E-02 0.  1.
        2   -1    0    0  501    0  0.00000000000E+00  0.00000000000E+00 -0.36415005022E+03  0.36415005023E+03  0.25500000920E-02 0. -1.
    10030    2    1    2    0    0  0.00000000000E+00  0.00000000000E+00  0.92536162133E+03  0.16536617218E+04  0.13705119335E+04 0.  0.
        2    1    3    3  502    0 -0.22467692778E+03  0.55491994182E+03  0.60392068222E+02  0.60171676528E+03  0.25500000920E-02 0. -1.
       -2    1    3    3    0  502  0.22467692778E+03 -0.55491994182E+03  0.86496955311E+03  0.10519449565E+04  0.25500000920E-02 0.  1.
</event>
<event>
 5   0  0.2236184E-03  0.1398518E+04  0.7818609E-02  0.8954892E-01
       -2   -1    0    0    0  501  0.00000000000E+00  0.00000000000E+00  0.63248758556E+03  0.63248758556E+03  0.25500000920E-02 0.  1.
        2   -1    0    0  501    0  0.00000000000E+00  0.00000000000E+00 -0.77307991992E+03  0.77307991993E+03  0.25500000920E-02 0. -1.
    10030    2    1    2    0    0  0.00000000000E+00  0.00000000000E+00 -0.14059233437E+03  0.14055675055E+04  0.13985184332E+04 0.  0.
        3    1    3    3  502    0 -0.51438732362E+03 -0.46659197845E+03  0.11730453438E+02  0.69457901407E+03  0.10100000352E+00 0.  1.
       -3    1    3    3    0  502  0.51438732362E+03  0.46659197845E+03 -0.15232278781E+03  0.71098849142E+03  0.10100000352E+00 0. -1.
</event>
<event>
 5   0  0.1238683E-03  0.1383537E+04  0.7818609E-02  0.8965823E-01
       -1   -1    0    0    0  501  0.00000000000E+00  0.00000000000E+00  0.57195583885E+03  0.57195583887E+03  0.50400001928E-02 0. -1.
        1   -1    0    0  501    0  0.00000000000E+00  0.00000000000E+00 -0.83667884892E+03  0.83667884894E+03  0.50400001928E-02 0.  1.
    10030    2    1    2    0    0  0.00000000000E+00  0.00000000000E+00 -0.26472301007E+03  0.14086346878E+04  0.13835365596E+04 0.  0.
        2    1    3    3  502    0  0.42405656644E+02  0.63734578688E+03 -0.40276449781E+03  0.75513385070E+03  0.25500000920E-02 0.  1.
       -2    1    3    3    0  502 -0.42405656644E+02 -0.63734578688E+03  0.13804148774E+03  0.65350083711E+03  0.25500000920E-02 0. -1.
</event>
<event>
 5   0  0.1210275E-03  0.1386948E+04  0.7818609E-02  0.8963321E-01
        1   -1    0    0  501    0  0.00000000000E+00  0.00000000000E+00  0.51189166911E+03  0.51189166913E+03  0.50400001928E-02 0. -1.
       -1   -1    0    0    0  501  0.00000000000E+00  0.00000000000E+00 -0.93946876465E+03  0.93946876467E+03  0.50400001928E-02 0.  1.
    10030    2    1    2    0    0  0.00000000000E+00  0.00000000000E+00 -0.42757709554E+03  0.14513604338E+04  0.13869480654E+04 0.  0.
        1    1    3    3  502    0  0.14466800436E+03 -0.51545613763E+03  0.24745656726E+03  0.58979540013E+03  0.50400001928E-02 0. -1.
       -1    1    3    3    0  502 -0.14466800436E+03  0.51545613763E+03 -0.67503366281E+03  0.86156503367E+03  0.50400001928E-02 0.  1.
</event>
<event>
 5   0  0.2236184E-03  0.1429395E+04  0.7818609E-02  0.8932812E-01
        2   -1    0    0  501    0  0.00000000000E+00  0.00000000000E+00  0.10928424308E+04  0.10928424308E+04  0.25500000920E-02 0.  1.
       -2   -1    0    0    0  501  0.00000000000E+00  0.00000000000E+00 -0.46739792578E+03  0.46739792579E+03  0.25500000920E-02 0. -1.
    10030    2    1    2    0    0  0.00000000000E+00  0.00000000000E+00  0.62544450506E+03  0.15602403566E+04  0.14293946766E+04 0.  0.
        3    1    3    3  502    0  0.56401084485E+03  0.13619029919E+03  0.76821758773E+03  0.96271195225E+03  0.10100000352E+00 0.  1.
       -3    1    3    3    0  502 -0.56401084485E+03 -0.13619029919E+03 -0.14277308267E+03  0.59752840438E+03  0.10100000352E+00 0. -1.
</event>
<event>
 5   0  0.2190704E-03  0.1381152E+04  0.7818609E-02  0.8967576E-01
        2   -1    0    0  501    0  0.00000000000E+00  0.00000000000E+00  0.12103206258E+04  0.12103206258E+04  0.25500000920E-02 0.  1.
       -2   -1    0    0    0  501  0.00000000000E+00  0.00000000000E+00 -0.39402395877E+03  0.39402395878E+03  0.25500000920E-02 0. -1.
    10030    2    1    2    0    0  0.00000000000E+00  0.00000000000E+00  0.81629666698E+03  0.16043445845E+04  0.13811521630E+04 0.  0.
        5    1    3    3  502    0  0.18067964979E+02  0.13994072794E+03 -0.37708155461E+03  0.40264431887E+03  0.46999998093E+01 0. -1.
       -5    1    3    3    0  502 -0.18067964979E+02 -0.13994072794E+03  0.11933782216E+04  0.12017002657E+04  0.46999998093E+01 0.  1.
</event>
<event>
 5   0  0.1175374E-03  0.1564622E+04  0.7818609E-02  0.8842582E-01
        1   -1    0    0  501    0  0.00000000000E+00  0.00000000000E+00  0.13739600303E+04  0.13739600303E+04  0.50400001928E-02 0. -1.
       -1   -1    0    0    0  501  0.00000000000E+00  0.00000000000E+00 -0.44543564309E+03  0.44543564312E+03  0.50400001928E-02 0.  1.
    10030    2    1    2    0    0  0.00000000000E+00  0.00000000000E+00  0.92852438722E+03  0.18193956734E+04  0.15646223438E+04 0.  0.
        3    1    3    3  502    0  0.92119111842E+02  0.70030580914E+03  0.73203082463E+02  0.71012172095E+03  0.10100000352E+00 0.  1.
       -3    1    3    3    0  502 -0.92119111842E+02 -0.70030580914E+03  0.85532130476E+03  0.11092739525E+04  0.10100000352E+00 0. -1.
</event>
<event>
 5   0  0.1238683E-03  0.1397893E+04  0.7818609E-02  0.8955345E-01
        1   -1    0    0  501    0  0.00000000000E+00  0.00000000000E+00  0.67287505043E+03  0.67287505045E+03  0.50400001928E-02 0.  1.
       -1   -1    0    0    0  501  0.00000000000E+00  0.00000000000E+00 -0.72602770262E+03  0.72602770264E+03  0.50400001928E-02 0. -1.
    10030    2    1    2    0    0  0.00000000000E+00  0.00000000000E+00 -0.53152652193E+02  0.13989027531E+04  0.13978925954E+04 0.  0.
        2    1    3    3  502    0 -0.23354824922E+03  0.64242320110E+03 -0.17253635461E+03  0.70499726786E+03  0.25500000920E-02 0. -1.
       -2    1    3    3    0  502  0.23354824922E+03 -0.64242320110E+03  0.11938370242E+03  0.69390548523E+03  0.25500000920E-02 0.  1.
</event>
<event>
 5   0  0.1238683E-03  0.1400216E+04  0.7818609E-02  0.8953662E-01
        1   -1    0    0  501    0  0.00000000000E+00  0.00000000000E+00  0.11106368069E+04  0.11106368069E+04  0.50400001928E-02 0.  1.
       -1   -1    0    0    0  501  0.00000000000E+00  0.00000000000E+00 -0.44132462884E+03  0.44132462887E+03  0.50400001928E-02 0. -1.
    10030    2    1    2    0    0  0.00000000000E+00  0.00000000000E+00  0.66931217806E+03  0.15519614358E+04  0.14002162356E+04 0.  0.
        2    1    3    3  502    0 -0.39836995004E+03 -0.50984576887E+03  0.38262120502E+02  0.64815531703E+03  0.25500000920E-02 0.  1.
       -2    1    3    3    0  502  0.39836995004E+03  0.50984576887E+03  0.63105005756E+03  0.90380611874E+03  0.25500000920E-02 0. -1.
</event>
<event>
 5   0  0.2195980E-03  0.1429017E+04  0.7818609E-02  0.8933078E-01
       -2   -1    0    0    0  501  0.00000000000E+00  0.00000000000E+00  0.75855741725E+03  0.75855741726E+03  0.25500000920E-02 0. -1.
        2   -1    0    0  501    0  0.00000000000E+00  0.00000000000E+00 -0.67301777643E+03  0.67301777643E+03  0.25500000920E-02 0.  1.
    10030    2    1    2    0    0  0.00000000000E+00  0.00000000000E+00  0.85539640826E+02  0.14315751937E+04  0.14290173215E+04 0.  0.
        4    1    3    3  502    0  0.33925165021E+03  0.40926698371E+03  0.52104439060E+03  0.74436551237E+03  0.12699999809E+01 0. -1.
       -4    1    3    3    0  502 -0.33925165021E+03 -0.40926698371E+03 -0.43550474977E+03  0.68720968132E+03  0.12699999809E+01 0.  1.
</event>
<event>
 5   0  0.1199720E-03  0.1340912E+04  0.7818609E-02  0.8997736E-01
        1   -1    0    0  501    0  0.00000000000E+00  0.00000000000E+00  0.11091146405E+04  0.11091146405E+04  0.50400001928E-02 0.  1.
       -1   -1    0    0    0  501  0.00000000000E+00  0.00000000000E+00 -0.40528844589E+03  0.40528844592E+03  0.50400001928E-02 0. -1.
    10030    2    1    2    0    0  0.00000000000E+00  0.00000000000E+00  0.70382619462E+03  0.15144030864E+04  0.13409121507E+04 0.  0.
        5    1    3    3  502    0  0.30285702754E+03 -0.55679849630E+03  0.59868340016E+03  0.87188924080E+03  0.46999998093E+01 0. -1.
       -5    1    3    3    0  502 -0.30285702754E+03  0.55679849630E+03  0.10514279447E+03  0.64251384564E+03  0.46999998093E+01 0.  1.
</event>
<event>
 5   0  0.2190704E-03  0.1396419E+04  0.7818609E-02  0.8956415E-01
        2   -1    0    0  501    0  0.00000000000E+00  0.00000000000E+00  0.42656448681E+03  0.42656448682E+03  0.25500000920E-02 0. -1.
       -2   -1    0    0    0  501  0.00000000000E+00  0.00000000000E+00 -0.11428432335E+04  0.11428432335E+04  0.25500000920E-02 0.  1.
    10030    2    1    2    0    0  0.00000000000E+00  0.00000000000E+00 -0.71627874670E+03  0.15694077203E+04  0.13964187587E+04 0.  0.
        5    1    3    3  502    0 -0.13763940639E+03 -0.40770847282E+03  0.25979400787E+03  0.50267864638E+03  0.46999998093E+01 0. -1.
       -5    1    3    3    0  502  0.13763940639E+03  0.40770847282E+03 -0.97607275457E+03  0.10667290740E+04  0.46999998093E+01 0.  1.
</event>
<event>
 5   0  0.1238683E-03  0.1404656E+04  0.7818609E-02  0.8950455E-01
        1   -1    0    0  501    0  0.00000000000E+00  0.00000000000E+00  0.17619798012E+04  0.17619798012E+04  0.50400001928E-02 0. -1.
       -1   -1    0    0    0  501  0.00000000000E+00  0.00000000000E+00 -0.27994922056E+03  0.27994922061E+03  0.50400001928E-02 0.  1.
    10030    2    1    2    0    0  0.00000000000E+00  0.00000000000E+00  0.14820305807E+04  0.20419290218E+04  0.14046563595E+04 0.  0.
        2    1    3    3  502    0  0.22842595730E+03  0.30510138797E+03  0.15985662210E+04  0.16433743450E+04  0.25500000920E-02 0. -1.
       -2    1    3    3    0  502 -0.22842595730E+03 -0.30510138797E+03 -0.11653564037E+03  0.39855467679E+03  0.25500000920E-02 0.  1.
</event>
<event>
 5   0  0.2083966E-03  0.1399687E+04  0.7818609E-02  0.8954045E-01
       -2   -1    0    0    0  501  0.00000000000E+00  0.00000000000E+00  0.57447555410E+03  0.57447555410E+03  0.25500000920E-02 0. -1.
        2   -1    0    0  501    0  0.00000000000E+00  0.00000000000E+00 -0.85257087851E+03  0.85257087852E+03  0.25500000920E-02 0.  1.
    10030    2    1    2    0    0  0.00000000000E+00  0.00000000000E+00 -0.27809532442E+03  0.14270464326E+04  0.13996872906E+04 0.  0.
        1    1    3    3  502    0  0.17062634143E+03  0.58534420867E+03 -0.48933268561E+03  0.78178492455E+03  0.50400001928E-02 0. -1.
       -1    1    3    3    0  502 -0.17062634143E+03 -0.58534420867E+03  0.21123736119E+03  0.64526150808E+03  0.50400001928E-02 0.  1.
</event>
<event>
 5   0  0.1199720E-03  0.1398171E+04  0.7818609E-02  0.8955143E-01
       -1   -1    0    0    0  501  0.00000000000E+00  0.00000000000E+00  0.41051055571E+03  0.41051055574E+03  0.50400001928E-02 0.  1.
        1   -1    0    0  501    0  0.00000000000E+00  0.00000000000E+00 -0.11905195468E+04  0.11905195468E+04  0.50400001928E-02 0. -1.
    10030    2    1    2    0    0  0.00000000000E+00  0.00000000000E+00 -0.78000899109E+03  0.16010301025E+04  0.13981714355E+04 0.  0.
        5    1    3    3  502    0 -0.28053926869E+03 -0.24177104389E+03  0.28893088761E+03  0.46974319234E+03  0.46999998093E+01 0.  1.
       -5    1    3    3    0  502  0.28053926869E+03  0.24177104389E+03 -0.10689398787E+04  0.11312869102E+04  0.46999998093E+01 0. -1.
</event>
<event>
 5   0  0.8293000E-04  0.1387414E+04  0.7818609E-02  0.8962980E-01
       -4   -1    0    0    0  501  0.00000000000E+00  0.00000000000E+00  0.48253338715E+03  0.48253505843E+03  0.12699999809E+01 0.  1.
        4   -1    0    0  501    0  0.00000000000E+00  0.00000000000E+00 -0.99729349749E+03  0.99729430613E+03  0.12699999809E+01 0. -1.
    10030    2    1    2    0    0  0.00000000000E+00  0.00000000000E+00 -0.51476011034E+03  0.14798293646E+04  0.13874137728E+04 0.  0.
        1    1    3    3  502    0 -0.10103227440E+03  0.68620068565E+03 -0.24430188702E+03  0.73536542854E+03  0.50400001928E-02 0.  1.
       -1    1    3    3    0  502  0.10103227440E+03 -0.68620068565E+03 -0.27045822331E+03  0.74446393603E+03  0.50400001928E-02 0. -1.
</event>
<event>
 5   0  0.2172901E-03  0.1394092E+04  0.7818609E-02  0.8958107E-01
        2   -1    0    0  501    0  0.00000000000E+00  0.00000000000E+00  0.23335820197E+04  0.23335820197E+04  0.25500000920E-02 0.  1.
       -2   -1    0    0    0  501  0.00000000000E+00  0.00000000000E+00 -0.20820900774E+03  0.20820900775E+03  0.25500000920E-02 0. -1.
    10030    2    1    2    0    0  0.00000000000E+00  0.00000000000E+00  0.21253730120E+04  0.25417910275E+04  0.13940915276E+04 0.  0.
        2    1    3    3  502    0 -0.55195045110E+03 -0.18352162665E+02  0.28723996025E+03  0.62248927470E+03  0.25500000920E-02 0. -1.
       -2    1    3    3    0  502  0.55195045110E+03  0.18352162665E+02  0.18381330517E+04  0.19193017528E+04  0.25500000920E-02 0.  1.
</event>
<event>
 5   0  0.2172901E-03  0.1398380E+04  0.7818609E-02  0.8954992E-01
       -2   -1    0    0    0  501  0.00000000000E+00  0.00000000000E+00  0.49893978447E+03  0.49893978448E+03  0.25500000920E-02 0.  1.
        2   -1    0    0  501    0  0.00000000000E+00  0.00000000000E+00 -0.97981073176E+03  0.97981073176E+03  0.25500000920E-02 0. -1.
    10030    2    1    2    0    0  0.00000000000E+00  0.00000000000E+00 -0.48087094729E+03  0.14787505162E+04  0.13983798559E+04 0.  0.
        2    1    3    3  502    0  0.58506977824E+01 -0.26250223591E+03  0.44482481400E+03  0.51653728779E+03  0.25500000920E-02 0.  1.
       -2    1    3    3    0  502 -0.58506977824E+01  0.26250223591E+03 -0.92569576129E+03  0.96221322845E+03  0.25500000920E-02 0. -1.
</event>
<event>
 5   0  0.2195980E-03  0.1140873E+04  0.7818609E-02  0.9166245E-01
        2   -1    0    0  501    0  0.00000000000E+00  0.00000000000E+00  0.14904827380E+04  0.14904827380E+04  0.25500000920E-02 0. -1.
       -2   -1    0    0    0  501  0.00000000000E+00  0.00000000000E+00 -0.21831695762E+03  0.21831695764E+03  0.25500000920E-02 0.  1.
    10030    2    1    2    0    0  0.00000000000E+00  0.00000000000E+00  0.12721657804E+04  0.17087996956E+04  0.11408727480E+04 0.  0.
        4    1    3    3  502    0  0.33475649456E+03 -0.41180131767E+03  0.94938396156E+03  0.10876459696E+04  0.12699999809E+01 0. -1.
       -4    1    3    3    0  502 -0.33475649456E+03  0.41180131767E+03  0.32278181881E+03  0.62115372601E+03  0.12699999809E+01 0.  1.
</event>
<event>
 5   0  0.2172901E-03  0.1404970E+04  0.7818609E-02  0.8950229E-01
        2   -1    0    0  501    0  0.00000000000E+00  0.00000000000E+00  0.74359025993E+03  0.74359025994E+03  0.25500000920E-02 0. -1.
       -2   -1    0    0    0  501  0.00000000000E+00  0.00000000000E+00 -0.66365206456E+03  0.66365206457E+03  0.25500000920E-02 0.  1.
    10030    2    1    2    0    0  0.00000000000E+00  0.00000000000E+00  0.79938195368E+02  0.14072423245E+04  0.14049700512E+04 0.  0.
        2    1    3    3  502    0 -0.26453075494E+03  0.33904244629E+01  0.69178821128E+03  0.74064765210E+03  0.25500000920E-02 0. -1.
       -2    1    3    3    0  502  0.26453075494E+03 -0.33904244629E+01 -0.61185001592E+03  0.66659467240E+03  0.25500000920E-02 0.  1.
</event>
<event>
 5   0  0.2172901E-03  0.1376618E+04  0.7818609E-02  0.8970920E-01
        2   -1    0    0  501    0  0.00000000000E+00  0.00000000000E+00  0.39674489999E+03  0.39674490000E+03  0.25500000920E-02 0. -1.
       -2   -1    0    0    0  501  0.00000000000E+00  0.00000000000E+00 -0.11941412245E+04  0.11941412245E+04  0.25500000920E-02 0.  1.
    10030    2    1    2    0    0  0.00000000000E+00  0.00000000000E+00 -0.79739632450E+03  0.15908861245E+04  0.13766182342E+04 0.  0.
        2    1    3    3  502    0  0.37751915069E+03 -0.60092596695E+02 -0.10601868959E+04  0.11269995934E+04  0.25500000920E-02 0.  1.
       -2    1    3    3    0  502 -0.37751915069E+03  0.60092596695E+02  0.26279057138E+03  0.46388653109E+03  0.25500000920E-02 0. -1.
</event>
<event>
 5   0  0.2236184E-03  0.1379749E+04  0.7818609E-02  0.8968609E-01
        2   -1    0    0  501    0  0.00000000000E+00  0.00000000000E+00  0.20533126894E+04  0.20533126894E+04  0.25500000920E-02 0. -1.
       -2   -1    0    0    0  501  0.00000000000E+00  0.00000000000E+00 -0.23178502660E+03  0.23178502662E+03  0.25500000920E-02 0.  1.
    10030    2    1    2    0    0  0.00000000000E+00  0.00000000000E+00  0.18215276628E+04  0.22850977160E+04  0.13797494502E+04 0.  0.
        3    1    3    3  502    0  0.53118426804E+02  0.62994199772E+03  0.45335345482E+03  0.77793177912E+03  0.10100000352E+00 0.  1.
       -3    1    3    3    0  502 -0.53118426804E+02 -0.62994199772E+03  0.13681742080E+04  0.15071659369E+04  0.10100000352E+00 0. -1.
</event>
<event>
 5   0  0.1225690E-03  0.1414148E+04  0.7818609E-02  0.8943641E-01
       -1   -1    0    0    0  501  0.00000000000E+00  0.00000000000E+00  0.52288401425E+03  0.52288401428E+03  0.50400001928E-02 0.  1.
        1   -1    0    0  501    0  0.00000000000E+00  0.00000000000E+00 -0.95614598723E+03  0.95614598725E+03  0.50400001928E-02 0. -1.
    10030    2    1    2    0    0  0.00000000000E+00  0.00000000000E+00 -0.43326197298E+03  0.14790300015E+04  0.14141477321E+04 0.  0.
        4    1    3    3  502    0 -0.69868971666E+02  0.35023644744E+03  0.42161739000E+03  0.55254871167E+03  0.12699999809E+01 0.  1.
       -4    1    3    3    0  502  0.69868971666E+02 -0.35023644744E+03 -0.85487936298E+03  0.92648128986E+03  0.12699999809E+01 0. -1.
</event>
<event>
 5   0  0.1210275E-03  0.1385670E+04  0.7818609E-02  0.8964257E-01
        1   -1    0    0  501    0  0.00000000000E+00  0.00000000000E+00  0.86582134336E+03  0.86582134337E+03  0.50400001928E-02 0. -1.
       -1   -1    0    0    0  501  0.00000000000E+00  0.00000000000E+00 -0.55441075562E+03  0.55441075564E+03  0.50400001928E-02 0.  1.
    10030    2    1    2    0    0  0.00000000000E+00  0.00000000000E+00  0.31141058774E+03  0.14202320990E+04  0.13856704734E+04 0.  0.
        1    1    3    3  502    0 -0.49632309413E+03  0.14677580711E+03  0.62778092109E+03  0.81362684090E+03  0.50400001928E-02 0. -1.
       -1    1    3    3    0  502  0.49632309413E+03 -0.14677580711E+03 -0.31637033335E+03  0.60660525811E+03  0.50400001928E-02 0.  1.
</event>
<event>
 5   0  0.1175374E-03  0.1380540E+04  0.7818609E-02  0.8968026E-01
        1   -1    0    0  501    0  0.00000000000E+00  0.00000000000E+00  0.52299068637E+03  0.52299068639E+03  0.50400001928E-02 0. -1.
       -1   -1    0    0    0  501  0.00000000000E+00  0.00000000000E+00 -0.91105379819E+03  0.91105379820E+03  0.50400001928E-02 0.  1.
    10030    2    1    2    0    0  0.00000000000E+00  0.00000000000E+00 -0.38806311182E+03  0.14340444846E+04  0.13805399686E+04 0.  0.
        3    1    3    3  502    0 -0.16349798846E+03 -0.13052484101E+03  0.48926503160E+03  0.53211709961E+03  0.10100000352E+00 0. -1.
       -3    1    3    3    0  502  0.16349798846E+03  0.13052484101E+03 -0.87732814342E+03  0.90192738499E+03  0.10100000352E+00 0.  1.
</event>
<event>
 5   0  0.1238683E-03  0.1438516E+04  0.7818609E-02  0.8926401E-01
        1   -1    0    0  501    0  0.00000000000E+00  0.00000000000E+00  0.18303896703E+04  0.18303896703E+04  0.50400001928E-02 0.  1.
       -1   -1    0    0    0  501  0.00000000000E+00  0.00000000000E+00 -0.28263490124E+03  0.28263490129E+03  0.50400001928E-02 0. -1.
    10030    2    1    2    0    0  0.00000000000E+00  0.00000000000E+00  0.15477547691E+04  0.21130245716E+04  0.14385159071E+04 0.  0.
        2    1    3    3  502    0 -0.17496288691E+03  0.64450134501E+03  0.11662063458E+04  0.13438866160E+04  0.25500000920E-02 0. -1.
       -2    1    3    3    0  502  0.17496288691E+03 -0.64450134501E+03  0.38154842321E+03  0.76913795562E+03  0.25500000920E-02 0.  1.
</event>
<event>
 5   0  0.1210275E-03  0.1411621E+04  0.7818609E-02  0.8945449E-01
        1   -1    0    0  501    0  0.00000000000E+00  0.00000000000E+00  0.11416032354E+04  0.11416032354E+04  0.50400001928E-02 0.  1.
       -1   -1    0    0    0  501  0.00000000000E+00  0.00000000000E+00 -0.43637630523E+03  0.43637630526E+03  0.50400001928E-02 0. -1.
    10030    2    1    2    0    0  0.00000000000E+00  0.00000000000E+00  0.70522693016E+03  0.15779795407E+04  0.14116211984E+04 0.  0.
        1    1    3    3  502    0  0.16684965301E+03 -0.67397909732E+03  0.21085374682E+03  0.72563484819E+03  0.50400001928E-02 0. -1.
       -1    1    3    3    0  502 -0.16684965301E+03  0.67397909732E+03  0.49437318334E+03  0.85234469246E+03  0.50400001928E-02 0.  1.
</event>
<event>
 5   0  0.2195980E-03  0.1385815E+04  0.7818609E-02  0.8964151E-01
        2   -1    0    0  501    0  0.00000000000E+00  0.00000000000E+00  0.12059779976E+04  0.12059779976E+04  0.25500000920E-02 0.  1.
       -2   -1    0    0    0  501  0.00000000000E+00  0.00000000000E+00 -0.39811744016E+03  0.39811744017E+03  0.25500000920E-02 0. -1.
    10030    2    1    2    0    0  0.00000000000E+00  0.00000000000E+00  0.80786055744E+03  0.16040954378E+04  0.13858151007E+04 0.  0.
        4    1    3    3  502    0  0.64118982133E+03 -0.18326849721E+03  0.62173773270E+03  0.91174072532E+03  0.12699999809E+01 0.  1.
       -4    1    3    3    0  502 -0.64118982133E+03  0.18326849721E+03  0.18612282474E+03  0.69235471244E+03  0.12699999809E+01 0. -1.
</event>
<event>
 5   0  0.2195980E-03  0.1386082E+04  0.7818609E-02  0.8963955E-01
        2   -1    0    0  501    0  0.00000000000E+00  0.00000000000E+00  0.62668944197E+03  0.62668944197E+03  0.25500000920E-02 0. -1.
       -2   -1    0    0    0  501  0.00000000000E+00  0.00000000000E+00 -0.76641786729E+03  0.76641786729E+03  0.25500000920E-02 0.  1.
    10030    2    1    2    0    0  0.00000000000E+00  0.00000000000E+00 -0.13972842532E+03  0.13931073093E+04  0.13860822278E+04 0.  0.
        4    1    3    3  502    0 -0.11475626367E+03  0.41011649952E+03 -0.61938922789E+03  0.75167091986E+03  0.12699999809E+01 0.  1.
       -4    1    3    3    0  502  0.11475626367E+03 -0.41011649952E+03  0.47966080257E+03  0.64143638941E+03  0.12699999809E+01 0. -1.
</event>
<event>
 5   0  0.2172901E-03  0.1388899E+04  0.7818609E-02  0.8961893E-01
       -2   -1    0    0    0  501  0.00000000000E+00  0.00000000000E+00  0.60817801918E+03  0.60817801919E+03  0.25500000920E-02 0.  1.
        2   -1    0    0  501    0  0.00000000000E+00  0.00000000000E+00 -0.79295887394E+03  0.79295887395E+03  0.25500000920E-02 0. -1.
    10030    2    1    2    0    0  0.00000000000E+00  0.00000000000E+00 -0.18478085476E+03  0.14011368931E+04  0.13888990709E+04 0.  0.
        2    1    3    3  502    0 -0.20555561013E+03 -0.24293218644E+03  0.53029290391E+03  0.61844944823E+03  0.25500000920E-02 0.  1.
       -2    1    3    3    0  502  0.20555561013E+03  0.24293218644E+03 -0.71507375867E+03  0.78268744491E+03  0.25500000920E-02 0. -1.
</event>
<event>
 5   0  0.1199720E-03  0.1389998E+04  0.7818609E-02  0.8961090E-01
        1   -1    0    0  501    0  0.00000000000E+00  0.00000000000E+00  0.62671888282E+03  0.62671888284E+03  0.50400001928E-02 0.  1.
       -1   -1    0    0    0  501  0.00000000000E+00  0.00000000000E+00 -0.77071817137E+03  0.77071817138E+03  0.50400001928E-02 0. -1.
    10030    2    1    2    0    0  0.00000000000E+00  0.00000000000E+00 -0.14399928855E+03  0.13974370542E+04  0.13899980307E+04 0.  0.
        5    1    3    3  502    0 -0.61815368387E+03 -0.41795453553E+02 -0.38855092154E+03  0.73133764121E+03  0.46999998093E+01 0. -1.
       -5    1    3    3    0  502  0.61815368387E+03  0.41795453553E+02  0.24455163300E+03  0.66609941302E+03  0.46999998093E+01 0.  1.
</event>
<event>
 5   0  0.1225690E-03  0.1363912E+04  0.7818609E-02  0.8980363E-01
       -1   -1    0    0    0  501  0.00000000000E+00  0.00000000000E+00  0.43562225284E+03  0.43562225287E+03  0.50400001928E-02 0.  1.
        1   -1    0    0  501    0  0.00000000000E+00  0.00000000000E+00 -0.10675849362E+04  0.10675849362E+04  0.50400001928E-02 0. -1.
    10030    2    1    2    0    0  0.00000000000E+00  0.00000000000E+00 -0.63196268331E+03  0.15032071890E+04  0.13639116614E+04 0.  0.
        4    1    3    3  502    0  0.23097673111E+03  0.23527382849E+02  0.39072202608E+03  0.45449873775E+03  0.12699999809E+01 0.  1.
       -4    1    3    3    0  502 -0.23097673111E+03 -0.23527382849E+02 -0.10226847094E+04  0.10487084513E+04  0.12699999809E+01 0. -1.
</event>
<event>
 5   0  0.1175374E-03  0.1382120E+04  0.7818609E-02  0.8966864E-01
        1   -1    0    0  501    0  0.00000000000E+00  0.00000000000E+00  0.65601625201E+03  0.65601625203E+03  0.50400001928E-02 0.  1.
       -1   -1    0    0    0  501  0.00000000000E+00  0.00000000000E+00 -0.72797553019E+03  0.72797553021E+03  0.50400001928E-02 0. -1.
    10030    2    1    2    0    0  0.00000000000E+00  0.00000000000E+00 -0.71959278183E+02  0.13839917822E+04  0.13821197906E+04 0.  0.
        3    1    3    3  502    0  0.44304986540E+03  0.13024876832E+02  0.49492799856E+03  0.66439187578E+03  0.10100000352E+00 0.  1.
       -3    1    3    3    0  502 -0.44304986540E+03 -0.13024876832E+02 -0.56688727674E+03  0.71959990646E+03  0.10100000352E+00 0. -1.
</event>
<event>
 5   0  0.8293000E-04  0.1394716E+04  0.7818609E-02  0.8957652E-01
        3   -1    0    0  501    0  0.00000000000E+00  0.00000000000E+00  0.52376081186E+03  0.52376082160E+03  0.10100000352E+00 0.  1.
       -3   -1    0    0    0  501  0.00000000000E+00  0.00000000000E+00 -0.92849350738E+03  0.92849351288E+03  0.10100000352E+00 0. -1.
    10030    2    1    2    0    0  0.00000000000E+00  0.00000000000E+00 -0.40473269552E+03  0.14522543345E+04  0.13947164935E+04 0.  0.
        5    1    3    3  502    0  0.57323426806E+03  0.38419744356E+03 -0.97818869505E+02  0.69699054724E+03  0.46999998093E+01 0. -1.
       -5    1    3    3    0  502 -0.57323426806E+03 -0.38419744356E+03 -0.30691382601E+03  0.75526378724E+03  0.46999998093E+01 0.  1.
</event>
<event>
 5   0  0.1225690E-03  0.1329861E+04  0.7818609E-02  0.9006215E-01
        1   -1    0    0  501    0  0.00000000000E+00  0.00000000000E+00  0.40455727473E+03  0.40455727476E+03  0.50400001928E-02 0. -1.
       -1   -1    0    0    0  501  0.00000000000E+00  0.00000000000E+00 -0.10928793984E+04  0.10928793984E+04  0.50400001928E-02 0.  1.
    10030    2    1    2    0    0  0.00000000000E+00  0.00000000000E+00 -0.68832212363E+03  0.14974366731E+04  0.13298606108E+04 0.  0.
        4    1    3    3  502    0  0.12143142582E+03 -0.34489969423E+03 -0.96950675317E+03  0.10361690729E+04  0.12699999809E+01 0.  1.
       -4    1    3    3    0  502 -0.12143142582E+03  0.34489969423E+03  0.28118462954E+03  0.46126760025E+03  0.12699999809E+01 0. -1.
</event>
<event>
 5   0  0.1238683E-03  0.1573148E+04  0.7818609E-02  0.8837216E-01
        1   -1    0    0  501    0  0.00000000000E+00  0.00000000000E+00  0.12173251471E+04  0.12173251471E+04  0.50400001928E-02 0. -1.
       -1   -1    0    0    0  501  0.00000000000E+00  0.00000000000E+00 -0.50824469556E+03  0.50824469559E+03  0.50400001928E-02 0.  1.
    10030    2    1    2    0    0  0.00000000000E+00  0.00000000000E+00  0.70908045154E+03  0.17255698427E+04  0.15731484975E+04 0.  0.
        2    1    3    3  502    0  0.43417991431E+03 -0.60200900261E+03  0.64009406959E+03  0.98012624449E+03  0.25500000920E-02 0. -1.
       -2    1    3    3    0  502 -0.43417991431E+03  0.60200900261E+03  0.68986381953E+02  0.74544359821E+03  0.25500000920E-02 0.  1.
</event>
<event>
 5   0  0.2083966E-03  0.1358951E+04  0.7818609E-02  0.8984080E-01
        2   -1    0    0  501    0  0.00000000000E+00  0.00000000000E+00  0.84580843311E+03  0.84580843311E+03  0.25500000920E-02 0.  1.
       -2   -1    0    0    0  501  0.00000000000E+00  0.00000000000E+00 -0.54585265256E+03  0.54585265257E+03  0.25500000920E-02 0. -1.
    10030    2    1    2    0    0  0.00000000000E+00  0.00000000000E+00  0.29995578055E+03  0.13916610857E+04  0.13589507376E+04 0.  0.
        1    1    3    3  502    0 -0.43344842505E+03 -0.27826836273E+03 -0.30383197009E+03  0.59801729485E+03  0.50400001928E-02 0. -1.
       -1    1    3    3    0  502  0.43344842505E+03  0.27826836273E+03  0.60378775064E+03  0.79364379083E+03  0.50400001928E-02 0.  1.
</event>
<event>
 5   0  0.2172901E-03  0.1456689E+04  0.7818609E-02  0.8913777E-01
       -2   -1    0    0    0  501  0.00000000000E+00  0.00000000000E+00  0.24007656989E+03  0.24007656990E+03  0.25500000920E-02 0.  1.
        2   -1    0    0  501    0  0.00000000000E+00  0.00000000000E+00 -0.22096511442E+04  0.22096511442E+04  0.25500000920E-02 0. -1.
    10030    2    1    2    0    0  0.00000000000E+00  0.00000000000E+00 -0.19695745743E+04  0.24497277141E+04  0.14566886659E+04 0.  0.
        2    1    3    3  502    0  0.14046302272E+02  0.15815506481E+03 -0.21801922147E+04  0.21859662431E+04  0.25500000920E-02 0. -1.
       -2    1    3    3    0  502 -0.14046302272E+02 -0.15815506481E+03  0.21061764037E+03  0.26376147098E+03  0.25500000920E-02 0.  1.
</event>
<event>
 5   0  0.2236184E-03  0.1419774E+04  0.7818609E-02  0.8939628E-01
       -2   -1    0    0    0  501  0.00000000000E+00  0.00000000000E+00  0.44043534550E+03  0.44043534550E+03  0.25500000920E-02 0.  1.
        2   -1    0    0  501    0  0.00000000000E+00  0.00000000000E+00 -0.11441849731E+04  0.11441849731E+04  0.25500000920E-02 0. -1.
    10030    2    1    2    0    0  0.00000000000E+00  0.00000000000E+00 -0.70374962756E+03  0.15846203186E+04  0.14197739312E+04 0.  0.
        3    1    3    3  502    0  0.55192758199E+03 -0.72355613357E+02 -0.84357064907E+03  0.10106784062E+04  0.10100000352E+00 0. -1.
       -3    1    3    3    0  502 -0.55192758199E+03  0.72355613357E+02  0.13982102150E+03  0.57394191239E+03  0.10100000352E+00 0.  1.
</event>
<event>
 5   0  0.2190704E-03  0.1424524E+04  0.7818609E-02  0.8936255E-01
        2   -1    0    0  501    0  0.00000000000E+00  0.00000000000E+00  0.56207396747E+03  0.56207396748E+03  0.25500000920E-02 0.  1.
       -2   -1    0    0    0  501  0.00000000000E+00  0.00000000000E+00 -0.90258127420E+03  0.90258127420E+03  0.25500000920E-02 0. -1.
    10030    2    1    2    0    0  0.00000000000E+00  0.00000000000E+00 -0.34050730673E+03  0.14646552417E+04  0.14245243947E+04 0.  0.
        5    1    3    3  502    0 -0.23698798329E+03 -0.15672155453E+03 -0.84177662907E+03  0.88844523361E+03  0.46999998093E+01 0. -1.
       -5    1    3    3    0  502  0.23698798329E+03  0.15672155453E+03  0.50126932234E+03  0.57621000807E+03  0.46999998093E+01 0.  1.
</event>
<event>
 5   0  0.1199720E-03  0.1503212E+04  0.7818609E-02  0.8882320E-01
       -1   -1    0    0    0  501  0.00000000000E+00  0.00000000000E+00  0.91623460082E+03  0.91623460083E+03  0.50400001928E-02 0. -1.
        1   -1    0    0  501    0  0.00000000000E+00  0.00000000000E+00 -0.61655789081E+03  0.61655789083E+03  0.50400001928E-02 0.  1.
    10030    2    1    2    0    0  0.00000000000E+00  0.00000000000E+00  0.29967671001E+03  0.15327924917E+04  0.15032121247E+04 0.  0.
        5    1    3    3  502    0 -0.27493105558E+03 -0.52240106068E+03  0.62418010411E+03  0.85913494044E+03  0.46999998093E+01 0. -1.
       -5    1    3    3    0  502  0.27493105558E+03  0.52240106068E+03 -0.32450339411E+03  0.67365755121E+03  0.46999998093E+01 0.  1.
</event>
<event>
 5   0  0.1238683E-03  0.1416361E+04  0.7818609E-02  0.8942060E-01
        1   -1    0    0  501    0  0.00000000000E+00  0.00000000000E+00  0.86882148623E+03  0.86882148625E+03  0.50400001928E-02 0. -1.
       -1   -1    0    0    0  501  0.00000000000E+00  0.00000000000E+00 -0.57724103781E+03  0.57724103783E+03  0.50400001928E-02 0.  1.
    10030    2    1    2    0    0  0.00000000000E+00  0.00000000000E+00  0.29158044842E+03  0.14460625241E+04  0.14163607117E+04 0.  0.
        2    1    3    3  502    0 -0.17902426028E+03 -0.52486652873E+03 -0.30388308979E+03  0.63236025414E+03  0.25500000920E-02 0.  1.
       -2    1    3    3    0  502  0.17902426028E+03  0.52486652873E+03  0.59546353821E+03  0.81370226994E+03  0.25500000920E-02 0. -1.
</event>
<event>
 5   0  0.1199720E-03  0.1382846E+04  0.7818609E-02  0.8966330E-01
       -1   -1    0    0    0  501  0.00000000000E+00  0.00000000000E+00  0.11143228144E+04  0.11143228144E+04  0.50400001928E-02 0.  1.
        1   -1    0    0  501    0  0.00000000000E+00  0.00000000000E+00 -0.42901914236E+03  0.42901914239E+03  0.50400001928E-02 0. -1.
    10030    2    1    2    0    0  0.00000000000E+00  0.00000000000E+00  0.68530367200E+03  0.15433419568E+04  0.13828460770E+04 0.  0.
        5    1    3    3  502    0  0.38766394510E+03 -0.53789525067E+03  0.56143726203E+03  0.86882019096E+03  0.46999998093E+01 0.  1.
       -5    1    3    3    0  502 -0.38766394510E+03  0.53789525067E+03  0.12386640997E+03  0.67452176580E+03  0.46999998093E+01 0. -1.
</event>
<event>
 5   0  0.2172901E-03  0.1353453E+04  0.7818609E-02  0.8988218E-01
        2   -1    0    0  501    0  0.00000000000E+00  0.00000000000E+00  0.16567159493E+04  0.16567159493E+04  0.25500000920E-02 0. -1.
       -2   -1    0    0    0  501  0.00000000000E+00  0.00000000000E+00 -0.27642583349E+03  0.27642583350E+03  0.25500000920E-02 0.  1.
    10030    2    1    2    0    0  0.00000000000E+00  0.00000000000E+00  0.13802901158E+04  0.19331417828E+04  0.13534534896E+04 0.  0.
        2    1    3    3  502    0  0.15729858251E+03  0.64019844768E+03  0.90845682931E+03  0.11224485321E+04  0.25500000920E-02 0. -1.
       -2    1    3    3    0  502 -0.15729858251E+03 -0.64019844768E+03  0.47183328647E+03  0.81069325068E+03  0.25500000920E-02 0.  1.
</event>
<event>
 5   0  0.2083966E-03  0.1381093E+04  0.7818609E-02  0.8967619E-01
       -2   -1    0    0    0  501  0.00000000000E+00  0.00000000000E+00  0.39243593229E+03  0.39243593230E+03  0.25500000920E-02 0. -1.
        2   -1    0    0  501    0  0.00000000000E+00  0.00000000000E+00 -0.12151144393E+04  0.12151144393E+04  0.25500000920E-02 0.  1.
    10030    2    1    2    0    0  0.00000000000E+00  0.00000000000E+00 -0.82267850698E+03  0.16075503716E+04  0.13810931436E+04 0.  0.
        1    1    3    3  502    0  0.28006769404E+03 -0.19664007535E+03 -0.11094778057E+04  0.11610539323E+04  0.50400001928E-02 0.  1.
       -1    1    3    3    0  502 -0.28006769404E+03  0.19664007535E+03  0.28679929871E+03  0.44649643923E+03  0.50400001928E-02 0. -1.
</event>
<event>
 5   0  0.2083966E-03  0.1440752E+04  0.7818609E-02  0.8924837E-01
       -2   -1    0    0    0  501  0.00000000000E+00  0.00000000000E+00  0.60219660560E+03  0.60219660560E+03  0.25500000920E-02 0.  1.
        2   -1    0    0  501    0  0.00000000000E+00  0.00000000000E+00 -0.86174825578E+03  0.86174825579E+03  0.25500000920E-02 0. -1.
    10030    2    1    2    0    0  0.00000000000E+00  0.00000000000E+00 -0.25955165019E+03  0.14639448614E+04  0.14407524069E+04 0.  0.
        1    1    3    3  502    0 -0.39250976651E+03 -0.17280306481E+03  0.45834807201E+03  0.62770038327E+03  0.50400001928E-02 0.  1.
       -1    1    3    3    0  502  0.39250976651E+03  0.17280306481E+03 -0.71789972220E+03  0.83624447811E+03  0.50400001928E-02 0. -1.
</event>
<event>
 5   0  0.2236184E-03  0.1413963E+04  0.7818609E-02  0.8943773E-01
       -2   -1    0    0    0  501  0.00000000000E+00  0.00000000000E+00  0.60188181956E+03  0.60188181957E+03  0.25500000920E-02 0.  1.
        2   -1    0    0  501    0  0.00000000000E+00  0.00000000000E+00 -0.83043351065E+03  0.83043351065E+03  0.25500000920E-02 0. -1.
    10030    2    1    2    0    0  0.00000000000E+00  0.00000000000E+00 -0.22855169108E+03  0.14323153302E+04  0.14139629874E+04 0.  0.
        3    1    3    3  502    0 -0.43813285951E+03  0.20583514419E+03  0.40767332333E+03  0.63287128069E+03  0.10100000352E+00 0.  1.
       -3    1    3    3    0  502  0.43813285951E+03 -0.20583514419E+03 -0.63622501441E+03  0.79944404953E+03  0.10100000352E+00 0. -1.
</event>
<event>
 5   0  0.1225690E-03  0.1389978E+04  0.7818609E-02  0.8961105E-01
        1   -1    0    0  501    0  0.00000000000E+00  0.00000000000E+00  0.66041149855E+03  0.66041149857E+03  0.50400001928E-02 0.  1.
       -1   -1    0    0    0  501  0.00000000000E+00  0.00000000000E+00 -0.73137685811E+03  0.73137685813E+03  0.50400001928E-02 0. -1.
    10030    2    1    2    0    0  0.00000000000E+00  0.00000000000E+00 -0.70965359569E+02  0.13917883567E+04  0.13899779666E+04 0.  0.
        4    1    3    3  502    0  0.87697147422E+02  0.30732540684E+03  0.58246647353E+03  0.66438580737E+03  0.12699999809E+01 0.  1.
       -4    1    3    3    0  502 -0.87697147422E+02 -0.30732540684E+03 -0.65343183310E+03  0.72740254932E+03  0.12699999809E+01 0. -1.
</event>
<event>
 5   0  0.2083966E-03  0.1353099E+04  0.7818609E-02  0.8988485E-01
       -2   -1    0    0    0  501  0.00000000000E+00  0.00000000000E+00  0.86394668629E+03  0.86394668630E+03  0.25500000920E-02 0. -1.
        2   -1    0    0  501    0  0.00000000000E+00  0.00000000000E+00 -0.52980042041E+03  0.52980042042E+03  0.25500000920E-02 0.  1.
    10030    2    1    2    0    0  0.00000000000E+00  0.00000000000E+00  0.33414626588E+03  0.13937471067E+04  0.13530991355E+04 0.  0.
        1    1    3    3  502    0  0.51637538722E+03 -0.42735010096E+03  0.72400863489E+02  0.67417618942E+03  0.50400001928E-02 0.  1.
       -1    1    3    3    0  502 -0.51637538722E+03  0.42735010096E+03  0.26174540239E+03  0.71957091730E+03  0.50400001928E-02 0. -1.
</event>
<event>
 5   0  0.1238683E-03  0.9812407E+03  0.7818609E-02  0.9329362E-01
        1   -1    0    0  501    0  0.00000000000E+00  0.00000000000E+00  0.51559331934E+03  0.51559331936E+03  0.50400001928E-02 0.  1.
       -1   -1    0    0    0  501  0.00000000000E+00  0.00000000000E+00 -0.46685697419E+03  0.46685697421E+03  0.50400001928E-02 0. -1.
    10030    2    1    2    0    0  0.00000000000E+00  0.00000000000E+00  0.48736345153E+02  0.98245029358E+03  0.98124071869E+03 0.  0.
        2    1    3    3  502    0  0.32274582878E+03  0.29937520989E+03  0.24124070072E+03  0.50198352760E+03  0.25500000920E-02 0.  1.
       -2    1    3    3    0  502 -0.32274582878E+03 -0.29937520989E+03 -0.19250435556E+03  0.48046676598E+03  0.25500000920E-02 0. -1.
</event>
<event>
 5   0  0.2190704E-03  0.1407519E+04  0.7818609E-02  0.8948393E-01
        2   -1    0    0  501    0  0.00000000000E+00  0.00000000000E+00  0.81468050457E+03  0.81468050457E+03  0.25500000920E-02 0.  1.
       -2   -1    0    0    0  501  0.00000000000E+00  0.00000000000E+00 -0.60794111533E+03  0.60794111533E+03  0.25500000920E-02 0. -1.
    10030    2    1    2    0    0  0.00000000000E+00  0.00000000000E+00  0.20673938924E+03  0.14226216199E+04  0.14075194842E+04 0.  0.
        5    1    3    3  502    0  0.30251869751E+02 -0.67449631292E+03  0.30398165633E+03  0.74046430647E+03  0.46999998093E+01 0.  1.
       -5    1    3    3    0  502 -0.30251869751E+02  0.67449631292E+03 -0.97242267088E+02  0.68215731344E+03  0.46999998093E+01 0. -1.
</event>
<event>
 5   0  0.2236184E-03  0.1390786E+04  0.7818609E-02  0.8960515E-01
        2   -1    0    0  501    0  0.00000000000E+00  0.00000000000E+00  0.10878187449E+04  0.10878187449E+04  0.25500000920E-02 0. -1.
       -2   -1    0    0    0  501  0.00000000000E+00  0.00000000000E+00 -0.44453312082E+03  0.44453312083E+03  0.25500000920E-02 0.  1.
    10030    2    1    2    0    0  0.00000000000E+00  0.00000000000E+00  0.64328562405E+03  0.15323518657E+04  0.13907860534E+04 0.  0.
        3    1    3    3  502    0  0.95552959188E+02  0.54230396112E+03 -0.14625739162E+03  0.56975011106E+03  0.10100000352E+00 0.  1.
       -3    1    3    3    0  502 -0.95552959188E+02 -0.54230396112E+03  0.78954301567E+03  0.96260175465E+03  0.10100000352E+00 0. -1.
</event>
<event>
 5   0  0.1238683E-03  0.1444831E+04  0.7818609E-02  0.8921992E-01
        1   -1    0    0  501    0  0.00000000000E+00  0.00000000000E+00  0.57514263010E+03  0.57514263012E+03  0.50400001928E-02 0. -1.
       -1   -1    0    0    0  501  0.00000000000E+00  0.00000000000E+00 -0.90739929338E+03  0.90739929340E+03  0.50400001928E-02 0.  1.
    10030    2    1    2    0    0  0.00000000000E+00  0.00000000000E+00 -0.33225666328E+03  0.14825419235E+04  0.14448308083E+04 0.  0.
        2    1    3    3  502    0  0.23130427941E+02 -0.64671601588E+03  0.16335609751E+03  0.66742927452E+03  0.25500000920E-02 0. -1.
       -2    1    3    3    0  502 -0.23130427941E+02  0.64671601588E+03 -0.49561276079E+03  0.81511264900E+03  0.25500000920E-02 0.  1.
</event>
<event>
 5   0  0.1238683E-03  0.1393389E+04  0.7818609E-02  0.8958618E-01
       -1   -1    0    0    0  501  0.00000000000E+00  0.00000000000E+00  0.75129673091E+03  0.75129673092E+03  0.50400001928E-02 0.  1.
        1   -1    0    0  501    0  0.00000000000E+00  0.00000000000E+00 -0.64606018408E+03  0.64606018410E+03  0.50400001928E-02 0. -1.
    10030    2    1    2    0    0  0.00000000000E+00  0.00000000000E+00  0.10523654683E+03  0.13973569150E+04  0.13933885378E+04 0.  0.
        2    1    3    3  502    0  0.15634785622E+03  0.30953693764E+03  0.65859505040E+03  0.74431526138E+03  0.25500000920E-02 0.  1.
       -2    1    3    3    0  502 -0.15634785622E+03 -0.30953693764E+03 -0.55335850357E+03  0.65304165364E+03  0.25500000920E-02 0. -1.
</event>
<event>
 5   0  0.1199720E-03  0.1377117E+04  0.7818609E-02  0.8970551E-01
       -1   -1    0    0    0  501  0.00000000000E+00  0.00000000000E+00  0.16880088433E+03  0.16880088440E+03  0.50400001928E-02 0.  1.
        1   -1    0    0  501    0  0.00000000000E+00  0.00000000000E+00 -0.28087105921E+04  0.28087105921E+04  0.50400001928E-02 0. -1.
    10030    2    1    2    0    0  0.00000000000E+00  0.00000000000E+00 -0.26399097078E+04  0.29775114765E+04  0.13771170348E+04 0.  0.
        5    1    3    3  502    0 -0.37321676357E+03  0.56904656658E+03 -0.15465769641E+04  0.16896825570E+04  0.46999998093E+01 0.  1.
       -5    1    3    3    0  502  0.37321676357E+03 -0.56904656658E+03 -0.10933327437E+04  0.12878289195E+04  0.46999998093E+01 0. -1.
</event>
<event>
 5   0  0.2172901E-03  0.1212232E+04  0.7818609E-02  0.9102217E-01
        2   -1    0    0  501    0  0.00000000000E+00  0.00000000000E+00  0.13674427039E+04  0.13674427039E+04  0.25500000920E-02 0. -1.
       -2   -1    0    0    0  501  0.00000000000E+00  0.00000000000E+00 -0.26865972267E+03  0.26865972269E+03  0.25500000920E-02 0.  1.
    10030    2    1    2    0    0  0.00000000000E+00  0.00000000000E+00  0.10987829813E+04  0.16361024266E+04  0.12122322840E+04 0.  0.
        2    1    3    3  502    0 -0.37226045831E+01 -0.58978665693E+03  0.73793200287E+03  0.94467232380E+03  0.25500000920E-02 0. -1.
       -2    1    3    3    0  502  0.37226045831E+01  0.58978665693E+03  0.36085097838E+03  0.69143010282E+03  0.25500000920E-02 0.  1.
</event>
<event>
 5   0  0.2172901E-03  0.1397596E+04  0.7818609E-02  0.8955561E-01
        2   -1    0    0  501    0  0.00000000000E+00  0.00000000000E+00  0.72188501464E+03  0.72188501465E+03  0.25500000920E-02 0.  1.
       -2   -1    0    0    0  501  0.00000000000E+00  0.00000000000E+00 -0.67644922274E+03  0.67644922274E+03  0.25500000920E-02 0. -1.
    10030    2    1    2    0    0  0.00000000000E+00  0.00000000000E+00  0.45435791903E+02  0.13983342374E+04  0.13975958744E+04 0.  0.
        2    1    3    3  502    0 -0.15153583730E+02 -0.66753517086E+03  0.22894743963E+03  0.70586809360E+03  0.25500000920E-02 0. -1.
       -2    1    3    3    0  502  0.15153583730E+02  0.66753517086E+03 -0.18351164773E+03  0.69246614379E+03  0.25500000920E-02 0.  1.
</event>
<event>
 5   0  0.1175374E-03  0.1419663E+04  0.7818609E-02  0.8939707E-01
       -1   -1    0    0    0  501  0.00000000000E+00  0.00000000000E+00  0.78775080401E+03  0.78775080403E+03  0.50400001928E-02 0. -1.
        1   -1    0    0  501    0  0.00000000000E+00  0.00000000000E+00 -0.63961960706E+03  0.63961960708E+03  0.50400001928E-02 0.  1.
    10030    2    1    2    0    0  0.00000000000E+00  0.00000000000E+00  0.14813119695E+03  0.14273704111E+04  0.14196631428E+04 0.  0.
        3    1    3    3  502    0  0.28220061316E+03 -0.49670451460E+03 -0.34953903405E+03  0.66972390388E+03  0.10100000352E+00 0.  1.
       -3    1    3    3    0  502 -0.28220061316E+03  0.49670451460E+03  0.49767023100E+03  0.75764650723E+03  0.10100000352E+00 0. -1.
</event>
<event>
 5   0  0.2195980E-03  0.1381330E+04  0.7818609E-02  0.8967445E-01
       -2   -1    0    0    0  501  0.00000000000E+00  0.00000000000E+00  0.44453789655E+03  0.44453789655E+03  0.25500000920E-02 0. -1.
        2   -1    0    0  501    0  0.00000000000E+00  0.00000000000E+00 -0.10730651044E+04  0.10730651044E+04  0.25500000920E-02 0.  1.
    10030    2    1    2    0    0  0.00000000000E+00  0.00000000000E+00 -0.62852720781E+03  0.15176030009E+04  0.13813299452E+04 0.  0.
        4    1    3    3  502    0 -0.44443081085E+03  0.29245612859E+03  0.16960211252E+03  0.55840471189E+03  0.12699999809E+01 0. -1.
       -4    1    3    3    0  502  0.44443081085E+03 -0.29245612859E+03 -0.79812932033E+03  0.95919828902E+03  0.12699999809E+01 0.  1.
</event>
<event>
 5   0  0.1210275E-03  0.1396074E+04  0.7818609E-02  0.8956665E-01
       -1   -1    0    0    0  501  0.00000000000E+00  0.00000000000E+00  0.90956927049E+03  0.90956927050E+03  0.50400001928E-02 0.  1.
        1   -1    0    0  501    0  0.00000000000E+00  0.00000000000E+00 -0.53569918561E+03  0.53569918564E+03  0.50400001928E-02 0. -1.
    10030    2    1    2    0    0  0.00000000000E+00  0.00000000000E+00  0.37387008487E+03  0.14452684561E+04  0.13960738053E+04 0.  0.
        1    1    3    3  502    0 -0.11849817208E+03 -0.36454501889E+03  0.79086181653E+03  0.87886136589E+03  0.50400001928E-02 0.  1.
       -1    1    3    3    0  502  0.11849817208E+03  0.36454501889E+03 -0.41699173165E+03  0.56640709025E+03  0.50400001928E-02 0. -1.
</event>
<event>
 5   0  0.2172901E-03  0.1292830E+04  0.7818609E-02  0.9035270E-01
       -2   -1    0    0    0  501  0.00000000000E+00  0.00000000000E+00  0.34969865678E+03  0.34969865679E+03  0.25500000920E-02 0.  1.
        2   -1    0    0  501    0  0.00000000000E+00  0.00000000000E+00 -0.11948925747E+04  0.11948925747E+04  0.25500000920E-02 0. -1.
    10030    2    1    2    0    0  0.00000000000E+00  0.00000000000E+00 -0.84519391789E+03  0.15445912315E+04  0.12928299631E+04 0.  0.
        2    1    3    3  502    0  0.45004576138E+03  0.32273148805E+03 -0.24271845573E+02  0.55433376517E+03  0.25500000920E-02 0.  1.
       -2    1    3    3    0  502 -0.45004576138E+03 -0.32273148805E+03 -0.82092207232E+03  0.99025746629E+03  0.25500000920E-02 0. -1.
</event>
<event>
 5   0  0.1175374E-03  0.1301493E+04  0.7818609E-02  0.9028382E-01
        1   -1    0    0  501    0  0.00000000000E+00  0.00000000000E+00  0.11056481610E+04  0.11056481611E+04  0.50400001928E-02 0.  1.
       -1   -1    0    0    0  501  0.00000000000E+00  0.00000000000E+00 -0.38300711665E+03  0.38300711668E+03  0.50400001928E-02 0. -1.
    10030    2    1    2    0    0  0.00000000000E+00  0.00000000000E+00  0.72264104440E+03  0.14886552777E+04  0.13014931644E+04 0.  0.
        3    1    3    3  502    0  0.17111461428E+03 -0.31813734683E+02  0.10785320888E+04  0.10924851494E+04  0.10100000352E+00 0.  1.
       -3    1    3    3    0  502 -0.17111461428E+03  0.31813734683E+02 -0.35589104437E+03  0.39617012835E+03  0.10100000352E+00 0. -1.
</event>
<event>
 5   0  0.2083966E-03  0.1405798E+04  0.7818609E-02  0.8949632E-01
       -2   -1    0    0    0  501  0.00000000000E+00  0.00000000000E+00  0.65343578290E+03  0.65343578291E+03  0.25500000920E-02 0.  1.
        2   -1    0    0  501    0  0.00000000000E+00  0.00000000000E+00 -0.75610691952E+03  0.75610691952E+03  0.25500000920E-02 0. -1.
    10030    2    1    2    0    0  0.00000000000E+00  0.00000000000E+00 -0.10267113661E+03  0.14095427024E+04  0.14057984449E+04 0.  0.
        1    1    3    3  502    0  0.50459727606E+03  0.56071305959E+02  0.43607120023E+03  0.66926862623E+03  0.50400001928E-02 0.  1.
       -1    1    3    3    0  502 -0.50459727606E+03 -0.56071305959E+02 -0.53874233685E+03  0.74027407620E+03  0.50400001928E-02 0. -1.
</event>
<event>
 5   0  0.2190704E-03  0.1394189E+04  0.7818609E-02  0.8958036E-01
        2   -1    0    0  501    0  0.00000000000E+00  0.00000000000E+00  0.10136973215E+04  0.10136973215E+04  0.25500000920E-02 0.  1.
       -2   -1    0    0    0  501  0.00000000000E+00  0.00000000000E+00 -0.47937427237E+03  0.47937427238E+03  0.25500000920E-02 0. -1.
    10030    2    1    2    0    0  0.00000000000E+00  0.00000000000E+00  0.53432304911E+03  0.14930715939E+04  0.13941885323E+04 0.  0.
        5    1    3    3  502    0 -0.33557831482E+03 -0.47072144627E+03 -0.14998663709E+03  0.59725167782E+03  0.46999998093E+01 0. -1.
       -5    1    3    3    0  502  0.33557831482E+03  0.47072144627E+03  0.68430968620E+03  0.89581991604E+03  0.46999998093E+01 0.  1.
</event>
<event>
 5   0  0.1210275E-03  0.1398931E+04  0.7818609E-02  0.8954593E-01
        1   -1    0    0  501    0  0.00000000000E+00  0.00000000000E+00  0.11922401818E+04  0.11922401819E+04  0.50400001928E-02 0. -1.
       -1   -1    0    0    0  501  0.00000000000E+00  0.00000000000E+00 -0.41036362158E+03  0.41036362161E+03  0.50400001928E-02 0.  1.
    10030    2    1    2    0    0  0.00000000000E+00  0.00000000000E+00  0.78187656027E+03  0.16026038035E+04  0.13989310188E+04 0.  0.
        1    1    3    3  502    0  0.25688427482E+02 -0.52138061709E+03  0.92429010549E+03  0.10615129968E+04  0.50400001928E-02 0. -1.
       -1    1    3    3    0  502 -0.25688427482E+02  0.52138061709E+03 -0.14241354523E+03  0.54109080668E+03  0.50400001928E-02 0.  1.
</event>
<event>
 5   0  0.1225690E-03  0.1411806E+04  0.7818609E-02  0.8945317E-01
       -1   -1    0    0    0  501  0.00000000000E+00  0.00000000000E+00  0.94235821435E+03  0.94235821436E+03  0.50400001928E-02 0.  1.
        1   -1    0    0  501    0  0.00000000000E+00  0.00000000000E+00 -0.52877867031E+03  0.52877867034E+03  0.50400001928E-02 0. -1.
    10030    2    1    2    0    0  0.00000000000E+00  0.00000000000E+00  0.41357954403E+03  0.14711368847E+04  0.14118058274E+04 0.  0.
        4    1    3    3  502    0 -0.66915316885E+03 -0.19517780861E+03  0.32299760776E+03  0.76823785892E+03  0.12699999809E+01 0.  1.
       -4    1    3    3    0  502  0.66915316885E+03  0.19517780861E+03  0.90581936273E+02  0.70289902578E+03  0.12699999809E+01 0. -1.
</event>
<event>
 5   0  0.1225690E-03  0.1442782E+04  0.7818609E-02  0.8923420E-01
       -1   -1    0    0    0  501  0.00000000000E+00  0.00000000000E+00  0.75824006301E+03  0.75824006302E+03  0.50400001928E-02 0.  1.
        1   -1    0    0  501    0  0.00000000000E+00  0.00000000000E+00 -0.68633316705E+03  0.68633316707E+03  0.50400001928E-02 0. -1.
    10030    2    1    2    0    0  0.00000000000E+00  0.00000000000E+00  0.71906895956E+02  0.14445732301E+04  0.14427824560E+04 0.  0.
        4    1    3    3  502    0 -0.37873902437E+03 -0.16754860177E+03  0.62735392279E+03  0.75172490971E+03  0.12699999809E+01 0.  1.
       -4    1    3    3    0  502  0.37873902437E+03  0.16754860177E+03 -0.55544702684E+03  0.69284832038E+03  0.12699999809E+01 0. -1.
</event>
<event>
 5   0  0.2172901E-03  0.1402594E+04  0.7818609E-02  0.8951943E-01
        2   -1    0    0  501    0  0.00000000000E+00  0.00000000000E+00  0.79124952488E+03  0.79124952489E+03  0.25500000920E-02 0. -1.
       -2   -1    0    0    0  501  0.00000000000E+00  0.00000000000E+00 -0.62157074581E+03  0.62157074581E+03  0.25500000920E-02 0.  1.
    10030    2    1    2    0    0  0.00000000000E+00  0.00000000000E+00  0.16967877908E+03  0.14128202707E+04  0.14025941071E+04 0.  0.
        2    1    3    3  502    0 -0.36841832128E+01 -0.68228213743E+03 -0.78500427654E+02  0.68679313145E+03  0.25500000920E-02 0.  1.
       -2    1    3    3    0  502  0.36841832128E+01  0.68228213743E+03  0.24817920673E+03  0.72602713925E+03  0.25500000920E-02 0. -1.
</event>
<event>
 5   0  0.2172901E-03  0.1407567E+04  0.7818609E-02  0.8948360E-01
       -2   -1    0    0    0  501  0.00000000000E+00  0.00000000000E+00  0.10861940944E+04  0.10861940944E+04  0.25500000920E-02 0. -1.
        2   -1    0    0  501    0  0.00000000000E+00  0.00000000000E+00 -0.45600594381E+03  0.45600594381E+03  0.25500000920E-02 0.  1.
    10030    2    1    2    0    0  0.00000000000E+00  0.00000000000E+00  0.63018815056E+03  0.15422000382E+04  0.14075666424E+04 0.  0.
        2    1    3    3  502    0  0.10418724205E+03 -0.69063381489E+03  0.22032882418E+03  0.73237615912E+03  0.25500000920E-02 0.  1.
       -2    1    3    3    0  502 -0.10418724205E+03  0.69063381489E+03  0.40985932638E+03  0.80982387906E+03  0.25500000920E-02 0. -1.
</event>
<event>
 5   0  0.2195980E-03  0.1407367E+04  0.7818609E-02  0.8948503E-01
       -2   -1    0    0    0  501  0.00000000000E+00  0.00000000000E+00  0.49903440192E+03  0.49903440193E+03  0.25500000920E-02 0.  1.
        2   -1    0    0  501    0  0.00000000000E+00  0.00000000000E+00 -0.99225703930E+03  0.99225703931E+03  0.25500000920E-02 0. -1.
    10030    2    1    2    0    0  0.00000000000E+00  0.00000000000E+00 -0.49322263738E+03  0.14912914412E+04  0.14073669005E+04 0.  0.
        4    1    3    3  502    0 -0.43775805537E+02 -0.45604945228E+03  0.31934678116E+03  0.55846343087E+03  0.12699999809E+01 0.  1.
       -4    1    3    3    0  502  0.43775805537E+02  0.45604945228E+03 -0.81256941855E+03  0.93282801037E+03  0.12699999809E+01 0. -1.
</event>
<event>
 5   0  0.2190704E-03  0.1433150E+04  0.7818609E-02  0.8930166E-01
       -2   -1    0    0    0  501  0.00000000000E+00  0.00000000000E+00  0.49776012883E+03  0.49776012883E+03  0.25500000920E-02 0.  1.
        2   -1    0    0  501    0  0.00000000000E+00  0.00000000000E+00 -0.10315807820E+04  0.10315807820E+04  0.25500000920E-02 0. -1.
    10030    2    1    2    0    0  0.00000000000E+00  0.00000000000E+00 -0.53382065314E+03  0.15293409108E+04  0.14331500730E+04 0.  0.
        5    1    3    3  502    0 -0.14852746011E+03  0.69061527543E+03 -0.13864362829E+03  0.71989861142E+03  0.46999998093E+01 0.  1.
       -5    1    3    3    0  502  0.14852746011E+03 -0.69061527543E+03 -0.39517702485E+03  0.80944229938E+03  0.46999998093E+01 0. -1.
</event>
<event>
 5   0  0.2172901E-03  0.1412693E+04  0.7818609E-02  0.8944682E-01
        2   -1    0    0  501    0  0.00000000000E+00  0.00000000000E+00  0.21297082138E+04  0.21297082138E+04  0.25500000920E-02 0. -1.
       -2   -1    0    0    0  501  0.00000000000E+00  0.00000000000E+00 -0.23426928946E+03  0.23426928948E+03  0.25500000920E-02 0.  1.
    10030    2    1    2    0    0  0.00000000000E+00  0.00000000000E+00  0.18954389244E+04  0.23639775033E+04  0.14126927904E+04 0.  0.
        2    1    3    3  502    0 -0.57101765608E+03  0.38366567847E+03  0.67963982820E+03  0.96704230129E+03  0.25500000920E-02 0. -1.
       -2    1    3    3    0  502  0.57101765608E+03 -0.38366567847E+03  0.12157990961E+04  0.13969352020E+04  0.25500000920E-02 0.  1.
</event>
<event>
 5   0  0.2083966E-03  0.1396268E+04  0.7818609E-02  0.8956524E-01
       -2   -1    0    0    0  501  0.00000000000E+00  0.00000000000E+00  0.23810123929E+03  0.23810123930E+03  0.25500000920E-02 0. -1.
        2   -1    0    0  501    0  0.00000000000E+00  0.00000000000E+00 -0.20469905670E+04  0.20469905670E+04  0.25500000920E-02 0.  1.
    10030    2    1    2    0    0  0.00000000000E+00  0.00000000000E+00 -0.18088893277E+04  0.22850918063E+04  0.13962678695E+04 0.  0.
        1    1    3    3  502    0  0.64012888291E+03  0.21807435006E+03 -0.11882356543E+04  0.13671961743E+04  0.50400001928E-02 0.  1.
       -1    1    3    3    0  502 -0.64012888291E+03 -0.21807435006E+03 -0.62065367343E+03  0.91789563200E+03  0.50400001928E-02 0. -1.
</event>
<event>
 5   0  0.2195980E-03  0.1410937E+04  0.7818609E-02  0.8945939E-01
       -2   -1    0    0    0  501  0.00000000000E+00  0.00000000000E+00  0.52848128918E+03  0.52848128919E+03  0.25500000920E-02 0.  1.
        2   -1    0    0  501    0  0.00000000000E+00  0.00000000000E+00 -0.94172869873E+03  0.94172869873E+03  0.25500000920E-02 0. -1.
    10030    2    1    2    0    0  0.00000000000E+00  0.00000000000E+00 -0.41324740955E+03  0.14702099879E+04  0.14109372726E+04 0.  0.
        4    1    3    3  502    0 -0.32352888132E+03  0.52734664918E+03  0.14661436505E+03  0.63581664841E+03  0.12699999809E+01 0.  1.
       -4    1    3    3    0  502  0.32352888132E+03 -0.52734664918E+03 -0.55986177460E+03  0.83439333951E+03  0.12699999809E+01 0. -1.
</event>
<event>
 5   0  0.2195980E-03  0.1397503E+04  0.7818609E-02  0.8955628E-01
        2   -1    0    0  501    0  0.00000000000E+00  0.00000000000E+00  0.15629602162E+04  0.15629602162E+04  0.25500000920E-02 0. -1.
       -2   -1    0    0    0  501  0.00000000000E+00  0.00000000000E+00 -0.31239035557E+03  0.31239035558E+03  0.25500000920E-02 0.  1.
    10030    2    1    2    0    0  0.00000000000E+00  0.00000000000E+00  0.12505698606E+04  0.18753505718E+04  0.13975030557E+04 0.  0.
        4    1    3    3  502    0  0.88472212626E+02  0.91876392601E+02 -0.29663477647E+03  0.32289689908E+03  0.12699999809E+01 0.  1.
       -4    1    3    3    0  502 -0.88472212626E+02 -0.91876392601E+02  0.15472046371E+04  0.15524536727E+04  0.12699999809E+01 0. -1.
</event>
<event>
 5   0  0.2190704E-03  0.1385064E+04  0.7818609E-02  0.8964701E-01
        2   -1    0    0  501    0  0.00000000000E+00  0.00000000000E+00  0.90327092349E+03  0.90327092350E+03  0.25500000920E-02 0.  1.
       -2   -1    0    0    0  501  0.00000000000E+00  0.00000000000E+00 -0.53095983117E+03  0.53095983118E+03  0.25500000920E-02 0. -1.
    10030    2    1    2    0    0  0.00000000000E+00  0.00000000000E+00  0.37231109232E+03  0.14342307547E+04  0.13850640087E+04 0.  0.
        5    1    3    3  502    0 -0.52193913144E+03  0.45484715421E+03  0.16907465188E+03  0.71268135834E+03  0.46999998093E+01 0. -1.
       -5    1    3    3    0  502  0.52193913144E+03 -0.45484715421E+03  0.20323644045E+03  0.72154939633E+03  0.46999998093E+01 0.  1.
</event>
<event>
 5   0  0.1238683E-03  0.1388961E+04  0.7818609E-02  0.8961848E-01
       -1   -1    0    0    0  501  0.00000000000E+00  0.00000000000E+00  0.41231605302E+03  0.41231605305E+03  0.50400001928E-02 0.  1.
        1   -1    0    0  501    0  0.00000000000E+00  0.00000000000E+00 -0.11697413189E+04  0.11697413190E+04  0.50400001928E-02 0. -1.
    10030    2    1    2    0    0  0.00000000000E+00  0.00000000000E+00 -0.75742526592E+03  0.15820573720E+04  0.13889609407E+04 0.  0.
        2    1    3    3  502    0 -0.22764520998E+03 -0.81420080725E+02 -0.11202603205E+04  0.11460518124E+04  0.25500000920E-02 0. -1.
       -2    1    3    3    0  502  0.22764520998E+03  0.81420080725E+02  0.36283505453E+03  0.43600555957E+03  0.25500000920E-02 0.  1.
</event>
<event>
 5   0  0.2190704E-03  0.1392769E+04  0.7818609E-02  0.8959069E-01
        2   -1    0    0  501    0  0.00000000000E+00  0.00000000000E+00  0.96796196281E+03  0.96796196281E+03  0.25500000920E-02 0. -1.
       -2   -1    0    0    0  501  0.00000000000E+00  0.00000000000E+00 -0.50100263934E+03  0.50100263935E+03  0.25500000920E-02 0.  1.
    10030    2    1    2    0    0  0.00000000000E+00  0.00000000000E+00  0.46695932347E+03  0.14689646022E+04  0.13927691814E+04 0.  0.
        5    1    3    3  502    0  0.79040444156E+02  0.45568985934E+03  0.78256503903E+03  0.90902737584E+03  0.46999998093E+01 0. -1.
       -5    1    3    3    0  502 -0.79040444156E+02 -0.45568985934E+03 -0.31560571557E+03  0.55993722632E+03  0.46999998093E+01 0.  1.
</event>
<event>
 5   0  0.2236184E-03  0.1420309E+04  0.7818609E-02  0.8939248E-01
        2   -1    0    0  501    0  0.00000000000E+00  0.00000000000E+00  0.18141801143E+04  0.18141801143E+04  0.25500000920E-02 0.  1.
       -2   -1    0    0    0  501  0.00000000000E+00  0.00000000000E+00 -0.27798749196E+03  0.27798749197E+03  0.25500000920E-02 0. -1.
    10030    2    1    2    0    0  0.00000000000E+00  0.00000000000E+00  0.15361926223E+04  0.20921676063E+04  0.14203089522E+04 0.  0.
        3    1    3    3  502    0 -0.36100782546E+03  0.60054065658E+02 -0.12838463731E+03  0.38783471498E+03  0.10100000352E+00 0. -1.
       -3    1    3    3    0  502  0.36100782546E+03 -0.60054065658E+02  0.16645772596E+04  0.17043328913E+04  0.10100000352E+00 0.  1.
</event>
<event>
 5   0  0.2190704E-03  0.1251975E+04  0.7818609E-02  0.9068541E-01
        2   -1    0    0  501    0  0.00000000000E+00  0.00000000000E+00  0.15297167820E+04  0.15297167820E+04  0.25500000920E-02 0. -1.
       -2   -1    0    0    0  501  0.00000000000E+00  0.00000000000E+00 -0.25616537880E+03  0.25616537881E+03  0.25500000920E-02 0.  1.
    10030    2    1    2    0    0  0.00000000000E+00  0.00000000000E+00  0.12735514032E+04  0.17858821608E+04  0.12519752057E+04 0.  0.
        5    1    3    3  502    0 -0.12939503592E+03 -0.61190519672E+03  0.67362522680E+03  0.91921927812E+03  0.46999998093E+01 0.  1.
       -5    1    3    3    0  502  0.12939503592E+03  0.61190519672E+03  0.59992617639E+03  0.86666288268E+03  0.46999998093E+01 0. -1.
</event>
<event>
 5   0  0.1210275E-03  0.1406391E+04  0.7818609E-02  0.8949205E-01
       -1   -1    0    0    0  501  0.00000000000E+00  0.00000000000E+00  0.28309428731E+03  0.28309428736E+03  0.50400001928E-02 0.  1.
        1   -1    0    0  501    0  0.00000000000E+00  0.00000000000E+00 -0.17467120243E+04  0.17467120243E+04  0.50400001928E-02 0. -1.
    10030    2    1    2    0    0  0.00000000000E+00  0.00000000000E+00 -0.14636177370E+04  0.20298063116E+04  0.14063914046E+04 0.  0.
        1    1    3    3  502    0 -0.44627277675E+02  0.69350546858E+03 -0.57674759146E+03  0.90309424377E+03  0.50400001928E-02 0.  1.
       -1    1    3    3    0  502  0.44627277675E+02 -0.69350546858E+03 -0.88687014550E+03  0.11267120679E+04  0.50400001928E-02 0. -1.
</event>
<event>
 5   0  0.1199720E-03  0.1420768E+04  0.7818609E-02  0.8938922E-01
       -1   -1    0    0    0  501  0.00000000000E+00  0.00000000000E+00  0.73855322437E+03  0.73855322438E+03  0.50400001928E-02 0. -1.
        1   -1    0    0  501    0  0.00000000000E+00  0.00000000000E+00 -0.68328887589E+03  0.68328887591E+03  0.50400001928E-02 0.  1.
    10030    2    1    2    0    0  0.00000000000E+00  0.00000000000E+00  0.55264348480E+02  0.14218421003E+04  0.14207676833E+04 0.  0.
        5    1    3    3  502    0 -0.36901250048E+02  0.56862647702E+03 -0.39686466917E+03  0.69442165019E+03  0.46999998093E+01 0. -1.
       -5    1    3    3    0  502  0.36901250048E+02 -0.56862647702E+03  0.45212901765E+03  0.72742045010E+03  0.46999998093E+01 0.  1.
</event>
<event>
 5   0  0.1199720E-03  0.1370904E+04  0.7818609E-02  0.8975153E-01
       -1   -1    0    0    0  501  0.00000000000E+00  0.00000000000E+00  0.59439094951E+03  0.59439094953E+03  0.50400001928E-02 0. -1.
        1   -1    0    0  501    0  0.00000000000E+00  0.00000000000E+00 -0.79046395515E+03  0.79046395516E+03  0.50400001928E-02 0.  1.
    10030    2    1    2    0    0  0.00000000000E+00  0.00000000000E+00 -0.19607300564E+03  0.13848549047E+04  0.13709042576E+04 0.  0.
        5    1    3    3  502    0  0.12940545074E+03  0.41839856922E+03 -0.63067763036E+03  0.76784080175E+03  0.46999998093E+01 0.  1.
       -5    1    3    3    0  502 -0.12940545074E+03 -0.41839856922E+03  0.43460462472E+03  0.61701410294E+03  0.46999998093E+01 0. -1.
</event>
<event>
 5   0  0.2083966E-03  0.1339499E+04  0.7818609E-02  0.8998816E-01
       -2   -1    0    0    0  501  0.00000000000E+00  0.00000000000E+00  0.11228012021E+04  0.11228012021E+04  0.25500000920E-02 0.  1.
        2   -1    0    0  501    0  0.00000000000E+00  0.00000000000E+00 -0.39950451043E+03  0.39950451044E+03  0.25500000920E-02 0. -1.
    10030    2    1    2    0    0  0.00000000000E+00  0.00000000000E+00  0.72329669170E+03  0.15223057126E+04  0.13394986295E+04 0.  0.
        1    1    3    3  502    0 -0.20497527692E+03  0.53133335222E+02 -0.36046111068E+03  0.41805529275E+03  0.50400001928E-02 0. -1.
       -1    1    3    3    0  502  0.20497527692E+03 -0.53133335222E+02  0.10837578024E+04  0.11042504198E+04  0.50400001928E-02 0.  1.
</event>
<event>
 5   0  0.2083966E-03  0.1252421E+04  0.7818609E-02  0.9068171E-01
        2   -1    0    0  501    0  0.00000000000E+00  0.00000000000E+00  0.12316630017E+04  0.12316630017E+04  0.25500000920E-02 0.  1.
       -2   -1    0    0    0  501  0.00000000000E+00  0.00000000000E+00 -0.31838224236E+03  0.31838224237E+03  0.25500000920E-02 0. -1.
    10030    2    1    2    0    0  0.00000000000E+00  0.00000000000E+00  0.91328075934E+03  0.15500452441E+04  0.12524210607E+04 0.  0.
        1    1    3    3  502    0  0.34767557292E+03  0.40491710497E+03  0.51224383141E+02  0.53615305963E+03  0.50400001928E-02 0. -1.
       -1    1    3    3    0  502 -0.34767557292E+03 -0.40491710497E+03  0.86205637619E+03  0.10138921844E+04  0.50400001928E-02 0.  1.
</event>
<event>
 5   0  0.1225690E-03  0.1412836E+04  0.7818609E-02  0.8944580E-01
       -1   -1    0    0    0  501  0.00000000000E+00  0.00000000000E+00  0.44419667190E+03  0.44419667193E+03  0.50400001928E-02 0.  1.
        1   -1    0    0  501    0  0.00000000000E+00  0.00000000000E+00 -0.11234350878E+04  0.11234350878E+04  0.50400001928E-02 0. -1.
    10030    2    1    2    0    0  0.00000000000E+00  0.00000000000E+00 -0.67923841585E+03  0.15676317597E+04  0.14128356268E+04 0.  0.
        4    1    3    3  502    0 -0.39224998700E+03  0.58670705310E+03 -0.30561336103E+03  0.76908150270E+03  0.12699999809E+01 0. -1.
       -4    1    3    3    0  502  0.39224998700E+03 -0.58670705310E+03 -0.37362505482E+03  0.79855025699E+03  0.12699999809E+01 0.  1.
</event>
<event>
 5   0  0.2172901E-03  0.1398214E+04  0.7818609E-02  0.8955113E-01
        2   -1    0    0  501    0  0.00000000000E+00  0.00000000000E+00  0.10725709992E+04  0.10725709992E+04  0.25500000920E-02 0. -1.
       -2   -1    0    0    0  501  0.00000000000E+00  0.00000000000E+00 -0.45568111304E+03  0.45568111305E+03  0.25500000920E-02 0.  1.
    10030    2    1    2    0    0  0.00000000000E+00  0.00000000000E+00  0.61688988618E+03  0.15282521123E+04  0.13982136414E+04 0.  0.
        2    1    3    3  502    0  0.60741458836E+03  0.29723696149E+03  0.11461612242E+03  0.68588566755E+03  0.25500000920E-02 0.  1.
       -2    1    3    3    0  502 -0.60741458836E+03 -0.29723696149E+03  0.50227376377E+03  0.84236644473E+03  0.25500000920E-02 0. -1.
</event>
<event>
 5   0  0.8293000E-04  0.1375620E+04  0.7818609E-02  0.8971658E-01
       -3   -1    0    0    0  501  0.00000000000E+00  0.00000000000E+00  0.17695708984E+03  0.17695711866E+03  0.10100000352E+00 0. -1.
        3   -1    0    0  501    0  0.00000000000E+00  0.00000000000E+00 -0.26734302071E+04  0.26734302090E+04  0.10100000352E+00 0.  1.
    10030    2    1    2    0    0  0.00000000000E+00  0.00000000000E+00 -0.24964731173E+04  0.28503873277E+04  0.13756198212E+04 0.  0.
        2    1    3    3  502    0 -0.30801518593E+03 -0.14970952119E+03 -0.24842013312E+04  0.25076966621E+04  0.25500000920E-02 0.  1.
       -2    1    3    3    0  502  0.30801518593E+03  0.14970952119E+03 -0.12271786081E+02  0.34269066553E+03  0.25500000920E-02 0. -1.
</event>
<event>
 5   0  0.2190704E-03  0.1361279E+04  0.7818609E-02  0.8982334E-01
        2   -1    0    0  501    0  0.00000000000E+00  0.00000000000E+00  0.10016295510E+04  0.10016295510E+04  0.25500000920E-02 0. -1.
       -2   -1    0    0    0  501  0.00000000000E+00  0.00000000000E+00 -0.46251638671E+03  0.46251638672E+03  0.25500000920E-02 0.  1.
    10030    2    1    2    0    0  0.00000000000E+00  0.00000000000E+00  0.53911316428E+03  0.14641459377E+04  0.13612789292E+04 0.  0.
        5    1    3    3  502    0 -0.41408350750E+03  0.47277748867E+03  0.55057450538E+03  0.83554657618E+03  0.46999998093E+01 0. -1.
       -5    1    3    3    0  502  0.41408350750E+03 -0.47277748867E+03 -0.11461341105E+02  0.62859936153E+03  0.46999998093E+01 0.  1.
</event>
<event>
 5   0  0.2190704E-03  0.1341607E+04  0.7818609E-02  0.8997206E-01
        2   -1    0    0  501    0  0.00000000000E+00  0.00000000000E+00  0.93123219021E+03  0.93123219021E+03  0.25500000920E-02 0. -1.
       -2   -1    0    0    0  501  0.00000000000E+00  0.00000000000E+00 -0.48320652813E+03  0.48320652813E+03  0.25500000920E-02 0.  1.
    10030    2    1    2    0    0  0.00000000000E+00  0.00000000000E+00  0.44802566208E+03  0.14144387183E+04  0.13416072056E+04 0.  0.
        5    1    3    3  502    0  0.38212676023E+03  0.20287907979E+03  0.76445651672E+03  0.87840573646E+03  0.46999998093E+01 0. -1.
       -5    1    3    3    0  502 -0.38212676023E+03 -0.20287907979E+03 -0.31643085464E+03  0.53603298188E+03  0.46999998093E+01 0.  1.
</event>
<event>
 5   0  0.1210275E-03  0.1328738E+04  0.7818609E-02  0.9007081E-01
       -1   -1    0    0    0  501  0.00000000000E+00  0.00000000000E+00  0.22210998502E+03  0.22210998508E+03  0.50400001928E-02 0. -1.
        1   -1    0    0  501    0  0.00000000000E+00  0.00000000000E+00 -0.19872424720E+04  0.19872424720E+04  0.50400001928E-02 0.  1.
    10030    2    1    2    0    0  0.00000000000E+00  0.00000000000E+00 -0.17651324869E+04  0.22093524571E+04  0.13287383426E+04 0.  0.
        1    1    3    3  502    0 -0.57249706336E+03  0.77765677477E+02 -0.33718093772E+03  0.66894795981E+03  0.50400001928E-02 0. -1.
       -1    1    3    3    0  502  0.57249706336E+03 -0.77765677477E+02 -0.14279515492E+04  0.15404044972E+04  0.50400001928E-02 0.  1.
</event>
<event>
 5   0  0.1225690E-03  0.1405280E+04  0.7818609E-02  0.8950006E-01
        1   -1    0    0  501    0  0.00000000000E+00  0.00000000000E+00  0.53522666335E+03  0.53522666337E+03  0.50400001928E-02 0.  1.
       -1   -1    0    0    0  501  0.00000000000E+00  0.00000000000E+00 -0.92241788352E+03  0.92241788353E+03  0.50400001928E-02 0. -1.
    10030    2    1    2    0    0  0.00000000000E+00  0.00000000000E+00 -0.38719122017E+03  0.14576445469E+04  0.14052795395E+04 0.  0.
        4    1    3    3  502    0  0.30100823805E+03 -0.27658418569E+03 -0.78637693630E+03  0.88628159745E+03  0.12699999809E+01 0. -1.
       -4    1    3    3    0  502 -0.30100823805E+03  0.27658418569E+03  0.39918571612E+03  0.57136294945E+03  0.12699999809E+01 0.  1.
</event>
<event>
 5   0  0.2236184E-03  0.1378792E+04  0.7818609E-02  0.8969315E-01
        2   -1    0    0  501    0  0.00000000000E+00  0.00000000000E+00  0.10701310390E+04  0.10701310390E+04  0.25500000920E-02 0. -1.
       -2   -1    0    0    0  501  0.00000000000E+00  0.00000000000E+00 -0.44412031977E+03  0.44412031977E+03  0.25500000920E-02 0.  1.
    10030    2    1    2    0    0  0.00000000000E+00  0.00000000000E+00  0.62601071920E+03  0.15142513587E+04  0.13787921369E+04 0.  0.
        3    1    3    3  502    0  0.29914184860E+03  0.27177356474E+03  0.92637310349E+03  0.10106996849E+04  0.10100000352E+00 0. -1.
       -3    1    3    3    0  502 -0.29914184860E+03 -0.27177356474E+03 -0.30036238430E+03  0.50355167379E+03  0.10100000352E+00 0.  1.
</event>
<event>
 5   0  0.2083966E-03  0.1398970E+04  0.7818609E-02  0.8954565E-01
       -2   -1    0    0    0  501  0.00000000000E+00  0.00000000000E+00  0.79546886914E+03  0.79546886914E+03  0.25500000920E-02 0. -1.
        2   -1    0    0  501    0  0.00000000000E+00  0.00000000000E+00 -0.61508266354E+03  0.61508266354E+03  0.25500000920E-02 0.  1.
    10030    2    1    2    0    0  0.00000000000E+00  0.00000000000E+00  0.18038620560E+03  0.14105515327E+04  0.13989697792E+04 0.  0.
        1    1    3    3  502    0  0.13591328969E+03  0.20387533586E+03 -0.57039613560E+03  0.62079733119E+03  0.50400001928E-02 0.  1.
       -1    1    3    3    0  502 -0.13591328969E+03 -0.20387533586E+03  0.75078234120E+03  0.78975420149E+03  0.50400001928E-02 0. -1.
</event>
<event>
 5   0  0.2190704E-03  0.1406661E+04  0.7818609E-02  0.8949011E-01
        2   -1    0    0  501    0  0.00000000000E+00  0.00000000000E+00  0.12811336106E+04  0.12811336106E+04  0.25500000920E-02 0. -1.
       -2   -1    0    0    0  501  0.00000000000E+00  0.00000000000E+00 -0.38612169243E+03  0.38612169244E+03  0.25500000920E-02 0.  1.
    10030    2    1    2    0    0  0.00000000000E+00  0.00000000000E+00  0.89501191818E+03  0.16672553030E+04  0.14066605532E+04 0.  0.
        5    1    3    3  502    0  0.47220484410E+03  0.35452487044E+03 -0.53588104942E+01  0.59052189240E+03  0.46999998093E+01 0.  1.
       -5    1    3    3    0  502 -0.47220484410E+03 -0.35452487044E+03  0.90037072867E+03  0.10767334106E+04  0.46999998093E+01 0. -1.
</event>
<event>
 5   0  0.8293000E-04  0.1423310E+04  0.7818609E-02  0.8937116E-01
        4   -1    0    0  501    0  0.00000000000E+00  0.00000000000E+00  0.50849338919E+03  0.50849497514E+03  0.12699999809E+01 0.  1.
       -4   -1    0    0    0  501  0.00000000000E+00  0.00000000000E+00 -0.99598408365E+03  0.99598489335E+03  0.12699999809E+01 0. -1.
    10030    2    1    2    0    0  0.00000000000E+00  0.00000000000E+00 -0.48749069447E+03  0.15044798685E+04  0.14233104010E+04 0.  0.
        2    1    3    3  502    0 -0.19806329536E+03  0.47897256171E+03  0.27172206217E+03  0.58521505698E+03  0.25500000920E-02 0.  1.
       -2    1    3    3    0  502  0.19806329536E+03 -0.47897256171E+03 -0.75921275664E+03  0.91926481152E+03  0.25500000920E-02 0. -1.
</event>
<event>
 5   0  0.2236184E-03  0.1383904E+04  0.7818609E-02  0.8965553E-01
        2   -1    0    0  501    0  0.00000000000E+00  0.00000000000E+00  0.80217475189E+03  0.80217475190E+03  0.25500000920E-02 0.  1.
       -2   -1    0    0    0  501  0.00000000000E+00  0.00000000000E+00 -0.59687428921E+03  0.59687428921E+03  0.25500000920E-02 0. -1.
    10030    2    1    2    0    0  0.00000000000E+00  0.00000000000E+00  0.20530046269E+03  0.13990490411E+04  0.13839038765E+04 0.  0.
        3    1    3    3  502    0 -0.14558393554E+03 -0.63907924944E+03 -0.12154352089E+03  0.66662568734E+03  0.10100000352E+00 0. -1.
       -3    1    3    3    0  502  0.14558393554E+03  0.63907924944E+03  0.32684398358E+03  0.73242335377E+03  0.10100000352E+00 0.  1.
</event>
<event>
 5   0  0.2195980E-03  0.1380176E+04  0.7818609E-02  0.8968294E-01
       -2   -1    0    0    0  501  0.00000000000E+00  0.00000000000E+00  0.33311864055E+03  0.33311864056E+03  0.25500000920E-02 0.  1.
        2   -1    0    0  501    0  0.00000000000E+00  0.00000000000E+00 -0.14295854306E+04  0.14295854306E+04  0.25500000920E-02 0. -1.
    10030    2    1    2    0    0  0.00000000000E+00  0.00000000000E+00 -0.10964667901E+04  0.17627040712E+04  0.13801761557E+04 0.  0.
        4    1    3    3  502    0 -0.13387320652E+03 -0.31132473723E+03  0.21952368225E+03  0.40377888429E+03  0.12699999809E+01 0.  1.
       -4    1    3    3    0  502  0.13387320652E+03  0.31132473723E+03 -0.13159904723E+04  0.13589251869E+04  0.12699999809E+01 0. -1.
</event>
<event>
 5   0  0.1199720E-03  0.1282468E+04  0.7818609E-02  0.9043585E-01
        1   -1    0    0  501    0  0.00000000000E+00  0.00000000000E+00  0.49378121739E+03  0.49378121742E+03  0.50400001928E-02 0. -1.
       -1   -1    0    0    0  501  0.00000000000E+00  0.00000000000E+00 -0.83271899110E+03  0.83271899112E+03  0.50400001928E-02 0.  1.
    10030    2    1    2    0    0  0.00000000000E+00  0.00000000000E+00 -0.33893777371E+03  0.13265002085E+04  0.12824679290E+04 0.  0.
        5    1    3    3  502    0 -0.33370593293E+03  0.35892834784E+03 -0.59715030580E+03  0.77252817830E+03  0.46999998093E+01 0.  1.
       -5    1    3    3    0  502  0.33370593293E+03 -0.35892834784E+03  0.25821253209E+03  0.55397203023E+03  0.46999998093E+01 0. -1.
</event>
<event>
 5   0  0.2236184E-03  0.1400776E+04  0.7818609E-02  0.8953257E-01
       -2   -1    0    0    0  501  0.00000000000E+00  0.00000000000E+00  0.12419122862E+04  0.12419122862E+04  0.25500000920E-02 0.  1.
        2   -1    0    0  501    0  0.00000000000E+00  0.00000000000E+00 -0.39499049438E+03  0.39499049438E+03  0.25500000920E-02 0. -1.
    10030    2    1    2    0    0  0.00000000000E+00  0.00000000000E+00  0.84692179181E+03  0.16369027806E+04  0.14007762818E+04 0.  0.
        3    1    3    3  502    0 -0.14612572758E+03 -0.45987169574E+03  0.10166849587E+04  0.11253812778E+04  0.10100000352E+00 0.  1.
       -3    1    3    3    0  502  0.14612572758E+03  0.45987169574E+03 -0.16976316692E+03  0.51152150282E+03  0.10100000352E+00 0. -1.
</event>
<event>
 5   0  0.2195980E-03  0.1355919E+04  0.7818609E-02  0.8986360E-01
       -2   -1    0    0    0  501  0.00000000000E+00  0.00000000000E+00  0.67882126422E+03  0.67882126423E+03  0.25500000920E-02 0.  1.
        2   -1    0    0  501    0  0.00000000000E+00  0.00000000000E+00 -0.67709887968E+03  0.67709887968E+03  0.25500000920E-02 0. -1.
    10030    2    1    2    0    0  0.00000000000E+00  0.00000000000E+00  0.17223845445E+01  0.13559201439E+04  0.13559190500E+04 0.  0.
        4    1    3    3  502    0 -0.11766127612E+03  0.52308229352E+03  0.41579313938E+03  0.67848714752E+03  0.12699999809E+01 0.  1.
       -4    1    3    3    0  502  0.11766127612E+03 -0.52308229352E+03 -0.41407075483E+03  0.67743299639E+03  0.12699999809E+01 0. -1.
</event>
<event>
 5   0  0.2083966E-03  0.1354218E+04  0.7818609E-02  0.8987641E-01
       -2   -1    0    0    0  501  0.00000000000E+00  0.00000000000E+00  0.69853993105E+03  0.69853993106E+03  0.25500000920E-02 0.  1.
        2   -1    0    0  501    0  0.00000000000E+00  0.00000000000E+00 -0.65633600687E+03  0.65633600687E+03  0.25500000920E-02 0. -1.
    10030    2    1    2    0    0  0.00000000000E+00  0.00000000000E+00  0.42203924187E+02  0.13548759379E+04  0.13542184595E+04 0.  0.
        1    1    3    3  502    0  0.25046382611E+03 -0.43451266344E+03 -0.43402935817E+03  0.66326078329E+03  0.50400001928E-02 0. -1.
       -1    1    3    3    0  502 -0.25046382611E+03  0.43451266344E+03  0.47623328236E+03  0.69161515464E+03  0.50400001928E-02 0.  1.
</event>
<event>
 5   0  0.1225690E-03  0.1096048E+04  0.7818609E-02  0.9209052E-01
        1   -1    0    0  501    0  0.00000000000E+00  0.00000000000E+00  0.90632799335E+03  0.90632799337E+03  0.50400001928E-02 0. -1.
       -1   -1    0    0    0  501  0.00000000000E+00  0.00000000000E+00 -0.33137060225E+03  0.33137060229E+03  0.50400001928E-02 0.  1.
    10030    2    1    2    0    0  0.00000000000E+00  0.00000000000E+00  0.57495739110E+03  0.12376985957E+04  0.10960482709E+04 0.  0.
        4    1    3    3  502    0 -0.27845139814E+03  0.51866057213E+02  0.81726260202E+03  0.86495378060E+03  0.12699999809E+01 0. -1.
       -4    1    3    3    0  502  0.27845139814E+03 -0.51866057213E+02 -0.24230521091E+03  0.37274481506E+03  0.12699999809E+01 0.  1.
</event>
<event>
 5   0  0.2236184E-03  0.1388309E+04  0.7818609E-02  0.8962325E-01
        2   -1    0    0  501    0  0.00000000000E+00  0.00000000000E+00  0.10813259741E+04  0.10813259741E+04  0.25500000920E-02 0.  1.
       -2   -1    0    0    0  501  0.00000000000E+00  0.00000000000E+00 -0.44561087850E+03  0.44561087850E+03  0.25500000920E-02 0. -1.
    10030    2    1    2    0    0  0.00000000000E+00  0.00000000000E+00  0.63571509561E+03  0.15269368526E+04  0.13883092123E+04 0.  0.
        3    1    3    3  502    0  0.46172438870E+03  0.13766492049E+03  0.86746480798E+03  0.99228838789E+03  0.10100000352E+00 0.  1.
       -3    1    3    3    0  502 -0.46172438870E+03 -0.13766492049E+03 -0.23174971236E+03  0.53464846473E+03  0.10100000352E+00 0. -1.
</event>
<event>
 5   0  0.2190704E-03  0.1389832E+04  0.7818609E-02  0.8961212E-01
       -2   -1    0    0    0  501  0.00000000000E+00  0.00000000000E+00  0.11251988580E+04  0.11251988580E+04  0.25500000920E-02 0. -1.
        2   -1    0    0  501    0  0.00000000000E+00  0.00000000000E+00 -0.42917608863E+03  0.42917608864E+03  0.25500000920E-02 0.  1.
    10030    2    1    2    0    0  0.00000000000E+00  0.00000000000E+00  0.69602276940E+03  0.15543749467E+04  0.13898322846E+04 0.  0.
        5    1    3    3  502    0  0.11199004245E+02 -0.56725957294E+03 -0.10070920747E+03  0.57625799366E+03  0.46999998093E+01 0.  1.
       -5    1    3    3    0  502 -0.11199004245E+02  0.56725957294E+03  0.79673197686E+03  0.97811695300E+03  0.46999998093E+01 0. -1.
</event>
<event>
 5   0  0.1175374E-03  0.1329956E+04  0.7818609E-02  0.9006141E-01
        1   -1    0    0  501    0  0.00000000000E+00  0.00000000000E+00  0.12284424459E+04  0.12284424459E+04  0.50400001928E-02 0. -1.
       -1   -1    0    0    0  501  0.00000000000E+00  0.00000000000E+00 -0.35996476343E+03  0.35996476346E+03  0.50400001928E-02 0.  1.
    10030    2    1    2    0    0  0.00000000000E+00  0.00000000000E+00  0.86847768248E+03  0.15884072094E+04  0.13299563819E+04 0.  0.
        3    1    3    3  502    0 -0.14804637173E+03 -0.39454786375E+03  0.10486056919E+04  0.11301148846E+04  0.10100000352E+00 0. -1.
       -3    1    3    3    0  502  0.14804637173E+03  0.39454786375E+03 -0.18012800946E+03  0.45829232480E+03  0.10100000352E+00 0.  1.
</event>
<event>
 5   0  0.8293000E-04  0.1395279E+04  0.7818609E-02  0.8957243E-01
        3   -1    0    0  501    0  0.00000000000E+00  0.00000000000E+00  0.87887079307E+03  0.87887079887E+03  0.10100000352E+00 0. -1.
       -3   -1    0    0    0  501  0.00000000000E+00  0.00000000000E+00 -0.55378008404E+03  0.55378009325E+03  0.10100000352E+00 0.  1.
    10030    2    1    2    0    0  0.00000000000E+00  0.00000000000E+00  0.32509070902E+03  0.14326508921E+04  0.13952794020E+04 0.  0.
        3    1    3    3  502    0  0.35790378929E+03 -0.51296715715E+03  0.47980459506E+03  0.78831648869E+03  0.10100000352E+00 0. -1.
       -3    1    3    3    0  502 -0.35790378929E+03  0.51296715715E+03 -0.15471388604E+03  0.64433440343E+03  0.10100000352E+00 0.  1.
</event>
<event>
 5   0  0.1225690E-03  0.1419720E+04  0.7818609E-02  0.8939667E-01
        1   -1    0    0  501    0  0.00000000000E+00  0.00000000000E+00  0.53037500937E+03  0.53037500939E+03  0.50400001928E-02 0. -1.
       -1   -1    0    0    0  501  0.00000000000E+00  0.00000000000E+00 -0.95008473238E+03  0.95008473239E+03  0.50400001928E-02 0.  1.
    10030    2    1    2    0    0  0.00000000000E+00  0.00000000000E+00 -0.41970972301E+03  0.14804597418E+04  0.14197199708E+04 0.  0.
        4    1    3    3  502    0  0.37788600618E+03  0.49912426435E+03  0.13909078443E+03  0.64130392494E+03  0.12699999809E+01 0.  1.
       -4    1    3    3    0  502 -0.37788600618E+03 -0.49912426435E+03 -0.55880050744E+03  0.83915581684E+03  0.12699999809E+01 0. -1.
</event>
<event>
 5   0  0.2195980E-03  0.1379582E+04  0.7818609E-02  0.8968732E-01
        2   -1    0    0  501    0  0.00000000000E+00  0.00000000000E+00  0.33598134421E+03  0.33598134422E+03  0.25500000920E-02 0.  1.
       -2   -1    0    0    0  501  0.00000000000E+00  0.00000000000E+00 -0.14161837867E+04  0.14161837867E+04  0.25500000920E-02 0. -1.
    10030    2    1    2    0    0  0.00000000000E+00  0.00000000000E+00 -0.10802024425E+04  0.17521651310E+04  0.13795815776E+04 0.  0.
        4    1    3    3  502    0  0.47329641953E+03 -0.35067327452E+03 -0.99596341591E+03  0.11571196934E+04  0.12699999809E+01 0. -1.
       -4    1    3    3    0  502 -0.47329641953E+03  0.35067327452E+03 -0.84239026623E+02  0.59504543752E+03  0.12699999809E+01 0.  1.
</event>
<event>
 5   0  0.1175374E-03  0.1382933E+04  0.7818609E-02  0.8966266E-01
        1   -1    0    0  501    0  0.00000000000E+00  0.00000000000E+00  0.13584114760E+04  0.13584114761E+04  0.50400001928E-02 0. -1.
       -1   -1    0    0    0  501  0.00000000000E+00  0.00000000000E+00 -0.35197416716E+03  0.35197416719E+03  0.50400001928E-02 0.  1.
    10030    2    1    2    0    0  0.00000000000E+00  0.00000000000E+00  0.10064373089E+04  0.17103856432E+04  0.13829327503E+04 0.  0.
        3    1    3    3  502    0  0.48881292447E+03 -0.45612924128E+03  0.28499144847E+03  0.72678201393E+03  0.10100000352E+00 0. -1.
       -3    1    3    3    0  502 -0.48881292447E+03  0.45612924128E+03  0.72144586042E+03  0.98360362931E+03  0.10100000352E+00 0.  1.
</event>
<event>
 5   0  0.2190704E-03  0.1410010E+04  0.7818609E-02  0.8946604E-01
       -2   -1    0    0    0  501  0.00000000000E+00  0.00000000000E+00  0.38509462944E+03  0.38509462945E+03  0.25500000920E-02 0.  1.
        2   -1    0    0  501    0  0.00000000000E+00  0.00000000000E+00 -0.12906757310E+04  0.12906757310E+04  0.25500000920E-02 0. -1.
    10030    2    1    2    0    0  0.00000000000E+00  0.00000000000E+00 -0.90558110152E+03  0.16757703604E+04  0.14100103437E+04 0.  0.
        5    1    3    3  502    0  0.50835081854E+03  0.38534413481E+03 -0.96049155952E+02  0.64510323771E+03  0.46999998093E+01 0.  1.
       -5    1    3    3    0  502 -0.50835081854E+03 -0.38534413481E+03 -0.80953194557E+03  0.10306671227E+04  0.46999998093E+01 0. -1.
</event>
<event>
 5   0  0.2172901E-03  0.1398949E+04  0.7818609E-02  0.8954580E-01
       -2   -1    0    0    0  501  0.00000000000E+00  0.00000000000E+00  0.75099050179E+03  0.75099050179E+03  0.25500000920E-02 0.  1.
        2   -1    0    0  501    0  0.00000000000E+00  0.00000000000E+00 -0.65149218353E+03  0.65149218353E+03  0.25500000920E-02 0. -1.
    10030    2    1    2    0    0  0.00000000000E+00  0.00000000000E+00  0.99498318260E+02  0.14024826853E+04  0.13989488080E+04 0.  0.
        2    1    3    3  502    0 -0.60135403776E+03 -0.31848599486E+03 -0.11253759683E+03  0.68972800317E+03  0.25500000920E-02 0. -1.
       -2    1    3    3    0  502  0.60135403776E+03  0.31848599486E+03  0.21203591509E+03  0.71275468216E+03  0.25500000920E-02 0.  1.
</event>
<event>
 5   0  0.2190704E-03  0.1390149E+04  0.7818609E-02  0.8960980E-01
       -2   -1    0    0    0  501  0.00000000000E+00  0.00000000000E+00  0.12610277807E+04  0.12610277807E+04  0.25500000920E-02 0. -1.
        2   -1    0    0  501    0  0.00000000000E+00  0.00000000000E+00 -0.38312299037E+03  0.38312299038E+03  0.25500000920E-02 0.  1.
    10030    2    1    2    0    0  0.00000000000E+00  0.00000000000E+00  0.87790479030E+03  0.16441507710E+04  0.13901492499E+04 0.  0.
        5    1    3    3  502    0 -0.56879108084E+03 -0.76677948158E+02  0.90263688993E+03  0.10696626788E+04  0.46999998093E+01 0.  1.
       -5    1    3    3    0  502  0.56879108084E+03  0.76677948158E+02 -0.24732099626E+02  0.57448809224E+03  0.46999998093E+01 0. -1.
</event>
<event>
 5   0  0.1175374E-03  0.1397019E+04  0.7818609E-02  0.8955979E-01
       -1   -1    0    0    0  501  0.00000000000E+00  0.00000000000E+00  0.33436581376E+03  0.33436581380E+03  0.50400001928E-02 0. -1.
        1   -1    0    0  501    0  0.00000000000E+00  0.00000000000E+00 -0.14592265293E+04  0.14592265293E+04  0.50400001928E-02 0.  1.
    10030    2    1    2    0    0  0.00000000000E+00  0.00000000000E+00 -0.11248607155E+04  0.17935923431E+04  0.13970189204E+04 0.  0.
        3    1    3    3  502    0 -0.36955733224E+03  0.58659266514E+03 -0.45309849879E+03  0.82822813066E+03  0.10100000352E+00 0. -1.
       -3    1    3    3    0  502  0.36955733224E+03 -0.58659266514E+03 -0.67176221671E+03  0.96536421241E+03  0.10100000352E+00 0.  1.
</event>
<event>
 5   0  0.1225690E-03  0.1403051E+04  0.7818609E-02  0.8951613E-01
       -1   -1    0    0    0  501  0.00000000000E+00  0.00000000000E+00  0.73435934228E+03  0.73435934230E+03  0.50400001928E-02 0. -1.
        1   -1    0    0  501    0  0.00000000000E+00  0.00000000000E+00 -0.67016012573E+03  0.67016012575E+03  0.50400001928E-02 0.  1.
    10030    2    1    2    0    0  0.00000000000E+00  0.00000000000E+00  0.64199216549E+02  0.14045194681E+04  0.14030514590E+04 0.  0.
        4    1    3    3  502    0  0.31511978991E+03 -0.52060407762E+03 -0.31727508463E+03  0.68629015719E+03  0.12699999809E+01 0.  1.
       -4    1    3    3    0  502 -0.31511978991E+03  0.52060407762E+03  0.38147430118E+03  0.71822931086E+03  0.12699999809E+01 0. -1.
</event>
<event>
 5   0  0.2236184E-03  0.1389186E+04  0.7818609E-02  0.8961683E-01
       -2   -1    0    0    0  501  0.00000000000E+00  0.00000000000E+00  0.55020804557E+03  0.55020804558E+03  0.25500000920E-02 0. -1.
        2   -1    0    0  501    0  0.00000000000E+00  0.00000000000E+00 -0.87686782780E+03  0.87686782780E+03  0.25500000920E-02 0.  1.
    10030    2    1    2    0    0  0.00000000000E+00  0.00000000000E+00 -0.32665978222E+03  0.14270758734E+04  0.13891864292E+04 0.  0.
        3    1    3    3  502    0  0.12269193389E+03 -0.25151010477E+03  0.48973649242E+03  0.56405007371E+03  0.10100000352E+00 0. -1.
       -3    1    3    3    0  502 -0.12269193389E+03  0.25151010477E+03 -0.81639627464E+03  0.86302579967E+03  0.10100000352E+00 0.  1.
</event>
<event>
 5   0  0.1238683E-03  0.1393225E+04  0.7818609E-02  0.8958737E-01
       -1   -1    0    0    0  501  0.00000000000E+00  0.00000000000E+00  0.30683703370E+03  0.30683703374E+03  0.50400001928E-02 0.  1.
        1   -1    0    0  501    0  0.00000000000E+00  0.00000000000E+00 -0.15815209073E+04  0.15815209073E+04  0.50400001928E-02 0. -1.
    10030    2    1    2    0    0  0.00000000000E+00  0.00000000000E+00 -0.12746838736E+04  0.18883579411E+04  0.13932252998E+04 0.  0.
        2    1    3    3  502    0  0.13259360528E+03  0.59017320107E+03 -0.11056541746E+04  0.12603002124E+04  0.25500000920E-02 0. -1.
       -2    1    3    3    0  502 -0.13259360528E+03 -0.59017320107E+03 -0.16902969899E+03  0.62805772869E+03  0.25500000920E-02 0.  1.
</event>
<event>
 5   0  0.2195980E-03  0.1458769E+04  0.7818609E-02  0.8912343E-01
       -2   -1    0    0    0  501  0.00000000000E+00  0.00000000000E+00  0.11185186763E+04  0.11185186763E+04  0.25500000920E-02 0. -1.
        2   -1    0    0  501    0  0.00000000000E+00  0.00000000000E+00 -0.47563090533E+03  0.47563090534E+03  0.25500000920E-02 0.  1.
    10030    2    1    2    0    0  0.00000000000E+00  0.00000000000E+00  0.64288777096E+03  0.15941495816E+04  0.14587694138E+04 0.  0.
        4    1    3    3  502    0 -0.35659094837E+03  0.15815860121E+03 -0.35205454730E+03  0.52546671138E+03  0.12699999809E+01 0.  1.
       -4    1    3    3    0  502  0.35659094837E+03 -0.15815860121E+03  0.99494231827E+03  0.10686828703E+04  0.12699999809E+01 0. -1.
</event>
<event>
 5   0  0.1225690E-03  0.1408068E+04  0.7818609E-02  0.8947999E-01
        1   -1    0    0  501    0  0.00000000000E+00  0.00000000000E+00  0.11036200288E+04  0.11036200288E+04  0.50400001928E-02 0. -1.
       -1   -1    0    0    0  501  0.00000000000E+00  0.00000000000E+00 -0.44912516524E+03  0.44912516527E+03  0.50400001928E-02 0.  1.
    10030    2    1    2    0    0  0.00000000000E+00  0.00000000000E+00  0.65449486352E+03  0.15527451940E+04  0.14080675095E+04 0.  0.
        4    1    3    3  502    0  0.59576396880E+03  0.36559652975E+03  0.23454835912E+03  0.73729917588E+03  0.12699999809E+01 0. -1.
       -4    1    3    3    0  502 -0.59576396880E+03 -0.36559652975E+03  0.41994650440E+03  0.81544601816E+03  0.12699999809E+01 0.  1.
</event>
<event>
 5   0  0.1210275E-03  0.1034369E+04  0.7818609E-02  0.9271632E-01
       -1   -1    0    0    0  501  0.00000000000E+00  0.00000000000E+00  0.27883820382E+03  0.27883820386E+03  0.50400001928E-02 0.  1.
        1   -1    0    0  501    0  0.00000000000E+00  0.00000000000E+00 -0.95926600469E+03  0.95926600471E+03  0.50400001928E-02 0. -1.
    10030    2    1    2    0    0  0.00000000000E+00  0.00000000000E+00 -0.68042780088E+03  0.12381042086E+04  0.10343693920E+04 0.  0.
        1    1    3    3  502    0 -0.14297112791E+03 -0.48444332607E+03 -0.20717332652E+03  0.54593668758E+03  0.50400001928E-02 0.  1.
       -1    1    3    3    0  502  0.14297112791E+03  0.48444332607E+03 -0.47325447435E+03  0.69216752099E+03  0.50400001928E-02 0. -1.
</event>
<event>
 5   0  0.1199720E-03  0.1460324E+04  0.7818609E-02  0.8911274E-01
        1   -1    0    0  501    0  0.00000000000E+00  0.00000000000E+00  0.96936849381E+03  0.96936849382E+03  0.50400001928E-02 0.  1.
       -1   -1    0    0    0  501  0.00000000000E+00  0.00000000000E+00 -0.54998362715E+03  0.54998362717E+03  0.50400001928E-02 0. -1.
    10030    2    1    2    0    0  0.00000000000E+00  0.00000000000E+00  0.41938486666E+03  0.15193521210E+04  0.14603243479E+04 0.  0.
        5    1    3    3  502    0 -0.16536914712E+03 -0.70223838839E+03  0.32661372783E+03  0.79194969926E+03  0.46999998093E+01 0. -1.
       -5    1    3    3    0  502  0.16536914712E+03  0.70223838839E+03  0.92771138828E+02  0.72740242173E+03  0.46999998093E+01 0.  1.
</event>
<event>
 5   0  0.1175374E-03  0.1403425E+04  0.7818609E-02  0.8951343E-01
        1   -1    0    0  501    0  0.00000000000E+00  0.00000000000E+00  0.12202190703E+04  0.12202190703E+04  0.50400001928E-02 0.  1.
       -1   -1    0    0    0  501  0.00000000000E+00  0.00000000000E+00 -0.40353450013E+03  0.40353450016E+03  0.50400001928E-02 0. -1.
    10030    2    1    2    0    0  0.00000000000E+00  0.00000000000E+00  0.81668457014E+03  0.16237535704E+04  0.14034250854E+04 0.  0.
        3    1    3    3  502    0 -0.51906060862E+03 -0.45791923061E+03  0.27497880521E+03  0.74480016830E+03  0.10100000352E+00 0.  1.
       -3    1    3    3    0  502  0.51906060862E+03  0.45791923061E+03  0.54170576493E+03  0.87895340215E+03  0.10100000352E+00 0. -1.
</event>
<event>
 5   0  0.2172901E-03  0.1324329E+04  0.7818609E-02  0.9010491E-01
       -2   -1    0    0    0  501  0.00000000000E+00  0.00000000000E+00  0.49936426264E+03  0.49936426265E+03  0.25500000920E-02 0. -1.
        2   -1    0    0  501    0  0.00000000000E+00  0.00000000000E+00 -0.87804026919E+03  0.87804026920E+03  0.25500000920E-02 0.  1.
    10030    2    1    2    0    0  0.00000000000E+00  0.00000000000E+00 -0.37867600655E+03  0.13774045318E+04  0.13243291609E+04 0.  0.
        2    1    3    3  502    0  0.13076859950E+03  0.61574812690E+03 -0.40303716376E+03  0.74745243178E+03  0.25500000920E-02 0. -1.
       -2    1    3    3    0  502 -0.13076859950E+03 -0.61574812690E+03  0.24361157205E+02  0.62995210007E+03  0.25500000920E-02 0.  1.
</event>
<event>
 5   0  0.1225690E-03  0.1090937E+04  0.7818609E-02  0.9214070E-01
        1   -1    0    0  501    0  0.00000000000E+00  0.00000000000E+00  0.11719801572E+04  0.11719801572E+04  0.50400001928E-02 0.  1.
       -1   -1    0    0    0  501  0.00000000000E+00  0.00000000000E+00 -0.25387466539E+03  0.25387466544E+03  0.50400001928E-02 0. -1.
    10030    2    1    2    0    0  0.00000000000E+00  0.00000000000E+00  0.91810549182E+03  0.14258548227E+04  0.10909373406E+04 0.  0.
        4    1    3    3  502    0 -0.32452795720E+03 -0.41771593984E+03  0.28502311190E+03  0.60087002640E+03  0.12699999809E+01 0. -1.
       -4    1    3    3    0  502  0.32452795720E+03  0.41771593984E+03  0.63308237992E+03  0.82498479627E+03  0.12699999809E+01 0.  1.
</event>
<event>
 5   0  0.2236184E-03  0.1388519E+04  0.7818609E-02  0.8962172E-01
        2   -1    0    0  501    0  0.00000000000E+00  0.00000000000E+00  0.21492800325E+04  0.21492800325E+04  0.25500000920E-02 0. -1.
       -2   -1    0    0    0  501  0.00000000000E+00  0.00000000000E+00 -0.22425928116E+03  0.22425928117E+03  0.25500000920E-02 0.  1.
    10030    2    1    2    0    0  0.00000000000E+00  0.00000000000E+00  0.19250207514E+04  0.23735393137E+04  0.13885186281E+04 0.  0.
        3    1    3    3  502    0  0.16819021920E+03  0.12299172198E+03  0.20945709378E+04  0.21049091043E+04  0.10100000352E+00 0. -1.
       -3    1    3    3    0  502 -0.16819021920E+03 -0.12299172198E+03 -0.16955018642E+03  0.26863020945E+03  0.10100000352E+00 0.  1.
</event>
<event>
 5   0  0.8293000E-04  0.1404934E+04  0.7818609E-02  0.8950255E-01
        3   -1    0    0  501    0  0.00000000000E+00  0.00000000000E+00  0.10150225878E+04  0.10150225928E+04  0.10100000352E+00 0. -1.
       -3   -1    0    0    0  501  0.00000000000E+00  0.00000000000E+00 -0.48615668440E+03  0.48615669489E+03  0.10100000352E+00 0.  1.
    10030    2    1    2    0    0  0.00000000000E+00  0.00000000000E+00  0.52886590338E+03  0.15011792877E+04  0.14049342013E+04 0.  0.
        3    1    3    3  502    0 -0.24609945070E+03  0.11791134610E+03  0.95607189731E+03  0.99425424726E+03  0.10100000352E+00 0. -1.
       -3    1    3    3    0  502  0.24609945070E+03 -0.11791134610E+03 -0.42720599393E+03  0.50692504044E+03  0.10100000352E+00 0.  1.
</event>
<event>
 5   0  0.2195980E-03  0.1358052E+04  0.7818609E-02  0.8984755E-01
        2   -1    0    0  501    0  0.00000000000E+00  0.00000000000E+00  0.46670383840E+03  0.46670383841E+03  0.25500000920E-02 0.  1.
       -2   -1    0    0    0  501  0.00000000000E+00  0.00000000000E+00 -0.98794236065E+03  0.98794236066E+03  0.25500000920E-02 0. -1.
    10030    2    1    2    0    0  0.00000000000E+00  0.00000000000E+00 -0.52123852225E+03  0.14546461991E+04  0.13580522698E+04 0.  0.
        4    1    3    3  502    0  0.19099293859E+03 -0.22415776822E+03 -0.91597896570E+03  0.96215595729E+03  0.12699999809E+01 0. -1.
       -4    1    3    3    0  502 -0.19099293859E+03  0.22415776822E+03  0.39474044345E+03  0.49249024177E+03  0.12699999809E+01 0.  1.
</event>
<event>
 5   0  0.1210275E-03  0.1383189E+04  0.7818609E-02  0.8966078E-01
       -1   -1    0    0    0  501  0.00000000000E+00  0.00000000000E+00  0.55535972798E+03  0.55535972801E+03  0.50400001928E-02 0.  1.
        1   -1    0    0  501    0  0.00000000000E+00  0.00000000000E+00 -0.86124895432E+03  0.86124895434E+03  0.50400001928E-02 0. -1.
    10030    2    1    2    0    0  0.00000000000E+00  0.00000000000E+00 -0.30588922634E+03  0.14166086823E+04  0.13831890471E+04 0.  0.
        1    1    3    3  502    0  0.97070587019E+01 -0.68893834945E+02 -0.85765570059E+03  0.86047306074E+03  0.50400001928E-02 0. -1.
       -1    1    3    3    0  502 -0.97070587019E+01  0.68893834945E+02  0.55176647425E+03  0.55613562160E+03  0.50400001928E-02 0.  1.
</event>
<event>
 5   0  0.2190704E-03  0.1395884E+04  0.7818609E-02  0.8956804E-01
        2   -1    0    0  501    0  0.00000000000E+00  0.00000000000E+00  0.10579184372E+04  0.10579184373E+04  0.25500000920E-02 0.  1.
       -2   -1    0    0    0  501  0.00000000000E+00  0.00000000000E+00 -0.46045404415E+03  0.46045404415E+03  0.25500000920E-02 0. -1.
    10030    2    1    2    0    0  0.00000000000E+00  0.00000000000E+00  0.59746439310E+03  0.15183724814E+04  0.13958836955E+04 0.  0.
        5    1    3    3  502    0  0.69262067624E+03 -0.84961722217E+02  0.28502320511E+03  0.75379188961E+03  0.46999998093E+01 0. -1.
       -5    1    3    3    0  502 -0.69262067624E+03  0.84961722217E+02  0.31244118799E+03  0.76458059179E+03  0.46999998093E+01 0.  1.
</event>
<event>
 5   0  0.8293000E-04  0.1439779E+04  0.7818609E-02  0.8925517E-01
        3   -1    0    0  501    0  0.00000000000E+00  0.00000000000E+00  0.55991321092E+03  0.55991322003E+03  0.10100000352E+00 0.  1.
       -3   -1    0    0    0  501  0.00000000000E+00  0.00000000000E+00 -0.92557335721E+03  0.92557336272E+03  0.10100000352E+00 0. -1.
    10030    2    1    2    0    0  0.00000000000E+00  0.00000000000E+00 -0.36566014629E+03  0.14854865828E+04  0.14397788181E+04 0.  0.
        1    1    3    3  502    0 -0.27308946841E+03  0.33340733528E+03 -0.77776625215E+03  0.88918988522E+03  0.50400001928E-02 0. -1.
       -1    1    3    3    0  502  0.27308946841E+03 -0.33340733528E+03  0.41210610586E+03  0.59629669753E+03  0.50400001928E-02 0.  1.
</event>
<event>
 5   0  0.2083966E-03  0.1398916E+04  0.7818609E-02  0.8954603E-01
        2   -1    0    0  501    0  0.00000000000E+00  0.00000000000E+00  0.58857830528E+03  0.58857830528E+03  0.25500000920E-02 0.  1.
       -2   -1    0    0    0  501  0.00000000000E+00  0.00000000000E+00 -0.83122629566E+03  0.83122629566E+03  0.25500000920E-02 0. -1.
    10030    2    1    2    0    0  0.00000000000E+00  0.00000000000E+00 -0.24264799038E+03  0.14198046009E+04  0.13989163869E+04 0.  0.
        1    1    3    3  502    0 -0.65987843092E+02 -0.33355363239E+03 -0.74170331163E+03  0.81592660431E+03  0.50400001928E-02 0. -1.
       -1    1    3    3    0  502  0.65987843092E+02  0.33355363239E+03  0.49905532125E+03  0.60387799663E+03  0.50400001928E-02 0.  1.
</event>
<event>
 5   0  0.2236184E-03  0.1453358E+04  0.7818609E-02  0.8916075E-01
       -2   -1    0    0    0  501  0.00000000000E+00  0.00000000000E+00  0.46392301596E+03  0.46392301597E+03  0.25500000920E-02 0.  1.
        2   -1    0    0  501    0  0.00000000000E+00  0.00000000000E+00 -0.11382550204E+04  0.11382550204E+04  0.25500000920E-02 0. -1.
    10030    2    1    2    0    0  0.00000000000E+00  0.00000000000E+00 -0.67433200442E+03  0.16021780364E+04  0.14533584582E+04 0.  0.
        3    1    3    3  502    0 -0.85596031018E+01 -0.24737782056E+03  0.41601697515E+03  0.48408592907E+03  0.10100000352E+00 0.  1.
       -3    1    3    3    0  502  0.85596031018E+01  0.24737782056E+03 -0.10903489796E+04  0.11180921073E+04  0.10100000352E+00 0. -1.
</event>
<event>
 5   0  0.1210275E-03  0.1402113E+04  0.7818609E-02  0.8952290E-01
       -1   -1    0    0    0  501  0.00000000000E+00  0.00000000000E+00  0.11293532243E+04  0.11293532243E+04  0.50400001928E-02 0. -1.
        1   -1    0    0  501    0  0.00000000000E+00  0.00000000000E+00 -0.43518745314E+03  0.43518745317E+03  0.50400001928E-02 0.  1.
    10030    2    1    2    0    0  0.00000000000E+00  0.00000000000E+00  0.69416577120E+03  0.15645406775E+04  0.14021131957E+04 0.  0.
        1    1    3    3  502    0 -0.16387429227E+03 -0.20952180299E+02  0.11073217558E+04  0.11195781564E+04  0.50400001928E-02 0. -1.
       -1    1    3    3    0  502  0.16387429227E+03  0.20952180299E+02 -0.41315598459E+03  0.44496252107E+03  0.50400001928E-02 0.  1.
</event>
<event>
 5   0  0.8293000E-04  0.1412491E+04  0.7818609E-02  0.8944826E-01
       -4   -1    0    0    0  501  0.00000000000E+00  0.00000000000E+00  0.65454853705E+03  0.65454976912E+03  0.12699999809E+01 0. -1.
        4   -1    0    0  501    0  0.00000000000E+00  0.00000000000E+00 -0.76202313836E+03  0.76202419666E+03  0.12699999809E+01 0.  1.
    10030    2    1    2    0    0  0.00000000000E+00  0.00000000000E+00 -0.10747460132E+03  0.14165739658E+04  0.14124910657E+04 0.  0.
        5    1    3    3  502    0 -0.69348688705E+03 -0.86759429335E+02 -0.15556601829E+03  0.71601266548E+03  0.46999998093E+01 0.  1.
       -5    1    3    3    0  502  0.69348688705E+03  0.86759429335E+02  0.48091416974E+02  0.70056130030E+03  0.46999998093E+01 0. -1.
</event>
<event>
 5   0  0.2083966E-03  0.1337755E+04  0.7818609E-02  0.9000150E-01
        2   -1    0    0  501    0  0.00000000000E+00  0.00000000000E+00  0.15681953596E+04  0.15681953596E+04  0.25500000920E-02 0. -1.
       -2   -1    0    0    0  501  0.00000000000E+00  0.00000000000E+00 -0.28529408920E+03  0.28529408921E+03  0.25500000920E-02 0.  1.
    10030    2    1    2    0    0  0.00000000000E+00  0.00000000000E+00  0.12829012704E+04  0.18534894488E+04  0.13377546364E+04 0.  0.
        1    1    3    3  502    0 -0.61667367301E+03  0.24442668766E+03  0.76036402328E+03  0.10090511744E+04  0.50400001928E-02 0. -1.
       -1    1    3    3    0  502  0.61667367301E+03 -0.24442668766E+03  0.52253724707E+03  0.84443827437E+03  0.50400001928E-02 0.  1.
</event>
<event>
 5   0  0.2236184E-03  0.1032654E+04  0.7818609E-02  0.9273438E-01
        2   -1    0    0  501    0  0.00000000000E+00  0.00000000000E+00  0.13739741578E+04  0.13739741578E+04  0.25500000920E-02 0. -1.
       -2   -1    0    0    0  501  0.00000000000E+00  0.00000000000E+00 -0.19403113130E+03  0.19403113132E+03  0.25500000920E-02 0.  1.
    10030    2    1    2    0    0  0.00000000000E+00  0.00000000000E+00  0.11799430265E+04  0.15680052891E+04  0.10326543666E+04 0.  0.
        3    1    3    3  502    0 -0.28091549564E+03 -0.43056512232E+03  0.66269600641E+03  0.83872870903E+03  0.10100000352E+00 0. -1.
       -3    1    3    3    0  502  0.28091549564E+03  0.43056512232E+03  0.51724702005E+03  0.72927658004E+03  0.10100000352E+00 0.  1.
</event>
<event>
 5   0  0.1199720E-03  0.1401839E+04  0.7818609E-02  0.8952488E-01
       -1   -1    0    0    0  501  0.00000000000E+00  0.00000000000E+00  0.74909126670E+03  0.74909126672E+03  0.50400001928E-02 0. -1.
        1   -1    0    0  501    0  0.00000000000E+00  0.00000000000E+00 -0.65584572664E+03  0.65584572666E+03  0.50400001928E-02 0.  1.
    10030    2    1    2    0    0  0.00000000000E+00  0.00000000000E+00  0.93245540068E+02  0.14049369934E+04  0.14018392292E+04 0.  0.
        5    1    3    3  502    0 -0.95135482162E+02  0.50395045319E+03  0.52543304139E+03  0.73424709071E+03  0.46999998093E+01 0. -1.
       -5    1    3    3    0  502  0.95135482162E+02 -0.50395045319E+03 -0.43218750132E+03  0.67068990266E+03  0.46999998093E+01 0.  1.
</event>
<event>
 5   0  0.2236184E-03  0.1288476E+04  0.7818609E-02  0.9038754E-01
       -2   -1    0    0    0  501  0.00000000000E+00  0.00000000000E+00  0.25586629057E+03  0.25586629058E+03  0.25500000920E-02 0. -1.
        2   -1    0    0  501    0  0.00000000000E+00  0.00000000000E+00 -0.16221063121E+04  0.16221063121E+04  0.25500000920E-02 0.  1.
    10030    2    1    2    0    0  0.00000000000E+00  0.00000000000E+00 -0.13662400216E+04  0.18779726027E+04  0.12884755722E+04 0.  0.
        3    1    3    3  502    0  0.38401667001E+03  0.15776570290E+03  0.34894437133E+02  0.41662507342E+03  0.10100000352E+00 0. -1.
       -3    1    3    3    0  502 -0.38401667001E+03 -0.15776570290E+03 -0.14011344587E+04  0.14613475293E+04  0.10100000352E+00 0.  1.
</event>
<event>
 5   0  0.1238683E-03  0.1353557E+04  0.7818609E-02  0.8988140E-01
        1   -1    0    0  501    0  0.00000000000E+00  0.00000000000E+00  0.87563339031E+03  0.87563339033E+03  0.50400001928E-02 0. -1.
       -1   -1    0    0    0  501  0.00000000000E+00  0.00000000000E+00 -0.52308294936E+03  0.52308294938E+03  0.50400001928E-02 0.  1.
    10030    2    1    2    0    0  0.00000000000E+00  0.00000000000E+00  0.35255044096E+03  0.13987163397E+04  0.13535566429E+04 0.  0.
        2    1    3    3  502    0  0.57460367268E+01 -0.50608702865E+03 -0.28801660806E+03  0.58233209085E+03  0.25500000920E-02 0.  1.
       -2    1    3    3    0  502 -0.57460367268E+01  0.50608702865E+03  0.64056704901E+03  0.81638424886E+03  0.25500000920E-02 0. -1.
</event>
<event>
 5   0  0.1225690E-03  0.1369133E+04  0.7818609E-02  0.8976470E-01
        1   -1    0    0  501    0  0.00000000000E+00  0.00000000000E+00  0.70073457393E+03  0.70073457395E+03  0.50400001928E-02 0. -1.
       -1   -1    0    0    0  501  0.00000000000E+00  0.00000000000E+00 -0.66877158351E+03  0.66877158353E+03  0.50400001928E-02 0.  1.
    10030    2    1    2    0    0  0.00000000000E+00  0.00000000000E+00  0.31962990425E+02  0.13695061575E+04  0.13691331135E+04 0.  0.
        4    1    3    3  502    0  0.52059843388E+02 -0.68110753303E+03 -0.28886706167E+02  0.68370589696E+03  0.12699999809E+01 0. -1.
       -4    1    3    3    0  502 -0.52059843388E+02  0.68110753303E+03  0.60849696592E+02  0.68580026052E+03  0.12699999809E+01 0.  1.
</event>
<event>
 5   0  0.2236184E-03  0.1411839E+04  0.7818609E-02  0.8945293E-01
       -2   -1    0    0    0  501  0.00000000000E+00  0.00000000000E+00  0.33599998075E+03  0.33599998076E+03  0.25500000920E-02 0.  1.
        2   -1    0    0  501    0  0.00000000000E+00  0.00000000000E+00 -0.14831022064E+04  0.14831022064E+04  0.25500000920E-02 0. -1.
    10030    2    1    2    0    0  0.00000000000E+00  0.00000000000E+00 -0.11471022257E+04  0.18191021872E+04  0.14118389608E+04 0.  0.
        3    1    3    3  502    0  0.18391586501E+03  0.58513432870E+03 -0.12329815643E+03  0.62562742396E+03  0.10100000352E+00 0.  1.
       -3    1    3    3    0  502 -0.18391586501E+03 -0.58513432870E+03 -0.10238040692E+04  0.11934747632E+04  0.10100000352E+00 0. -1.
</event>
<event>
 5   0  0.1175374E-03  0.1237724E+04  0.7818609E-02  0.9080463E-01
        1   -1    0    0  501    0  0.00000000000E+00  0.00000000000E+00  0.10195179515E+04  0.10195179516E+04  0.50400001928E-02 0. -1.
       -1   -1    0    0    0  501  0.00000000000E+00  0.00000000000E+00 -0.37565785208E+03  0.37565785211E+03  0.50400001928E-02 0.  1.
    10030    2    1    2    0    0  0.00000000000E+00  0.00000000000E+00  0.64386009946E+03  0.13951758037E+04  0.12377235941E+04 0.  0.
        3    1    3    3  502    0 -0.40193046433E+03  0.19406312725E+03 -0.16130224085E+03  0.47458088733E+03  0.10100000352E+00 0.  1.
       -3    1    3    3    0  502  0.40193046433E+03 -0.19406312725E+03  0.80516234032E+03  0.92059491633E+03  0.10100000352E+00 0. -1.
</event>
<event>
 5   0  0.1210275E-03  0.1391424E+04  0.7818609E-02  0.8960050E-01
        1   -1    0    0  501    0  0.00000000000E+00  0.00000000000E+00  0.11612928150E+04  0.11612928150E+04  0.50400001928E-02 0.  1.
       -1   -1    0    0    0  501  0.00000000000E+00  0.00000000000E+00 -0.41679007468E+03  0.41679007471E+03  0.50400001928E-02 0. -1.
    10030    2    1    2    0    0  0.00000000000E+00  0.00000000000E+00  0.74450274029E+03  0.15780828897E+04  0.13914241900E+04 0.  0.
        1    1    3    3  502    0 -0.40383057257E+02 -0.79208372905E+02  0.11548231258E+04  0.11582405664E+04  0.50400001928E-02 0.  1.
       -1    1    3    3    0  502  0.40383057257E+02  0.79208372905E+02 -0.41032038552E+03  0.41984232332E+03  0.50400001928E-02 0. -1.
</event>
<event>
 5   0  0.1225690E-03  0.1348110E+04  0.7818609E-02  0.8992260E-01
        1   -1    0    0  501    0  0.00000000000E+00  0.00000000000E+00  0.15033097310E+04  0.15033097310E+04  0.50400001928E-02 0.  1.
       -1   -1    0    0    0  501  0.00000000000E+00  0.00000000000E+00 -0.30223339606E+03  0.30223339610E+03  0.50400001928E-02 0. -1.
    10030    2    1    2    0    0  0.00000000000E+00  0.00000000000E+00  0.12010763349E+04  0.18055431271E+04  0.13481103892E+04 0.  0.
        4    1    3    3  502    0 -0.65343242947E+03 -0.73974865846E+01  0.37916560618E+03  0.75551097444E+03  0.12699999809E+01 0. -1.
       -4    1    3    3    0  502  0.65343242947E+03  0.73974865846E+01  0.82191072876E+03  0.10500321527E+04  0.12699999809E+01 0.  1.
</event>
<event>
 5   0  0.2172901E-03  0.1345582E+04  0.7818609E-02  0.8994179E-01
       -2   -1    0    0    0  501  0.00000000000E+00  0.00000000000E+00  0.60125617991E+03  0.60125617992E+03  0.25500000920E-02 0. -1.
        2   -1    0    0  501    0  0.00000000000E+00  0.00000000000E+00 -0.75283679262E+03  0.75283679262E+03  0.25500000920E-02 0.  1.
    10030    2    1    2    0    0  0.00000000000E+00  0.00000000000E+00 -0.15158061271E+03  0.13540929725E+04  0.13455820659E+04 0.  0.
        2    1    3    3  502    0 -0.26288755897E+03 -0.61360611537E+03  0.85577492273E+01  0.66760435031E+03  0.25500000920E-02 0. -1.
       -2    1    3    3    0  502  0.26288755897E+03  0.61360611537E+03 -0.16013836194E+03  0.68648862223E+03  0.25500000920E-02 0.  1.
</event>
<event>
 5   0  0.2172901E-03  0.1404860E+04  0.7818609E-02  0.8950308E-01
       -2   -1    0    0    0  501  0.00000000000E+00  0.00000000000E+00  0.44647408619E+03  0.44647408620E+03  0.25500000920E-02 0. -1.
        2   -1    0    0  501    0  0.00000000000E+00  0.00000000000E+00 -0.11051206628E+04  0.11051206628E+04  0.25500000920E-02 0.  1.
    10030    2    1    2    0    0  0.00000000000E+00  0.00000000000E+00 -0.65864657657E+03  0.15515947490E+04  0.14048597625E+04 0.  0.
        2    1    3    3  502    0  0.28468865483E+03 -0.44918174104E+02 -0.10368104430E+04  0.10761232120E+04  0.25500000920E-02 0.  1.
       -2    1    3    3    0  502 -0.28468865483E+03  0.44918174104E+02  0.37816386648E+03  0.47547153697E+03  0.25500000920E-02 0. -1.
</event>
<event>
 5   0  0.2172901E-03  0.1509793E+04  0.7818609E-02  0.8877967E-01
       -2   -1    0    0    0  501  0.00000000000E+00  0.00000000000E+00  0.46628205434E+03  0.46628205435E+03  0.25500000920E-02 0.  1.
        2   -1    0    0  501    0  0.00000000000E+00  0.00000000000E+00 -0.12221537503E+04  0.12221537503E+04  0.25500000920E-02 0. -1.
    10030    2    1    2    0    0  0.00000000000E+00  0.00000000000E+00 -0.75587169592E+03  0.16884358046E+04  0.15097925174E+04 0.  0.
        2    1    3    3  502    0  0.26380043338E+03  0.68553308230E+03 -0.18319958983E+03  0.75703920988E+03  0.25500000920E-02 0.  1.
       -2    1    3    3    0  502 -0.26380043338E+03 -0.68553308230E+03 -0.57267210609E+03  0.93139659473E+03  0.25500000920E-02 0. -1.
</event>
<event>
 5   0  0.1238683E-03  0.1413813E+04  0.7818609E-02  0.8943880E-01
        1   -1    0    0  501    0  0.00000000000E+00  0.00000000000E+00  0.47587014286E+03  0.47587014289E+03  0.50400001928E-02 0.  1.
       -1   -1    0    0    0  501  0.00000000000E+00  0.00000000000E+00 -0.10501116366E+04  0.10501116366E+04  0.50400001928E-02 0. -1.
    10030    2    1    2    0    0  0.00000000000E+00  0.00000000000E+00 -0.57424149371E+03  0.15259817795E+04  0.14138129644E+04 0.  0.
        2    1    3    3  502    0 -0.69787834856E+03  0.10936744690E+03 -0.25813200171E+03  0.75208214853E+03  0.25500000920E-02 0.  1.
       -2    1    3    3    0  502  0.69787834856E+03 -0.10936744690E+03 -0.31610949200E+03  0.77389963094E+03  0.25500000920E-02 0. -1.
</event>
<event>
 5   0  0.1225690E-03  0.1448705E+04  0.7818609E-02  0.8919299E-01
       -1   -1    0    0    0  501  0.00000000000E+00  0.00000000000E+00  0.48630016535E+03  0.48630016537E+03  0.50400001928E-02 0. -1.
        1   -1    0    0  501    0  0.00000000000E+00  0.00000000000E+00 -0.10789348625E+04  0.10789348626E+04  0.50400001928E-02 0.  1.
    10030    2    1    2    0    0  0.00000000000E+00  0.00000000000E+00 -0.59263469719E+03  0.15652350279E+04  0.14487045276E+04 0.  0.
        4    1    3    3  502    0  0.17404034322E+03  0.16669206272E+02 -0.10557941291E+04  0.10701732381E+04  0.12699999809E+01 0.  1.
       -4    1    3    3    0  502 -0.17404034322E+03 -0.16669206272E+02  0.46315943192E+03  0.49506178986E+03  0.12699999809E+01 0. -1.
</event>
<event>
 5   0  0.1175374E-03  0.1326410E+04  0.7818609E-02  0.9008880E-01
        1   -1    0    0  501    0  0.00000000000E+00  0.00000000000E+00  0.88473993634E+03  0.88473993636E+03  0.50400001928E-02 0. -1.
       -1   -1    0    0    0  501  0.00000000000E+00  0.00000000000E+00 -0.49714170373E+03  0.49714170375E+03  0.50400001928E-02 0.  1.
    10030    2    1    2    0    0  0.00000000000E+00  0.00000000000E+00  0.38759823261E+03  0.13818816401E+04  0.13264103729E+04 0.  0.
        3    1    3    3  502    0 -0.63344769666E+03  0.17493291113E+03  0.28688682880E+03  0.71705060529E+03  0.10100000352E+00 0. -1.
       -3    1    3    3    0  502  0.63344769666E+03 -0.17493291113E+03  0.10071140382E+03  0.66483103482E+03  0.10100000352E+00 0.  1.
</event>
<event>
 5   0  0.2190704E-03  0.1401206E+04  0.7818609E-02  0.8952946E-01
        2   -1    0    0  501    0  0.00000000000E+00  0.00000000000E+00  0.16387987152E+04  0.16387987152E+04  0.25500000920E-02 0.  1.
       -2   -1    0    0    0  501  0.00000000000E+00  0.00000000000E+00 -0.29951470673E+03  0.29951470674E+03  0.25500000920E-02 0. -1.
    10030    2    1    2    0    0  0.00000000000E+00  0.00000000000E+00  0.13392840085E+04  0.19383134220E+04  0.14012056474E+04 0.  0.
        5    1    3    3  502    0  0.41715999093E+03 -0.53884308584E+03  0.44467558293E+03  0.81371542522E+03  0.46999998093E+01 0. -1.
       -5    1    3    3    0  502 -0.41715999093E+03  0.53884308584E+03  0.89460842556E+03  0.11245979967E+04  0.46999998093E+01 0.  1.
</event>
<event>
 5   0  0.1225690E-03  0.1209012E+04  0.7818609E-02  0.9105005E-01
        1   -1    0    0  501    0  0.00000000000E+00  0.00000000000E+00  0.11549166873E+04  0.11549166873E+04  0.50400001928E-02 0.  1.
       -1   -1    0    0    0  501  0.00000000000E+00  0.00000000000E+00 -0.31641018000E+03  0.31641018004E+03  0.50400001928E-02 0. -1.
    10030    2    1    2    0    0  0.00000000000E+00  0.00000000000E+00  0.83850650728E+03  0.14713268673E+04  0.12090118228E+04 0.  0.
        4    1    3    3  502    0  0.11690301727E+02 -0.15688714877E+03 -0.29105865591E+03  0.33085796754E+03  0.12699999809E+01 0. -1.
       -4    1    3    3    0  502 -0.11690301727E+02  0.15688714877E+03  0.11295651632E+04  0.11404688998E+04  0.12699999809E+01 0.  1.
</event>
<event>
 5   0  0.2190704E-03  0.1420888E+04  0.7818609E-02  0.8938836E-01
       -2   -1    0    0    0  501  0.00000000000E+00  0.00000000000E+00  0.22405405474E+03  0.22405405475E+03  0.25500000920E-02 0. -1.
        2   -1    0    0  501    0  0.00000000000E+00  0.00000000000E+00 -0.22527176303E+04  0.22527176303E+04  0.25500000920E-02 0.  1.
    10030    2    1    2    0    0  0.00000000000E+00  0.00000000000E+00 -0.20286635756E+04  0.24767716851E+04  0.14208877778E+04 0.  0.
        5    1    3    3  502    0  0.41830694225E+03 -0.28004675121E+03 -0.14050817165E+03  0.52265812641E+03  0.46999998093E+01 0. -1.
       -5    1    3    3    0  502 -0.41830694225E+03  0.28004675121E+03 -0.18881554039E+04  0.19541135587E+04  0.46999998093E+01 0.  1.
</event>
<event>
 5   0  0.1225690E-03  0.1423129E+04  0.7818609E-02  0.8937245E-01
       -1   -1    0    0    0  501  0.00000000000E+00  0.00000000000E+00  0.49274753857E+03  0.49274753860E+03  0.50400001928E-02 0.  1.
        1   -1    0    0  501    0  0.00000000000E+00  0.00000000000E+00 -0.10275522255E+04  0.10275522255E+04  0.50400001928E-02 0. -1.
    10030    2    1    2    0    0  0.00000000000E+00  0.00000000000E+00 -0.53480468695E+03  0.15202997641E+04  0.14231287080E+04 0.  0.
        4    1    3    3  502    0 -0.22637610667E+03  0.27189339809E+03 -0.92693004603E+03  0.99215577644E+03  0.12699999809E+01 0. -1.
       -4    1    3    3    0  502  0.22637610667E+03 -0.27189339809E+03  0.39212535908E+03  0.52814398769E+03  0.12699999809E+01 0.  1.
</event>
<event>
 5   0  0.1199720E-03  0.1349690E+04  0.7818609E-02  0.8991063E-01
        1   -1    0    0  501    0  0.00000000000E+00  0.00000000000E+00  0.13535489656E+04  0.13535489656E+04  0.50400001928E-02 0.  1.
       -1   -1    0    0    0  501  0.00000000000E+00  0.00000000000E+00 -0.33646069799E+03  0.33646069803E+03  0.50400001928E-02 0. -1.
    10030    2    1    2    0    0  0.00000000000E+00  0.00000000000E+00  0.10170882676E+04  0.16900096637E+04  0.13496903790E+04 0.  0.
        5    1    3    3  502    0 -0.17753622533E+03 -0.46019915855E+03 -0.68111755943E+02  0.49795951455E+03  0.46999998093E+01 0. -1.
       -5    1    3    3    0  502  0.17753622533E+03  0.46019915855E+03  0.10852000236E+04  0.11920501491E+04  0.46999998093E+01 0.  1.
</event>
<event>
 5   0  0.1175374E-03  0.1372814E+04  0.7818609E-02  0.8973736E-01
        1   -1    0    0  501    0  0.00000000000E+00  0.00000000000E+00  0.84156276047E+03  0.84156276048E+03  0.50400001928E-02 0. -1.
       -1   -1    0    0    0  501  0.00000000000E+00  0.00000000000E+00 -0.55985684226E+03  0.55985684228E+03  0.50400001928E-02 0.  1.
    10030    2    1    2    0    0  0.00000000000E+00  0.00000000000E+00  0.28170591821E+03  0.14014196028E+04  0.13728141457E+04 0.  0.
        3    1    3    3  502    0 -0.39733139045E+03  0.35298648820E+03  0.58428062766E+03  0.78984527393E+03  0.10100000352E+00 0. -1.
       -3    1    3    3    0  502  0.39733139045E+03 -0.35298648820E+03 -0.30257470945E+03  0.61157432884E+03  0.10100000352E+00 0.  1.
</event>
<event>
 5   0  0.1210275E-03  0.1380013E+04  0.7818609E-02  0.8968415E-01
       -1   -1    0    0    0  501  0.00000000000E+00  0.00000000000E+00  0.86233894473E+03  0.86233894474E+03  0.50400001928E-02 0. -1.
        1   -1    0    0  501    0  0.00000000000E+00  0.00000000000E+00 -0.55211333217E+03  0.55211333220E+03  0.50400001928E-02 0.  1.
    10030    2    1    2    0    0  0.00000000000E+00  0.00000000000E+00  0.31022561255E+03  0.14144522769E+04  0.13800127945E+04 0.  0.
        1    1    3    3  502    0 -0.33047487067E+03  0.60356430823E+03  0.10279672369E+03  0.69575188159E+03  0.50400001928E-02 0.  1.
       -1    1    3    3    0  502  0.33047487067E+03 -0.60356430823E+03  0.20742888886E+03  0.71870039535E+03  0.50400001928E-02 0. -1.
</event>
<event>
 5   0  0.2195980E-03  0.1407508E+04  0.7818609E-02  0.8948402E-01
       -2   -1    0    0    0  501  0.00000000000E+00  0.00000000000E+00  0.36201954108E+03  0.36201954109E+03  0.25500000920E-02 0. -1.
        2   -1    0    0  501    0  0.00000000000E+00  0.00000000000E+00 -0.13680737321E+04  0.13680737321E+04  0.25500000920E-02 0.  1.
    10030    2    1    2    0    0  0.00000000000E+00  0.00000000000E+00 -0.10060541910E+04  0.17300932732E+04  0.14075076194E+04 0.  0.
        4    1    3    3  502    0 -0.61182433224E+03 -0.29732798019E+03 -0.28131300026E+03  0.73611925551E+03  0.12699999809E+01 0. -1.
       -4    1    3    3    0  502  0.61182433224E+03  0.29732798019E+03 -0.72474119077E+03  0.99397401768E+03  0.12699999809E+01 0.  1.
</event>
<event>
 5   0  0.2172901E-03  0.1385598E+04  0.7818609E-02  0.8964310E-01
       -2   -1    0    0    0  501  0.00000000000E+00  0.00000000000E+00  0.36961176644E+03  0.36961176645E+03  0.25500000920E-02 0. -1.
        2   -1    0    0  501    0  0.00000000000E+00  0.00000000000E+00 -0.12985799309E+04  0.12985799309E+04  0.25500000920E-02 0.  1.
    10030    2    1    2    0    0  0.00000000000E+00  0.00000000000E+00 -0.92896816441E+03  0.16681916973E+04  0.13855979534E+04 0.  0.
        2    1    3    3  502    0 -0.20936288893E+03  0.22069275039E+03 -0.12138719222E+04  0.12514084676E+04  0.25500000920E-02 0.  1.
       -2    1    3    3    0  502  0.20936288893E+03 -0.22069275039E+03  0.28490375779E+03  0.41678322968E+03  0.25500000920E-02 0. -1.
</event>
<event>
 5   0  0.1175374E-03  0.1184775E+04  0.7818609E-02  0.9126289E-01
       -1   -1    0    0    0  501  0.00000000000E+00  0.00000000000E+00  0.39932372639E+03  0.39932372642E+03  0.50400001928E-02 0.  1.
        1   -1    0    0  501    0  0.00000000000E+00  0.00000000000E+00 -0.87879267366E+03  0.87879267368E+03  0.50400001928E-02 0. -1.
    10030    2    1    2    0    0  0.00000000000E+00  0.00000000000E+00 -0.47946894728E+03  0.12781164001E+04  0.11847746878E+04 0.  0.
        3    1    3    3  502    0  0.47025381298E+03 -0.43975989254E+02  0.14599726797E+03  0.49435589276E+03  0.10100000352E+00 0.  1.
       -3    1    3    3    0  502 -0.47025381298E+03  0.43975989254E+02 -0.62546621525E+03  0.78376050734E+03  0.10100000352E+00 0. -1.
</event>
<event>
 5   0  0.2236184E-03  0.1406638E+04  0.7818609E-02  0.8949027E-01
       -2   -1    0    0    0  501  0.00000000000E+00  0.00000000000E+00  0.77309588344E+03  0.77309588344E+03  0.25500000920E-02 0.  1.
        2   -1    0    0  501    0  0.00000000000E+00  0.00000000000E+00 -0.63984012504E+03  0.63984012505E+03  0.25500000920E-02 0. -1.
    10030    2    1    2    0    0  0.00000000000E+00  0.00000000000E+00  0.13325575839E+03  0.14129360085E+04  0.14066382147E+04 0.  0.
        3    1    3    3  502    0  0.39676838016E+03 -0.29271046465E+03 -0.43716844955E+03  0.65895434371E+03  0.10100000352E+00 0. -1.
       -3    1    3    3    0  502 -0.39676838016E+03  0.29271046465E+03  0.57042420795E+03  0.75398166478E+03  0.10100000352E+00 0.  1.
</event>
<event>
 5   0  0.1210275E-03  0.1067550E+04  0.7818609E-02  0.9237410E-01
       -1   -1    0    0    0  501  0.00000000000E+00  0.00000000000E+00  0.25798874875E+03  0.25798874880E+03  0.50400001928E-02 0.  1.
        1   -1    0    0  501    0  0.00000000000E+00  0.00000000000E+00 -0.11043737378E+04  0.11043737378E+04  0.50400001928E-02 0. -1.
    10030    2    1    2    0    0  0.00000000000E+00  0.00000000000E+00 -0.84638498904E+03  0.13623624866E+04  0.10675504650E+04 0.  0.
        1    1    3    3  502    0 -0.74842934145E+01  0.21202053254E+03  0.20187364605E+03  0.29285096869E+03  0.50400001928E-02 0.  1.
       -1    1    3    3    0  502  0.74842934145E+01 -0.21202053254E+03 -0.10482586351E+04  0.10695115179E+04  0.50400001928E-02 0. -1.
</event>
<event>
 5   0  0.1225690E-03  0.1369617E+04  0.7818609E-02  0.8976110E-01
        1   -1    0    0  501    0  0.00000000000E+00  0.00000000000E+00  0.47643774040E+03  0.47643774042E+03  0.50400001928E-02 0. -1.
       -1   -1    0    0    0  501  0.00000000000E+00  0.00000000000E+00 -0.98431064671E+03  0.98431064672E+03  0.50400001928E-02 0.  1.
    10030    2    1    2    0    0  0.00000000000E+00  0.00000000000E+00 -0.50787290631E+03  0.14607483871E+04  0.13696170858E+04 0.  0.
        4    1    3    3  502    0  0.32114465837E+03  0.55149632111E+03  0.10941045257E+02  0.63828160178E+03  0.12699999809E+01 0. -1.
       -4    1    3    3    0  502 -0.32114465837E+03 -0.55149632111E+03 -0.51881395157E+03  0.82246678537E+03  0.12699999809E+01 0.  1.
</event>
<event>
 5   0  0.1199720E-03  0.1389916E+04  0.7818609E-02  0.8961151E-01
       -1   -1    0    0    0  501  0.00000000000E+00  0.00000000000E+00  0.80710050654E+03  0.80710050656E+03  0.50400001928E-02 0.  1.
        1   -1    0    0  501    0  0.00000000000E+00  0.00000000000E+00 -0.59839672363E+03  0.59839672365E+03  0.50400001928E-02 0. -1.
    10030    2    1    2    0    0  0.00000000000E+00  0.00000000000E+00  0.20870378291E+03  0.14054972302E+04  0.13899155352E+04 0.  0.
        5    1    3    3  502    0 -0.47259383275E+03 -0.24136343098E+03 -0.34939098789E+03  0.63537185096E+03  0.46999998093E+01 0. -1.
       -5    1    3    3    0  502  0.47259383275E+03  0.24136343098E+03  0.55809477080E+03  0.77012537925E+03  0.46999998093E+01 0.  1.
</event>
<event>
 5   0  0.2236184E-03  0.1286505E+04  0.7818609E-02  0.9040336E-01
       -2   -1    0    0    0  501  0.00000000000E+00  0.00000000000E+00  0.53155078176E+03  0.53155078177E+03  0.25500000920E-02 0.  1.
        2   -1    0    0  501    0  0.00000000000E+00  0.00000000000E+00 -0.77842740835E+03  0.77842740835E+03  0.25500000920E-02 0. -1.
    10030    2    1    2    0    0  0.00000000000E+00  0.00000000000E+00 -0.24687662658E+03  0.13099781901E+04  0.12865048736E+04 0.  0.
        3    1    3    3  502    0  0.90428997251E+02  0.29572707528E+03 -0.69777027179E+03  0.76322687911E+03  0.10100000352E+00 0. -1.
       -3    1    3    3    0  502 -0.90428997251E+02 -0.29572707528E+03  0.45089364521E+03  0.54675131101E+03  0.10100000352E+00 0.  1.
</event>
<event>
 5   0  0.1210275E-03  0.1400983E+04  0.7818609E-02  0.8953107E-01
        1   -1    0    0  501    0  0.00000000000E+00  0.00000000000E+00  0.16461348374E+04  0.16461348374E+04  0.50400001928E-02 0. -1.
       -1   -1    0    0    0  501  0.00000000000E+00  0.00000000000E+00 -0.29808524656E+03  0.29808524660E+03  0.50400001928E-02 0.  1.
    10030    2    1    2    0    0  0.00000000000E+00  0.00000000000E+00  0.13480495909E+04  0.19442200840E+04  0.14009832389E+04 0.  0.
        1    1    3    3  502    0  0.13950246400E+03  0.64521594545E+03  0.34879270718E+03  0.74660625924E+03  0.50400001928E-02 0.  1.
       -1    1    3    3    0  502 -0.13950246400E+03 -0.64521594545E+03  0.99925688368E+03  0.11976138248E+04  0.50400001928E-02 0. -1.
</event>
<event>
 5   0  0.2083966E-03  0.1391302E+04  0.7818609E-02  0.8960139E-01
       -2   -1    0    0    0  501  0.00000000000E+00  0.00000000000E+00  0.70597978373E+03  0.70597978374E+03  0.25500000920E-02 0. -1.
        2   -1    0    0  501    0  0.00000000000E+00  0.00000000000E+00 -0.68547343057E+03  0.68547343058E+03  0.25500000920E-02 0.  1.
    10030    2    1    2    0    0  0.00000000000E+00  0.00000000000E+00  0.20506353163E+02  0.13914532143E+04  0.13913021013E+04 0.  0.
        1    1    3    3  502    0  0.56656108210E+03 -0.23119762839E+03  0.34117668085E+03  0.70060354745E+03  0.50400001928E-02 0. -1.
       -1    1    3    3    0  502 -0.56656108210E+03  0.23119762839E+03 -0.32067032769E+03  0.69084966686E+03  0.50400001928E-02 0.  1.
</event>
<event>
 5   0  0.1225690E-03  0.1424986E+04  0.7818609E-02  0.8935928E-01
       -1   -1    0    0    0  501  0.00000000000E+00  0.00000000000E+00  0.59244003925E+03  0.59244003927E+03  0.50400001928E-02 0. -1.
        1   -1    0    0  501    0  0.00000000000E+00  0.00000000000E+00 -0.85687349027E+03  0.85687349028E+03  0.50400001928E-02 0.  1.
    10030    2    1    2    0    0  0.00000000000E+00  0.00000000000E+00 -0.26443345102E+03  0.14493135296E+04  0.14249858445E+04 0.  0.
        4    1    3    3  502    0  0.59313178013E+03  0.30118598389E+03 -0.39177197590E+03  0.77201373012E+03  0.12699999809E+01 0. -1.
       -4    1    3    3    0  502 -0.59313178013E+03 -0.30118598389E+03  0.12733852488E+03  0.67729979943E+03  0.12699999809E+01 0.  1.
</event>
<event>
 5   0  0.1199720E-03  0.1386597E+04  0.7818609E-02  0.8963578E-01
        1   -1    0    0  501    0  0.00000000000E+00  0.00000000000E+00  0.18505050723E+04  0.18505050723E+04  0.50400001928E-02 0. -1.
       -1   -1    0    0    0  501  0.00000000000E+00  0.00000000000E+00 -0.25974696093E+03  0.25974696098E+03  0.50400001928E-02 0.  1.
    10030    2    1    2    0    0  0.00000000000E+00  0.00000000000E+00  0.15907581114E+04  0.21102520333E+04  0.13865973731E+04 0.  0.
        5    1    3    3  502    0  0.68074066051E+03  0.33450471517E+02  0.60218742859E+03  0.90949357891E+03  0.46999998093E+01 0.  1.
       -5    1    3    3    0  502 -0.68074066051E+03 -0.33450471517E+02  0.98857068278E+03  0.12007584544E+04  0.46999998093E+01 0. -1.
</event>
<event>
 5   0  0.1238683E-03  0.1372796E+04  0.7818609E-02  0.8973749E-01
        1   -1    0    0  501    0  0.00000000000E+00  0.00000000000E+00  0.48691954130E+03  0.48691954133E+03  0.50400001928E-02 0.  1.
       -1   -1    0    0    0  501  0.00000000000E+00  0.00000000000E+00 -0.96759777305E+03  0.96759777306E+03  0.50400001928E-02 0. -1.
    10030    2    1    2    0    0  0.00000000000E+00  0.00000000000E+00 -0.48067823174E+03  0.14545173144E+04  0.13727960720E+04 0.  0.
        2    1    3    3  502    0  0.48541308875E+03 -0.18098831928E+03  0.23675450268E+03  0.56959225153E+03  0.25500000920E-02 0.  1.
       -2    1    3    3    0  502 -0.48541308875E+03  0.18098831928E+03 -0.71743273443E+03  0.88492506286E+03  0.25500000920E-02 0. -1.
</event>
<event>
 5   0  0.1238683E-03  0.1363372E+04  0.7818609E-02  0.8980767E-01
        1   -1    0    0  501    0  0.00000000000E+00  0.00000000000E+00  0.17222938697E+04  0.17222938697E+04  0.50400001928E-02 0. -1.
       -1   -1    0    0    0  501  0.00000000000E+00  0.00000000000E+00 -0.26981225044E+03  0.26981225048E+03  0.50400001928E-02 0.  1.
    10030    2    1    2    0    0  0.00000000000E+00  0.00000000000E+00  0.14524816193E+04  0.19921061202E+04  0.13633722675E+04 0.  0.
        2    1    3    3  502    0 -0.30344488841E+02  0.58917077793E+03  0.12252929862E+04  0.13599212829E+04  0.25500000920E-02 0. -1.
       -2    1    3    3    0  502  0.30344488841E+02 -0.58917077793E+03  0.22718863309E+03  0.63218483735E+03  0.25500000920E-02 0.  1.
</event>
<event>
 5   0  0.1199720E-03  0.1397191E+04  0.7818609E-02  0.8955855E-01
        1   -1    0    0  501    0  0.00000000000E+00  0.00000000000E+00  0.85562529117E+03  0.85562529118E+03  0.50400001928E-02 0. -1.
       -1   -1    0    0    0  501  0.00000000000E+00  0.00000000000E+00 -0.57038464302E+03  0.57038464304E+03  0.50400001928E-02 0.  1.
    10030    2    1    2    0    0  0.00000000000E+00  0.00000000000E+00  0.28524064815E+03  0.14260099342E+04  0.13971907905E+04 0.  0.
        5    1    3    3  502    0  0.20587294467E+03  0.29657645987E+03 -0.46777248929E+03  0.59090985576E+03  0.46999998093E+01 0.  1.
       -5    1    3    3    0  502 -0.20587294467E+03 -0.29657645987E+03  0.75301313744E+03  0.83510007847E+03  0.46999998093E+01 0. -1.
</event>
<event>
 5   0  0.2172901E-03  0.1295542E+04  0.7818609E-02  0.9033108E-01
       -2   -1    0    0    0  501  0.00000000000E+00  0.00000000000E+00  0.31716030022E+03  0.31716030023E+03  0.25500000920E-02 0.  1.
        2   -1    0    0  501    0  0.00000000000E+00  0.00000000000E+00 -0.13230136884E+04  0.13230136884E+04  0.25500000920E-02 0. -1.
    10030    2    1    2    0    0  0.00000000000E+00  0.00000000000E+00 -0.10058533881E+04  0.16401739886E+04  0.12955422318E+04 0.  0.
        2    1    3    3  502    0 -0.55515234768E+02  0.80295203414E+02  0.30779475726E+03  0.32290381476E+03  0.25500000920E-02 0.  1.
       -2    1    3    3    0  502  0.55515234768E+02 -0.80295203414E+02 -0.13136481454E+04  0.13172701738E+04  0.25500000920E-02 0. -1.
</event>
<event>
 5   0  0.1225690E-03  0.1399105E+04  0.7818609E-02  0.8954467E-01
       -1   -1    0    0    0  501  0.00000000000E+00  0.00000000000E+00  0.16663580306E+04  0.16663580306E+04  0.50400001928E-02 0.  1.
        1   -1    0    0  501    0  0.00000000000E+00  0.00000000000E+00 -0.29367844453E+03  0.29367844457E+03  0.50400001928E-02 0. -1.
    10030    2    1    2    0    0  0.00000000000E+00  0.00000000000E+00  0.13726795861E+04  0.19600364752E+04  0.13991046201E+04 0.  0.
        4    1    3    3  502    0 -0.51139125928E+03 -0.39808286336E+03  0.31733354037E+03  0.72159072535E+03  0.12699999809E+01 0. -1.
       -4    1    3    3    0  502  0.51139125928E+03  0.39808286336E+03  0.10553460457E+04  0.12384457498E+04  0.12699999809E+01 0.  1.
</event>
<event>
 5   0  0.1210275E-03  0.1400485E+04  0.7818609E-02  0.8953468E-01
       -1   -1    0    0    0  501  0.00000000000E+00  0.00000000000E+00  0.93124950480E+03  0.93124950482E+03  0.50400001928E-02 0.  1.
        1   -1    0    0  501    0  0.00000000000E+00  0.00000000000E+00 -0.52653903640E+03  0.52653903642E+03  0.50400001928E-02 0. -1.
    10030    2    1    2    0    0  0.00000000000E+00  0.00000000000E+00  0.40471046840E+03  0.14577885412E+04  0.14004845118E+04 0.  0.
        1    1    3    3  502    0  0.13168594686E+03 -0.42443240412E+03 -0.36094854402E+03  0.57251017959E+03  0.50400001928E-02 0. -1.
       -1    1    3    3    0  502 -0.13168594686E+03  0.42443240412E+03  0.76565901243E+03  0.88527836165E+03  0.50400001928E-02 0.  1.
</event>
<event>
 5   0  0.1210275E-03  0.1416781E+04  0.7818609E-02  0.8941761E-01
        1   -1    0    0  501    0  0.00000000000E+00  0.00000000000E+00  0.91778338285E+03  0.91778338286E+03  0.50400001928E-02 0. -1.
       -1   -1    0    0    0  501  0.00000000000E+00  0.00000000000E+00 -0.54677053670E+03  0.54677053672E+03  0.50400001928E-02 0.  1.
    10030    2    1    2    0    0  0.00000000000E+00  0.00000000000E+00  0.37101284615E+03  0.14645539196E+04  0.14167807351E+04 0.  0.
        1    1    3    3  502    0  0.58213803288E+03 -0.35861580787E+03  0.37702908906E+03  0.78079505698E+03  0.50400001928E-02 0. -1.
       -1    1    3    3    0  502 -0.58213803288E+03  0.35861580787E+03 -0.60162429116E+01  0.68375886260E+03  0.50400001928E-02 0.  1.
</event>
<event>
 5   0  0.8293000E-04  0.1410136E+04  0.7818609E-02  0.8946514E-01
        3   -1    0    0  501    0  0.00000000000E+00  0.00000000000E+00  0.89854624181E+03  0.89854624749E+03  0.10100000352E+00 0. -1.
       -3   -1    0    0    0  501  0.00000000000E+00  0.00000000000E+00 -0.55325048670E+03  0.55325049592E+03  0.10100000352E+00 0.  1.
    10030    2    1    2    0    0  0.00000000000E+00  0.00000000000E+00  0.34529575512E+03  0.14517967434E+04  0.14101363855E+04 0.  0.
        5    1    3    3  502    0  0.26475396610E+03 -0.49177980611E+03 -0.27036341586E+03  0.62053243823E+03  0.46999998093E+01 0.  1.
       -5    1    3    3    0  502 -0.26475396610E+03  0.49177980611E+03  0.61565917097E+03  0.83126430518E+03  0.46999998093E+01 0. -1.
</event>
<event>
 5   0  0.2195980E-03  0.1385843E+04  0.7818609E-02  0.8964130E-01
       -2   -1    0    0    0  501  0.00000000000E+00  0.00000000000E+00  0.32755673171E+03  0.32755673172E+03  0.25500000920E-02 0. -1.
        2   -1    0    0  501    0  0.00000000000E+00  0.00000000000E+00 -0.14658238253E+04  0.14658238253E+04  0.25500000920E-02 0.  1.
    10030    2    1    2    0    0  0.00000000000E+00  0.00000000000E+00 -0.11382670936E+04  0.17933805570E+04  0.13858433699E+04 0.  0.
        4    1    3    3  502    0  0.30233012046E+03 -0.57474017556E+03 -0.88188438477E+03  0.10951947097E+04  0.12699999809E+01 0. -1.
       -4    1    3    3    0  502 -0.30233012046E+03  0.57474017556E+03 -0.25638270885E+03  0.69818584735E+03  0.12699999809E+01 0.  1.
</event>
<event>
 5   0  0.1175374E-03  0.1484461E+04  0.7818609E-02  0.8894852E-01
        1   -1    0    0  501    0  0.00000000000E+00  0.00000000000E+00  0.15147897030E+04  0.15147897030E+04  0.50400001928E-02 0. -1.
       -1   -1    0    0    0  501  0.00000000000E+00  0.00000000000E+00 -0.36368508503E+03  0.36368508507E+03  0.50400001928E-02 0.  1.
    10030    2    1    2    0    0  0.00000000000E+00  0.00000000000E+00  0.11511046180E+04  0.18784747881E+04  0.14844614134E+04 0.  0.
        3    1    3    3  502    0  0.23489179425E+01  0.55986304268E+03  0.11921848607E+04  0.13171017031E+04  0.10100000352E+00 0. -1.
       -3    1    3    3    0  502 -0.23489179425E+01 -0.55986304268E+03 -0.41080242762E+02  0.56137308497E+03  0.10100000352E+00 0.  1.
</event>
<event>
 5   0  0.2195980E-03  0.1379506E+04  0.7818609E-02  0.8968788E-01
        2   -1    0    0  501    0  0.00000000000E+00  0.00000000000E+00  0.86489127066E+03  0.86489127067E+03  0.25500000920E-02 0. -1.
       -2   -1    0    0    0  501  0.00000000000E+00  0.00000000000E+00 -0.55007982099E+03  0.55007982099E+03  0.25500000920E-02 0.  1.
    10030    2    1    2    0    0  0.00000000000E+00  0.00000000000E+00  0.31481144968E+03  0.14149710917E+04  0.13795060498E+04 0.  0.
        4    1    3    3  502    0 -0.19915354197E+03 -0.65450247717E+03  0.24753974858E+03  0.72753911643E+03  0.12699999809E+01 0.  1.
       -4    1    3    3    0  502  0.19915354197E+03  0.65450247717E+03  0.67271701100E+02  0.68743197523E+03  0.12699999809E+01 0. -1.
</event>
<event>
 5   0  0.2236184E-03  0.1333627E+04  0.7818609E-02  0.9003315E-01
        2   -1    0    0  501    0  0.00000000000E+00  0.00000000000E+00  0.11144855360E+04  0.11144855360E+04  0.25500000920E-02 0. -1.
       -2   -1    0    0    0  501  0.00000000000E+00  0.00000000000E+00 -0.39896483807E+03  0.39896483808E+03  0.25500000920E-02 0.  1.
    10030    2    1    2    0    0  0.00000000000E+00  0.00000000000E+00  0.71552069794E+03  0.15134503741E+04  0.13336274464E+04 0.  0.
        3    1    3    3  502    0  0.43002709860E+03 -0.17868326341E+03  0.89938762518E+03  0.10127927353E+04  0.10100000352E+00 0. -1.
       -3    1    3    3    0  502 -0.43002709860E+03  0.17868326341E+03 -0.18386692724E+03  0.50065763880E+03  0.10100000352E+00 0.  1.
</event>
<event>
 5   0  0.2083966E-03  0.1404251E+04  0.7818609E-02  0.8950747E-01
        2   -1    0    0  501    0  0.00000000000E+00  0.00000000000E+00  0.60329440586E+03  0.60329440586E+03  0.25500000920E-02 0. -1.
       -2   -1    0    0    0  501  0.00000000000E+00  0.00000000000E+00 -0.81714747533E+03  0.81714747533E+03  0.25500000920E-02 0.  1.
    10030    2    1    2    0    0  0.00000000000E+00  0.00000000000E+00 -0.21385306947E+03  0.14204418812E+04  0.14042514029E+04 0.  0.
        1    1    3    3  502    0 -0.23818121719E+03 -0.11479927259E+03 -0.76486519032E+03  0.80927617326E+03  0.50400001928E-02 0.  1.
       -1    1    3    3    0  502  0.23818121719E+03  0.11479927259E+03  0.55101212085E+03  0.61116570794E+03  0.50400001928E-02 0. -1.
</event>
<event>
 5   0  0.2195980E-03  0.1410522E+04  0.7818609E-02  0.8946237E-01
        2   -1    0    0  501    0  0.00000000000E+00  0.00000000000E+00  0.22896742764E+04  0.22896742764E+04  0.25500000920E-02 0. -1.
       -2   -1    0    0    0  501  0.00000000000E+00  0.00000000000E+00 -0.21723308672E+03  0.21723308674E+03  0.25500000920E-02 0.  1.
    10030    2    1    2    0    0  0.00000000000E+00  0.00000000000E+00  0.20724411897E+04  0.25069073632E+04  0.14105219044E+04 0.  0.
        4    1    3    3  502    0 -0.45019560536E+03 -0.21213504577E+03  0.14808366487E+03  0.51923765795E+03  0.12699999809E+01 0.  1.
       -4    1    3    3    0  502  0.45019560536E+03  0.21213504577E+03  0.19243575249E+04  0.19876697052E+04  0.12699999809E+01 0. -1.
</event>
<event>
 5   0  0.1175374E-03  0.1409995E+04  0.7818609E-02  0.8946615E-01
       -1   -1    0    0    0  501  0.00000000000E+00  0.00000000000E+00  0.18133935155E+04  0.18133935155E+04  0.50400001928E-02 0.  1.
        1   -1    0    0  501    0  0.00000000000E+00  0.00000000000E+00 -0.27408380694E+03  0.27408380699E+03  0.50400001928E-02 0. -1.
    10030    2    1    2    0    0  0.00000000000E+00  0.00000000000E+00  0.15393097085E+04  0.20874773224E+04  0.14099954585E+04 0.  0.
        3    1    3    3  502    0  0.60359158165E+03  0.36427600961E+03  0.76757192178E+03  0.10422027029E+04  0.10100000352E+00 0. -1.
       -3    1    3    3    0  502 -0.60359158165E+03 -0.36427600961E+03  0.77173778673E+03  0.10452746196E+04  0.10100000352E+00 0.  1.
</event>
<event>
 5   0  0.2236184E-03  0.1132206E+04  0.7818609E-02  0.9174358E-01
        2   -1    0    0  501    0  0.00000000000E+00  0.00000000000E+00  0.12476979513E+04  0.12476979513E+04  0.25500000920E-02 0.  1.
       -2   -1    0    0    0  501  0.00000000000E+00  0.00000000000E+00 -0.25685094774E+03  0.25685094776E+03  0.25500000920E-02 0. -1.
    10030    2    1    2    0    0  0.00000000000E+00  0.00000000000E+00  0.99084700353E+03  0.15045488990E+04  0.11322056373E+04 0.  0.
        3    1    3    3  502    0  0.47444212537E+03  0.59523949918E+02  0.89812444856E+03  0.10174802044E+04  0.10100000352E+00 0.  1.
       -3    1    3    3    0  502 -0.47444212537E+03 -0.59523949918E+02  0.92722554965E+02  0.48706869468E+03  0.10100000352E+00 0. -1.
</event>
<event>
 5   0  0.1210275E-03  0.1419100E+04  0.7818609E-02  0.8940108E-01
       -1   -1    0    0    0  501  0.00000000000E+00  0.00000000000E+00  0.65981608804E+03  0.65981608805E+03  0.50400001928E-02 0.  1.
        1   -1    0    0  501    0  0.00000000000E+00  0.00000000000E+00 -0.76303303770E+03  0.76303303772E+03  0.50400001928E-02 0. -1.
    10030    2    1    2    0    0  0.00000000000E+00  0.00000000000E+00 -0.10321694967E+03  0.14228491258E+04  0.14191003826E+04 0.  0.
        1    1    3    3  502    0 -0.94681548731E+02  0.23585990221E+03  0.61261189434E+03  0.66324039552E+03  0.50400001928E-02 0.  1.
       -1    1    3    3    0  502  0.94681548731E+02 -0.23585990221E+03 -0.71582884401E+03  0.75960873025E+03  0.50400001928E-02 0. -1.
</event>
<event>
 5   0  0.2195980E-03  0.1394188E+04  0.7818609E-02  0.8958036E-01
       -2   -1    0    0    0  501  0.00000000000E+00  0.00000000000E+00  0.74084128356E+03  0.74084128356E+03  0.25500000920E-02 0. -1.
        2   -1    0    0  501    0  0.00000000000E+00  0.00000000000E+00 -0.65593031955E+03  0.65593031956E+03  0.25500000920E-02 0.  1.
    10030    2    1    2    0    0  0.00000000000E+00  0.00000000000E+00  0.84910964005E+02  0.13967716031E+04  0.13941883085E+04 0.  0.
        4    1    3    3  502    0  0.38295953991E+03  0.10652907968E+03  0.61617019457E+03  0.73326241933E+03  0.12699999809E+01 0. -1.
       -4    1    3    3    0  502 -0.38295953991E+03 -0.10652907968E+03 -0.53125923056E+03  0.66350918380E+03  0.12699999809E+01 0.  1.
</event>
<event>
 5   0  0.2172901E-03  0.1369159E+04  0.7818609E-02  0.8976451E-01
       -2   -1    0    0    0  501  0.00000000000E+00  0.00000000000E+00  0.40014731600E+03  0.40014731601E+03  0.25500000920E-02 0. -1.
        2   -1    0    0  501    0  0.00000000000E+00  0.00000000000E+00 -0.11711908817E+04  0.11711908817E+04  0.25500000920E-02 0.  1.
    10030    2    1    2    0    0  0.00000000000E+00  0.00000000000E+00 -0.77104356565E+03  0.15713381977E+04  0.13691587020E+04 0.  0.
        2    1    3    3  502    0  0.32866994846E+03  0.13452114670E+03  0.28616153017E+03  0.45607926426E+03  0.25500000920E-02 0. -1.
       -2    1    3    3    0  502 -0.32866994846E+03 -0.13452114670E+03 -0.10572050958E+04  0.11152589334E+04  0.25500000920E-02 0.  1.
</event>
<event>
 5   0  0.2083966E-03  0.1435614E+04  0.7818609E-02  0.8928435E-01
       -2   -1    0    0    0  501  0.00000000000E+00  0.00000000000E+00  0.38838266064E+03  0.38838266065E+03  0.25500000920E-02 0. -1.
        2   -1    0    0  501    0  0.00000000000E+00  0.00000000000E+00 -0.13266473289E+04  0.13266473289E+04  0.25500000920E-02 0.  1.
    10030    2    1    2    0    0  0.00000000000E+00  0.00000000000E+00 -0.93826466830E+03  0.17150299896E+04  0.14356139026E+04 0.  0.
        1    1    3    3  502    0  0.54755405589E+03  0.20986735911E+03  0.25432333169E+02  0.58694680861E+03  0.50400001928E-02 0. -1.
       -1    1    3    3    0  502 -0.54755405589E+03 -0.20986735911E+03 -0.96369700147E+03  0.11280831810E+04  0.50400001928E-02 0.  1.
</event>
<event>
 5   0  0.2083966E-03  0.1395977E+04  0.7818609E-02  0.8956736E-01
       -2   -1    0    0    0  501  0.00000000000E+00  0.00000000000E+00  0.34658960595E+03  0.34658960596E+03  0.25500000920E-02 0. -1.
        2   -1    0    0  501    0  0.00000000000E+00  0.00000000000E+00 -0.14056616665E+04  0.14056616665E+04  0.25500000920E-02 0.  1.
    10030    2    1    2    0    0  0.00000000000E+00  0.00000000000E+00 -0.10590720605E+04  0.17522512724E+04  0.13959766805E+04 0.  0.
        1    1    3    3  502    0 -0.58417962631E+03  0.67503927121E+02 -0.10014787965E+04  0.11613709123E+04  0.50400001928E-02 0.  1.
       -1    1    3    3    0  502  0.58417962631E+03 -0.67503927121E+02 -0.57593264038E+02  0.59088036019E+03  0.50400001928E-02 0. -1.
</event>
<event>
 5   0  0.8293000E-04  0.1401875E+04  0.7818609E-02  0.8952463E-01
       -3   -1    0    0    0  501  0.00000000000E+00  0.00000000000E+00  0.48985528246E+03  0.48985529288E+03  0.10100000352E+00 0. -1.
        3   -1    0    0  501    0  0.00000000000E+00  0.00000000000E+00 -0.10029763143E+04  0.10029763194E+04  0.10100000352E+00 0.  1.
    10030    2    1    2    0    0  0.00000000000E+00  0.00000000000E+00 -0.51312103181E+03  0.14928316122E+04  0.14018748265E+04 0.  0.
        5    1    3    3  502    0  0.86126236765E+02  0.32852847742E+02 -0.99647678415E+03  0.10007422793E+04  0.46999998093E+01 0.  1.
       -5    1    3    3    0  502 -0.86126236765E+02 -0.32852847742E+02  0.48335575233E+03  0.49208933292E+03  0.46999998093E+01 0. -1.
</event>
<event>
 5   0  0.2172901E-03  0.1420342E+04  0.7818609E-02  0.8939224E-01
       -2   -1    0    0    0  501  0.00000000000E+00  0.00000000000E+00  0.14734452410E+04  0.14734452410E+04  0.25500000920E-02 0.  1.
        2   -1    0    0  501    0  0.00000000000E+00  0.00000000000E+00 -0.34228812691E+03  0.34228812692E+03  0.25500000920E-02 0. -1.
    10030    2    1    2    0    0  0.00000000000E+00  0.00000000000E+00  0.11311571141E+04  0.18157333679E+04  0.14203419471E+04 0.  0.
        2    1    3    3  502    0 -0.35007781425E+03  0.39776099770E+03  0.11700423878E+04  0.12844327451E+04  0.25500000920E-02 0.  1.
       -2    1    3    3    0  502  0.35007781425E+03 -0.39776099770E+03 -0.38885273725E+02  0.53130062285E+03  0.25500000920E-02 0. -1.
</event>
<event>
 5   0  0.1238683E-03  0.1398942E+04  0.7818609E-02  0.8954585E-01
       -1   -1    0    0    0  501  0.00000000000E+00  0.00000000000E+00  0.68287575866E+03  0.68287575868E+03  0.50400001928E-02 0. -1.
        1   -1    0    0  501    0  0.00000000000E+00  0.00000000000E+00 -0.71646928535E+03  0.71646928537E+03  0.50400001928E-02 0.  1.
    10030    2    1    2    0    0  0.00000000000E+00  0.00000000000E+00 -0.33593526696E+02  0.13993450441E+04  0.13989417526E+04 0.  0.
        2    1    3    3  502    0 -0.21996444966E+03  0.25407741375E+02 -0.68048603745E+03  0.71560544968E+03  0.25500000920E-02 0.  1.
       -2    1    3    3    0  502  0.21996444966E+03 -0.25407741375E+02  0.64689251076E+03  0.68373959437E+03  0.25500000920E-02 0. -1.
</event>
<event>
 5   0  0.1238683E-03  0.1415368E+04  0.7818609E-02  0.8942769E-01
       -1   -1    0    0    0  501  0.00000000000E+00  0.00000000000E+00  0.11248519316E+04  0.11248519316E+04  0.50400001928E-02 0.  1.
        1   -1    0    0  501    0  0.00000000000E+00  0.00000000000E+00 -0.44522873433E+03  0.44522873436E+03  0.50400001928E-02 0. -1.
    10030    2    1    2    0    0  0.00000000000E+00  0.00000000000E+00  0.67962319724E+03  0.15700806659E+04  0.14153676580E+04 0.  0.
        2    1    3    3  502    0 -0.18396051336E+03 -0.35803646523E+03 -0.30586444042E+03  0.50555379222E+03  0.25500000920E-02 0. -1.
       -2    1    3    3    0  502  0.18396051336E+03  0.35803646523E+03  0.98548763765E+03  0.10645268737E+04  0.25500000920E-02 0.  1.
</event>
<event>
 5   0  0.1225690E-03  0.1359329E+04  0.7818609E-02  0.8983796E-01
       -1   -1    0    0    0  501  0.00000000000E+00  0.00000000000E+00  0.35259697068E+03  0.35259697071E+03  0.50400001928E-02 0. -1.
        1   -1    0    0  501    0  0.00000000000E+00  0.00000000000E+00 -0.13101188436E+04  0.13101188436E+04  0.50400001928E-02 0.  1.
    10030    2    1    2    0    0  0.00000000000E+00  0.00000000000E+00 -0.95752187294E+03  0.16627158143E+04  0.13593291515E+04 0.  0.
        4    1    3    3  502    0 -0.59078061381E+03  0.61928888747E+02 -0.88275661022E+03  0.10640102287E+04  0.12699999809E+01 0.  1.
       -4    1    3    3    0  502  0.59078061381E+03 -0.61928888747E+02 -0.74765262727E+02  0.59870558568E+03  0.12699999809E+01 0. -1.
</event>
<event>
 5   0  0.1199720E-03  0.1382541E+04  0.7818609E-02  0.8966554E-01
        1   -1    0    0  501    0  0.00000000000E+00  0.00000000000E+00  0.79855149805E+03  0.79855149807E+03  0.50400001928E-02 0.  1.
       -1   -1    0    0    0  501  0.00000000000E+00  0.00000000000E+00 -0.59840237989E+03  0.59840237991E+03  0.50400001928E-02 0. -1.
    10030    2    1    2    0    0  0.00000000000E+00  0.00000000000E+00  0.20014911816E+03  0.13969538780E+04  0.13825413078E+04 0.  0.
        5    1    3    3  502    0  0.61193129111E+03  0.23368742547E+03  0.32320074207E+03  0.73044543091E+03  0.46999998093E+01 0.  1.
       -5    1    3    3    0  502 -0.61193129111E+03 -0.23368742547E+03 -0.12305162391E+03  0.66650844707E+03  0.46999998093E+01 0. -1.
</event>
<event>
 5   0  0.1199720E-03  0.1402354E+04  0.7818609E-02  0.8952116E-01
       -1   -1    0    0    0  501  0.00000000000E+00  0.00000000000E+00  0.32105255555E+03  0.32105255559E+03  0.50400001928E-02 0. -1.
        1   -1    0    0  501    0  0.00000000000E+00  0.00000000000E+00 -0.15313663413E+04  0.15313663414E+04  0.50400001928E-02 0.  1.
    10030    2    1    2    0    0  0.00000000000E+00  0.00000000000E+00 -0.12103137858E+04  0.18524188969E+04  0.14023538461E+04 0.  0.
        5    1    3    3  502    0 -0.37038487469E+03  0.30237757835E+03 -0.12825918209E+04  0.13688246872E+04  0.46999998093E+01 0.  1.
       -5    1    3    3    0  502  0.37038487469E+03 -0.30237757835E+03  0.72278035143E+02  0.48359420970E+03  0.46999998093E+01 0. -1.
</event>
<event>
 5   0  0.2236184E-03  0.1428555E+04  0.7818609E-02  0.8933404E-01
        2   -1    0    0  501    0  0.00000000000E+00  0.00000000000E+00  0.15312080351E+04  0.15312080351E+04  0.25500000920E-02 0. -1.
       -2   -1    0    0    0  501  0.00000000000E+00  0.00000000000E+00 -0.33319605919E+03  0.33319605920E+03  0.25500000920E-02 0.  1.
    10030    2    1    2    0    0  0.00000000000E+00  0.00000000000E+00  0.11980119759E+04  0.18644040943E+04  0.14285551905E+04 0.  0.
        3    1    3    3  502    0  0.40269098857E+02 -0.57297578997E+03  0.11531265833E+04  0.12882638641E+04  0.10100000352E+00 0. -1.
       -3    1    3    3    0  502 -0.40269098857E+02  0.57297578997E+03  0.44885392639E+02  0.57614023023E+03  0.10100000352E+00 0.  1.
</event>
<event>
 5   0  0.2236184E-03  0.1423502E+04  0.7818609E-02  0.8936980E-01
        2   -1    0    0  501    0  0.00000000000E+00  0.00000000000E+00  0.98463973176E+03  0.98463973176E+03  0.25500000920E-02 0.  1.
       -2   -1    0    0    0  501  0.00000000000E+00  0.00000000000E+00 -0.51449223290E+03  0.51449223291E+03  0.25500000920E-02 0. -1.
    10030    2    1    2    0    0  0.00000000000E+00  0.00000000000E+00  0.47014749886E+03  0.14991319647E+04  0.14235020115E+04 0.  0.
        3    1    3    3  502    0  0.48623955832E+03 -0.25280039554E+03 -0.24320537738E+03  0.59957135843E+03  0.10100000352E+00 0. -1.
       -3    1    3    3    0  502 -0.48623955832E+03  0.25280039554E+03  0.71335287624E+03  0.89956060624E+03  0.10100000352E+00 0.  1.
</event>
<event>
 5   0  0.1199720E-03  0.1365291E+04  0.7818609E-02  0.8979333E-01
        1   -1    0    0  501    0  0.00000000000E+00  0.00000000000E+00  0.18990975379E+04  0.18990975379E+04  0.50400001928E-02 0. -1.
       -1   -1    0    0    0  501  0.00000000000E+00  0.00000000000E+00 -0.24538231975E+03  0.24538231980E+03  0.50400001928E-02 0.  1.
    10030    2    1    2    0    0  0.00000000000E+00  0.00000000000E+00  0.16537152182E+04  0.21444798577E+04  0.13652911182E+04 0.  0.
        5    1    3    3  502    0  0.27525969408E+03  0.45132155979E+03  0.14849194630E+03  0.54911838217E+03  0.46999998093E+01 0.  1.
       -5    1    3    3    0  502 -0.27525969408E+03 -0.45132155979E+03  0.15052232719E+04  0.15953614756E+04  0.46999998093E+01 0. -1.
</event>
<event>
 5   0  0.2083966E-03  0.1414218E+04  0.7818609E-02  0.8943591E-01
        2   -1    0    0  501    0  0.00000000000E+00  0.00000000000E+00  0.55150958202E+03  0.55150958202E+03  0.25500000920E-02 0. -1.
       -2   -1    0    0    0  501  0.00000000000E+00  0.00000000000E+00 -0.90660794251E+03  0.90660794252E+03  0.25500000920E-02 0.  1.
    10030    2    1    2    0    0  0.00000000000E+00  0.00000000000E+00 -0.35509836050E+03  0.14581175245E+04  0.14142177590E+04 0.  0.
        1    1    3    3  502    0  0.41279213403E+03  0.15746128708E+03 -0.74678466237E+03  0.86768585030E+03  0.50400001928E-02 0.  1.
       -1    1    3    3    0  502 -0.41279213403E+03 -0.15746128708E+03  0.39168630187E+03  0.59043167424E+03  0.50400001928E-02 0. -1.
</event>
<event>
 5   0  0.1238683E-03  0.1405118E+04  0.7818609E-02  0.8950122E-01
       -1   -1    0    0    0  501  0.00000000000E+00  0.00000000000E+00  0.23015593967E+03  0.23015593973E+03  0.50400001928E-02 0. -1.
        1   -1    0    0  501    0  0.00000000000E+00  0.00000000000E+00 -0.21445855866E+04  0.21445855866E+04  0.50400001928E-02 0.  1.
    10030    2    1    2    0    0  0.00000000000E+00  0.00000000000E+00 -0.19144296470E+04  0.23747415264E+04  0.14051179466E+04 0.  0.
        2    1    3    3  502    0 -0.50003968984E+03 -0.44959993369E+03 -0.61329864130E+03  0.91011813256E+03  0.25500000920E-02 0. -1.
       -2    1    3    3    0  502  0.50003968984E+03  0.44959993369E+03 -0.13011310057E+04  0.14646233938E+04  0.25500000920E-02 0.  1.
</event>
<event>
 5   0  0.2236184E-03  0.1371393E+04  0.7818609E-02  0.8974790E-01
        2   -1    0    0  501    0  0.00000000000E+00  0.00000000000E+00  0.10614703096E+04  0.10614703096E+04  0.25500000920E-02 0.  1.
       -2   -1    0    0    0  501  0.00000000000E+00  0.00000000000E+00 -0.44295117575E+03  0.44295117575E+03  0.25500000920E-02 0. -1.
    10030    2    1    2    0    0  0.00000000000E+00  0.00000000000E+00  0.61851913382E+03  0.15044214853E+04  0.13713927543E+04 0.  0.
        3    1    3    3  502    0 -0.11380595895E+02 -0.66240533874E+03  0.50324351260E+03  0.83196417827E+03  0.10100000352E+00 0. -1.
       -3    1    3    3    0  502  0.11380595895E+02  0.66240533874E+03  0.11527562123E+03  0.67245730705E+03  0.10100000352E+00 0.  1.
</event>
<event>
 5   0  0.2195980E-03  0.1403720E+04  0.7818609E-02  0.8951130E-01
        2   -1    0    0  501    0  0.00000000000E+00  0.00000000000E+00  0.16492297807E+04  0.16492297807E+04  0.25500000920E-02 0. -1.
       -2   -1    0    0    0  501  0.00000000000E+00  0.00000000000E+00 -0.29868929870E+03  0.29868929871E+03  0.25500000920E-02 0.  1.
    10030    2    1    2    0    0  0.00000000000E+00  0.00000000000E+00  0.13505404820E+04  0.19479190794E+04  0.14037197535E+04 0.  0.
        4    1    3    3  502    0  0.15469085288E+03  0.68155769524E+03  0.76472496547E+03  0.10359807130E+04  0.12699999809E+01 0. -1.
       -4    1    3    3    0  502 -0.15469085288E+03 -0.68155769524E+03  0.58581551654E+03  0.91193836646E+03  0.12699999809E+01 0.  1.
</event>
<event>
 5   0  0.2190704E-03  0.1414632E+04  0.7818609E-02  0.8943295E-01
       -2   -1    0    0    0  501  0.00000000000E+00  0.00000000000E+00  0.43786068707E+03  0.43786068708E+03  0.25500000920E-02 0.  1.
        2   -1    0    0  501    0  0.00000000000E+00  0.00000000000E+00 -0.11425916436E+04  0.11425916436E+04  0.25500000920E-02 0. -1.
    10030    2    1    2    0    0  0.00000000000E+00  0.00000000000E+00 -0.70473095650E+03  0.15804523307E+04  0.14146320541E+04 0.  0.
        5    1    3    3  502    0  0.55652524069E+03 -0.35613003841E+03 -0.70337255308E+02  0.66446848478E+03  0.46999998093E+01 0.  1.
       -5    1    3    3    0  502 -0.55652524069E+03  0.35613003841E+03 -0.63439370119E+03  0.91598384587E+03  0.46999998093E+01 0. -1.
</event>
<event>
 5   0  0.1210275E-03  0.1374040E+04  0.7818609E-02  0.8972827E-01
       -1   -1    0    0    0  501  0.00000000000E+00  0.00000000000E+00  0.15068434921E+04  0.15068434921E+04  0.50400001928E-02 0.  1.
        1   -1    0    0  501    0  0.00000000000E+00  0.00000000000E+00 -0.31323512703E+03  0.31323512707E+03  0.50400001928E-02 0. -1.
    10030    2    1    2    0    0  0.00000000000E+00  0.00000000000E+00  0.11936083651E+04  0.18200786192E+04  0.13740397559E+04 0.  0.
        1    1    3    3  502    0 -0.47822722000E+03  0.44686060844E+03  0.87342639866E+03  0.10914482815E+04  0.50400001928E-02 0.  1.
       -1    1    3    3    0  502  0.47822722000E+03 -0.44686060844E+03  0.32018196643E+03  0.72863033768E+03  0.50400001928E-02 0. -1.
</event>
<event>
 5   0  0.1175374E-03  0.1485387E+04  0.7818609E-02  0.8894229E-01
        1   -1    0    0  501    0  0.00000000000E+00  0.00000000000E+00  0.13885512162E+04  0.13885512162E+04  0.50400001928E-02 0.  1.
       -1   -1    0    0    0  501  0.00000000000E+00  0.00000000000E+00 -0.39724375772E+03  0.39724375775E+03  0.50400001928E-02 0. -1.
    10030    2    1    2    0    0  0.00000000000E+00  0.00000000000E+00  0.99130745844E+03  0.17857949739E+04  0.14853865530E+04 0.  0.
        3    1    3    3  502    0 -0.32577396578E+03  0.52218751526E+03  0.99539462889E+03  0.11703072055E+04  0.10100000352E+00 0.  1.
       -3    1    3    3    0  502  0.32577396578E+03 -0.52218751526E+03 -0.40871704461E+01  0.61548776839E+03  0.10100000352E+00 0. -1.
</event>
<event>
 5   0  0.1225690E-03  0.1071179E+04  0.7818609E-02  0.9233748E-01
       -1   -1    0    0    0  501  0.00000000000E+00  0.00000000000E+00  0.25946486366E+03  0.25946486371E+03  0.50400001928E-02 0. -1.
        1   -1    0    0  501    0  0.00000000000E+00  0.00000000000E+00 -0.11055672281E+04  0.11055672281E+04  0.50400001928E-02 0.  1.
    10030    2    1    2    0    0  0.00000000000E+00  0.00000000000E+00 -0.84610236442E+03  0.13650320918E+04  0.10711785101E+04 0.  0.
        4    1    3    3  502    0  0.46097836187E+03 -0.59379142718E+02 -0.76219301866E+03  0.89272993861E+03  0.12699999809E+01 0.  1.
       -4    1    3    3    0  502 -0.46097836187E+03  0.59379142718E+02 -0.83909345753E+02  0.47230215319E+03  0.12699999809E+01 0. -1.
</event>
<event>
 5   0  0.1199720E-03  0.1397189E+04  0.7818609E-02  0.8955856E-01
       -1   -1    0    0    0  501  0.00000000000E+00  0.00000000000E+00  0.57189604384E+03  0.57189604386E+03  0.50400001928E-02 0. -1.
        1   -1    0    0  501    0  0.00000000000E+00  0.00000000000E+00 -0.85336191435E+03  0.85336191437E+03  0.50400001928E-02 0.  1.
    10030    2    1    2    0    0  0.00000000000E+00  0.00000000000E+00 -0.28146587052E+03  0.14252579582E+04  0.13971890392E+04 0.  0.
        5    1    3    3  502    0  0.23116241254E+03  0.61934058299E+03  0.89620802921E+02  0.66713776465E+03  0.46999998093E+01 0. -1.
       -5    1    3    3    0  502 -0.23116241254E+03 -0.61934058299E+03 -0.37108667344E+03  0.75812019358E+03  0.46999998093E+01 0.  1.
</event>
<event>
 5   0  0.2236184E-03  0.1397328E+04  0.7818609E-02  0.8955755E-01
        2   -1    0    0  501    0  0.00000000000E+00  0.00000000000E+00  0.14600943150E+04  0.14600943150E+04  0.25500000920E-02 0. -1.
       -2   -1    0    0    0  501  0.00000000000E+00  0.00000000000E+00 -0.33431483648E+03  0.33431483649E+03  0.25500000920E-02 0.  1.
    10030    2    1    2    0    0  0.00000000000E+00  0.00000000000E+00  0.11257794785E+04  0.17944091515E+04  0.13973277242E+04 0.  0.
        3    1    3    3  502    0  0.30674755768E+03  0.60794153817E+03  0.76366543955E+03  0.10231675775E+04  0.10100000352E+00 0. -1.
       -3    1    3    3    0  502 -0.30674755768E+03 -0.60794153817E+03  0.36211403899E+03  0.77124157397E+03  0.10100000352E+00 0.  1.
</event>
<event>
 5   0  0.1238683E-03  0.1394874E+04  0.7818609E-02  0.8957537E-01
        1   -1    0    0  501    0  0.00000000000E+00  0.00000000000E+00  0.79068020733E+03  0.79068020734E+03  0.50400001928E-02 0. -1.
       -1   -1    0    0    0  501  0.00000000000E+00  0.00000000000E+00 -0.61519016875E+03  0.61519016877E+03  0.50400001928E-02 0.  1.
    10030    2    1    2    0    0  0.00000000000E+00  0.00000000000E+00  0.17549003858E+03  0.14058703761E+04  0.13948744606E+04 0.  0.
        2    1    3    3  502    0 -0.17035562929E+03  0.55328295907E+03  0.47975274259E+03  0.75186818477E+03  0.25500000920E-02 0. -1.
       -2    1    3    3    0  502  0.17035562929E+03 -0.55328295907E+03 -0.30426270402E+03  0.65400219135E+03  0.25500000920E-02 0.  1.
</event>
<event>
 5   0  0.1225690E-03  0.1419704E+04  0.7818609E-02  0.8939678E-01
        1   -1    0    0  501    0  0.00000000000E+00  0.00000000000E+00  0.90713250679E+03  0.90713250681E+03  0.50400001928E-02 0. -1.
       -1   -1    0    0    0  501  0.00000000000E+00  0.00000000000E+00 -0.55547557510E+03  0.55547557512E+03  0.50400001928E-02 0.  1.
    10030    2    1    2    0    0  0.00000000000E+00  0.00000000000E+00  0.35165693170E+03  0.14626080819E+04  0.14197041254E+04 0.  0.
        4    1    3    3  502    0  0.50489321501E+03  0.21400137984E+03  0.64019917629E+03  0.84295334827E+03  0.12699999809E+01 0. -1.
       -4    1    3    3    0  502 -0.50489321501E+03 -0.21400137984E+03 -0.28854224459E+03  0.61965473366E+03  0.12699999809E+01 0.  1.
</event>
<event>
 5   0  0.1175374E-03  0.1427075E+04  0.7818609E-02  0.8934450E-01
        1   -1    0    0  501    0  0.00000000000E+00  0.00000000000E+00  0.19136896951E+04  0.19136896951E+04  0.50400001928E-02 0.  1.
       -1   -1    0    0    0  501  0.00000000000E+00  0.00000000000E+00 -0.26604928263E+03  0.26604928268E+03  0.50400001928E-02 0. -1.
    10030    2    1    2    0    0  0.00000000000E+00  0.00000000000E+00  0.16476404125E+04  0.21797389778E+04  0.14270750094E+04 0.  0.
        3    1    3    3  502    0 -0.45704640081E+02  0.83610518323E+02 -0.25628750333E+03  0.27342810292E+03  0.10100000352E+00 0. -1.
       -3    1    3    3    0  502  0.45704640081E+02 -0.83610518323E+02  0.19039279158E+04  0.19063108749E+04  0.10100000352E+00 0.  1.
</event>
<event>
 5   0  0.1225690E-03  0.1397368E+04  0.7818609E-02  0.8955726E-01
        1   -1    0    0  501    0  0.00000000000E+00  0.00000000000E+00  0.22667619791E+04  0.22667619791E+04  0.50400001928E-02 0. -1.
       -1   -1    0    0    0  501  0.00000000000E+00  0.00000000000E+00 -0.21535549737E+03  0.21535549743E+03  0.50400001928E-02 0.  1.
    10030    2    1    2    0    0  0.00000000000E+00  0.00000000000E+00  0.20514064817E+04  0.24821174765E+04  0.13973684604E+04 0.  0.
        4    1    3    3  502    0 -0.45354017474E+03 -0.43965290255E+03  0.15561084897E+04  0.16794250830E+04  0.12699999809E+01 0. -1.
       -4    1    3    3    0  502  0.45354017474E+03  0.43965290255E+03  0.49529799204E+03  0.80269239354E+03  0.12699999809E+01 0.  1.
</event>
<event>
 5   0  0.2172901E-03  0.1400959E+04  0.7818609E-02  0.8953125E-01
       -2   -1    0    0    0  501  0.00000000000E+00  0.00000000000E+00  0.33527016430E+03  0.33527016431E+03  0.25500000920E-02 0.  1.
        2   -1    0    0  501    0  0.00000000000E+00  0.00000000000E+00 -0.14635100082E+04  0.14635100082E+04  0.25500000920E-02 0. -1.
    10030    2    1    2    0    0  0.00000000000E+00  0.00000000000E+00 -0.11282398439E+04  0.17987801725E+04  0.14009585874E+04 0.  0.
        2    1    3    3  502    0 -0.96056113946E+02  0.58218974556E+03 -0.79434941397E+02  0.59538356274E+03  0.25500000920E-02 0.  1.
       -2    1    3    3    0  502  0.96056113946E+02 -0.58218974556E+03 -0.10488049025E+04  0.12033966097E+04  0.25500000920E-02 0. -1.
</event>
<event>
 5   0  0.2190704E-03  0.1377920E+04  0.7818609E-02  0.8969958E-01
       -2   -1    0    0    0  501  0.00000000000E+00  0.00000000000E+00  0.51677746601E+03  0.51677746601E+03  0.25500000920E-02 0. -1.
        2   -1    0    0  501    0  0.00000000000E+00  0.00000000000E+00 -0.91851057716E+03  0.91851057716E+03  0.25500000920E-02 0.  1.
    10030    2    1    2    0    0  0.00000000000E+00  0.00000000000E+00 -0.40173311115E+03  0.14352880432E+04  0.13779195457E+04 0.  0.
        5    1    3    3  502    0 -0.23433344878E+03  0.28580738933E+03  0.40475699283E+03  0.54813168332E+03  0.46999998093E+01 0. -1.
       -5    1    3    3    0  502  0.23433344878E+03 -0.28580738933E+03 -0.80649010399E+03  0.88715635986E+03  0.46999998093E+01 0.  1.
</event>
<event>
 5   0  0.2236184E-03  0.1400934E+04  0.7818609E-02  0.8953143E-01
       -2   -1    0    0    0  501  0.00000000000E+00  0.00000000000E+00  0.63613241470E+03  0.63613241470E+03  0.25500000920E-02 0.  1.
        2   -1    0    0  501    0  0.00000000000E+00  0.00000000000E+00 -0.77130824025E+03  0.77130824025E+03  0.25500000920E-02 0. -1.
    10030    2    1    2    0    0  0.00000000000E+00  0.00000000000E+00 -0.13517582555E+03  0.14074406550E+04  0.14009342217E+04 0.  0.
        3    1    3    3  502    0 -0.31341827745E+03 -0.21502450132E+03 -0.65869764258E+03  0.76049270039E+03  0.10100000352E+00 0. -1.
       -3    1    3    3    0  502  0.31341827745E+03  0.21502450132E+03  0.52352181703E+03  0.64694795456E+03  0.10100000352E+00 0.  1.
</event>
<event>
 5   0  0.2190704E-03  0.1151738E+04  0.7818609E-02  0.9156181E-01
        2   -1    0    0  501    0  0.00000000000E+00  0.00000000000E+00  0.84763243101E+03  0.84763243101E+03  0.25500000920E-02 0. -1.
       -2   -1    0    0    0  501  0.00000000000E+00  0.00000000000E+00 -0.39123704486E+03  0.39123704487E+03  0.25500000920E-02 0.  1.
    10030    2    1    2    0    0  0.00000000000E+00  0.00000000000E+00  0.45639538615E+03  0.12388694759E+04  0.11517381776E+04 0.  0.
        5    1    3    3  502    0 -0.20674926740E+03 -0.31582737112E+03 -0.23956987165E+03  0.44711072602E+03  0.46999998093E+01 0.  1.
       -5    1    3    3    0  502  0.20674926740E+03  0.31582737112E+03  0.69596525780E+03  0.79175874986E+03  0.46999998093E+01 0. -1.
</event>
<event>
 5   0  0.1225690E-03  0.1416524E+04  0.7818609E-02  0.8941944E-01
       -1   -1    0    0    0  501  0.00000000000E+00  0.00000000000E+00  0.47102439132E+03  0.47102439135E+03  0.50400001928E-02 0.  1.
        1   -1    0    0  501    0  0.00000000000E+00  0.00000000000E+00 -0.10649869885E+04  0.10649869886E+04  0.50400001928E-02 0. -1.
    10030    2    1    2    0    0  0.00000000000E+00  0.00000000000E+00 -0.59396259722E+03  0.15360113799E+04  0.14165236999E+04 0.  0.
        4    1    3    3  502    0  0.43045274661E+03  0.91495302415E+02  0.30478297548E+03  0.53530853951E+03  0.12699999809E+01 0.  1.
       -4    1    3    3    0  502 -0.43045274661E+03 -0.91495302415E+02 -0.89874557270E+03  0.10007028404E+04  0.12699999809E+01 0. -1.
</event>
<event>
 5   0  0.1175374E-03  0.1381461E+04  0.7818609E-02  0.8967348E-01
        1   -1    0    0  501    0  0.00000000000E+00  0.00000000000E+00  0.74057209113E+03  0.74057209115E+03  0.50400001928E-02 0.  1.
       -1   -1    0    0    0  501  0.00000000000E+00  0.00000000000E+00 -0.64424341607E+03  0.64424341609E+03  0.50400001928E-02 0. -1.
    10030    2    1    2    0    0  0.00000000000E+00  0.00000000000E+00  0.96328675059E+02  0.13848155072E+04  0.13814611017E+04 0.  0.
        3    1    3    3  502    0 -0.11492594335E+02 -0.68652308515E+03 -0.27269014032E+02  0.68716056021E+03  0.10100000352E+00 0. -1.
       -3    1    3    3    0  502  0.11492594335E+02  0.68652308515E+03  0.12359768909E+03  0.69765494704E+03  0.10100000352E+00 0.  1.
</event>
<event>
 5   0  0.1175374E-03  0.1283915E+04  0.7818609E-02  0.9042419E-01
       -1   -1    0    0    0  501  0.00000000000E+00  0.00000000000E+00  0.26234786996E+03  0.26234787001E+03  0.50400001928E-02 0.  1.
        1   -1    0    0  501    0  0.00000000000E+00  0.00000000000E+00 -0.15708520108E+04  0.15708520108E+04  0.50400001928E-02 0. -1.
    10030    2    1    2    0    0  0.00000000000E+00  0.00000000000E+00 -0.13085041408E+04  0.18331998808E+04  0.12839153852E+04 0.  0.
        3    1    3    3  502    0  0.28897722340E+03 -0.22532759191E+02  0.16359599918E+03  0.33283512740E+03  0.10100000352E+00 0.  1.
       -3    1    3    3    0  502 -0.28897722340E+03  0.22532759191E+02 -0.14721001400E+04  0.15003647534E+04  0.10100000352E+00 0. -1.
</event>
<event>
 5   0  0.1199720E-03  0.1400347E+04  0.7818609E-02  0.8953567E-01
        1   -1    0    0  501    0  0.00000000000E+00  0.00000000000E+00  0.18087903049E+04  0.18087903049E+04  0.50400001928E-02 0. -1.
       -1   -1    0    0    0  501  0.00000000000E+00  0.00000000000E+00 -0.27103355303E+03  0.27103355308E+03  0.50400001928E-02 0.  1.
    10030    2    1    2    0    0  0.00000000000E+00  0.00000000000E+00  0.15377567518E+04  0.20798238579E+04  0.14003469043E+04 0.  0.
        5    1    3    3  502    0 -0.20618878197E+03 -0.11544279443E+03  0.17477501164E+04  0.17636590975E+04  0.46999998093E+01 0. -1.
       -5    1    3    3    0  502  0.20618878197E+03  0.11544279443E+03 -0.20999336460E+03  0.31616476048E+03  0.46999998093E+01 0.  1.
</event>
<event>
 5   0  0.2172901E-03  0.1375625E+04  0.7818609E-02  0.8971654E-01
        2   -1    0    0  501    0  0.00000000000E+00  0.00000000000E+00  0.10452395743E+04  0.10452395743E+04  0.25500000920E-02 0. -1.
       -2   -1    0    0    0  501  0.00000000000E+00  0.00000000000E+00 -0.45260992311E+03  0.45260992312E+03  0.25500000920E-02 0.  1.
    10030    2    1    2    0    0  0.00000000000E+00  0.00000000000E+00  0.59262965122E+03  0.14978494975E+04  0.13756246630E+04 0.  0.
        2    1    3    3  502    0  0.44360328555E+03 -0.19410399916E+03 -0.23558115713E+03  0.53847815094E+03  0.25500000920E-02 0.  1.
       -2    1    3    3    0  502 -0.44360328555E+03  0.19410399916E+03  0.82821080835E+03  0.95937134651E+03  0.25500000920E-02 0. -1.
</event>
<event>
 5   0  0.2236184E-03  0.1506801E+04  0.7818609E-02  0.8879943E-01
        2   -1    0    0  501    0  0.00000000000E+00  0.00000000000E+00  0.19006016609E+04  0.19006016609E+04  0.25500000920E-02 0. -1.
       -2   -1    0    0    0  501  0.00000000000E+00  0.00000000000E+00 -0.29864891995E+03  0.29864891996E+03  0.25500000920E-02 0.  1.
    10030    2    1    2    0    0  0.00000000000E+00  0.00000000000E+00  0.16019527409E+04  0.21992505808E+04  0.15068014246E+04 0.  0.
        3    1    3    3  502    0  0.68596097465E+03  0.25306136711E+03  0.53571519150E+03  0.90640680209E+03  0.10100000352E+00 0.  1.
       -3    1    3    3    0  502 -0.68596097465E+03 -0.25306136711E+03  0.10662375494E+04  0.12928437788E+04  0.10100000352E+00 0. -1.
</event>
<event>
 5   0  0.2236184E-03  0.1390620E+04  0.7818609E-02  0.8960637E-01
       -2   -1    0    0    0  501  0.00000000000E+00  0.00000000000E+00  0.24713876007E+03  0.24713876008E+03  0.25500000920E-02 0. -1.
        2   -1    0    0  501    0  0.00000000000E+00  0.00000000000E+00 -0.19562113937E+04  0.19562113937E+04  0.25500000920E-02 0.  1.
    10030    2    1    2    0    0  0.00000000000E+00  0.00000000000E+00 -0.17090726336E+04  0.22033501537E+04  0.13906195141E+04 0.  0.
        3    1    3    3  502    0 -0.35767885100E+02  0.69249191071E+03 -0.77326129612E+03  0.10386324808E+04  0.10100000352E+00 0. -1.
       -3    1    3    3    0  502  0.35767885100E+02 -0.69249191071E+03 -0.93581133747E+03  0.11647176729E+04  0.10100000352E+00 0.  1.
</event>
<event>
 5   0  0.1238683E-03  0.1407263E+04  0.7818609E-02  0.8948578E-01
        1   -1    0    0  501    0  0.00000000000E+00  0.00000000000E+00  0.68305558541E+03  0.68305558543E+03  0.50400001928E-02 0. -1.
       -1   -1    0    0    0  501  0.00000000000E+00  0.00000000000E+00 -0.72482688008E+03  0.72482688010E+03  0.50400001928E-02 0.  1.
    10030    2    1    2    0    0  0.00000000000E+00  0.00000000000E+00 -0.41771294676E+02  0.14078824655E+04  0.14072626605E+04 0.  0.
        2    1    3    3  502    0 -0.53638235929E+03 -0.32303416937E+03 -0.34202537293E+03  0.71346931656E+03  0.25500000920E-02 0.  1.
       -2    1    3    3    0  502  0.53638235929E+03  0.32303416937E+03  0.30025407826E+03  0.69441314897E+03  0.25500000920E-02 0. -1.
</event>
<event>
 5   0  0.2195980E-03  0.1542265E+04  0.7818609E-02  0.8856824E-01
       -2   -1    0    0    0  501  0.00000000000E+00  0.00000000000E+00  0.62933215615E+03  0.62933215616E+03  0.25500000920E-02 0. -1.
        2   -1    0    0  501    0  0.00000000000E+00  0.00000000000E+00 -0.94488302067E+03  0.94488302067E+03  0.25500000920E-02 0.  1.
    10030    2    1    2    0    0  0.00000000000E+00  0.00000000000E+00 -0.31555086451E+03  0.15742151768E+04  0.15422649172E+04 0.  0.
        4    1    3    3  502    0  0.11908999857E+03  0.28304093437E+03 -0.87978284852E+03  0.93183371464E+03  0.12699999809E+01 0.  1.
       -4    1    3    3    0  502 -0.11908999857E+03 -0.28304093437E+03  0.56423198401E+03  0.64238146219E+03  0.12699999809E+01 0. -1.
</event>
<event>
 5   0  0.2236184E-03  0.1392085E+04  0.7818609E-02  0.8959568E-01
       -2   -1    0    0    0  501  0.00000000000E+00  0.00000000000E+00  0.30879125967E+03  0.30879125968E+03  0.25500000920E-02 0.  1.
        2   -1    0    0  501    0  0.00000000000E+00  0.00000000000E+00 -0.15689408343E+04  0.15689408343E+04  0.25500000920E-02 0. -1.
    10030    2    1    2    0    0  0.00000000000E+00  0.00000000000E+00 -0.12601495747E+04  0.18777320940E+04  0.13920850787E+04 0.  0.
        3    1    3    3  502    0  0.65489232886E+03  0.21926772854E+03 -0.51315934876E+03  0.86040387412E+03  0.10100000352E+00 0.  1.
       -3    1    3    3    0  502 -0.65489232886E+03 -0.21926772854E+03 -0.74699022589E+03  0.10173282199E+04  0.10100000352E+00 0. -1.
</event>
<event>
 5   0  0.2236184E-03  0.1388373E+04  0.7818609E-02  0.8962278E-01
       -2   -1    0    0    0  501  0.00000000000E+00  0.00000000000E+00  0.43319246454E+03  0.43319246455E+03  0.25500000920E-02 0.  1.
        2   -1    0    0  501    0  0.00000000000E+00  0.00000000000E+00 -0.11124275341E+04  0.11124275341E+04  0.25500000920E-02 0. -1.
    10030    2    1    2    0    0  0.00000000000E+00  0.00000000000E+00 -0.67923506959E+03  0.15456199987E+04  0.13883734730E+04 0.  0.
        3    1    3    3  502    0 -0.54331850745E+02 -0.26569527430E+03 -0.10510150133E+04  0.10854393107E+04  0.10100000352E+00 0. -1.
       -3    1    3    3    0  502  0.54331850745E+02  0.26569527430E+03  0.37177994375E+03  0.46018068795E+03  0.10100000352E+00 0.  1.
</event>
<event>
 5   0  0.2236184E-03  0.1352851E+04  0.7818609E-02  0.8988673E-01
       -2   -1    0    0    0  501  0.00000000000E+00  0.00000000000E+00  0.55005841625E+03  0.55005841626E+03  0.25500000920E-02 0. -1.
        2   -1    0    0  501    0  0.00000000000E+00  0.00000000000E+00 -0.83182337314E+03  0.83182337315E+03  0.25500000920E-02 0.  1.
    10030    2    1    2    0    0  0.00000000000E+00  0.00000000000E+00 -0.28176495689E+03  0.13818817894E+04  0.13528509855E+04 0.  0.
        3    1    3    3  502    0 -0.20503520987E+03  0.64120541007E+03 -0.73376311872E+02  0.67717642349E+03  0.10100000352E+00 0. -1.
       -3    1    3    3    0  502  0.20503520987E+03 -0.64120541007E+03 -0.20838864502E+03  0.70470536592E+03  0.10100000352E+00 0.  1.
</event>
<event>
 5   0  0.2190704E-03  0.1392638E+04  0.7818609E-02  0.8959165E-01
        2   -1    0    0  501    0  0.00000000000E+00  0.00000000000E+00  0.23783893154E+04  0.23783893154E+04  0.25500000920E-02 0.  1.
       -2   -1    0    0    0  501  0.00000000000E+00  0.00000000000E+00 -0.20386075263E+03  0.20386075265E+03  0.25500000920E-02 0. -1.
    10030    2    1    2    0    0  0.00000000000E+00  0.00000000000E+00  0.21745285628E+04  0.25822500681E+04  0.13926381237E+04 0.  0.
        5    1    3    3  502    0  0.68414901490E+03 -0.12580913456E+03  0.10301035309E+04  0.12429896167E+04  0.46999998093E+01 0. -1.
       -5    1    3    3    0  502 -0.68414901490E+03  0.12580913456E+03  0.11444250319E+04  0.13392604513E+04  0.46999998093E+01 0.  1.
</event>
<event>
 5   0  0.1175374E-03  0.1387887E+04  0.7818609E-02  0.8962633E-01
        1   -1    0    0  501    0  0.00000000000E+00  0.00000000000E+00  0.27071780235E+04  0.27071780235E+04  0.50400001928E-02 0. -1.
       -1   -1    0    0    0  501  0.00000000000E+00  0.00000000000E+00 -0.17788177960E+03  0.17788177967E+03  0.50400001928E-02 0.  1.
    10030    2    1    2    0    0  0.00000000000E+00  0.00000000000E+00  0.25292962439E+04  0.28850598032E+04  0.13878870914E+04 0.  0.
        3    1    3    3  502    0  0.64809035686E+03 -0.11523014417E+03  0.17213026435E+04  0.18428732723E+04  0.10100000352E+00 0.  1.
       -3    1    3    3    0  502 -0.64809035686E+03  0.11523014417E+03  0.80799360034E+03  0.10421865309E+04  0.10100000352E+00 0. -1.
</event>
<event>
 5   0  0.8293000E-04  0.1370852E+04  0.7818609E-02  0.8975191E-01
        3   -1    0    0  501    0  0.00000000000E+00  0.00000000000E+00  0.14366683446E+04  0.14366683482E+04  0.10100000352E+00 0. -1.
       -3   -1    0    0    0  501  0.00000000000E+00  0.00000000000E+00 -0.32701290830E+03  0.32701292390E+03  0.10100000352E+00 0.  1.
    10030    2    1    2    0    0  0.00000000000E+00  0.00000000000E+00  0.11096554363E+04  0.17636812721E+04  0.13708524509E+04 0.  0.
        5    1    3    3  502    0  0.15538189154E+02  0.62118468128E+03  0.18266941735E+03  0.64768977884E+03  0.46999998093E+01 0. -1.
       -5    1    3    3    0  502 -0.15538189154E+02 -0.62118468128E+03  0.92698601899E+03  0.11159914932E+04  0.46999998093E+01 0.  1.
</event>
<event>
 5   0  0.1238683E-03  0.1220110E+04  0.7818609E-02  0.9095434E-01
       -1   -1    0    0    0  501  0.00000000000E+00  0.00000000000E+00  0.86906970519E+03  0.86906970521E+03  0.50400001928E-02 0.  1.
        1   -1    0    0  501    0  0.00000000000E+00  0.00000000000E+00 -0.42823641633E+03  0.42823641636E+03  0.50400001928E-02 0. -1.
    10030    2    1    2    0    0  0.00000000000E+00  0.00000000000E+00  0.44083328886E+03  0.12973061216E+04  0.12201103165E+04 0.  0.
        2    1    3    3  502    0  0.19440318089E+03  0.16963780260E+03 -0.36736824832E+03  0.44891982658E+03  0.25500000920E-02 0. -1.
       -2    1    3    3    0  502 -0.19440318089E+03 -0.16963780260E+03  0.80820153718E+03  0.84838629499E+03  0.25500000920E-02 0.  1.
</event>
<event>
 5   0  0.1225690E-03  0.1383092E+04  0.7818609E-02  0.8966150E-01
       -1   -1    0    0    0  501  0.00000000000E+00  0.00000000000E+00  0.40718599527E+03  0.40718599530E+03  0.50400001928E-02 0. -1.
        1   -1    0    0  501    0  0.00000000000E+00  0.00000000000E+00 -0.11744891306E+04  0.11744891306E+04  0.50400001928E-02 0.  1.
    10030    2    1    2    0    0  0.00000000000E+00  0.00000000000E+00 -0.76730313531E+03  0.15816751259E+04  0.13830915018E+04 0.  0.
        4    1    3    3  502    0 -0.16523761152E+03  0.16584882473E+03 -0.11277911752E+04  0.11518349920E+04  0.12699999809E+01 0.  1.
       -4    1    3    3    0  502  0.16523761152E+03 -0.16584882473E+03  0.36048803990E+03  0.42984013393E+03  0.12699999809E+01 0. -1.
</event>
<event>
 5   0  0.2236184E-03  0.1415669E+04  0.7818609E-02  0.8942554E-01
       -2   -1    0    0    0  501  0.00000000000E+00  0.00000000000E+00  0.35924176574E+03  0.35924176575E+03  0.25500000920E-02 0.  1.
        2   -1    0    0  501    0  0.00000000000E+00  0.00000000000E+00 -0.13946861539E+04  0.13946861539E+04  0.25500000920E-02 0. -1.
    10030    2    1    2    0    0  0.00000000000E+00  0.00000000000E+00 -0.10354443881E+04  0.17539279196E+04  0.14156687700E+04 0.  0.
        3    1    3    3  502    0 -0.63878848913E+03  0.29698944798E+03 -0.60334394059E+03  0.92751139449E+03  0.10100000352E+00 0.  1.
       -3    1    3    3    0  502  0.63878848913E+03 -0.29698944798E+03 -0.43210044756E+03  0.82641652515E+03  0.10100000352E+00 0. -1.
</event>
<event>
 5   0  0.2236184E-03  0.1167461E+04  0.7818609E-02  0.9141825E-01
       -2   -1    0    0    0  501  0.00000000000E+00  0.00000000000E+00  0.22327177668E+03  0.22327177669E+03  0.25500000920E-02 0.  1.
        2   -1    0    0  501    0  0.00000000000E+00  0.00000000000E+00 -0.15261270405E+04  0.15261270405E+04  0.25500000920E-02 0. -1.
    10030    2    1    2    0    0  0.00000000000E+00  0.00000000000E+00 -0.13028552638E+04  0.17493988172E+04  0.11674606559E+04 0.  0.
        3    1    3    3  502    0 -0.13090870949E+02 -0.26659124338E+03 -0.14293298538E+04  0.14540378617E+04  0.10100000352E+00 0. -1.
       -3    1    3    3    0  502  0.13090870949E+02  0.26659124338E+03  0.12647458998E+03  0.29536095554E+03  0.10100000352E+00 0.  1.
</event>
<event>
 5   0  0.2083966E-03  0.1381990E+04  0.7818609E-02  0.8966959E-01
        2   -1    0    0  501    0  0.00000000000E+00  0.00000000000E+00  0.16465675205E+04  0.16465675205E+04  0.25500000920E-02 0. -1.
       -2   -1    0    0    0  501  0.00000000000E+00  0.00000000000E+00 -0.28998163025E+03  0.28998163026E+03  0.25500000920E-02 0.  1.
    10030    2    1    2    0    0  0.00000000000E+00  0.00000000000E+00  0.13565858903E+04  0.19365491508E+04  0.13819903530E+04 0.  0.
        1    1    3    3  502    0  0.14317201675E+02 -0.43428884852E+03 -0.74574872166E+02  0.44087775834E+03  0.50400001928E-02 0.  1.
       -1    1    3    3    0  502 -0.14317201675E+02  0.43428884852E+03  0.14311607624E+04  0.14956713925E+04  0.50400001928E-02 0. -1.
</event>
<event>
 5   0  0.1210275E-03  0.1450555E+04  0.7818609E-02  0.8918016E-01
       -1   -1    0    0    0  501  0.00000000000E+00  0.00000000000E+00  0.16492561088E+04  0.16492561088E+04  0.50400001928E-02 0. -1.
        1   -1    0    0  501    0  0.00000000000E+00  0.00000000000E+00 -0.31894842278E+03  0.31894842282E+03  0.50400001928E-02 0.  1.
    10030    2    1    2    0    0  0.00000000000E+00  0.00000000000E+00  0.13303076860E+04  0.19682045316E+04  0.14505552519E+04 0.  0.
        1    1    3    3  502    0  0.29684580978E+03  0.18590659054E+03  0.15268941584E+04  0.15665517757E+04  0.50400001928E-02 0. -1.
       -1    1    3    3    0  502 -0.29684580978E+03 -0.18590659054E+03 -0.19658647234E+03  0.40165275590E+03  0.50400001928E-02 0.  1.
</event>
<event>
 5   0  0.2172901E-03  0.1463642E+04  0.7818609E-02  0.8908997E-01
        2   -1    0    0  501    0  0.00000000000E+00  0.00000000000E+00  0.45690090681E+03  0.45690090681E+03  0.25500000920E-02 0. -1.
       -2   -1    0    0    0  501  0.00000000000E+00  0.00000000000E+00 -0.11721629195E+04  0.11721629195E+04  0.25500000920E-02 0.  1.
    10030    2    1    2    0    0  0.00000000000E+00  0.00000000000E+00 -0.71526201269E+03  0.16290638263E+04  0.14636424438E+04 0.  0.
        2    1    3    3  502    0 -0.46055983097E+03  0.34665762991E+03  0.14418620190E+03  0.59420243277E+03  0.25500000920E-02 0. -1.
       -2    1    3    3    0  502  0.46055983097E+03 -0.34665762991E+03 -0.85944821459E+03  0.10348613935E+04  0.25500000920E-02 0.  1.
</event>
<event>
 5   0  0.2236184E-03  0.1358185E+04  0.7818609E-02  0.8984655E-01
        2   -1    0    0  501    0  0.00000000000E+00  0.00000000000E+00  0.13627539553E+04  0.13627539553E+04  0.25500000920E-02 0. -1.
       -2   -1    0    0    0  501  0.00000000000E+00  0.00000000000E+00 -0.33840797785E+03  0.33840797786E+03  0.25500000920E-02 0.  1.
    10030    2    1    2    0    0  0.00000000000E+00  0.00000000000E+00  0.10243459774E+04  0.17011619331E+04  0.13581852750E+04 0.  0.
        3    1    3    3  502    0 -0.60302033591E+03 -0.31229614674E+03  0.50954825786E+03  0.84900049828E+03  0.10100000352E+00 0. -1.
       -3    1    3    3    0  502  0.60302033591E+03  0.31229614674E+03  0.51479771954E+03  0.85216143484E+03  0.10100000352E+00 0.  1.
</event>
<event>
 5   0  0.1210275E-03  0.1469289E+04  0.7818609E-02  0.8905136E-01
       -1   -1    0    0    0  501  0.00000000000E+00  0.00000000000E+00  0.56909806889E+03  0.56909806891E+03  0.50400001928E-02 0. -1.
        1   -1    0    0  501    0  0.00000000000E+00  0.00000000000E+00 -0.94834682994E+03  0.94834682995E+03  0.50400001928E-02 0.  1.
    10030    2    1    2    0    0  0.00000000000E+00  0.00000000000E+00 -0.37924876105E+03  0.15174448989E+04  0.14692887389E+04 0.  0.
        1    1    3    3  502    0  0.53715618073E+03 -0.26186545072E+02 -0.70650729747E+03  0.88790487049E+03  0.50400001928E-02 0.  1.
       -1    1    3    3    0  502 -0.53715618073E+03  0.26186545072E+02  0.32725853642E+03  0.62954002837E+03  0.50400001928E-02 0. -1.
</event>
<event>
 5   0  0.2195980E-03  0.1389544E+04  0.7818609E-02  0.8961422E-01
       -2   -1    0    0    0  501  0.00000000000E+00  0.00000000000E+00  0.62876807596E+03  0.62876807597E+03  0.25500000920E-02 0. -1.
        2   -1    0    0  501    0  0.00000000000E+00  0.00000000000E+00 -0.76770482907E+03  0.76770482908E+03  0.25500000920E-02 0.  1.
    10030    2    1    2    0    0  0.00000000000E+00  0.00000000000E+00 -0.13893675311E+03  0.13964729050E+04  0.13895442250E+04 0.  0.
        4    1    3    3  502    0 -0.67404969394E+03 -0.16841510580E+03 -0.69663316178E+02  0.69825584730E+03  0.12699999809E+01 0. -1.
       -4    1    3    3    0  502  0.67404969394E+03  0.16841510580E+03 -0.69273436933E+02  0.69821705775E+03  0.12699999809E+01 0.  1.
</event>
<event>
 5   0  0.1199720E-03  0.1428673E+04  0.7818609E-02  0.8933321E-01
       -1   -1    0    0    0  501  0.00000000000E+00  0.00000000000E+00  0.12144558256E+04  0.12144558256E+04  0.50400001928E-02 0.  1.
        1   -1    0    0  501    0  0.00000000000E+00  0.00000000000E+00 -0.42016876627E+03  0.42016876630E+03  0.50400001928E-02 0. -1.
    10030    2    1    2    0    0  0.00000000000E+00  0.00000000000E+00  0.79428705932E+03  0.16346245919E+04  0.14286726790E+04 0.  0.
        5    1    3    3  502    0 -0.71120607287E+03 -0.63503539372E+02  0.42024127217E+03  0.82853581362E+03  0.46999998093E+01 0.  1.
       -5    1    3    3    0  502  0.71120607287E+03  0.63503539372E+02  0.37404578715E+03  0.80608877829E+03  0.46999998093E+01 0. -1.
</event>
<event>
 5   0  0.2190704E-03  0.1408170E+04  0.7818609E-02  0.8947926E-01
        2   -1    0    0  501    0  0.00000000000E+00  0.00000000000E+00  0.36564752186E+03  0.36564752187E+03  0.25500000920E-02 0. -1.
       -2   -1    0    0    0  501  0.00000000000E+00  0.00000000000E+00 -0.13557743949E+04  0.13557743949E+04  0.25500000920E-02 0.  1.
    10030    2    1    2    0    0  0.00000000000E+00  0.00000000000E+00 -0.99012687302E+03  0.17214219167E+04  0.14081698018E+04 0.  0.
        5    1    3    3  502    0  0.38956669927E+01 -0.56034885730E+03  0.26033662939E+02  0.56098650581E+03  0.46999998093E+01 0. -1.
       -5    1    3    3    0  502 -0.38956669927E+01  0.56034885730E+03 -0.10161605360E+04  0.11604354109E+04  0.46999998093E+01 0.  1.
</event>
<event>
 5   0  0.2195980E-03  0.1395987E+04  0.7818609E-02  0.8956729E-01
       -2   -1    0    0    0  501  0.00000000000E+00  0.00000000000E+00  0.34890181756E+03  0.34890181757E+03  0.25500000920E-02 0.  1.
        2   -1    0    0  501    0  0.00000000000E+00  0.00000000000E+00 -0.13963662967E+04  0.13963662967E+04  0.25500000920E-02 0. -1.
    10030    2    1    2    0    0  0.00000000000E+00  0.00000000000E+00 -0.10474644792E+04  0.17452681143E+04  0.13959867319E+04 0.  0.
        4    1    3    3  502    0  0.23285792430E+03  0.29517241884E+03  0.21149350843E+03  0.43137070689E+03  0.12699999809E+01 0.  1.
       -4    1    3    3    0  502 -0.23285792430E+03 -0.29517241884E+03 -0.12589579876E+04  0.13138974074E+04  0.12699999809E+01 0. -1.
</event>
<event>
 5   0  0.2236184E-03  0.1383733E+04  0.7818609E-02  0.8965678E-01
       -2   -1    0    0    0  501  0.00000000000E+00  0.00000000000E+00  0.32964144849E+03  0.32964144850E+03  0.25500000920E-02 0.  1.
        2   -1    0    0  501    0  0.00000000000E+00  0.00000000000E+00 -0.14521209043E+04  0.14521209043E+04  0.25500000920E-02 0. -1.
    10030    2    1    2    0    0  0.00000000000E+00  0.00000000000E+00 -0.11224794558E+04  0.17817623528E+04  0.13837329775E+04 0.  0.
        3    1    3    3  502    0  0.11503227803E+03  0.51243476627E+03 -0.11411929009E+04  0.12562416416E+04  0.10100000352E+00 0. -1.
       -3    1    3    3    0  502 -0.11503227803E+03 -0.51243476627E+03  0.18713445148E+02  0.52552071120E+03  0.10100000352E+00 0.  1.
</event>
<event>
 5   0  0.2236184E-03  0.1374792E+04  0.7818609E-02  0.8972270E-01
       -2   -1    0    0    0  501  0.00000000000E+00  0.00000000000E+00  0.67845028776E+03  0.67845028776E+03  0.25500000920E-02 0. -1.
        2   -1    0    0  501    0  0.00000000000E+00  0.00000000000E+00 -0.69645981574E+03  0.69645981575E+03  0.25500000920E-02 0.  1.
    10030    2    1    2    0    0  0.00000000000E+00  0.00000000000E+00 -0.18009527987E+02  0.13749101035E+04  0.13747921478E+04 0.  0.
        3    1    3    3  502    0  0.59016853560E+03 -0.21948080536E+02  0.34278205604E+03  0.68284710352E+03  0.10100000352E+00 0. -1.
       -3    1    3    3    0  502 -0.59016853560E+03  0.21948080536E+02 -0.36079158403E+03  0.69206299999E+03  0.10100000352E+00 0.  1.
</event>
<event>
 5   0  0.2195980E-03  0.1385593E+04  0.7818609E-02  0.8964313E-01
        2   -1    0    0  501    0  0.00000000000E+00  0.00000000000E+00  0.39417582095E+03  0.39417582096E+03  0.25500000920E-02 0.  1.
       -2   -1    0    0    0  501  0.00000000000E+00  0.00000000000E+00 -0.12176472351E+04  0.12176472351E+04  0.25500000920E-02 0. -1.
    10030    2    1    2    0    0  0.00000000000E+00  0.00000000000E+00 -0.82347141416E+03  0.16118230561E+04  0.13855931561E+04 0.  0.
        4    1    3    3  502    0  0.45426428675E+03  0.27682495782E+03  0.10454966378E+03  0.54214421013E+03  0.12699999809E+01 0.  1.
       -4    1    3    3    0  502 -0.45426428675E+03 -0.27682495782E+03 -0.92802107794E+03  0.10696788460E+04  0.12699999809E+01 0. -1.
</event>
<event>
 5   0  0.2236184E-03  0.1387566E+04  0.7818609E-02  0.8962868E-01
        2   -1    0    0  501    0  0.00000000000E+00  0.00000000000E+00  0.16735226403E+04  0.16735226403E+04  0.25500000920E-02 0. -1.
       -2   -1    0    0    0  501  0.00000000000E+00  0.00000000000E+00 -0.28761797066E+03  0.28761797068E+03  0.25500000920E-02 0.  1.
    10030    2    1    2    0    0  0.00000000000E+00  0.00000000000E+00  0.13859046697E+04  0.19611406110E+04  0.13875664823E+04 0.  0.
        3    1    3    3  502    0 -0.23573380853E+03 -0.44404198679E+03  0.17204077863E+02  0.50303052095E+03  0.10100000352E+00 0.  1.
       -3    1    3    3    0  502  0.23573380853E+03  0.44404198679E+03  0.13687005918E+04  0.14581100901E+04  0.10100000352E+00 0. -1.
</event>
<event>
 5   0  0.8293000E-04  0.1401329E+04  0.7818609E-02  0.8952857E-01
        3   -1    0    0  501    0  0.00000000000E+00  0.00000000000E+00  0.80727681142E+03  0.80727681774E+03  0.10100000352E+00 0. -1.
       -3   -1    0    0    0  501  0.00000000000E+00  0.00000000000E+00 -0.60813148535E+03  0.60813149374E+03  0.10100000352E+00 0.  1.
    10030    2    1    2    0    0  0.00000000000E+00  0.00000000000E+00  0.19914532607E+03  0.14154083115E+04  0.14013285936E+04 0.  0.
        5    1    3    3  502    0 -0.54155988682E+03 -0.27261558595E+03  0.45424459040E+03  0.75760583856E+03  0.46999998093E+01 0. -1.
       -5    1    3    3    0  502  0.54155988682E+03  0.27261558595E+03 -0.25509926433E+03  0.65780247292E+03  0.46999998093E+01 0.  1.
</event>
<event>
 5   0  0.1199720E-03  0.1395001E+04  0.7818609E-02  0.8957445E-01
        1   -1    0    0  501    0  0.00000000000E+00  0.00000000000E+00  0.97986355159E+03  0.97986355161E+03  0.50400001928E-02 0.  1.
       -1   -1    0    0    0  501  0.00000000000E+00  0.00000000000E+00 -0.49650513624E+03  0.49650513627E+03  0.50400001928E-02 0. -1.
    10030    2    1    2    0    0  0.00000000000E+00  0.00000000000E+00  0.48335841535E+03  0.14763686879E+04  0.13950014856E+04 0.  0.
        5    1    3    3  502    0  0.40309363607E+03  0.29133940296E+03  0.75920260076E+03  0.90761985774E+03  0.46999998093E+01 0.  1.
       -5    1    3    3    0  502 -0.40309363607E+03 -0.29133940296E+03 -0.27584418541E+03  0.56874883014E+03  0.46999998093E+01 0. -1.
</event>
<event>
 5   0  0.2083966E-03  0.1416379E+04  0.7818609E-02  0.8942047E-01
        2   -1    0    0  501    0  0.00000000000E+00  0.00000000000E+00  0.86194270046E+03  0.86194270047E+03  0.25500000920E-02 0.  1.
       -2   -1    0    0    0  501  0.00000000000E+00  0.00000000000E+00 -0.58186265937E+03  0.58186265938E+03  0.25500000920E-02 0. -1.
    10030    2    1    2    0    0  0.00000000000E+00  0.00000000000E+00  0.28008004109E+03  0.14438053598E+04  0.14163788645E+04 0.  0.
        1    1    3    3  502    0  0.17819808770E+03 -0.86867709063E+02 -0.55300122542E+03  0.58746141378E+03  0.50400001928E-02 0. -1.
       -1    1    3    3    0  502 -0.17819808770E+03  0.86867709063E+02  0.83308126651E+03  0.85634394607E+03  0.50400001928E-02 0.  1.
</event>
<event>
 5   0  0.1210275E-03  0.1414291E+04  0.7818609E-02  0.8943538E-01
        1   -1    0    0  501    0  0.00000000000E+00  0.00000000000E+00  0.40164722535E+03  0.40164722538E+03  0.50400001928E-02 0. -1.
       -1   -1    0    0    0  501  0.00000000000E+00  0.00000000000E+00 -0.12450104953E+04  0.12450104953E+04  0.50400001928E-02 0.  1.
    10030    2    1    2    0    0  0.00000000000E+00  0.00000000000E+00 -0.84336326991E+03  0.16466577206E+04  0.14142913575E+04 0.  0.
        1    1    3    3  502    0  0.41000146575E+03  0.54884782671E+03 -0.21761399154E+03  0.71881220645E+03  0.50400001928E-02 0. -1.
       -1    1    3    3    0  502 -0.41000146575E+03 -0.54884782671E+03 -0.62574927837E+03  0.92784551419E+03  0.50400001928E-02 0.  1.
</event>
<event>
 5   0  0.2195980E-03  0.1386534E+04  0.7818609E-02  0.8963624E-01
        2   -1    0    0  501    0  0.00000000000E+00  0.00000000000E+00  0.16341176912E+04  0.16341176912E+04  0.25500000920E-02 0. -1.
       -2   -1    0    0    0  501  0.00000000000E+00  0.00000000000E+00 -0.29411549133E+03  0.29411549134E+03  0.25500000920E-02 0.  1.
    10030    2    1    2    0    0  0.00000000000E+00  0.00000000000E+00  0.13400021998E+04  0.19282331825E+04  0.13865342803E+04 0.  0.
        4    1    3    3  502    0 -0.50764954485E+03 -0.18938880206E+03  0.12714489419E+04  0.13820854545E+04  0.12699999809E+01 0. -1.
       -4    1    3    3    0  502  0.50764954485E+03  0.18938880206E+03  0.68553257899E+02  0.54614772800E+03  0.12699999809E+01 0.  1.
</event>
<event>
 5   0  0.2195980E-03  0.1410246E+04  0.7818609E-02  0.8946435E-01
       -2   -1    0    0    0  501  0.00000000000E+00  0.00000000000E+00  0.30335145565E+03  0.30335145567E+03  0.25500000920E-02 0. -1.
        2   -1    0    0  501    0  0.00000000000E+00  0.00000000000E+00 -0.16390182733E+04  0.16390182733E+04  0.25500000920E-02 0.  1.
    10030    2    1    2    0    0  0.00000000000E+00  0.00000000000E+00 -0.13356668177E+04  0.19423697290E+04  0.14102461900E+04 0.  0.
        4    1    3    3  502    0 -0.46893840746E+03  0.23626386950E+03 -0.19650645248E+02  0.52546323067E+03  0.12699999809E+01 0. -1.
       -4    1    3    3    0  502  0.46893840746E+03 -0.23626386950E+03 -0.13160161724E+04  0.14169064983E+04  0.12699999809E+01 0.  1.
</event>
<event>
 5   0  0.8293000E-04  0.1385917E+04  0.7818609E-02  0.8964076E-01
        3   -1    0    0  501    0  0.00000000000E+00  0.00000000000E+00  0.13482943537E+04  0.13482943575E+04  0.10100000352E+00 0. -1.
       -3   -1    0    0    0  501  0.00000000000E+00  0.00000000000E+00 -0.35614724754E+03  0.35614726186E+03  0.10100000352E+00 0.  1.
    10030    2    1    2    0    0  0.00000000000E+00  0.00000000000E+00  0.99214710619E+03  0.17044416194E+04  0.13859167917E+04 0.  0.
        4    1    3    3  502    0 -0.47120321659E+03  0.50806665169E+03  0.50228773497E+03  0.85583805447E+03  0.12699999809E+01 0.  1.
       -4    1    3    3    0  502  0.47120321659E+03 -0.50806665169E+03  0.48985937123E+03  0.84860356490E+03  0.12699999809E+01 0. -1.
</event>
<event>
 5   0  0.2195980E-03  0.1396599E+04  0.7818609E-02  0.8956284E-01
       -2   -1    0    0    0  501  0.00000000000E+00  0.00000000000E+00  0.74126023050E+03  0.74126023051E+03  0.25500000920E-02 0.  1.
        2   -1    0    0  501    0  0.00000000000E+00  0.00000000000E+00 -0.65782863695E+03  0.65782863695E+03  0.25500000920E-02 0. -1.
    10030    2    1    2    0    0  0.00000000000E+00  0.00000000000E+00  0.83431593559E+02  0.13990888675E+04  0.13965990220E+04 0.  0.
        4    1    3    3  502    0 -0.50419420555E+03 -0.20117576556E+03  0.48174494952E+03  0.72578460637E+03  0.12699999809E+01 0.  1.
       -4    1    3    3    0  502  0.50419420555E+03  0.20117576556E+03 -0.39831335596E+03  0.67330426109E+03  0.12699999809E+01 0. -1.
</event>
<event>
 5   0  0.2083966E-03  0.1425557E+04  0.7818609E-02  0.8935524E-01
       -2   -1    0    0    0  501  0.00000000000E+00  0.00000000000E+00  0.43945576519E+03  0.43945576520E+03  0.25500000920E-02 0. -1.
        2   -1    0    0  501    0  0.00000000000E+00  0.00000000000E+00 -0.11560958363E+04  0.11560958363E+04  0.25500000920E-02 0.  1.
    10030    2    1    2    0    0  0.00000000000E+00  0.00000000000E+00 -0.71664007114E+03  0.15955516015E+04  0.14255567059E+04 0.  0.
        1    1    3    3  502    0  0.28386155154E+03  0.25393140975E+03  0.31601596025E+03  0.49489860422E+03  0.50400001928E-02 0. -1.
       -1    1    3    3    0  502 -0.28386155154E+03 -0.25393140975E+03 -0.10326560314E+04  0.11006529973E+04  0.50400001928E-02 0.  1.
</event>
<event>
 5   0  0.1225690E-03  0.1398165E+04  0.7818609E-02  0.8955148E-01
       -1   -1    0    0    0  501  0.00000000000E+00  0.00000000000E+00  0.29360564879E+03  0.29360564884E+03  0.50400001928E-02 0.  1.
        1   -1    0    0  501    0  0.00000000000E+00  0.00000000000E+00 -0.16645341416E+04  0.16645341416E+04  0.50400001928E-02 0. -1.
    10030    2    1    2    0    0  0.00000000000E+00  0.00000000000E+00 -0.13709284928E+04  0.19581397905E+04  0.13981654074E+04 0.  0.
        4    1    3    3  502    0 -0.15429094937E+03 -0.12685317860E+03 -0.16237174876E+04  0.16359576762E+04  0.12699999809E+01 0. -1.
       -4    1    3    3    0  502  0.15429094937E+03  0.12685317860E+03  0.25278899475E+03  0.32218211426E+03  0.12699999809E+01 0.  1.
</event>
<event>
 5   0  0.8293000E-04  0.1383112E+04  0.7818609E-02  0.8966134E-01
       -3   -1    0    0    0  501  0.00000000000E+00  0.00000000000E+00  0.21425582079E+04  0.21425582103E+04  0.10100000352E+00 0.  1.
        3   -1    0    0  501    0  0.00000000000E+00  0.00000000000E+00 -0.22321441239E+03  0.22321443524E+03  0.10100000352E+00 0. -1.
    10030    2    1    2    0    0  0.00000000000E+00  0.00000000000E+00  0.19193437955E+04  0.23657726455E+04  0.13831122893E+04 0.  0.
        4    1    3    3  502    0  0.21861134634E+03 -0.29209998492E+03 -0.45198485065E+02  0.36763818884E+03  0.12699999809E+01 0. -1.
       -4    1    3    3    0  502 -0.21861134634E+03  0.29209998492E+03  0.19645422806E+04  0.19981344567E+04  0.12699999809E+01 0.  1.
</event>
<event>
 5   0  0.1199720E-03  0.1342361E+04  0.7818609E-02  0.8996631E-01
        1   -1    0    0  501    0  0.00000000000E+00  0.00000000000E+00  0.29881102667E+03  0.29881102672E+03  0.50400001928E-02 0. -1.
       -1   -1    0    0    0  501  0.00000000000E+00  0.00000000000E+00 -0.15075854742E+04  0.15075854742E+04  0.50400001928E-02 0.  1.
    10030    2    1    2    0    0  0.00000000000E+00  0.00000000000E+00 -0.12087744475E+04  0.18063965009E+04  0.13423608507E+04 0.  0.
        5    1    3    3  502    0  0.85491655209E+02  0.10865323689E+03 -0.14881934522E+04  0.14946090425E+04  0.46999998093E+01 0.  1.
       -5    1    3    3    0  502 -0.85491655209E+02 -0.10865323689E+03  0.27941900468E+03  0.31178745833E+03  0.46999998093E+01 0. -1.
</event>
<event>
 5   0  0.2195980E-03  0.1407306E+04  0.7818609E-02  0.8948547E-01
       -2   -1    0    0    0  501  0.00000000000E+00  0.00000000000E+00  0.28926396300E+03  0.28926396301E+03  0.25500000920E-02 0.  1.
        2   -1    0    0  501    0  0.00000000000E+00  0.00000000000E+00 -0.17116815893E+04  0.17116815893E+04  0.25500000920E-02 0. -1.
    10030    2    1    2    0    0  0.00000000000E+00  0.00000000000E+00 -0.14224176263E+04  0.20009455523E+04  0.14073063631E+04 0.  0.
        4    1    3    3  502    0 -0.23741206093E+03 -0.39226898602E+03 -0.14701056453E+04  0.15399518386E+04  0.12699999809E+01 0. -1.
       -4    1    3    3    0  502  0.23741206093E+03  0.39226898602E+03  0.47688018919E+02  0.46099371375E+03  0.12699999809E+01 0.  1.
</event>
<event>
 5   0  0.2083966E-03  0.1554612E+04  0.7818609E-02  0.8848927E-01
       -2   -1    0    0    0  501  0.00000000000E+00  0.00000000000E+00  0.33259579525E+03  0.33259579526E+03  0.25500000920E-02 0.  1.
        2   -1    0    0  501    0  0.00000000000E+00  0.00000000000E+00 -0.18166333693E+04  0.18166333693E+04  0.25500000920E-02 0. -1.
    10030    2    1    2    0    0  0.00000000000E+00  0.00000000000E+00 -0.14840375740E+04  0.21492291646E+04  0.15546120032E+04 0.  0.
        1    1    3    3  502    0 -0.63139703221E+03 -0.13776213519E+03 -0.14488089152E+03  0.66229230022E+03  0.50400001928E-02 0.  1.
       -1    1    3    3    0  502  0.63139703221E+03  0.13776213519E+03 -0.13391566825E+04  0.14869368643E+04  0.50400001928E-02 0. -1.
</event>
<event>
 5   0  0.2172901E-03  0.1398126E+04  0.7818609E-02  0.8955176E-01
       -2   -1    0    0    0  501  0.00000000000E+00  0.00000000000E+00  0.34256619209E+03  0.34256619210E+03  0.25500000920E-02 0.  1.
        2   -1    0    0  501    0  0.00000000000E+00  0.00000000000E+00 -0.14265545931E+04  0.14265545931E+04  0.25500000920E-02 0. -1.
    10030    2    1    2    0    0  0.00000000000E+00  0.00000000000E+00 -0.10839884010E+04  0.17691207852E+04  0.13981264246E+04 0.  0.
        2    1    3    3  502    0  0.32724841248E+03 -0.42577436409E+03  0.24332109740E+02  0.53755686598E+03  0.25500000920E-02 0.  1.
       -2    1    3    3    0  502 -0.32724841248E+03  0.42577436409E+03 -0.11083205108E+04  0.12315639192E+04  0.25500000920E-02 0. -1.
</event>
<event>
 5   0  0.2190704E-03  0.1126587E+04  0.7818609E-02  0.9179659E-01
       -2   -1    0    0    0  501  0.00000000000E+00  0.00000000000E+00  0.42783041755E+03  0.42783041756E+03  0.25500000920E-02 0.  1.
        2   -1    0    0  501    0  0.00000000000E+00  0.00000000000E+00 -0.74164760128E+03  0.74164760129E+03  0.25500000920E-02 0. -1.
    10030    2    1    2    0    0  0.00000000000E+00  0.00000000000E+00 -0.31381718373E+03  0.11694780188E+04  0.11265867085E+04 0.  0.
        5    1    3    3  502    0 -0.16954319157E+03  0.31056973449E+02  0.39976116946E+03  0.43536250644E+03  0.46999998093E+01 0.  1.
       -5    1    3    3    0  502  0.16954319157E+03 -0.31056973449E+02 -0.71357835319E+03  0.73411551241E+03  0.46999998093E+01 0. -1.
</event>
<event>
 5   0  0.2172901E-03  0.1429814E+04  0.7818609E-02  0.8932516E-01
       -2   -1    0    0    0  501  0.00000000000E+00  0.00000000000E+00  0.26696031967E+03  0.26696031968E+03  0.25500000920E-02 0. -1.
        2   -1    0    0  501    0  0.00000000000E+00  0.00000000000E+00 -0.19144875086E+04  0.19144875086E+04  0.25500000920E-02 0.  1.
    10030    2    1    2    0    0  0.00000000000E+00  0.00000000000E+00 -0.16475271889E+04  0.21814478282E+04  0.14298142499E+04 0.  0.
        2    1    3    3  502    0 -0.17919848089E+03  0.60139311242E+02  0.22814514697E+03  0.29627527809E+03  0.25500000920E-02 0. -1.
       -2    1    3    3    0  502  0.17919848089E+03 -0.60139311242E+02 -0.18756723359E+04  0.18851725501E+04  0.25500000920E-02 0.  1.
</event>
<event>
 5   0  0.1175374E-03  0.1396338E+04  0.7818609E-02  0.8956474E-01
       -1   -1    0    0    0  501  0.00000000000E+00  0.00000000000E+00  0.23890068903E+04  0.23890068903E+04  0.50400001928E-02 0.  1.
        1   -1    0    0  501    0  0.00000000000E+00  0.00000000000E+00 -0.20403453639E+03  0.20403453646E+03  0.50400001928E-02 0. -1.
    10030    2    1    2    0    0  0.00000000000E+00  0.00000000000E+00  0.21849723539E+04  0.25930414268E+04  0.13963379439E+04 0.  0.
        3    1    3    3  502    0 -0.31585127966E+02  0.83552220016E+01 -0.20261413890E+03  0.20523140482E+03  0.10100000352E+00 0. -1.
       -3    1    3    3    0  502  0.31585127966E+02 -0.83552220016E+01  0.23875864928E+04  0.23878100219E+04  0.10100000352E+00 0.  1.
</event>
<event>
 5   0  0.2083966E-03  0.1432753E+04  0.7818609E-02  0.8930446E-01
       -2   -1    0    0    0  501  0.00000000000E+00  0.00000000000E+00  0.56473312588E+03  0.56473312589E+03  0.25500000920E-02 0. -1.
        2   -1    0    0  501    0  0.00000000000E+00  0.00000000000E+00 -0.90873927658E+03  0.90873927658E+03  0.25500000920E-02 0.  1.
    10030    2    1    2    0    0  0.00000000000E+00  0.00000000000E+00 -0.34400615070E+03  0.14734724025E+04  0.14327528360E+04 0.  0.
        1    1    3    3  502    0 -0.46663843459E+03 -0.54227465067E+02  0.38420332872E+03  0.60688074976E+03  0.50400001928E-02 0. -1.
       -1    1    3    3    0  502  0.46663843459E+03  0.54227465067E+02 -0.72820947942E+03  0.86659165271E+03  0.50400001928E-02 0.  1.
</event>
<event>
 5   0  0.1238683E-03  0.1395780E+04  0.7818609E-02  0.8956879E-01
        1   -1    0    0  501    0  0.00000000000E+00  0.00000000000E+00  0.14415917373E+04  0.14415917373E+04  0.50400001928E-02 0. -1.
       -1   -1    0    0    0  501  0.00000000000E+00  0.00000000000E+00 -0.33785607867E+03  0.33785607871E+03  0.50400001928E-02 0.  1.
    10030    2    1    2    0    0  0.00000000000E+00  0.00000000000E+00  0.11037356586E+04  0.17794478160E+04  0.13957801137E+04 0.  0.
        2    1    3    3  502    0 -0.43127819601E+03  0.54212882294E+03  0.44409745178E+03  0.82287732361E+03  0.25500000920E-02 0.  1.
       -2    1    3    3    0  502  0.43127819601E+03 -0.54212882294E+03  0.65963820685E+03  0.95657049242E+03  0.25500000920E-02 0. -1.
</event>
<event>
 5   0  0.1225690E-03  0.1393281E+04  0.7818609E-02  0.8958697E-01
        1   -1    0    0  501    0  0.00000000000E+00  0.00000000000E+00  0.91794358085E+03  0.91794358087E+03  0.50400001928E-02 0.  1.
       -1   -1    0    0    0  501  0.00000000000E+00  0.00000000000E+00 -0.52869034681E+03  0.52869034683E+03  0.50400001928E-02 0. -1.
    10030    2    1    2    0    0  0.00000000000E+00  0.00000000000E+00  0.38925323405E+03  0.14466339277E+04  0.13932808908E+04 0.  0.
        4    1    3    3  502    0 -0.66553056042E+03 -0.41848550485E+02 -0.14645649221E+02  0.66700699844E+03  0.12699999809E+01 0. -1.
       -4    1    3    3    0  502  0.66553056042E+03  0.41848550485E+02  0.40389888327E+03  0.77962692926E+03  0.12699999809E+01 0.  1.
</event>
<event>
 5   0  0.2236184E-03  0.1377020E+04  0.7818609E-02  0.8970622E-01
       -2   -1    0    0    0  501  0.00000000000E+00  0.00000000000E+00  0.26902228073E+03  0.26902228074E+03  0.25500000920E-02 0. -1.
        2   -1    0    0  501    0  0.00000000000E+00  0.00000000000E+00 -0.17621076712E+04  0.17621076712E+04  0.25500000920E-02 0.  1.
    10030    2    1    2    0    0  0.00000000000E+00  0.00000000000E+00 -0.14930853905E+04  0.20311299520E+04  0.13770202970E+04 0.  0.
        3    1    3    3  502    0  0.28968036136E+03  0.44254614963E+02  0.17244574504E+03  0.34001577594E+03  0.10100000352E+00 0. -1.
       -3    1    3    3    0  502 -0.28968036136E+03 -0.44254614963E+02 -0.16655311355E+04  0.16911141760E+04  0.10100000352E+00 0.  1.
</event>
<event>
 5   0  0.2190704E-03  0.1395618E+04  0.7818609E-02  0.8956997E-01
        2   -1    0    0  501    0  0.00000000000E+00  0.00000000000E+00  0.17237723688E+04  0.17237723688E+04  0.25500000920E-02 0.  1.
       -2   -1    0    0    0  501  0.00000000000E+00  0.00000000000E+00 -0.28248352192E+03  0.28248352193E+03  0.25500000920E-02 0. -1.
    10030    2    1    2    0    0  0.00000000000E+00  0.00000000000E+00  0.14412888469E+04  0.20062558908E+04  0.13956178413E+04 0.  0.
        5    1    3    3  502    0 -0.87328499974E+02  0.67008458050E+03  0.47051423858E+03  0.82343509194E+03  0.46999998093E+01 0.  1.
       -5    1    3    3    0  502  0.87328499974E+02 -0.67008458050E+03  0.97077460834E+03  0.11828207988E+04  0.46999998093E+01 0. -1.
</event>
<event>
 5   0  0.8293000E-04  0.1456310E+04  0.7818609E-02  0.8914037E-01
       -3   -1    0    0    0  501  0.00000000000E+00  0.00000000000E+00  0.72471059099E+03  0.72471059802E+03  0.10100000352E+00 0. -1.
        3   -1    0    0  501    0  0.00000000000E+00  0.00000000000E+00 -0.73161620499E+03  0.73161621196E+03  0.10100000352E+00 0.  1.
    10030    2    1    2    0    0  0.00000000000E+00  0.00000000000E+00 -0.69056140059E+01  0.14563268100E+04  0.14563104374E+04 0.  0.
        4    1    3    3  502    0  0.80006198761E+01 -0.26268380092E+03 -0.68253453203E+03  0.73138347637E+03  0.12699999809E+01 0.  1.
       -4    1    3    3    0  502 -0.80006198761E+01  0.26268380092E+03  0.67562891803E+03  0.72494333362E+03  0.12699999809E+01 0. -1.
</event>
<event>
 5   0  0.2190704E-03  0.1393154E+04  0.7818609E-02  0.8958789E-01
        2   -1    0    0  501    0  0.00000000000E+00  0.00000000000E+00  0.49899643404E+03  0.49899643405E+03  0.25500000920E-02 0.  1.
       -2   -1    0    0    0  501  0.00000000000E+00  0.00000000000E+00 -0.97239094232E+03  0.97239094233E+03  0.25500000920E-02 0. -1.
    10030    2    1    2    0    0  0.00000000000E+00  0.00000000000E+00 -0.47339450828E+03  0.14713873764E+04  0.13931541375E+04 0.  0.
        5    1    3    3  502    0 -0.14962698529E+03 -0.50934746009E+03  0.23959778207E+03  0.58245365223E+03  0.46999998093E+01 0.  1.
       -5    1    3    3    0  502  0.14962698529E+03  0.50934746009E+03 -0.71299229035E+03  0.88893372415E+03  0.46999998093E+01 0. -1.
</event>
<event>
 5   0  0.2083966E-03  0.1392263E+04  0.7818609E-02  0.8959438E-01
        2   -1    0    0  501    0  0.00000000000E+00  0.00000000000E+00  0.22937675746E+04  0.22937675746E+04  0.25500000920E-02 0.  1.
       -2   -1    0    0    0  501  0.00000000000E+00  0.00000000000E+00 -0.21126787818E+03  0.21126787819E+03  0.25500000920E-02 0. -1.
    10030    2    1    2    0    0  0.00000000000E+00  0.00000000000E+00  0.20824996964E+04  0.25050354528E+04  0.13922634931E+04 0.  0.
        1    1    3    3  502    0 -0.44744875112E+02 -0.38390519492E+03  0.20829760408E+04  0.21185312103E+04  0.50400001928E-02 0.  1.
       -1    1    3    3    0  502  0.44744875112E+02  0.38390519492E+03 -0.47634435851E+00  0.38650424249E+03  0.50400001928E-02 0. -1.
</event>
<event>
 5   0  0.1225690E-03  0.1160971E+04  0.7818609E-02  0.9147722E-01
       -1   -1    0    0    0  501  0.00000000000E+00  0.00000000000E+00  0.44920221893E+03  0.44920221896E+03  0.50400001928E-02 0. -1.
        1   -1    0    0  501    0  0.00000000000E+00  0.00000000000E+00 -0.75013749649E+03  0.75013749650E+03  0.50400001928E-02 0.  1.
    10030    2    1    2    0    0  0.00000000000E+00  0.00000000000E+00 -0.30093527756E+03  0.11993397155E+04  0.11609710211E+04 0.  0.
        4    1    3    3  502    0 -0.23441921883E+03 -0.27373907635E+03 -0.62056314552E+03  0.71762502921E+03  0.12699999809E+01 0.  1.
       -4    1    3    3    0  502  0.23441921883E+03  0.27373907635E+03  0.31962786796E+03  0.48171468625E+03  0.12699999809E+01 0. -1.
</event>
<event>
 5   0  0.1199720E-03  0.8763449E+03  0.7818609E-02  0.9455644E-01
       -1   -1    0    0    0  501  0.00000000000E+00  0.00000000000E+00  0.12562028741E+03  0.12562028751E+03  0.50400001928E-02 0. -1.
        1   -1    0    0  501    0  0.00000000000E+00  0.00000000000E+00 -0.15283763677E+04  0.15283763677E+04  0.50400001928E-02 0.  1.
    10030    2    1    2    0    0  0.00000000000E+00  0.00000000000E+00 -0.14027560803E+04  0.16539966552E+04  0.87634486057E+03 0.  0.
        5    1    3    3  502    0 -0.19908904018E+03  0.37664641821E+03 -0.89453761861E+03  0.99081714326E+03  0.46999998093E+01 0.  1.
       -5    1    3    3    0  502  0.19908904018E+03 -0.37664641821E+03 -0.50821846164E+03  0.66317951191E+03  0.46999998093E+01 0. -1.
</event>
<event>
 5   0  0.2190704E-03  0.1367181E+04  0.7818609E-02  0.8977923E-01
        2   -1    0    0  501    0  0.00000000000E+00  0.00000000000E+00  0.11326800941E+04  0.11326800941E+04  0.25500000920E-02 0.  1.
       -2   -1    0    0    0  501  0.00000000000E+00  0.00000000000E+00 -0.41255777907E+03  0.41255777907E+03  0.25500000920E-02 0. -1.
    10030    2    1    2    0    0  0.00000000000E+00  0.00000000000E+00  0.72012231502E+03  0.15452378732E+04  0.13671810180E+04 0.  0.
        5    1    3    3  502    0 -0.17277428525E+03  0.51454139976E+03  0.82971499963E+03  0.99149023007E+03  0.46999998093E+01 0.  1.
       -5    1    3    3    0  502  0.17277428525E+03 -0.51454139976E+03 -0.10959268461E+03  0.55374764309E+03  0.46999998093E+01 0. -1.
</event>
<event>
 5   0  0.2172901E-03  0.1220938E+04  0.7818609E-02  0.9094724E-01
       -2   -1    0    0    0  501  0.00000000000E+00  0.00000000000E+00  0.30379136565E+03  0.30379136566E+03  0.25500000920E-02 0.  1.
        2   -1    0    0  501    0  0.00000000000E+00  0.00000000000E+00 -0.12267380907E+04  0.12267380907E+04  0.25500000920E-02 0. -1.
    10030    2    1    2    0    0  0.00000000000E+00  0.00000000000E+00 -0.92294672506E+03  0.15305294564E+04  0.12209380654E+04 0.  0.
        2    1    3    3  502    0 -0.23408122581E+03 -0.56380066079E+03 -0.46484508412E+03  0.76729795883E+03  0.25500000920E-02 0.  1.
       -2    1    3    3    0  502  0.23408122581E+03  0.56380066079E+03 -0.45810164094E+03  0.76323149753E+03  0.25500000920E-02 0. -1.
</event>
<event>
 5   0  0.2236184E-03  0.1406221E+04  0.7818609E-02  0.8949327E-01
        2   -1    0    0  501    0  0.00000000000E+00  0.00000000000E+00  0.69855158573E+03  0.69855158573E+03  0.25500000920E-02 0.  1.
       -2   -1    0    0    0  501  0.00000000000E+00  0.00000000000E+00 -0.70769954716E+03  0.70769954716E+03  0.25500000920E-02 0. -1.
    10030    2    1    2    0    0  0.00000000000E+00  0.00000000000E+00 -0.91479614308E+01  0.14062511329E+04  0.14062213779E+04 0.  0.
        3    1    3    3  502    0 -0.57731818490E+03  0.23070597171E+03  0.32382769799E+03  0.70098924398E+03  0.10100000352E+00 0. -1.
       -3    1    3    3    0  502  0.57731818490E+03 -0.23070597171E+03 -0.33297565942E+03  0.70526188892E+03  0.10100000352E+00 0.  1.
</event>
<event>
 5   0  0.1210275E-03  0.1427621E+04  0.7818609E-02  0.8934064E-01
       -1   -1    0    0    0  501  0.00000000000E+00  0.00000000000E+00  0.37022909511E+03  0.37022909514E+03  0.50400001928E-02 0. -1.
        1   -1    0    0  501    0  0.00000000000E+00  0.00000000000E+00 -0.13762445086E+04  0.13762445086E+04  0.50400001928E-02 0.  1.
    10030    2    1    2    0    0  0.00000000000E+00  0.00000000000E+00 -0.10060154135E+04  0.17464736038E+04  0.14276214612E+04 0.  0.
        1    1    3    3  502    0 -0.83246907050E+02 -0.61205365501E+03 -0.94066105002E+03  0.11253368097E+04  0.50400001928E-02 0.  1.
       -1    1    3    3    0  502  0.83246907050E+02  0.61205365501E+03 -0.65354363496E+02  0.62113679411E+03  0.50400001928E-02 0. -1.
</event>
<event>
 5   0  0.2236184E-03  0.1447681E+04  0.7818609E-02  0.8920010E-01
       -2   -1    0    0    0  501  0.00000000000E+00  0.00000000000E+00  0.52185396085E+03  0.52185396086E+03  0.25500000920E-02 0.  1.
        2   -1    0    0  501    0  0.00000000000E+00  0.00000000000E+00 -0.10040070201E+04  0.10040070201E+04  0.25500000920E-02 0. -1.
    10030    2    1    2    0    0  0.00000000000E+00  0.00000000000E+00 -0.48215305929E+03  0.15258609810E+04  0.14476809596E+04 0.  0.
        3    1    3    3  502    0  0.27744480955E+03 -0.16128967658E+02 -0.94553368480E+03  0.98553017470E+03  0.10100000352E+00 0. -1.
       -3    1    3    3    0  502 -0.27744480955E+03  0.16128967658E+02  0.46338062551E+03  0.54033080631E+03  0.10100000352E+00 0.  1.
</event>
<event>
 5   0  0.2190704E-03  0.1403424E+04  0.7818609E-02  0.8951344E-01
        2   -1    0    0  501    0  0.00000000000E+00  0.00000000000E+00  0.14832041757E+04  0.14832041757E+04  0.25500000920E-02 0. -1.
       -2   -1    0    0    0  501  0.00000000000E+00  0.00000000000E+00 -0.33198374004E+03  0.33198374005E+03  0.25500000920E-02 0.  1.
    10030    2    1    2    0    0  0.00000000000E+00  0.00000000000E+00  0.11512204356E+04  0.18151879157E+04  0.14034239124E+04 0.  0.
        5    1    3    3  502    0  0.88572999886E+01 -0.65559656092E+03  0.89894013743E+03  0.11126548266E+04  0.46999998093E+01 0.  1.
       -5    1    3    3    0  502 -0.88572999886E+01  0.65559656092E+03  0.25228029819E+03  0.70253308912E+03  0.46999998093E+01 0. -1.
</event>
<event>
 5   0  0.1210275E-03  0.1409818E+04  0.7818609E-02  0.8946742E-01
        1   -1    0    0  501    0  0.00000000000E+00  0.00000000000E+00  0.11897062374E+04  0.11897062374E+04  0.50400001928E-02 0. -1.
       -1   -1    0    0    0  501  0.00000000000E+00  0.00000000000E+00 -0.41766337340E+03  0.41766337343E+03  0.50400001928E-02 0.  1.
    10030    2    1    2    0    0  0.00000000000E+00  0.00000000000E+00  0.77204286396E+03  0.16073696108E+04  0.14098180315E+04 0.  0.
        1    1    3    3  502    0 -0.32441635197E+03 -0.58176590201E+03  0.64899081484E+03  0.92999280209E+03  0.50400001928E-02 0. -1.
       -1    1    3    3    0  502  0.32441635197E+03  0.58176590201E+03  0.12305204912E+03  0.67737680872E+03  0.50400001928E-02 0.  1.
</event>
<event>
 5   0  0.1238683E-03  0.1359929E+04  0.7818609E-02  0.8983346E-01
        1   -1    0    0  501    0  0.00000000000E+00  0.00000000000E+00  0.76558676439E+03  0.76558676441E+03  0.50400001928E-02 0.  1.
       -1   -1    0    0    0  501  0.00000000000E+00  0.00000000000E+00 -0.60391820097E+03  0.60391820099E+03  0.50400001928E-02 0. -1.
    10030    2    1    2    0    0  0.00000000000E+00  0.00000000000E+00  0.16166856342E+03  0.13695049654E+04  0.13599290885E+04 0.  0.
        2    1    3    3  502    0  0.70242994948E+02  0.56442346794E+03 -0.29440705538E+03  0.64045565324E+03  0.25500000920E-02 0. -1.
       -2    1    3    3    0  502 -0.70242994948E+02 -0.56442346794E+03  0.45607561880E+03  0.72904931217E+03  0.25500000920E-02 0.  1.
</event>
<event>
 5   0  0.2195980E-03  0.1382983E+04  0.7818609E-02  0.8966230E-01
        2   -1    0    0  501    0  0.00000000000E+00  0.00000000000E+00  0.12988661725E+04  0.12988661725E+04  0.25500000920E-02 0. -1.
       -2   -1    0    0    0  501  0.00000000000E+00  0.00000000000E+00 -0.36813660721E+03  0.36813660721E+03  0.25500000920E-02 0.  1.
    10030    2    1    2    0    0  0.00000000000E+00  0.00000000000E+00  0.93072956527E+03  0.16670027797E+04  0.13829825537E+04 0.  0.
        4    1    3    3  502    0 -0.20102922475E+03  0.24194302855E+03 -0.27690053163E+03  0.41907600215E+03  0.12699999809E+01 0.  1.
       -4    1    3    3    0  502  0.20102922475E+03 -0.24194302855E+03  0.12076300969E+04  0.12479267775E+04  0.12699999809E+01 0. -1.
</event>
<event>
 5   0  0.2195980E-03  0.1392095E+04  0.7818609E-02  0.8959561E-01
        2   -1    0    0  501    0  0.00000000000E+00  0.00000000000E+00  0.87929531889E+03  0.87929531889E+03  0.25500000920E-02 0.  1.
       -2   -1    0    0    0  501  0.00000000000E+00  0.00000000000E+00 -0.55098888381E+03  0.55098888381E+03  0.25500000920E-02 0. -1.
    10030    2    1    2    0    0  0.00000000000E+00  0.00000000000E+00  0.32830643508E+03  0.14302842027E+04  0.13920947472E+04 0.  0.
        4    1    3    3  502    0  0.20257499367E+03 -0.57220018008E+03  0.51413055845E+03  0.79547565530E+03  0.12699999809E+01 0.  1.
       -4    1    3    3    0  502 -0.20257499367E+03  0.57220018008E+03 -0.18582412337E+03  0.63480854741E+03  0.12699999809E+01 0. -1.
</event>
<event>
 5   0  0.2172901E-03  0.1388501E+04  0.7818609E-02  0.8962184E-01
        2   -1    0    0  501    0  0.00000000000E+00  0.00000000000E+00  0.75766902210E+03  0.75766902210E+03  0.25500000920E-02 0. -1.
       -2   -1    0    0    0  501  0.00000000000E+00  0.00000000000E+00 -0.63614051385E+03  0.63614051386E+03  0.25500000920E-02 0.  1.
    10030    2    1    2    0    0  0.00000000000E+00  0.00000000000E+00  0.12152850825E+03  0.13938095360E+04  0.13885012943E+04 0.  0.
        2    1    3    3  502    0  0.36097402380E+03 -0.54371166954E+03 -0.17690943964E+03  0.67618161413E+03  0.25500000920E-02 0.  1.
       -2    1    3    3    0  502 -0.36097402380E+03  0.54371166954E+03  0.29843794789E+03  0.71762792183E+03  0.25500000920E-02 0. -1.
</event>
<event>
 5   0  0.2083966E-03  0.1313263E+04  0.7818609E-02  0.9019113E-01
        2   -1    0    0  501    0  0.00000000000E+00  0.00000000000E+00  0.11088976405E+04  0.11088976405E+04  0.25500000920E-02 0.  1.
       -2   -1    0    0    0  501  0.00000000000E+00  0.00000000000E+00 -0.38882328292E+03  0.38882328293E+03  0.25500000920E-02 0. -1.
    10030    2    1    2    0    0  0.00000000000E+00  0.00000000000E+00  0.72007435755E+03  0.14977209234E+04  0.13132634480E+04 0.  0.
        1    1    3    3  502    0  0.38153251068E+03 -0.54079737611E+02  0.96638472430E+03  0.10403802719E+04  0.50400001928E-02 0.  1.
       -1    1    3    3    0  502 -0.38153251068E+03  0.54079737611E+02 -0.24631036676E+03  0.45734065151E+03  0.50400001928E-02 0. -1.
</event>
<event>
 5   0  0.2195980E-03  0.1441646E+04  0.7818609E-02  0.8924213E-01
       -2   -1    0    0    0  501  0.00000000000E+00  0.00000000000E+00  0.14198923468E+04  0.14198923468E+04  0.25500000920E-02 0.  1.
        2   -1    0    0  501    0  0.00000000000E+00  0.00000000000E+00 -0.36593329111E+03  0.36593329112E+03  0.25500000920E-02 0. -1.
    10030    2    1    2    0    0  0.00000000000E+00  0.00000000000E+00  0.10539590557E+04  0.17858256380E+04  0.14416461140E+04 0.  0.
        4    1    3    3  502    0 -0.40683639573E+03  0.53226031548E+03  0.19744804196E+03  0.69842983793E+03  0.12699999809E+01 0. -1.
       -4    1    3    3    0  502  0.40683639573E+03 -0.53226031548E+03  0.85651101375E+03  0.10873958000E+04  0.12699999809E+01 0.  1.
</event>
<event>
 5   0  0.2236184E-03  0.1368251E+04  0.7818609E-02  0.8977126E-01
       -2   -1    0    0    0  501  0.00000000000E+00  0.00000000000E+00  0.22212619749E+03  0.22212619751E+03  0.25500000920E-02 0. -1.
        2   -1    0    0  501    0  0.00000000000E+00  0.00000000000E+00 -0.21070347029E+04  0.21070347029E+04  0.25500000920E-02 0.  1.
    10030    2    1    2    0    0  0.00000000000E+00  0.00000000000E+00 -0.18849085054E+04  0.23291609004E+04  0.13682508638E+04 0.  0.
        3    1    3    3  502    0  0.16890148390E+03 -0.65758564668E+03 -0.10856997997E+04  0.12805040645E+04  0.10100000352E+00 0.  1.
       -3    1    3    3    0  502 -0.16890148390E+03  0.65758564668E+03 -0.79920870572E+03  0.10486568359E+04  0.10100000352E+00 0. -1.
</event>
<event>
 5   0  0.1210275E-03  0.1173730E+04  0.7818609E-02  0.9136167E-01
        1   -1    0    0  501    0  0.00000000000E+00  0.00000000000E+00  0.91670293594E+03  0.91670293595E+03  0.50400001928E-02 0. -1.
       -1   -1    0    0    0  501  0.00000000000E+00  0.00000000000E+00 -0.37570552852E+03  0.37570552856E+03  0.50400001928E-02 0.  1.
    10030    2    1    2    0    0  0.00000000000E+00  0.00000000000E+00  0.54099740742E+03  0.12924084645E+04  0.11737297152E+04 0.  0.
        1    1    3    3  502    0 -0.45793557594E+03 -0.16566052826E+03 -0.90125237730E+02  0.49524838298E+03  0.50400001928E-02 0.  1.
       -1    1    3    3    0  502  0.45793557594E+03  0.16566052826E+03  0.63112264515E+03  0.79716008153E+03  0.50400001928E-02 0. -1.
</event>
<event>
 5   0  0.1175374E-03  0.1402404E+04  0.7818609E-02  0.8952080E-01
        1   -1    0    0  501    0  0.00000000000E+00  0.00000000000E+00  0.49026457200E+03  0.49026457202E+03  0.50400001928E-02 0.  1.
       -1   -1    0    0    0  501  0.00000000000E+00  0.00000000000E+00 -0.10028958838E+04  0.10028958838E+04  0.50400001928E-02 0. -1.
    10030    2    1    2    0    0  0.00000000000E+00  0.00000000000E+00 -0.51263131177E+03  0.14931604558E+04  0.14024041090E+04 0.  0.
        3    1    3    3  502    0 -0.66374076527E+03  0.15215478284E+02 -0.49652862304E+03  0.82905005757E+03  0.10100000352E+00 0. -1.
       -3    1    3    3    0  502  0.66374076527E+03 -0.15215478284E+02 -0.16102688725E+02  0.66411039823E+03  0.10100000352E+00 0.  1.
</event>
<event>
 5   0  0.1225690E-03  0.1434516E+04  0.7818609E-02  0.8929206E-01
        1   -1    0    0  501    0  0.00000000000E+00  0.00000000000E+00  0.60140981359E+03  0.60140981361E+03  0.50400001928E-02 0.  1.
       -1   -1    0    0    0  501  0.00000000000E+00  0.00000000000E+00 -0.85542195337E+03  0.85542195339E+03  0.50400001928E-02 0. -1.
    10030    2    1    2    0    0  0.00000000000E+00  0.00000000000E+00 -0.25401213978E+03  0.14568317670E+04  0.14345161659E+04 0.  0.
        4    1    3    3  502    0 -0.22090856204E+03 -0.41118483532E+03 -0.68007314216E+03  0.82484826070E+03  0.12699999809E+01 0. -1.
       -4    1    3    3    0  502  0.22090856204E+03  0.41118483532E+03  0.42606100238E+03  0.63198350630E+03  0.12699999809E+01 0.  1.
</event>
<event>
 5   0  0.1210275E-03  0.1402324E+04  0.7818609E-02  0.8952138E-01
       -1   -1    0    0    0  501  0.00000000000E+00  0.00000000000E+00  0.74563115486E+03  0.74563115488E+03  0.50400001928E-02 0.  1.
        1   -1    0    0  501    0  0.00000000000E+00  0.00000000000E+00 -0.65934481675E+03  0.65934481677E+03  0.50400001928E-02 0. -1.
    10030    2    1    2    0    0  0.00000000000E+00  0.00000000000E+00  0.86286338111E+02  0.14049759716E+04  0.14023238388E+04 0.  0.
        1    1    3    3  502    0 -0.53398390240E+03  0.29227582834E+03 -0.30545749801E+03  0.68107874066E+03  0.50400001928E-02 0. -1.
       -1    1    3    3    0  502  0.53398390240E+03 -0.29227582834E+03  0.39174383613E+03  0.72389723098E+03  0.50400001928E-02 0.  1.
</event>
<event>
 5   0  0.2083966E-03  0.1356157E+04  0.7818609E-02  0.8986181E-01
        2   -1    0    0  501    0  0.00000000000E+00  0.00000000000E+00  0.89591095643E+03  0.89591095643E+03  0.25500000920E-02 0. -1.
       -2   -1    0    0    0  501  0.00000000000E+00  0.00000000000E+00 -0.51320961974E+03  0.51320961975E+03  0.25500000920E-02 0.  1.
    10030    2    1    2    0    0  0.00000000000E+00  0.00000000000E+00  0.38270133669E+03  0.14091205762E+04  0.13561565120E+04 0.  0.
        1    1    3    3  502    0 -0.67516999517E+03 -0.50446133963E+02  0.23010038819E+03  0.71508427719E+03  0.50400001928E-02 0.  1.
       -1    1    3    3    0  502  0.67516999517E+03  0.50446133963E+02  0.15260094849E+03  0.69403629899E+03  0.50400001928E-02 0. -1.
</event>
<event>
 5   0  0.2195980E-03  0.1386939E+04  0.7818609E-02  0.8963328E-01
        2   -1    0    0  501    0  0.00000000000E+00  0.00000000000E+00  0.76904069932E+03  0.76904069933E+03  0.25500000920E-02 0. -1.
       -2   -1    0    0    0  501  0.00000000000E+00  0.00000000000E+00 -0.62532427171E+03  0.62532427172E+03  0.25500000920E-02 0.  1.
    10030    2    1    2    0    0  0.00000000000E+00  0.00000000000E+00  0.14371642761E+03  0.13943649710E+04  0.13869388094E+04 0.  0.
        4    1    3    3  502    0  0.88119484231E+02  0.60381630625E+03  0.40307483725E+03  0.73132080001E+03  0.12699999809E+01 0.  1.
       -4    1    3    3    0  502 -0.88119484231E+02 -0.60381630625E+03 -0.25935840964E+03  0.66304417104E+03  0.12699999809E+01 0. -1.
</event>
<event>
 5   0  0.2172901E-03  0.1412096E+04  0.7818609E-02  0.8945109E-01
        2   -1    0    0  501    0  0.00000000000E+00  0.00000000000E+00  0.16510603518E+04  0.16510603518E+04  0.25500000920E-02 0.  1.
       -2   -1    0    0    0  501  0.00000000000E+00  0.00000000000E+00 -0.30192966492E+03  0.30192966493E+03  0.25500000920E-02 0. -1.
    10030    2    1    2    0    0  0.00000000000E+00  0.00000000000E+00  0.13491306869E+04  0.19529900168E+04  0.14120964539E+04 0.  0.
        2    1    3    3  502    0  0.55438005873E+02  0.13101702017E+03 -0.28190185757E+03  0.31576492740E+03  0.25500000920E-02 0. -1.
       -2    1    3    3    0  502 -0.55438005873E+02 -0.13101702017E+03  0.16310325445E+04  0.16372250894E+04  0.25500000920E-02 0.  1.
</event>
<event>
 5   0  0.1199720E-03  0.1414611E+04  0.7818609E-02  0.8943310E-01
       -1   -1    0    0    0  501  0.00000000000E+00  0.00000000000E+00  0.82712111034E+03  0.82712111036E+03  0.50400001928E-02 0.  1.
        1   -1    0    0  501    0  0.00000000000E+00  0.00000000000E+00 -0.60484634084E+03  0.60484634086E+03  0.50400001928E-02 0. -1.
    10030    2    1    2    0    0  0.00000000000E+00  0.00000000000E+00  0.22227476951E+03  0.14319674512E+04  0.14146111509E+04 0.  0.
        5    1    3    3  502    0 -0.66772169314E+03  0.85317457358E+02  0.33089020829E+03  0.75009449269E+03  0.46999998093E+01 0. -1.
       -5    1    3    3    0  502  0.66772169314E+03 -0.85317457358E+02 -0.10861543879E+03  0.68187295852E+03  0.46999998093E+01 0.  1.
</event>
<event>
 5   0  0.1175374E-03  0.1418826E+04  0.7818609E-02  0.8940303E-01
        1   -1    0    0  501    0  0.00000000000E+00  0.00000000000E+00  0.11247414840E+04  0.11247414840E+04  0.50400001928E-02 0.  1.
       -1   -1    0    0    0  501  0.00000000000E+00  0.00000000000E+00 -0.44745109999E+03  0.44745110002E+03  0.50400001928E-02 0. -1.
    10030    2    1    2    0    0  0.00000000000E+00  0.00000000000E+00  0.67729038398E+03  0.15721925840E+04  0.14188260136E+04 0.  0.
        3    1    3    3  502    0 -0.49952815793E+02 -0.49062618070E+02  0.11209033443E+04  0.11230880382E+04  0.10100000352E+00 0.  1.
       -3    1    3    3    0  502  0.49952815793E+02  0.49062618070E+02 -0.44361296027E+03  0.44910454575E+03  0.10100000352E+00 0. -1.
</event>
<event>
 5   0  0.2083966E-03  0.1439423E+04  0.7818609E-02  0.8925766E-01
        2   -1    0    0  501    0  0.00000000000E+00  0.00000000000E+00  0.13766271050E+04  0.13766271050E+04  0.25500000920E-02 0.  1.
       -2   -1    0    0    0  501  0.00000000000E+00  0.00000000000E+00 -0.37627088476E+03  0.37627088476E+03  0.25500000920E-02 0. -1.
    10030    2    1    2    0    0  0.00000000000E+00  0.00000000000E+00  0.10003562203E+04  0.17528979898E+04  0.14394230772E+04 0.  0.
        1    1    3    3  502    0 -0.30217618677E+02 -0.44804286658E+03 -0.18473867951E+03  0.48557583806E+03  0.50400001928E-02 0. -1.
       -1    1    3    3    0  502  0.30217618677E+02  0.44804286658E+03  0.11850948998E+04  0.12673221517E+04  0.50400001928E-02 0.  1.
</event>
<event>
 5   0  0.1225690E-03  0.1433997E+04  0.7818609E-02  0.8929571E-01
       -1   -1    0    0    0  501  0.00000000000E+00  0.00000000000E+00  0.82257998440E+03  0.82257998442E+03  0.50400001928E-02 0. -1.
        1   -1    0    0  501    0  0.00000000000E+00  0.00000000000E+00 -0.62496871644E+03  0.62496871646E+03  0.50400001928E-02 0.  1.
    10030    2    1    2    0    0  0.00000000000E+00  0.00000000000E+00  0.19761126797E+03  0.14475487009E+04  0.14339968717E+04 0.  0.
        4    1    3    3  502    0 -0.24281777983E+03 -0.18334485021E+01  0.77980791195E+03  0.81674097985E+03  0.12699999809E+01 0. -1.
       -4    1    3    3    0  502  0.24281777983E+03  0.18334485021E+01 -0.58219664398E+03  0.63080772102E+03  0.12699999809E+01 0.  1.
</event>
<event>
 5   0  0.1175374E-03  0.1402699E+04  0.7818609E-02  0.8951867E-01
        1   -1    0    0  501    0  0.00000000000E+00  0.00000000000E+00  0.12517041389E+04  0.12517041389E+04  0.50400001928E-02 0.  1.
       -1   -1    0    0    0  501  0.00000000000E+00  0.00000000000E+00 -0.39297699845E+03  0.39297699849E+03  0.50400001928E-02 0. -1.
    10030    2    1    2    0    0  0.00000000000E+00  0.00000000000E+00  0.85872714045E+03  0.16446811374E+04  0.14026987353E+04 0.  0.
        3    1    3    3  502    0  0.52360215185E+03 -0.38324519424E+03  0.74146951829E+03  0.98529850760E+03  0.10100000352E+00 0.  1.
       -3    1    3    3    0  502 -0.52360215185E+03  0.38324519424E+03  0.11725762217E+03  0.65938262980E+03  0.10100000352E+00 0. -1.
</event>
<event>
 5   0  0.1210275E-03  0.1349518E+04  0.7818609E-02  0.8991193E-01
        1   -1    0    0  501    0  0.00000000000E+00  0.00000000000E+00  0.13523998712E+04  0.13523998712E+04  0.50400001928E-02 0. -1.
       -1   -1    0    0    0  501  0.00000000000E+00  0.00000000000E+00 -0.33666052460E+03  0.33666052464E+03  0.50400001928E-02 0.  1.
    10030    2    1    2    0    0  0.00000000000E+00  0.00000000000E+00  0.10157393466E+04  0.16890603958E+04  0.13495179141E+04 0.  0.
        1    1    3    3  502    0 -0.29556441680E+03  0.45127163551E+03  0.55314582983E+00  0.53944853275E+03  0.50400001928E-02 0.  1.
       -1    1    3    3    0  502  0.29556441680E+03 -0.45127163551E+03  0.10151862007E+04  0.11496118631E+04  0.50400001928E-02 0. -1.
</event>
<event>
 5   0  0.8293000E-04  0.1396962E+04  0.7818609E-02  0.8956021E-01
        3   -1    0    0  501    0  0.00000000000E+00  0.00000000000E+00  0.77871024510E+03  0.77871025165E+03  0.10100000352E+00 0. -1.
       -3   -1    0    0    0  501  0.00000000000E+00  0.00000000000E+00 -0.62651732683E+03  0.62651733497E+03  0.10100000352E+00 0.  1.
    10030    2    1    2    0    0  0.00000000000E+00  0.00000000000E+00  0.15219291827E+03  0.14052275866E+04  0.13969616623E+04 0.  0.
        5    1    3    3  502    0 -0.59609992273E+03 -0.25598445513E+03 -0.18425971968E+03  0.67441596470E+03  0.46999998093E+01 0.  1.
       -5    1    3    3    0  502  0.59609992273E+03  0.25598445513E+03  0.33645263796E+03  0.73081162192E+03  0.46999998093E+01 0. -1.
</event>
<event>
 5   0  0.1199720E-03  0.1382631E+04  0.7818609E-02  0.8966488E-01
       -1   -1    0    0    0  501  0.00000000000E+00  0.00000000000E+00  0.25436853226E+03  0.25436853231E+03  0.50400001928E-02 0. -1.
        1   -1    0    0  501    0  0.00000000000E+00  0.00000000000E+00 -0.18788368139E+04  0.18788368139E+04  0.50400001928E-02 0.  1.
    10030    2    1    2    0    0  0.00000000000E+00  0.00000000000E+00 -0.16244682817E+04  0.21332053463E+04  0.13826307718E+04 0.  0.
        5    1    3    3  502    0 -0.17639099907E+03  0.26768915197E+03  0.13272633180E+03  0.34700091612E+03  0.46999998093E+01 0. -1.
       -5    1    3    3    0  502  0.17639099907E+03 -0.26768915197E+03 -0.17571946135E+04  0.17862044301E+04  0.46999998093E+01 0.  1.
</event>
<event>
 5   0  0.1175374E-03  0.1427888E+04  0.7818609E-02  0.8933876E-01
       -1   -1    0    0    0  501  0.00000000000E+00  0.00000000000E+00  0.31051572143E+03  0.31051572147E+03  0.50400001928E-02 0. -1.
        1   -1    0    0  501    0  0.00000000000E+00  0.00000000000E+00 -0.16415136938E+04  0.16415136938E+04  0.50400001928E-02 0.  1.
    10030    2    1    2    0    0  0.00000000000E+00  0.00000000000E+00 -0.13309979723E+04  0.19520294153E+04  0.14278876831E+04 0.  0.
        3    1    3    3  502    0 -0.25210419603E+03 -0.23171532924E+03 -0.15219332572E+04  0.15599773617E+04  0.10100000352E+00 0.  1.
       -3    1    3    3    0  502  0.25210419603E+03  0.23171532924E+03  0.19093528487E+03  0.39205205353E+03  0.10100000352E+00 0. -1.
</event>
<event>
 5   0  0.2195980E-03  0.1372088E+04  0.7818609E-02  0.8974274E-01
        2   -1    0    0  501    0  0.00000000000E+00  0.00000000000E+00  0.16492005828E+04  0.16492005828E+04  0.25500000920E-02 0.  1.
       -2   -1    0    0    0  501  0.00000000000E+00  0.00000000000E+00 -0.28538475084E+03  0.28538475085E+03  0.25500000920E-02 0. -1.
    10030    2    1    2    0    0  0.00000000000E+00  0.00000000000E+00  0.13638158320E+04  0.19345853337E+04  0.13720884774E+04 0.  0.
        4    1    3    3  502    0  0.10014683022E+02  0.63911769985E+03  0.33059560597E+03  0.71962962399E+03  0.12699999809E+01 0. -1.
       -4    1    3    3    0  502 -0.10014683022E+02 -0.63911769985E+03  0.10332202260E+04  0.12149557097E+04  0.12699999809E+01 0.  1.
</event>
<event>
 5   0  0.2083966E-03  0.1407158E+04  0.7818609E-02  0.8948654E-01
       -2   -1    0    0    0  501  0.00000000000E+00  0.00000000000E+00  0.26588642688E+03  0.26588642689E+03  0.25500000920E-02 0. -1.
        2   -1    0    0  501    0  0.00000000000E+00  0.00000000000E+00 -0.18617844033E+04  0.18617844033E+04  0.25500000920E-02 0.  1.
    10030    2    1    2    0    0  0.00000000000E+00  0.00000000000E+00 -0.15958979764E+04  0.21276708302E+04  0.14071577064E+04 0.  0.
        1    1    3    3  502    0 -0.68152657466E+03 -0.12286002688E+03 -0.98589275985E+03  0.12048060392E+04  0.50400001928E-02 0.  1.
       -1    1    3    3    0  502  0.68152657466E+03  0.12286002688E+03 -0.61000521658E+03  0.92286479100E+03  0.50400001928E-02 0. -1.
</event>
<event>
 5   0  0.1225690E-03  0.9922012E+03  0.7818609E-02  0.9317140E-01
        1   -1    0    0  501    0  0.00000000000E+00  0.00000000000E+00  0.41369216945E+03  0.41369216948E+03  0.50400001928E-02 0. -1.
       -1   -1    0    0    0  501  0.00000000000E+00  0.00000000000E+00 -0.59492497474E+03  0.59492497476E+03  0.50400001928E-02 0.  1.
    10030    2    1    2    0    0  0.00000000000E+00  0.00000000000E+00 -0.18123280529E+03  0.10086171442E+04  0.99220119630E+03 0.  0.
        4    1    3    3  502    0  0.31044017000E+03 -0.22495868223E+03 -0.41068230519E+03  0.56181943412E+03  0.12699999809E+01 0.  1.
       -4    1    3    3    0  502 -0.31044017000E+03  0.22495868223E+03  0.22944949990E+03  0.44679771012E+03  0.12699999809E+01 0. -1.
</event>
<event>
 5   0  0.2190704E-03  0.1445642E+04  0.7818609E-02  0.8921427E-01
        2   -1    0    0  501    0  0.00000000000E+00  0.00000000000E+00  0.15451561860E+04  0.15451561860E+04  0.25500000920E-02 0. -1.
       -2   -1    0    0    0  501  0.00000000000E+00  0.00000000000E+00 -0.33813426327E+03  0.33813426328E+03  0.25500000920E-02 0.  1.
    10030    2    1    2    0    0  0.00000000000E+00  0.00000000000E+00  0.12070219228E+04  0.18832904493E+04  0.14456420699E+04 0.  0.
        5    1    3    3  502    0 -0.33747357060E+03  0.14672395034E+03 -0.20694583312E+03  0.42221439614E+03  0.46999998093E+01 0.  1.
       -5    1    3    3    0  502  0.33747357060E+03 -0.14672395034E+03  0.14139677559E+04  0.14610760532E+04  0.46999998093E+01 0. -1.
</event>
<event>
 5   0  0.1225690E-03  0.1436088E+04  0.7818609E-02  0.8928103E-01
       -1   -1    0    0    0  501  0.00000000000E+00  0.00000000000E+00  0.11382167808E+04  0.11382167808E+04  0.50400001928E-02 0.  1.
        1   -1    0    0  501    0  0.00000000000E+00  0.00000000000E+00 -0.45297796055E+03  0.45297796058E+03  0.50400001928E-02 0. -1.
    10030    2    1    2    0    0  0.00000000000E+00  0.00000000000E+00  0.68523882020E+03  0.15911947413E+04  0.14360879027E+04 0.  0.
        4    1    3    3  502    0  0.61246872391E+02  0.17077416732E+03 -0.42716248518E+03  0.46409524587E+03  0.12699999809E+01 0. -1.
       -4    1    3    3    0  502 -0.61246872391E+02 -0.17077416732E+03  0.11124013054E+04  0.11270994955E+04  0.12699999809E+01 0.  1.
</event>
<event>
 5   0  0.1210275E-03  0.1392528E+04  0.7818609E-02  0.8959245E-01
       -1   -1    0    0    0  501  0.00000000000E+00  0.00000000000E+00  0.20234709068E+03  0.20234709075E+03  0.50400001928E-02 0. -1.
        1   -1    0    0  501    0  0.00000000000E+00  0.00000000000E+00 -0.23958014581E+04  0.23958014581E+04  0.50400001928E-02 0.  1.
    10030    2    1    2    0    0  0.00000000000E+00  0.00000000000E+00 -0.21934543674E+04  0.25981485488E+04  0.13925278525E+04 0.  0.
        1    1    3    3  502    0  0.51890652610E+03 -0.39639694306E+03 -0.15475702212E+04  0.16796928615E+04  0.50400001928E-02 0.  1.
       -1    1    3    3    0  502 -0.51890652610E+03  0.39639694306E+03 -0.64588414615E+03  0.91845568732E+03  0.50400001928E-02 0. -1.
</event>
<event>
 5   0  0.1210275E-03  0.9165419E+03  0.7818609E-02  0.9405136E-01
        1   -1    0    0  501    0  0.00000000000E+00  0.00000000000E+00  0.47523655195E+03  0.47523655198E+03  0.50400001928E-02 0.  1.
       -1   -1    0    0    0  501  0.00000000000E+00  0.00000000000E+00 -0.44191099466E+03  0.44191099468E+03  0.50400001928E-02 0. -1.
    10030    2    1    2    0    0  0.00000000000E+00  0.00000000000E+00  0.33325557299E+02  0.91714754667E+03  0.91654188643E+03 0.  0.
        1    1    3    3  502    0 -0.33790360318E+03 -0.13630482493E+03  0.29479321884E+03  0.46867994649E+03  0.50400001928E-02 0.  1.
       -1    1    3    3    0  502  0.33790360318E+03  0.13630482493E+03 -0.26146766155E+03  0.44846760017E+03  0.50400001928E-02 0. -1.
</event>
<event>
 5   0  0.1175374E-03  0.1424539E+04  0.7818609E-02  0.8936245E-01
        1   -1    0    0  501    0  0.00000000000E+00  0.00000000000E+00  0.70640073710E+03  0.70640073712E+03  0.50400001928E-02 0. -1.
       -1   -1    0    0    0  501  0.00000000000E+00  0.00000000000E+00 -0.71818669781E+03  0.71818669783E+03  0.50400001928E-02 0.  1.
    10030    2    1    2    0    0  0.00000000000E+00  0.00000000000E+00 -0.11785960706E+02  0.14245874349E+04  0.14245386800E+04 0.  0.
        3    1    3    3  502    0 -0.68627934343E+02  0.52971529064E+03  0.46531261972E+03  0.70839531815E+03  0.10100000352E+00 0. -1.
       -3    1    3    3    0  502  0.68627934343E+02 -0.52971529064E+03 -0.47709858043E+03  0.71619211679E+03  0.10100000352E+00 0.  1.
</event>
<event>
 5   0  0.2190704E-03  0.1372448E+04  0.7818609E-02  0.8974007E-01
        2   -1    0    0  501    0  0.00000000000E+00  0.00000000000E+00  0.13727940111E+04  0.13727940111E+04  0.25500000920E-02 0.  1.
       -2   -1    0    0    0  501  0.00000000000E+00  0.00000000000E+00 -0.34302550923E+03  0.34302550924E+03  0.25500000920E-02 0. -1.
    10030    2    1    2    0    0  0.00000000000E+00  0.00000000000E+00  0.10297685019E+04  0.17158195203E+04  0.13724479804E+04 0.  0.
        5    1    3    3  502    0  0.57364669162E+03  0.21905484511E+03  0.89782948699E+03  0.10877386771E+04  0.46999998093E+01 0.  1.
       -5    1    3    3    0  502 -0.57364669162E+03 -0.21905484511E+03  0.13193901487E+03  0.62808084322E+03  0.46999998093E+01 0. -1.
</event>
<event>
 5   0  0.2083966E-03  0.1403584E+04  0.7818609E-02  0.8951229E-01
        2   -1    0    0  501    0  0.00000000000E+00  0.00000000000E+00  0.15198897470E+04  0.15198897470E+04  0.25500000920E-02 0.  1.
       -2   -1    0    0    0  501  0.00000000000E+00  0.00000000000E+00 -0.32404446151E+03  0.32404446152E+03  0.25500000920E-02 0. -1.
    10030    2    1    2    0    0  0.00000000000E+00  0.00000000000E+00  0.11958452855E+04  0.18439342085E+04  0.14035837768E+04 0.  0.
        1    1    3    3  502    0  0.35605903507E+03 -0.79869034771E+02 -0.18961039110E+03  0.41122888955E+03  0.50400001928E-02 0. -1.
       -1    1    3    3    0  502 -0.35605903507E+03  0.79869034771E+02  0.13854556766E+04  0.14327053189E+04  0.50400001928E-02 0.  1.
</event>
<event>
 5   0  0.1225690E-03  0.1384524E+04  0.7818609E-02  0.8965097E-01
       -1   -1    0    0    0  501  0.00000000000E+00  0.00000000000E+00  0.56166871621E+03  0.56166871624E+03  0.50400001928E-02 0.  1.
        1   -1    0    0  501    0  0.00000000000E+00  0.00000000000E+00 -0.85321979409E+03  0.85321979410E+03  0.50400001928E-02 0. -1.
    10030    2    1    2    0    0  0.00000000000E+00  0.00000000000E+00 -0.29155107787E+03  0.14148885103E+04  0.13845242741E+04 0.  0.
        4    1    3    3  502    0  0.77501587498E+02  0.68494111477E+03 -0.80544408765E+02  0.69400276761E+03  0.12699999809E+01 0.  1.
       -4    1    3    3    0  502 -0.77501587498E+02 -0.68494111477E+03 -0.21100666911E+03  0.72088574273E+03  0.12699999809E+01 0. -1.
</event>
<event>
 5   0  0.1175374E-03  0.1423937E+04  0.7818609E-02  0.8936671E-01
        1   -1    0    0  501    0  0.00000000000E+00  0.00000000000E+00  0.11391312475E+04  0.11391312475E+04  0.50400001928E-02 0. -1.
       -1   -1    0    0    0  501  0.00000000000E+00  0.00000000000E+00 -0.44498773619E+03  0.44498773622E+03  0.50400001928E-02 0.  1.
    10030    2    1    2    0    0  0.00000000000E+00  0.00000000000E+00  0.69414351129E+03  0.15841189837E+04  0.14239374074E+04 0.  0.
        3    1    3    3  502    0  0.43356400371E+03 -0.40125841840E+02  0.97374315040E+03  0.10666600028E+04  0.10100000352E+00 0. -1.
       -3    1    3    3    0  502 -0.43356400371E+03  0.40125841840E+02 -0.27959963911E+03  0.51745898088E+03  0.10100000352E+00 0.  1.
</event>
<event>
 5   0  0.2190704E-03  0.1352930E+04  0.7818609E-02  0.8988613E-01
       -2   -1    0    0    0  501  0.00000000000E+00  0.00000000000E+00  0.51517500142E+03  0.51517500143E+03  0.25500000920E-02 0.  1.
        2   -1    0    0  501    0  0.00000000000E+00  0.00000000000E+00 -0.88825135086E+03  0.88825135086E+03  0.25500000920E-02 0. -1.
    10030    2    1    2    0    0  0.00000000000E+00  0.00000000000E+00 -0.37307634943E+03  0.14034263523E+04  0.13529299922E+04 0.  0.
        5    1    3    3  502    0  0.61192471466E+03 -0.73901998745E+02 -0.47563238033E+03  0.77856381437E+03  0.46999998093E+01 0. -1.
       -5    1    3    3    0  502 -0.61192471466E+03  0.73901998745E+02  0.10255603090E+03  0.62486253792E+03  0.46999998093E+01 0.  1.
</event>
<event>
 5   0  0.1175374E-03  0.1394251E+04  0.7818609E-02  0.8957991E-01
       -1   -1    0    0    0  501  0.00000000000E+00  0.00000000000E+00  0.35347355182E+03  0.35347355186E+03  0.50400001928E-02 0.  1.
        1   -1    0    0  501    0  0.00000000000E+00  0.00000000000E+00 -0.13748800897E+04  0.13748800898E+04  0.50400001928E-02 0. -1.
    10030    2    1    2    0    0  0.00000000000E+00  0.00000000000E+00 -0.10214065379E+04  0.17283536416E+04  0.13942506929E+04 0.  0.
        3    1    3    3  502    0 -0.57854427202E+03 -0.33160781522E+03 -0.25876099341E+03  0.71528629214E+03  0.10100000352E+00 0.  1.
       -3    1    3    3    0  502  0.57854427202E+03  0.33160781522E+03 -0.76264554451E+03  0.10130673495E+04  0.10100000352E+00 0. -1.
</event>
<event>
 5   0  0.1210275E-03  0.1383462E+04  0.7818609E-02  0.8965878E-01
        1   -1    0    0  501    0  0.00000000000E+00  0.00000000000E+00  0.72248203045E+03  0.72248203047E+03  0.50400001928E-02 0. -1.
       -1   -1    0    0    0  501  0.00000000000E+00  0.00000000000E+00 -0.66228848228E+03  0.66228848230E+03  0.50400001928E-02 0.  1.
    10030    2    1    2    0    0  0.00000000000E+00  0.00000000000E+00  0.60193548171E+02  0.13847705128E+04  0.13834616402E+04 0.  0.
        1    1    3    3  502    0  0.60336955869E+03  0.70976519649E+02  0.36116494873E+03  0.70677620993E+03  0.50400001928E-02 0. -1.
       -1    1    3    3    0  502 -0.60336955869E+03 -0.70976519649E+02 -0.30097140056E+03  0.67799430284E+03  0.50400001928E-02 0.  1.
</event>
<event>
 5   0  0.2195980E-03  0.1412240E+04  0.7818609E-02  0.8945006E-01
       -2   -1    0    0    0  501  0.00000000000E+00  0.00000000000E+00  0.44859112074E+03  0.44859112075E+03  0.25500000920E-02 0. -1.
        2   -1    0    0  501    0  0.00000000000E+00  0.00000000000E+00 -0.11114923689E+04  0.11114923689E+04  0.25500000920E-02 0.  1.
    10030    2    1    2    0    0  0.00000000000E+00  0.00000000000E+00 -0.66290124819E+03  0.15600834897E+04  0.14122402168E+04 0.  0.
        4    1    3    3  502    0 -0.70071232440E+03  0.48160330863E+02 -0.41177296281E+03  0.81417182758E+03  0.12699999809E+01 0.  1.
       -4    1    3    3    0  502  0.70071232440E+03 -0.48160330863E+02 -0.25112828538E+03  0.74591166209E+03  0.12699999809E+01 0. -1.
</event>
<event>
 5   0  0.2172901E-03  0.1362809E+04  0.7818609E-02  0.8981188E-01
       -2   -1    0    0    0  501  0.00000000000E+00  0.00000000000E+00  0.43234787824E+03  0.43234787825E+03  0.25500000920E-02 0.  1.
        2   -1    0    0  501    0  0.00000000000E+00  0.00000000000E+00 -0.10739319803E+04  0.10739319803E+04  0.25500000920E-02 0. -1.
    10030    2    1    2    0    0  0.00000000000E+00  0.00000000000E+00 -0.64158410210E+03  0.15062798586E+04  0.13628091768E+04 0.  0.
        2    1    3    3  502    0  0.10054802968E+03  0.45261589649E+03 -0.87270121453E+03  0.98821984693E+03  0.25500000920E-02 0. -1.
       -2    1    3    3    0  502 -0.10054802968E+03 -0.45261589649E+03  0.23111711243E+03  0.51806001167E+03  0.25500000920E-02 0.  1.
</event>
<event>
 5   0  0.1238683E-03  0.1178262E+04  0.7818609E-02  0.9132099E-01
       -1   -1    0    0    0  501  0.00000000000E+00  0.00000000000E+00  0.46911746177E+03  0.46911746180E+03  0.50400001928E-02 0.  1.
        1   -1    0    0  501    0  0.00000000000E+00  0.00000000000E+00 -0.73984783190E+03  0.73984783191E+03  0.50400001928E-02 0. -1.
    10030    2    1    2    0    0  0.00000000000E+00  0.00000000000E+00 -0.27073037012E+03  0.12089652937E+04  0.11782623426E+04 0.  0.
        2    1    3    3  502    0  0.42152113589E+03 -0.69795699671E+02 -0.55155026257E+03  0.69768130248E+03  0.25500000920E-02 0. -1.
       -2    1    3    3    0  502 -0.42152113589E+03  0.69795699671E+02  0.28081989244E+03  0.51128399123E+03  0.25500000920E-02 0.  1.
</event>
<event>
 5   0  0.2172901E-03  0.1416259E+04  0.7818609E-02  0.8942133E-01
       -2   -1    0    0    0  501  0.00000000000E+00  0.00000000000E+00  0.17984464356E+03  0.17984464358E+03  0.25500000920E-02 0.  1.
        2   -1    0    0  501    0  0.00000000000E+00  0.00000000000E+00 -0.27882269349E+04  0.27882269349E+04  0.25500000920E-02 0. -1.
    10030    2    1    2    0    0  0.00000000000E+00  0.00000000000E+00 -0.26083822914E+04  0.29680715785E+04  0.14162594103E+04 0.  0.
        2    1    3    3  502    0  0.60174660138E+03  0.21905057869E+03 -0.19376564027E+04  0.20407338051E+04  0.25500000920E-02 0. -1.
       -2    1    3    3    0  502 -0.60174660138E+03 -0.21905057869E+03 -0.67072588867E+03  0.92733777343E+03  0.25500000920E-02 0.  1.
</event>
<event>
 5   0  0.1238683E-03  0.1397771E+04  0.7818609E-02  0.8955434E-01
       -1   -1    0    0    0  501  0.00000000000E+00  0.00000000000E+00  0.21682581943E+04  0.21682581943E+04  0.50400001928E-02 0.  1.
        1   -1    0    0  501    0  0.00000000000E+00  0.00000000000E+00 -0.22526878540E+03  0.22526878545E+03  0.50400001928E-02 0. -1.
    10030    2    1    2    0    0  0.00000000000E+00  0.00000000000E+00  0.19429894089E+04  0.23935269797E+04  0.13977709253E+04 0.  0.
        2    1    3    3  502    0  0.24123678698E+03 -0.60019316233E+03  0.51839438559E+03  0.82895099886E+03  0.25500000920E-02 0. -1.
       -2    1    3    3    0  502 -0.24123678698E+03  0.60019316233E+03  0.14245950233E+04  0.15645759808E+04  0.25500000920E-02 0.  1.
</event>
<event>
 5   0  0.8293000E-04  0.1378272E+04  0.7818609E-02  0.8969698E-01
        3   -1    0    0  501    0  0.00000000000E+00  0.00000000000E+00  0.57349279389E+03  0.57349280278E+03  0.10100000352E+00 0. -1.
       -3   -1    0    0    0  501  0.00000000000E+00  0.00000000000E+00 -0.82809847109E+03  0.82809847725E+03  0.10100000352E+00 0.  1.
    10030    2    1    2    0    0  0.00000000000E+00  0.00000000000E+00 -0.25460567720E+03  0.14015912800E+04  0.13782721304E+04 0.  0.
        4    1    3    3  502    0  0.17039844828E+03 -0.43075427411E+03  0.39154722165E+03  0.60654407550E+03  0.12699999809E+01 0. -1.
       -4    1    3    3    0  502 -0.17039844828E+03  0.43075427411E+03 -0.64615289885E+03  0.79504720453E+03  0.12699999809E+01 0.  1.
</event>
<event>
 5   0  0.1210275E-03  0.1444239E+04  0.7818609E-02  0.8922404E-01
       -1   -1    0    0    0  501  0.00000000000E+00  0.00000000000E+00  0.36495661500E+03  0.36495661503E+03  0.50400001928E-02 0.  1.
        1   -1    0    0  501    0  0.00000000000E+00  0.00000000000E+00 -0.14288181097E+04  0.14288181097E+04  0.50400001928E-02 0. -1.
    10030    2    1    2    0    0  0.00000000000E+00  0.00000000000E+00 -0.10638614947E+04  0.17937747247E+04  0.14442390672E+04 0.  0.
        1    1    3    3  502    0  0.70291016128E+03 -0.25760192689E+02 -0.73491787908E+03  0.10172760547E+04  0.50400001928E-02 0. -1.
       -1    1    3    3    0  502 -0.70291016128E+03  0.25760192689E+02 -0.32894361561E+03  0.77649867008E+03  0.50400001928E-02 0.  1.
</event>
<event>
 5   0  0.2172901E-03  0.1369140E+04  0.7818609E-02  0.8976465E-01
       -2   -1    0    0    0  501  0.00000000000E+00  0.00000000000E+00  0.36610317587E+03  0.36610317587E+03  0.25500000920E-02 0.  1.
        2   -1    0    0  501    0  0.00000000000E+00  0.00000000000E+00 -0.12800655836E+04  0.12800655836E+04  0.25500000920E-02 0. -1.
    10030    2    1    2    0    0  0.00000000000E+00  0.00000000000E+00 -0.91396240774E+03  0.16461687595E+04  0.13691399862E+04 0.  0.
        2    1    3    3  502    0  0.28508790671E+02  0.58962122999E+02  0.36232779712E+03  0.36819928797E+03  0.25500000920E-02 0.  1.
       -2    1    3    3    0  502 -0.28508790671E+02 -0.58962122999E+02 -0.12762902049E+04  0.12779694715E+04  0.25500000920E-02 0. -1.
</event>
<event>
 5   0  0.2195980E-03  0.1394223E+04  0.7818609E-02  0.8958011E-01
       -2   -1    0    0    0  501  0.00000000000E+00  0.00000000000E+00  0.29149006599E+03  0.29149006600E+03  0.25500000920E-02 0.  1.
        2   -1    0    0  501    0  0.00000000000E+00  0.00000000000E+00 -0.16671743552E+04  0.16671743552E+04  0.25500000920E-02 0. -1.
    10030    2    1    2    0    0  0.00000000000E+00  0.00000000000E+00 -0.13756842893E+04  0.19586644212E+04  0.13942234582E+04 0.  0.
        4    1    3    3  502    0 -0.28977047678E+03 -0.34441486617E+03  0.59996880961E+02  0.45408123489E+03  0.12699999809E+01 0.  1.
       -4    1    3    3    0  502  0.28977047678E+03  0.34441486617E+03 -0.14356811702E+04  0.15045831864E+04  0.12699999809E+01 0. -1.
</event>
<event>
 5   0  0.2083966E-03  0.1437582E+04  0.7818609E-02  0.8927055E-01
       -2   -1    0    0    0  501  0.00000000000E+00  0.00000000000E+00  0.23480556750E+03  0.23480556751E+03  0.25500000920E-02 0. -1.
        2   -1    0    0  501    0  0.00000000000E+00  0.00000000000E+00 -0.22003763650E+04  0.22003763650E+04  0.25500000920E-02 0.  1.
    10030    2    1    2    0    0  0.00000000000E+00  0.00000000000E+00 -0.19655707975E+04  0.24351819325E+04  0.14375821662E+04 0.  0.
        1    1    3    3  502    0  0.42659672146E+02  0.61467689692E+03 -0.16098030405E+04  0.17236917835E+04  0.50400001928E-02 0.  1.
       -1    1    3    3    0  502 -0.42659672146E+02 -0.61467689692E+03 -0.35576775703E+03  0.71149014905E+03  0.50400001928E-02 0. -1.
</event>
<event>
 5   0  0.2083966E-03  0.1394720E+04  0.7818609E-02  0.8957650E-01
       -2   -1    0    0    0  501  0.00000000000E+00  0.00000000000E+00  0.52397804034E+03  0.52397804035E+03  0.25500000920E-02 0.  1.
        2   -1    0    0  501    0  0.00000000000E+00  0.00000000000E+00 -0.92811271200E+03  0.92811271200E+03  0.25500000920E-02 0. -1.
    10030    2    1    2    0    0  0.00000000000E+00  0.00000000000E+00 -0.40413467166E+03  0.14520907524E+04  0.13947195848E+04 0.  0.
        1    1    3    3  502    0  0.63929361249E+03 -0.21485477205E+03 -0.38670891353E+03  0.77743339257E+03  0.50400001928E-02 0. -1.
       -1    1    3    3    0  502 -0.63929361249E+03  0.21485477205E+03 -0.17425758125E+02  0.67465735979E+03  0.50400001928E-02 0.  1.
</event>
<event>
 5   0  0.1238683E-03  0.1407537E+04  0.7818609E-02  0.8948381E-01
        1   -1    0    0  501    0  0.00000000000E+00  0.00000000000E+00  0.19119132406E+03  0.19119132413E+03  0.50400001928E-02 0.  1.
       -1   -1    0    0    0  501  0.00000000000E+00  0.00000000000E+00 -0.25905476145E+04  0.25905476145E+04  0.50400001928E-02 0. -1.
    10030    2    1    2    0    0  0.00000000000E+00  0.00000000000E+00 -0.23993562905E+04  0.27817389387E+04  0.14075371804E+04 0.  0.
        2    1    3    3  502    0  0.13243341439E+02 -0.51689708248E+03 -0.25614017571E+03  0.57703186185E+03  0.25500000920E-02 0.  1.
       -2    1    3    3    0  502 -0.13243341439E+02  0.51689708248E+03 -0.21432161148E+04  0.22047070768E+04  0.25500000920E-02 0. -1.
</event>
<event>
 5   0  0.8293000E-04  0.1372666E+04  0.7818609E-02  0.8973845E-01
        4   -1    0    0  501    0  0.00000000000E+00  0.00000000000E+00  0.81465980529E+03  0.81466079521E+03  0.12699999809E+01 0.  1.
       -4   -1    0    0    0  501  0.00000000000E+00  0.00000000000E+00 -0.57821865933E+03  0.57822005404E+03  0.12699999809E+01 0. -1.
    10030    2    1    2    0    0  0.00000000000E+00  0.00000000000E+00  0.23644114597E+03  0.13928808493E+04  0.13726662539E+04 0.  0.
        2    1    3    3  502    0  0.58396515980E+03  0.31102779902E+03 -0.66948421388E+02  0.66500803811E+03  0.25500000920E-02 0.  1.
       -2    1    3    3    0  502 -0.58396515980E+03 -0.31102779902E+03  0.30338956735E+03  0.72787281114E+03  0.25500000920E-02 0. -1.
</event>
<event>
 5   0  0.2083966E-03  0.1401070E+04  0.7818609E-02  0.8953044E-01
       -2   -1    0    0    0  501  0.00000000000E+00  0.00000000000E+00  0.48878501538E+03  0.48878501539E+03  0.25500000920E-02 0. -1.
        2   -1    0    0  501    0  0.00000000000E+00  0.00000000000E+00 -0.10040188336E+04  0.10040188336E+04  0.25500000920E-02 0.  1.
    10030    2    1    2    0    0  0.00000000000E+00  0.00000000000E+00 -0.51523381826E+03  0.14928038490E+04  0.14010701068E+04 0.  0.
        1    1    3    3  502    0  0.14452966903E+03 -0.60617063663E+01  0.47269836166E+03  0.49433724385E+03  0.50400001928E-02 0. -1.
       -1    1    3    3    0  502 -0.14452966903E+03  0.60617063663E+01 -0.98793217992E+03  0.99846660518E+03  0.50400001928E-02 0.  1.
</event>
<event>
 5   0  0.2190704E-03  0.1384730E+04  0.7818609E-02  0.8964947E-01
        2   -1    0    0  501    0  0.00000000000E+00  0.00000000000E+00  0.23209972414E+04  0.23209972414E+04  0.25500000920E-02 0.  1.
       -2   -1    0    0    0  501  0.00000000000E+00  0.00000000000E+00 -0.20653586512E+03  0.20653586514E+03  0.25500000920E-02 0. -1.
    10030    2    1    2    0    0  0.00000000000E+00  0.00000000000E+00  0.21144613762E+04  0.25275331065E+04  0.13847298267E+04 0.  0.
        5    1    3    3  502    0  0.31605542146E+03 -0.40801550641E+03  0.21486512149E+03  0.55906778957E+03  0.46999998093E+01 0. -1.
       -5    1    3    3    0  502 -0.31605542146E+03  0.40801550641E+03  0.18995962548E+04  0.19684653169E+04  0.46999998093E+01 0.  1.
</event>
<event>
 5   0  0.2195980E-03  0.1388665E+04  0.7818609E-02  0.8962064E-01
       -2   -1    0    0    0  501  0.00000000000E+00  0.00000000000E+00  0.41275487920E+03  0.41275487921E+03  0.25500000920E-02 0. -1.
        2   -1    0    0  501    0  0.00000000000E+00  0.00000000000E+00 -0.11680004399E+04  0.11680004399E+04  0.25500000920E-02 0.  1.
    10030    2    1    2    0    0  0.00000000000E+00  0.00000000000E+00 -0.75524556065E+03  0.15807553191E+04  0.13886653743E+04 0.  0.
        4    1    3    3  502    0  0.44470705172E+03  0.43465282385E+03 -0.26012692525E+02  0.62238710800E+03  0.12699999809E+01 0. -1.
       -4    1    3    3    0  502 -0.44470705172E+03 -0.43465282385E+03 -0.72923286812E+03  0.95836821107E+03  0.12699999809E+01 0.  1.
</event>
<event>
 5   0  0.1210275E-03  0.1388574E+04  0.7818609E-02  0.8962131E-01
        1   -1    0    0  501    0  0.00000000000E+00  0.00000000000E+00  0.49543700609E+03  0.49543700612E+03  0.50400001928E-02 0.  1.
       -1   -1    0    0    0  501  0.00000000000E+00  0.00000000000E+00 -0.97294739573E+03  0.97294739575E+03  0.50400001928E-02 0. -1.
    10030    2    1    2    0    0  0.00000000000E+00  0.00000000000E+00 -0.47751038964E+03  0.14683844019E+04  0.13885735772E+04 0.  0.
        1    1    3    3  502    0 -0.62901635942E+03 -0.19461124939E+03 -0.58724162861E+01  0.65846002469E+03  0.50400001928E-02 0.  1.
       -1    1    3    3    0  502  0.62901635942E+03  0.19461124939E+03 -0.47163797336E+03  0.80992437718E+03  0.50400001928E-02 0. -1.
</event>
<event>
 5   0  0.2236184E-03  0.1400336E+04  0.7818609E-02  0.8953575E-01
        2   -1    0    0  501    0  0.00000000000E+00  0.00000000000E+00  0.24485152283E+04  0.24485152283E+04  0.25500000920E-02 0.  1.
       -2   -1    0    0    0  501  0.00000000000E+00  0.00000000000E+00 -0.20021739861E+03  0.20021739863E+03  0.25500000920E-02 0. -1.
    10030    2    1    2    0    0  0.00000000000E+00  0.00000000000E+00  0.22482978296E+04  0.26487326269E+04  0.14003361732E+04 0.  0.
        3    1    3    3  502    0 -0.44644032127E+03  0.47632767702E+03  0.64549040041E+03  0.91807128458E+03  0.10100000352E+00 0. -1.
       -3    1    3    3    0  502  0.44644032127E+03 -0.47632767702E+03  0.16028074292E+04  0.17306613423E+04  0.10100000352E+00 0.  1.
</event>
<event>
 5   0  0.2083966E-03  0.1418343E+04  0.7818609E-02  0.8940647E-01
       -2   -1    0    0    0  501  0.00000000000E+00  0.00000000000E+00  0.33369162433E+03  0.33369162434E+03  0.25500000920E-02 0.  1.
        2   -1    0    0  501    0  0.00000000000E+00  0.00000000000E+00 -0.15071521508E+04  0.15071521508E+04  0.25500000920E-02 0. -1.
    10030    2    1    2    0    0  0.00000000000E+00  0.00000000000E+00 -0.11734605265E+04  0.18408437751E+04  0.14183427644E+04 0.  0.
        1    1    3    3  502    0 -0.66924218553E+03 -0.95157988237E+02 -0.86504657091E+03  0.10978368346E+04  0.50400001928E-02 0. -1.
       -1    1    3    3    0  502  0.66924218553E+03  0.95157988237E+02 -0.30841395555E+03  0.74300694049E+03  0.50400001928E-02 0.  1.
</event>
<event>
 5   0  0.1225690E-03  0.1373047E+04  0.7818609E-02  0.8973563E-01
       -1   -1    0    0    0  501  0.00000000000E+00  0.00000000000E+00  0.30773430936E+03  0.30773430940E+03  0.50400001928E-02 0.  1.
        1   -1    0    0  501    0  0.00000000000E+00  0.00000000000E+00 -0.15315625538E+04  0.15315625538E+04  0.50400001928E-02 0. -1.
    10030    2    1    2    0    0  0.00000000000E+00  0.00000000000E+00 -0.12238282445E+04  0.18392968632E+04  0.13730467505E+04 0.  0.
        4    1    3    3  502    0 -0.55198079144E+02 -0.27116841168E+03  0.22971073010E+03  0.35964950696E+03  0.12699999809E+01 0.  1.
       -4    1    3    3    0  502  0.55198079144E+02  0.27116841168E+03 -0.14535389746E+04  0.14796473563E+04  0.12699999809E+01 0. -1.
</event>
<event>
 5   0  0.2236184E-03  0.1371111E+04  0.7818609E-02  0.8974999E-01
        2   -1    0    0  501    0  0.00000000000E+00  0.00000000000E+00  0.11012105519E+04  0.11012105519E+04  0.25500000920E-02 0. -1.
       -2   -1    0    0    0  501  0.00000000000E+00  0.00000000000E+00 -0.42679084155E+03  0.42679084156E+03  0.25500000920E-02 0.  1.
    10030    2    1    2    0    0  0.00000000000E+00  0.00000000000E+00  0.67441971031E+03  0.15280013934E+04  0.13711113422E+04 0.  0.
        3    1    3    3  502    0 -0.19652994787E+03 -0.16010940720E+03 -0.37264288454E+03  0.45069032859E+03  0.10100000352E+00 0.  1.
       -3    1    3    3    0  502  0.19652994787E+03  0.16010940720E+03  0.10470625948E+04  0.10773110648E+04  0.10100000352E+00 0. -1.
</event>
<event>
 5   0  0.2083966E-03  0.1426457E+04  0.7818609E-02  0.8934888E-01
        2   -1    0    0  501    0  0.00000000000E+00  0.00000000000E+00  0.19877388330E+04  0.19877388330E+04  0.25500000920E-02 0. -1.
       -2   -1    0    0    0  501  0.00000000000E+00  0.00000000000E+00 -0.25591620066E+03  0.25591620068E+03  0.25500000920E-02 0.  1.
    10030    2    1    2    0    0  0.00000000000E+00  0.00000000000E+00  0.17318226323E+04  0.22436550336E+04  0.14264565469E+04 0.  0.
        1    1    3    3  502    0 -0.18612286256E+03 -0.45379365895E+03  0.16803633575E+04  0.17504831956E+04  0.50400001928E-02 0. -1.
       -1    1    3    3    0  502  0.18612286256E+03  0.45379365895E+03  0.51459274840E+02  0.49317183807E+03  0.50400001928E-02 0.  1.
</event>
<event>
 5   0  0.1238683E-03  0.1528073E+04  0.7818609E-02  0.8865996E-01
       -1   -1    0    0    0  501  0.00000000000E+00  0.00000000000E+00  0.40084919265E+03  0.40084919268E+03  0.50400001928E-02 0. -1.
        1   -1    0    0  501    0  0.00000000000E+00  0.00000000000E+00 -0.14562883112E+04  0.14562883112E+04  0.50400001928E-02 0.  1.
    10030    2    1    2    0    0  0.00000000000E+00  0.00000000000E+00 -0.10554391186E+04  0.18571375039E+04  0.15280732886E+04 0.  0.
        2    1    3    3  502    0 -0.27369403626E+03  0.10584571660E+03  0.32962940440E+03  0.44132446733E+03  0.25500000920E-02 0. -1.
       -2    1    3    3    0  502  0.27369403626E+03 -0.10584571660E+03 -0.13850685230E+04  0.14158130366E+04  0.25500000920E-02 0.  1.
</event>
<event>
 5   0  0.2190704E-03  0.1380676E+04  0.7818609E-02  0.8967926E-01
        2   -1    0    0  501    0  0.00000000000E+00  0.00000000000E+00  0.75397229749E+03  0.75397229750E+03  0.25500000920E-02 0.  1.
       -2   -1    0    0    0  501  0.00000000000E+00  0.00000000000E+00 -0.63207413615E+03  0.63207413616E+03  0.25500000920E-02 0. -1.
    10030    2    1    2    0    0  0.00000000000E+00  0.00000000000E+00  0.12189816134E+03  0.13860464337E+04  0.13806757601E+04 0.  0.
        5    1    3    3  502    0  0.38730443389E+03  0.24590916428E+03  0.57877360136E+03  0.73856415646E+03  0.46999998093E+01 0.  1.
       -5    1    3    3    0  502 -0.38730443389E+03 -0.24590916428E+03 -0.45687544002E+03  0.64748227719E+03  0.46999998093E+01 0. -1.
</event>
<event>
 5   0  0.1210275E-03  0.1434875E+04  0.7818609E-02  0.8928954E-01
       -1   -1    0    0    0  501  0.00000000000E+00  0.00000000000E+00  0.25762445784E+03  0.25762445789E+03  0.50400001928E-02 0. -1.
        1   -1    0    0  501    0  0.00000000000E+00  0.00000000000E+00 -0.19979342194E+04  0.19979342194E+04  0.50400001928E-02 0.  1.
    10030    2    1    2    0    0  0.00000000000E+00  0.00000000000E+00 -0.17403097615E+04  0.22555586773E+04  0.14348752143E+04 0.  0.
        1    1    3    3  502    0 -0.46185071200E+03 -0.50246742743E+03 -0.52241122262E+03  0.85947255998E+03  0.50400001928E-02 0. -1.
       -1    1    3    3    0  502  0.46185071200E+03  0.50246742743E+03 -0.12178985389E+04  0.13960861173E+04  0.50400001928E-02 0.  1.
</event>
<event>
 5   0  0.2083966E-03  0.1402792E+04  0.7818609E-02  0.8951800E-01
       -2   -1    0    0    0  501  0.00000000000E+00  0.00000000000E+00  0.27312302299E+03  0.27312302300E+03  0.25500000920E-02 0. -1.
        2   -1    0    0  501    0  0.00000000000E+00  0.00000000000E+00 -0.18012260770E+04  0.18012260770E+04  0.25500000920E-02 0.  1.
    10030    2    1    2    0    0  0.00000000000E+00  0.00000000000E+00 -0.15281030540E+04  0.20743491000E+04  0.14027919464E+04 0.  0.
        1    1    3    3  502    0  0.65704114279E+03 -0.30914189739E+02 -0.40396489578E+03  0.77191086759E+03  0.50400001928E-02 0.  1.
       -1    1    3    3    0  502 -0.65704114279E+03  0.30914189739E+02 -0.11241381582E+04  0.13024382324E+04  0.50400001928E-02 0. -1.
</event>
<event>
 5   0  0.2172901E-03  0.1384913E+04  0.7818609E-02  0.8964813E-01
       -2   -1    0    0    0  501  0.00000000000E+00  0.00000000000E+00  0.35913885681E+03  0.35913885681E+03  0.25500000920E-02 0.  1.
        2   -1    0    0  501    0  0.00000000000E+00  0.00000000000E+00 -0.13351262128E+04  0.13351262128E+04  0.25500000920E-02 0. -1.
    10030    2    1    2    0    0  0.00000000000E+00  0.00000000000E+00 -0.97598735602E+03  0.16942650696E+04  0.13849125630E+04 0.  0.
        2    1    3    3  502    0  0.15121111677E+03  0.15321579603E+03 -0.12931516164E+04  0.13109465988E+04  0.25500000920E-02 0. -1.
       -2    1    3    3    0  502 -0.15121111677E+03 -0.15321579603E+03  0.31716426038E+03  0.38331847080E+03  0.25500000920E-02 0.  1.
</event>
<event>
 5   0  0.1199720E-03  0.1472777E+04  0.7818609E-02  0.8902761E-01
        1   -1    0    0  501    0  0.00000000000E+00  0.00000000000E+00  0.90625185118E+03  0.90625185120E+03  0.50400001928E-02 0.  1.
       -1   -1    0    0    0  501  0.00000000000E+00  0.00000000000E+00 -0.59836319281E+03  0.59836319283E+03  0.50400001928E-02 0. -1.
    10030    2    1    2    0    0  0.00000000000E+00  0.00000000000E+00  0.30788865837E+03  0.15046150440E+04  0.14727766310E+04 0.  0.
        5    1    3    3  502    0 -0.39111317742E+03  0.32376506905E+03 -0.39092612447E+03  0.64081094113E+03  0.46999998093E+01 0. -1.
       -5    1    3    3    0  502  0.39111317742E+03 -0.32376506905E+03  0.69881478284E+03  0.86380410290E+03  0.46999998093E+01 0.  1.
</event>
<event>
 5   0  0.1175374E-03  0.1385319E+04  0.7818609E-02  0.8964515E-01
       -1   -1    0    0    0  501  0.00000000000E+00  0.00000000000E+00  0.60407413460E+03  0.60407413462E+03  0.50400001928E-02 0. -1.
        1   -1    0    0  501    0  0.00000000000E+00  0.00000000000E+00 -0.79423549910E+03  0.79423549912E+03  0.50400001928E-02 0.  1.
    10030    2    1    2    0    0  0.00000000000E+00  0.00000000000E+00 -0.19016136450E+03  0.13983096337E+04  0.13853189118E+04 0.  0.
        3    1    3    3  502    0 -0.25799554283E+03  0.56638074937E+03  0.21179040443E+03  0.65742226840E+03  0.10100000352E+00 0. -1.
       -3    1    3    3    0  502  0.25799554283E+03 -0.56638074937E+03 -0.40195176893E+03  0.74088736534E+03  0.10100000352E+00 0.  1.
</event>
<event>
 5   0  0.2083966E-03  0.1280439E+04  0.7818609E-02  0.9045223E-01
        2   -1    0    0  501    0  0.00000000000E+00  0.00000000000E+00  0.82101599354E+03  0.82101599355E+03  0.25500000920E-02 0. -1.
       -2   -1    0    0    0  501  0.00000000000E+00  0.00000000000E+00 -0.49923636831E+03  0.49923636832E+03  0.25500000920E-02 0.  1.
    10030    2    1    2    0    0  0.00000000000E+00  0.00000000000E+00  0.32177962523E+03  0.13202523619E+04  0.12804390543E+04 0.  0.
        1    1    3    3  502    0 -0.18550137375E+03 -0.58072093796E+03 -0.40723836412E+02  0.61098772354E+03  0.50400001928E-02 0.  1.
       -1    1    3    3    0  502  0.18550137375E+03  0.58072093796E+03  0.36250346164E+03  0.70926463832E+03  0.50400001928E-02 0. -1.
</event>
<event>
 5   0  0.2190704E-03  0.1417657E+04  0.7818609E-02  0.8941136E-01
       -2   -1    0    0    0  501  0.00000000000E+00  0.00000000000E+00  0.14251959183E+04  0.14251959183E+04  0.25500000920E-02 0. -1.
        2   -1    0    0  501    0  0.00000000000E+00  0.00000000000E+00 -0.35253930189E+03  0.35253930190E+03  0.25500000920E-02 0.  1.
    10030    2    1    2    0    0  0.00000000000E+00  0.00000000000E+00  0.10726566164E+04  0.17777352202E+04  0.14176566215E+04 0.  0.
        5    1    3    3  502    0  0.25083293381E+03 -0.31886922350E+03  0.12651800258E+04  0.13286449225E+04  0.46999998093E+01 0. -1.
       -5    1    3    3    0  502 -0.25083293381E+03  0.31886922350E+03 -0.19252340935E+03  0.44909029775E+03  0.46999998093E+01 0.  1.
</event>
<event>
 5   0  0.1199720E-03  0.1400760E+04  0.7818609E-02  0.8953268E-01
       -1   -1    0    0    0  501  0.00000000000E+00  0.00000000000E+00  0.45342501635E+03  0.45342501638E+03  0.50400001928E-02 0.  1.
        1   -1    0    0  501    0  0.00000000000E+00  0.00000000000E+00 -0.10818380285E+04  0.10818380285E+04  0.50400001928E-02 0. -1.
    10030    2    1    2    0    0  0.00000000000E+00  0.00000000000E+00 -0.62841301212E+03  0.15352630449E+04  0.14007604017E+04 0.  0.
        5    1    3    3  502    0  0.25048847028E+03  0.19967919728E+03 -0.99682101653E+03  0.10470389126E+04  0.46999998093E+01 0. -1.
       -5    1    3    3    0  502 -0.25048847028E+03 -0.19967919728E+03  0.36840800441E+03  0.48822413222E+03  0.46999998093E+01 0.  1.
</event>
<event>
 5   0  0.2083966E-03  0.1076321E+04  0.7818609E-02  0.9228583E-01
       -2   -1    0    0    0  501  0.00000000000E+00  0.00000000000E+00  0.23893235094E+03  0.23893235095E+03  0.25500000920E-02 0.  1.
        2   -1    0    0  501    0  0.00000000000E+00  0.00000000000E+00 -0.12121284093E+04  0.12121284093E+04  0.25500000920E-02 0. -1.
    10030    2    1    2    0    0  0.00000000000E+00  0.00000000000E+00 -0.97319605832E+03  0.14510607602E+04  0.10763209381E+04 0.  0.
        1    1    3    3  502    0  0.95373192935E+02  0.99787991830E+02 -0.11878563266E+04  0.11958496318E+04  0.50400001928E-02 0. -1.
       -1    1    3    3    0  502 -0.95373192935E+02 -0.99787991830E+02  0.21466026829E+03  0.25521112838E+03  0.50400001928E-02 0.  1.
</event>
<event>
 5   0  0.1210275E-03  0.1406556E+04  0.7818609E-02  0.8949087E-01
        1   -1    0    0  501    0  0.00000000000E+00  0.00000000000E+00  0.11079374723E+04  0.11079374724E+04  0.50400001928E-02 0.  1.
       -1   -1    0    0    0  501  0.00000000000E+00  0.00000000000E+00 -0.44641508770E+03  0.44641508773E+03  0.50400001928E-02 0. -1.
    10030    2    1    2    0    0  0.00000000000E+00  0.00000000000E+00  0.66152238464E+03  0.15543525601E+04  0.14065560834E+04 0.  0.
        1    1    3    3  502    0  0.34657152175E+03 -0.40431817624E+03 -0.17687098156E+03  0.56113131392E+03  0.50400001928E-02 0. -1.
       -1    1    3    3    0  502 -0.34657152175E+03  0.40431817624E+03  0.83839336620E+03  0.99322124617E+03  0.50400001928E-02 0.  1.
</event>
<event>
 5   0  0.2236184E-03  0.1390036E+04  0.7818609E-02  0.8961063E-01
        2   -1    0    0  501    0  0.00000000000E+00  0.00000000000E+00  0.20084222706E+04  0.20084222706E+04  0.25500000920E-02 0. -1.
       -2   -1    0    0    0  501  0.00000000000E+00  0.00000000000E+00 -0.24051219381E+03  0.24051219382E+03  0.25500000920E-02 0.  1.
    10030    2    1    2    0    0  0.00000000000E+00  0.00000000000E+00  0.17679100768E+04  0.22489344645E+04  0.13900360375E+04 0.  0.
        3    1    3    3  502    0 -0.61177122899E+02 -0.36219803856E+02  0.20025237163E+04  0.20037853576E+04  0.10100000352E+00 0. -1.
       -3    1    3    3    0  502  0.61177122899E+02  0.36219803856E+02 -0.23461363951E+03  0.24514910688E+03  0.10100000352E+00 0.  1.
</event>
<event>
 5   0  0.2195980E-03  0.1386243E+04  0.7818609E-02  0.8963837E-01
       -2   -1    0    0    0  501  0.00000000000E+00  0.00000000000E+00  0.81213074114E+03  0.81213074114E+03  0.25500000920E-02 0. -1.
        2   -1    0    0  501    0  0.00000000000E+00  0.00000000000E+00 -0.59155213295E+03  0.59155213296E+03  0.25500000920E-02 0.  1.
    10030    2    1    2    0    0  0.00000000000E+00  0.00000000000E+00  0.22057860819E+03  0.14036828741E+04  0.13862433728E+04 0.  0.
        4    1    3    3  502    0  0.40193544166E+03 -0.54721381330E+03  0.25140175689E+03  0.72401623807E+03  0.12699999809E+01 0. -1.
       -4    1    3    3    0  502 -0.40193544166E+03  0.54721381330E+03 -0.30823148697E+02  0.67966663603E+03  0.12699999809E+01 0.  1.
</event>
<event>
 5   0  0.2172901E-03  0.1410765E+04  0.7818609E-02  0.8946063E-01
       -2   -1    0    0    0  501  0.00000000000E+00  0.00000000000E+00  0.61666076736E+03  0.61666076737E+03  0.25500000920E-02 0.  1.
        2   -1    0    0  501    0  0.00000000000E+00  0.00000000000E+00 -0.80686941289E+03  0.80686941289E+03  0.25500000920E-02 0. -1.
    10030    2    1    2    0    0  0.00000000000E+00  0.00000000000E+00 -0.19020864553E+03  0.14235301803E+04  0.14107653403E+04 0.  0.
        2    1    3    3  502    0  0.30431327845E+02  0.83718386378E+02  0.61096257815E+03  0.61742214557E+03  0.25500000920E-02 0.  1.
       -2    1    3    3    0  502 -0.30431327845E+02 -0.83718386378E+02 -0.80117122368E+03  0.80610803469E+03  0.25500000920E-02 0. -1.
</event>
<event>
 5   0  0.2172901E-03  0.1439641E+04  0.7818609E-02  0.8925614E-01
        2   -1    0    0  501    0  0.00000000000E+00  0.00000000000E+00  0.77212115889E+03  0.77212115889E+03  0.25500000920E-02 0.  1.
       -2   -1    0    0    0  501  0.00000000000E+00  0.00000000000E+00 -0.67106265449E+03  0.67106265449E+03  0.25500000920E-02 0. -1.
    10030    2    1    2    0    0  0.00000000000E+00  0.00000000000E+00  0.10105850440E+03  0.14431838134E+04  0.14396411698E+04 0.  0.
        2    1    3    3  502    0  0.26634676285E+03 -0.48931651796E+03  0.50746933071E+03  0.75358899570E+03  0.25500000920E-02 0.  1.
       -2    1    3    3    0  502 -0.26634676285E+03  0.48931651796E+03 -0.40641082631E+03  0.68959481768E+03  0.25500000920E-02 0. -1.
</event>
<event>
 5   0  0.2083966E-03  0.1390128E+04  0.7818609E-02  0.8960996E-01
        2   -1    0    0  501    0  0.00000000000E+00  0.00000000000E+00  0.15218277931E+04  0.15218277931E+04  0.25500000920E-02 0.  1.
       -2   -1    0    0    0  501  0.00000000000E+00  0.00000000000E+00 -0.31745637685E+03  0.31745637686E+03  0.25500000920E-02 0. -1.
    10030    2    1    2    0    0  0.00000000000E+00  0.00000000000E+00  0.12043714162E+04  0.18392841700E+04  0.13901279616E+04 0.  0.
        1    1    3    3  502    0  0.57259991281E+03  0.14145532255E+03  0.10887457828E+04  0.12382437757E+04  0.50400001928E-02 0.  1.
       -1    1    3    3    0  502 -0.57259991281E+03 -0.14145532255E+03  0.11562563345E+03  0.60104039429E+03  0.50400001928E-02 0. -1.
</event>
<event>
 5   0  0.1199720E-03  0.1397552E+04  0.7818609E-02  0.8955592E-01
       -1   -1    0    0    0  501  0.00000000000E+00  0.00000000000E+00  0.65183407775E+03  0.65183407777E+03  0.50400001928E-02 0.  1.
        1   -1    0    0  501    0  0.00000000000E+00  0.00000000000E+00 -0.74909890730E+03  0.74909890732E+03  0.50400001928E-02 0. -1.
    10030    2    1    2    0    0  0.00000000000E+00  0.00000000000E+00 -0.97264829553E+02  0.14009329851E+04  0.13975524254E+04 0.  0.
        5    1    3    3  502    0  0.63175168407E+02  0.18394942318E+03  0.62413752278E+03  0.65375701107E+03  0.46999998093E+01 0.  1.
       -5    1    3    3    0  502 -0.63175168407E+02 -0.18394942318E+03 -0.72140235233E+03  0.74717597401E+03  0.46999998093E+01 0. -1.
</event>
<event>
 5   0  0.1210275E-03  0.1185383E+04  0.7818609E-02  0.9125748E-01
        1   -1    0    0  501    0  0.00000000000E+00  0.00000000000E+00  0.17609022565E+04  0.17609022565E+04  0.50400001928E-02 0.  1.
       -1   -1    0    0    0  501  0.00000000000E+00  0.00000000000E+00 -0.19949033590E+03  0.19949033597E+03  0.50400001928E-02 0. -1.
    10030    2    1    2    0    0  0.00000000000E+00  0.00000000000E+00  0.15614119206E+04  0.19603925924E+04  0.11853826095E+04 0.  0.
        1    1    3    3  502    0  0.40611682101E+03  0.11642257228E+03  0.14681759193E+04  0.15277518181E+04  0.50400001928E-02 0.  1.
       -1    1    3    3    0  502 -0.40611682101E+03 -0.11642257228E+03  0.93236001215E+02  0.43264077431E+03  0.50400001928E-02 0. -1.
</event>
<event>
 5   0  0.2083966E-03  0.1358190E+04  0.7818609E-02  0.8984652E-01
       -2   -1    0    0    0  501  0.00000000000E+00  0.00000000000E+00  0.98067672129E+03  0.98067672129E+03  0.25500000920E-02 0. -1.
        2   -1    0    0  501    0  0.00000000000E+00  0.00000000000E+00 -0.47025675324E+03  0.47025675325E+03  0.25500000920E-02 0.  1.
    10030    2    1    2    0    0  0.00000000000E+00  0.00000000000E+00  0.51041996805E+03  0.14509334745E+04  0.13581897525E+04 0.  0.
        1    1    3    3  502    0  0.66653834625E+03 -0.39194524271E+02  0.38760953755E+03  0.77204321859E+03  0.50400001928E-02 0.  1.
       -1    1    3    3    0  502 -0.66653834625E+03  0.39194524271E+02  0.12281043050E+03  0.67889025595E+03  0.50400001928E-02 0. -1.
</event>
<event>
 5   0  0.1238683E-03  0.1425981E+04  0.7818609E-02  0.8935224E-01
       -1   -1    0    0    0  501  0.00000000000E+00  0.00000000000E+00  0.52653764545E+03  0.52653764548E+03  0.50400001928E-02 0.  1.
        1   -1    0    0  501    0  0.00000000000E+00  0.00000000000E+00 -0.96546802368E+03  0.96546802369E+03  0.50400001928E-02 0. -1.
    10030    2    1    2    0    0  0.00000000000E+00  0.00000000000E+00 -0.43893037822E+03  0.14920056692E+04  0.14259807291E+04 0.  0.
        2    1    3    3  502    0  0.19486066581E+03  0.28686121610E+03 -0.87128261337E+03  0.93775979267E+03  0.25500000920E-02 0. -1.
       -2    1    3    3    0  502 -0.19486066581E+03 -0.28686121610E+03  0.43235223514E+03  0.55424587650E+03  0.25500000920E-02 0.  1.
</event>
<event>
 5   0  0.1175374E-03  0.1382228E+04  0.7818609E-02  0.8966784E-01
        1   -1    0    0  501    0  0.00000000000E+00  0.00000000000E+00  0.73099988902E+03  0.73099988904E+03  0.50400001928E-02 0.  1.
       -1   -1    0    0    0  501  0.00000000000E+00  0.00000000000E+00 -0.65340463280E+03  0.65340463282E+03  0.50400001928E-02 0. -1.
    10030    2    1    2    0    0  0.00000000000E+00  0.00000000000E+00  0.77595256218E+02  0.13844045219E+04  0.13822282215E+04 0.  0.
        3    1    3    3  502    0 -0.17456284577E+03 -0.89631649702E+01  0.70849543272E+03  0.72973852430E+03  0.10100000352E+00 0.  1.
       -3    1    3    3    0  502  0.17456284577E+03  0.89631649702E+01 -0.63090017650E+03  0.65466599756E+03  0.10100000352E+00 0. -1.
</event>
<event>
 5   0  0.1225690E-03  0.1403899E+04  0.7818609E-02  0.8951001E-01
       -1   -1    0    0    0  501  0.00000000000E+00  0.00000000000E+00  0.78107743418E+03  0.78107743419E+03  0.50400001928E-02 0.  1.
        1   -1    0    0  501    0  0.00000000000E+00  0.00000000000E+00 -0.63083776542E+03  0.63083776544E+03  0.50400001928E-02 0. -1.
    10030    2    1    2    0    0  0.00000000000E+00  0.00000000000E+00  0.15023966876E+03  0.14119151996E+04  0.14038990608E+04 0.  0.
        4    1    3    3  502    0  0.63064661180E+03 -0.30824626732E+03  0.75911746785E+02  0.70604186597E+03  0.12699999809E+01 0. -1.
       -4    1    3    3    0  502 -0.63064661180E+03  0.30824626732E+03  0.74327921973E+02  0.70587333367E+03  0.12699999809E+01 0.  1.
</event>
<event>
 5   0  0.2083966E-03  0.1388287E+04  0.7818609E-02  0.8962341E-01
       -2   -1    0    0    0  501  0.00000000000E+00  0.00000000000E+00  0.39031921802E+03  0.39031921803E+03  0.25500000920E-02 0.  1.
        2   -1    0    0  501    0  0.00000000000E+00  0.00000000000E+00 -0.12344652970E+04  0.12344652970E+04  0.25500000920E-02 0. -1.
    10030    2    1    2    0    0  0.00000000000E+00  0.00000000000E+00 -0.84414607900E+03  0.16247845150E+04  0.13882874766E+04 0.  0.
        1    1    3    3  502    0  0.23484987641E+03 -0.30904818676E+03  0.25143385387E+03  0.46247619299E+03  0.50400001928E-02 0.  1.
       -1    1    3    3    0  502 -0.23484987641E+03  0.30904818676E+03 -0.10955799329E+04  0.11623083221E+04  0.50400001928E-02 0. -1.
</event>
<event>
 5   0  0.1238683E-03  0.1457974E+04  0.7818609E-02  0.8912891E-01
        1   -1    0    0  501    0  0.00000000000E+00  0.00000000000E+00  0.89197590789E+03  0.89197590790E+03  0.50400001928E-02 0. -1.
       -1   -1    0    0    0  501  0.00000000000E+00  0.00000000000E+00 -0.59578049909E+03  0.59578049911E+03  0.50400001928E-02 0.  1.
    10030    2    1    2    0    0  0.00000000000E+00  0.00000000000E+00  0.29619540880E+03  0.14877564070E+04  0.14579737331E+04 0.  0.
        2    1    3    3  502    0 -0.69819890594E+02  0.27048119632E+03  0.83519247076E+03  0.88067097029E+03  0.25500000920E-02 0. -1.
       -2    1    3    3    0  502  0.69819890594E+02 -0.27048119632E+03 -0.53899706196E+03  0.60708543673E+03  0.25500000920E-02 0.  1.
</event>
<event>
 5   0  0.1175374E-03  0.1386838E+04  0.7818609E-02  0.8963401E-01
       -1   -1    0    0    0  501  0.00000000000E+00  0.00000000000E+00  0.53040948298E+03  0.53040948300E+03  0.50400001928E-02 0.  1.
        1   -1    0    0  501    0  0.00000000000E+00  0.00000000000E+00 -0.90652561598E+03  0.90652561600E+03  0.50400001928E-02 0. -1.
    10030    2    1    2    0    0  0.00000000000E+00  0.00000000000E+00 -0.37611613300E+03  0.14369350990E+04  0.13868378179E+04 0.  0.
        3    1    3    3  502    0  0.41334542925E+03 -0.36103624238E+03 -0.62719370976E+03  0.83341080624E+03  0.10100000352E+00 0. -1.
       -3    1    3    3    0  502 -0.41334542925E+03  0.36103624238E+03  0.25107757676E+03  0.60352429276E+03  0.10100000352E+00 0.  1.
</event>
<event>
 5   0  0.1199720E-03  0.1394816E+04  0.7818609E-02  0.8957580E-01
       -1   -1    0    0    0  501  0.00000000000E+00  0.00000000000E+00  0.53477152101E+03  0.53477152104E+03  0.50400001928E-02 0. -1.
        1   -1    0    0  501    0  0.00000000000E+00  0.00000000000E+00 -0.90950547857E+03  0.90950547858E+03  0.50400001928E-02 0.  1.
    10030    2    1    2    0    0  0.00000000000E+00  0.00000000000E+00 -0.37473395756E+03  0.14442769996E+04  0.13948155838E+04 0.  0.
        5    1    3    3  502    0 -0.24114564634E+03 -0.60193556400E+03  0.78401549717E+02  0.65318185749E+03  0.46999998093E+01 0. -1.
       -5    1    3    3    0  502  0.24114564634E+03  0.60193556400E+03 -0.45313550727E+03  0.79109514213E+03  0.46999998093E+01 0.  1.
</event>
<event>
 5   0  0.2083966E-03  0.1402924E+04  0.7818609E-02  0.8951705E-01
       -2   -1    0    0    0  501  0.00000000000E+00  0.00000000000E+00  0.77153415420E+03  0.77153415420E+03  0.25500000920E-02 0.  1.
        2   -1    0    0  501    0  0.00000000000E+00  0.00000000000E+00 -0.63775375491E+03  0.63775375491E+03  0.25500000920E-02 0. -1.
    10030    2    1    2    0    0  0.00000000000E+00  0.00000000000E+00  0.13378039929E+03  0.14092879091E+04  0.14029238096E+04 0.  0.
        1    1    3    3  502    0  0.30659269754E+03 -0.45512931346E+03  0.50580133615E+03  0.74630876039E+03  0.50400001928E-02 0.  1.
       -1    1    3    3    0  502 -0.30659269754E+03  0.45512931346E+03 -0.37202093686E+03  0.66297914873E+03  0.50400001928E-02 0. -1.
</event>
<event>
 5   0  0.8293000E-04  0.1370299E+04  0.7818609E-02  0.8975603E-01
       -3   -1    0    0    0  501  0.00000000000E+00  0.00000000000E+00  0.51054259198E+03  0.51054260197E+03  0.10100000352E+00 0. -1.
        3   -1    0    0  501    0  0.00000000000E+00  0.00000000000E+00 -0.91947176840E+03  0.91947177395E+03  0.10100000352E+00 0.  1.
    10030    2    1    2    0    0  0.00000000000E+00  0.00000000000E+00 -0.40892917642E+03  0.14300143759E+04  0.13702985237E+04 0.  0.
        3    1    3    3  502    0 -0.85386513437E+02  0.45480612585E+03  0.32281643634E+03  0.56422507084E+03  0.10100000352E+00 0. -1.
       -3    1    3    3    0  502  0.85386513437E+02 -0.45480612585E+03 -0.73174561276E+03  0.86578930508E+03  0.10100000352E+00 0.  1.
</event>
<event>
 5   0  0.1199720E-03  0.1406392E+04  0.7818609E-02  0.8949205E-01
       -1   -1    0    0    0  501  0.00000000000E+00  0.00000000000E+00  0.73520954034E+03  0.73520954036E+03  0.50400001928E-02 0.  1.
        1   -1    0    0  501    0  0.00000000000E+00  0.00000000000E+00 -0.67257615986E+03  0.67257615988E+03  0.50400001928E-02 0. -1.
    10030    2    1    2    0    0  0.00000000000E+00  0.00000000000E+00  0.62633380485E+02  0.14077857002E+04  0.14063917084E+04 0.  0.
        5    1    3    3  502    0 -0.52982068462E+02 -0.42299634383E+03  0.59109304221E+03  0.72879769553E+03  0.46999998093E+01 0.  1.
       -5    1    3    3    0  502  0.52982068462E+02  0.42299634383E+03 -0.52845966172E+03  0.67898800471E+03  0.46999998093E+01 0. -1.
</event>
<event>
 5   0  0.2172901E-03  0.1386711E+04  0.7818609E-02  0.8963495E-01
        2   -1    0    0  501    0  0.00000000000E+00  0.00000000000E+00  0.11697223722E+04  0.11697223722E+04  0.25500000920E-02 0.  1.
       -2   -1    0    0    0  501  0.00000000000E+00  0.00000000000E+00 -0.41098785107E+03  0.41098785107E+03  0.25500000920E-02 0. -1.
    10030    2    1    2    0    0  0.00000000000E+00  0.00000000000E+00  0.75873452110E+03  0.15807102232E+04  0.13867107616E+04 0.  0.
        2    1    3    3  502    0 -0.31093808561E+03  0.47277310087E+03  0.83610245600E+03  0.10095861602E+04  0.25500000920E-02 0.  1.
       -2    1    3    3    0  502  0.31093808561E+03 -0.47277310087E+03 -0.77367934907E+02  0.57112406301E+03  0.25500000920E-02 0. -1.
</event>
<event>
 5   0  0.1238683E-03  0.1400351E+04  0.7818609E-02  0.8953565E-01
        1   -1    0    0  501    0  0.00000000000E+00  0.00000000000E+00  0.16077125099E+04  0.16077125099E+04  0.50400001928E-02 0.  1.
       -1   -1    0    0    0  501  0.00000000000E+00  0.00000000000E+00 -0.30493366142E+03  0.30493366146E+03  0.50400001928E-02 0. -1.
    10030    2    1    2    0    0  0.00000000000E+00  0.00000000000E+00  0.13027788485E+04  0.19126461714E+04  0.14003509020E+04 0.  0.
        2    1    3    3  502    0 -0.57421636622E+03 -0.17798167910E+03  0.11416527831E+04  0.12902608226E+04  0.25500000920E-02 0. -1.
       -2    1    3    3    0  502  0.57421636622E+03  0.17798167910E+03  0.16112606539E+03  0.62238534871E+03  0.25500000920E-02 0.  1.
</event>
<event>
 5   0  0.2190704E-03  0.1321137E+04  0.7818609E-02  0.9012969E-01
        2   -1    0    0  501    0  0.00000000000E+00  0.00000000000E+00  0.13389097622E+04  0.13389097622E+04  0.25500000920E-02 0.  1.
       -2   -1    0    0    0  501  0.00000000000E+00  0.00000000000E+00 -0.32590008160E+03  0.32590008161E+03  0.25500000920E-02 0. -1.
    10030    2    1    2    0    0  0.00000000000E+00  0.00000000000E+00  0.10130096806E+04  0.16648098438E+04  0.13211370872E+04 0.  0.
        5    1    3    3  502    0  0.18909660851E+03 -0.61929467118E+03  0.67102495170E+03  0.93251273069E+03  0.46999998093E+01 0. -1.
       -5    1    3    3    0  502 -0.18909660851E+03  0.61929467118E+03  0.34198472890E+03  0.73229711313E+03  0.46999998093E+01 0.  1.
</event>
<event>
 5   0  0.2195980E-03  0.1349069E+04  0.7818609E-02  0.8991533E-01
       -2   -1    0    0    0  501  0.00000000000E+00  0.00000000000E+00  0.35983657345E+03  0.35983657346E+03  0.25500000920E-02 0. -1.
        2   -1    0    0  501    0  0.00000000000E+00  0.00000000000E+00 -0.12644544487E+04  0.12644544487E+04  0.25500000920E-02 0.  1.
    10030    2    1    2    0    0  0.00000000000E+00  0.00000000000E+00 -0.90461787526E+03  0.16242910222E+04  0.13490692438E+04 0.  0.
        4    1    3    3  502    0 -0.26177620536E+03  0.55402109724E+03 -0.79185044273E+03  0.10012466701E+04  0.12699999809E+01 0. -1.
       -4    1    3    3    0  502  0.26177620536E+03 -0.55402109724E+03 -0.11276743254E+03  0.62304435205E+03  0.12699999809E+01 0.  1.
</event>
<event>
 5   0  0.2195980E-03  0.1424306E+04  0.7818609E-02  0.8936410E-01
       -2   -1    0    0    0  501  0.00000000000E+00  0.00000000000E+00  0.98359354594E+03  0.98359354594E+03  0.25500000920E-02 0. -1.
        2   -1    0    0  501    0  0.00000000000E+00  0.00000000000E+00 -0.51562166924E+03  0.51562166924E+03  0.25500000920E-02 0.  1.
    10030    2    1    2    0    0  0.00000000000E+00  0.00000000000E+00  0.46797187670E+03  0.14992152152E+04  0.14243063519E+04 0.  0.
        4    1    3    3  502    0 -0.33170134152E+03  0.30316756005E+03 -0.34754127170E+03  0.56808705131E+03  0.12699999809E+01 0.  1.
       -4    1    3    3    0  502  0.33170134152E+03 -0.30316756005E+03  0.81551314840E+03  0.93112816387E+03  0.12699999809E+01 0. -1.
</event>
<event>
 5   0  0.1199720E-03  0.1415125E+04  0.7818609E-02  0.8942942E-01
       -1   -1    0    0    0  501  0.00000000000E+00  0.00000000000E+00  0.47136897802E+03  0.47136897804E+03  0.50400001928E-02 0. -1.
        1   -1    0    0  501    0  0.00000000000E+00  0.00000000000E+00 -0.10621082554E+04  0.10621082554E+04  0.50400001928E-02 0.  1.
    10030    2    1    2    0    0  0.00000000000E+00  0.00000000000E+00 -0.59073927738E+03  0.15334772335E+04  0.14151252707E+04 0.  0.
        5    1    3    3  502    0  0.84516491573E+02 -0.41254000756E+03 -0.91150894621E+03  0.10040930954E+04  0.46999998093E+01 0.  1.
       -5    1    3    3    0  502 -0.84516491573E+02  0.41254000756E+03  0.32076966884E+03  0.52938413806E+03  0.46999998093E+01 0. -1.
</event>
<event>
 5   0  0.1199720E-03  0.1372648E+04  0.7818609E-02  0.8973859E-01
       -1   -1    0    0    0  501  0.00000000000E+00  0.00000000000E+00  0.41775076717E+03  0.41775076720E+03  0.50400001928E-02 0. -1.
        1   -1    0    0  501    0  0.00000000000E+00  0.00000000000E+00 -0.11275638144E+04  0.11275638144E+04  0.50400001928E-02 0.  1.
    10030    2    1    2    0    0  0.00000000000E+00  0.00000000000E+00 -0.70981304722E+03  0.15453145816E+04  0.13726480227E+04 0.  0.
        5    1    3    3  502    0  0.51211830208E+03  0.14967563598E+03  0.13107876176E+03  0.54942850591E+03  0.46999998093E+01 0. -1.
       -5    1    3    3    0  502 -0.51211830208E+03 -0.14967563598E+03 -0.84089180898E+03  0.99588607568E+03  0.46999998093E+01 0.  1.
</event>
<event>
 5   0  0.1199720E-03  0.1403837E+04  0.7818609E-02  0.8951046E-01
        1   -1    0    0  501    0  0.00000000000E+00  0.00000000000E+00  0.53457614345E+03  0.53457614347E+03  0.50400001928E-02 0.  1.
       -1   -1    0    0    0  501  0.00000000000E+00  0.00000000000E+00 -0.92164502653E+03  0.92164502654E+03  0.50400001928E-02 0. -1.
    10030    2    1    2    0    0  0.00000000000E+00  0.00000000000E+00 -0.38706888308E+03  0.14562211700E+04  0.14038368052E+04 0.  0.
        5    1    3    3  502    0 -0.28536498852E+03  0.62005086816E+03 -0.36325865675E+03  0.77322389867E+03  0.46999998093E+01 0. -1.
       -5    1    3    3    0  502  0.28536498852E+03 -0.62005086816E+03 -0.23810226325E+02  0.68299727134E+03  0.46999998093E+01 0.  1.
</event>
<event>
 5   0  0.2195980E-03  0.1415297E+04  0.7818609E-02  0.8942820E-01
       -2   -1    0    0    0  501  0.00000000000E+00  0.00000000000E+00  0.74126545024E+03  0.74126545025E+03  0.25500000920E-02 0. -1.
        2   -1    0    0  501    0  0.00000000000E+00  0.00000000000E+00 -0.67555617500E+03  0.67555617500E+03  0.25500000920E-02 0.  1.
    10030    2    1    2    0    0  0.00000000000E+00  0.00000000000E+00  0.65709275247E+02  0.14168216252E+04  0.14152970744E+04 0.  0.
        4    1    3    3  502    0 -0.47190590020E+03  0.15641629730E+03 -0.47127853716E+03  0.68503015203E+03  0.12699999809E+01 0.  1.
       -4    1    3    3    0  502  0.47190590020E+03 -0.15641629730E+03  0.53698781240E+03  0.73179147322E+03  0.12699999809E+01 0. -1.
</event>
<event>
 5   0  0.2190704E-03  0.1005858E+04  0.7818609E-02  0.9302143E-01
        2   -1    0    0  501    0  0.00000000000E+00  0.00000000000E+00  0.88562578599E+03  0.88562578599E+03  0.25500000920E-02 0. -1.
       -2   -1    0    0    0  501  0.00000000000E+00  0.00000000000E+00 -0.28560327150E+03  0.28560327151E+03  0.25500000920E-02 0.  1.
    10030    2    1    2    0    0  0.00000000000E+00  0.00000000000E+00  0.60002251448E+03  0.11712290575E+04  0.10058580850E+04 0.  0.
        5    1    3    3  502    0  0.87339788752E+02  0.41589576648E+03  0.61314390078E+03  0.74603288154E+03  0.46999998093E+01 0. -1.
       -5    1    3    3    0  502 -0.87339788752E+02 -0.41589576648E+03 -0.13121386298E+02  0.42519617596E+03  0.46999998093E+01 0.  1.
</event>
<event>
 5   0  0.1175374E-03  0.1383613E+04  0.7818609E-02  0.8965766E-01
        1   -1    0    0  501    0  0.00000000000E+00  0.00000000000E+00  0.12370728173E+04  0.12370728173E+04  0.50400001928E-02 0.  1.
       -1   -1    0    0    0  501  0.00000000000E+00  0.00000000000E+00 -0.38687801452E+03  0.38687801455E+03  0.50400001928E-02 0. -1.
    10030    2    1    2    0    0  0.00000000000E+00  0.00000000000E+00  0.85019480276E+03  0.16239508318E+04  0.13836130606E+04 0.  0.
        3    1    3    3  502    0 -0.21446139463E+03  0.62206110789E+03  0.67584869925E+03  0.94325245094E+03  0.10100000352E+00 0.  1.
       -3    1    3    3    0  502  0.21446139463E+03 -0.62206110789E+03  0.17434610351E+03  0.68069838089E+03  0.10100000352E+00 0. -1.
</event>
<event>
 5   0  0.2195980E-03  0.1257294E+04  0.7818609E-02  0.9064134E-01
       -2   -1    0    0    0  501  0.00000000000E+00  0.00000000000E+00  0.43449798976E+03  0.43449798977E+03  0.25500000920E-02 0.  1.
        2   -1    0    0  501    0  0.00000000000E+00  0.00000000000E+00 -0.90954894302E+03  0.90954894302E+03  0.25500000920E-02 0. -1.
    10030    2    1    2    0    0  0.00000000000E+00  0.00000000000E+00 -0.47505095325E+03  0.13440469328E+04  0.12572942175E+04 0.  0.
        4    1    3    3  502    0  0.58235843573E+03  0.21777432526E+03 -0.13822600675E+03  0.63692624868E+03  0.12699999809E+01 0.  1.
       -4    1    3    3    0  502 -0.58235843573E+03 -0.21777432526E+03 -0.33682494650E+03  0.70712068411E+03  0.12699999809E+01 0. -1.
</event>
<event>
 5   0  0.2083966E-03  0.1399512E+04  0.7818609E-02  0.8954172E-01
        2   -1    0    0  501    0  0.00000000000E+00  0.00000000000E+00  0.49385248347E+03  0.49385248348E+03  0.25500000920E-02 0.  1.
       -2   -1    0    0    0  501  0.00000000000E+00  0.00000000000E+00 -0.99150819766E+03  0.99150819767E+03  0.25500000920E-02 0. -1.
    10030    2    1    2    0    0  0.00000000000E+00  0.00000000000E+00 -0.49765571419E+03  0.14853606811E+04  0.13995124663E+04 0.  0.
        1    1    3    3  502    0 -0.25842521937E+03  0.48733967879E+02 -0.93706522903E+03  0.97326760817E+03  0.50400001928E-02 0. -1.
       -1    1    3    3    0  502  0.25842521937E+03 -0.48733967879E+02  0.43940951484E+03  0.51209307298E+03  0.50400001928E-02 0.  1.
</event>
<event>
 5   0  0.1210275E-03  0.1344552E+04  0.7818609E-02  0.8994963E-01
        1   -1    0    0  501    0  0.00000000000E+00  0.00000000000E+00  0.10541410448E+04  0.10541410448E+04  0.50400001928E-02 0. -1.
       -1   -1    0    0    0  501  0.00000000000E+00  0.00000000000E+00 -0.42874222433E+03  0.42874222436E+03  0.50400001928E-02 0.  1.
    10030    2    1    2    0    0  0.00000000000E+00  0.00000000000E+00  0.62539882043E+03  0.14828832691E+04  0.13445516373E+04 0.  0.
        1    1    3    3  502    0 -0.20513872622E+03 -0.55025150371E+03 -0.48225147484E+02  0.58922345439E+03  0.50400001928E-02 0.  1.
       -1    1    3    3    0  502  0.20513872622E+03  0.55025150371E+03  0.67362396792E+03  0.89365981475E+03  0.50400001928E-02 0. -1.
</event>
<event>
 5   0  0.2236184E-03  0.1354363E+04  0.7818609E-02  0.8987532E-01
        2   -1    0    0  501    0  0.00000000000E+00  0.00000000000E+00  0.55814431348E+03  0.55814431349E+03  0.25500000920E-02 0. -1.
       -2   -1    0    0    0  501  0.00000000000E+00  0.00000000000E+00 -0.82160618421E+03  0.82160618421E+03  0.25500000920E-02 0.  1.
    10030    2    1    2    0    0  0.00000000000E+00  0.00000000000E+00 -0.26346187072E+03  0.13797504977E+04  0.13543630527E+04 0.  0.
        3    1    3    3  502    0  0.46925334107E+01  0.12297349453E+03  0.54665705208E+03  0.56033779368E+03  0.10100000352E+00 0. -1.
       -3    1    3    3    0  502 -0.46925334107E+01 -0.12297349453E+03 -0.81011892281E+03  0.81941270403E+03  0.10100000352E+00 0.  1.
</event>
<event>
 5   0  0.1175374E-03  0.1278068E+04  0.7818609E-02  0.9047141E-01
        1   -1    0    0  501    0  0.00000000000E+00  0.00000000000E+00  0.41218697216E+03  0.41218697219E+03  0.50400001928E-02 0.  1.
       -1   -1    0    0    0  501  0.00000000000E+00  0.00000000000E+00 -0.99072572723E+03  0.99072572724E+03  0.50400001928E-02 0. -1.
    10030    2    1    2    0    0  0.00000000000E+00  0.00000000000E+00 -0.57853875507E+03  0.14029126994E+04  0.12780676630E+04 0.  0.
        3    1    3    3  502    0  0.21022056376E+03  0.27690062400E+03  0.29929490291E+03  0.45874185563E+03  0.10100000352E+00 0.  1.
       -3    1    3    3    0  502 -0.21022056376E+03 -0.27690062400E+03 -0.87783365798E+03  0.94417084380E+03  0.10100000352E+00 0. -1.
</event>
<event>
 5   0  0.1199720E-03  0.1396020E+04  0.7818609E-02  0.8956704E-01
       -1   -1    0    0    0  501  0.00000000000E+00  0.00000000000E+00  0.58515297351E+03  0.58515297353E+03  0.50400001928E-02 0. -1.
        1   -1    0    0  501    0  0.00000000000E+00  0.00000000000E+00 -0.83263406005E+03  0.83263406006E+03  0.50400001928E-02 0.  1.
    10030    2    1    2    0    0  0.00000000000E+00  0.00000000000E+00 -0.24748108654E+03  0.14177870336E+04  0.13960204814E+04 0.  0.
        5    1    3    3  502    0 -0.48598025367E+03  0.26358060395E+02 -0.63186607871E+03  0.79758910833E+03  0.46999998093E+01 0.  1.
       -5    1    3    3    0  502  0.48598025367E+03 -0.26358060395E+02  0.38438499217E+03  0.62019792527E+03  0.46999998093E+01 0. -1.
</event>
<event>
 5   0  0.1210275E-03  0.1392199E+04  0.7818609E-02  0.8959485E-01
       -1   -1    0    0    0  501  0.00000000000E+00  0.00000000000E+00  0.83290783939E+03  0.83290783941E+03  0.50400001928E-02 0.  1.
        1   -1    0    0  501    0  0.00000000000E+00  0.00000000000E+00 -0.58176214530E+03  0.58176214532E+03  0.50400001928E-02 0. -1.
    10030    2    1    2    0    0  0.00000000000E+00  0.00000000000E+00  0.25114569409E+03  0.14146699847E+04  0.13921986231E+04 0.  0.
        1    1    3    3  502    0  0.29413059277E+03 -0.37615699655E+03 -0.38910765278E+03  0.61596400637E+03  0.50400001928E-02 0. -1.
       -1    1    3    3    0  502 -0.29413059277E+03  0.37615699655E+03  0.64025334688E+03  0.79870597836E+03  0.50400001928E-02 0.  1.
</event>
<event>
 5   0  0.1210275E-03  0.1445369E+04  0.7818609E-02  0.8921617E-01
       -1   -1    0    0    0  501  0.00000000000E+00  0.00000000000E+00  0.56635312535E+03  0.56635312537E+03  0.50400001928E-02 0. -1.
        1   -1    0    0  501    0  0.00000000000E+00  0.00000000000E+00 -0.92216878750E+03  0.92216878752E+03  0.50400001928E-02 0.  1.
    10030    2    1    2    0    0  0.00000000000E+00  0.00000000000E+00 -0.35581566215E+03  0.14885219129E+04  0.14453693991E+04 0.  0.
        1    1    3    3  502    0  0.34673493623E+03  0.63263911280E+03 -0.13402326584E+03  0.73377080813E+03  0.50400001928E-02 0. -1.
       -1    1    3    3    0  502 -0.34673493623E+03 -0.63263911280E+03 -0.22179239631E+03  0.75475110476E+03  0.50400001928E-02 0.  1.
</event>
<event>
 5   0  0.2236184E-03  0.1400370E+04  0.7818609E-02  0.8953551E-01
       -2   -1    0    0    0  501  0.00000000000E+00  0.00000000000E+00  0.42342455124E+03  0.42342455125E+03  0.25500000920E-02 0. -1.
        2   -1    0    0  501    0  0.00000000000E+00  0.00000000000E+00 -0.11578429714E+04  0.11578429714E+04  0.25500000920E-02 0.  1.
    10030    2    1    2    0    0  0.00000000000E+00  0.00000000000E+00 -0.73441842016E+03  0.15812675226E+04  0.14003701519E+04 0.  0.
        3    1    3    3  502    0 -0.52311034629E+03 -0.23158384383E+03  0.88653937148E+02  0.57890849181E+03  0.10100000352E+00 0. -1.
       -3    1    3    3    0  502  0.52311034629E+03  0.23158384383E+03 -0.82307235731E+03  0.10023590308E+04  0.10100000352E+00 0.  1.
</event>
<event>
 5   0  0.1210275E-03  0.1449618E+04  0.7818609E-02  0.8918665E-01
        1   -1    0    0  501    0  0.00000000000E+00  0.00000000000E+00  0.41609162865E+03  0.41609162868E+03  0.50400001928E-02 0.  1.
       -1   -1    0    0    0  501  0.00000000000E+00  0.00000000000E+00 -0.12625786289E+04  0.12625786289E+04  0.50400001928E-02 0. -1.
    10030    2    1    2    0    0  0.00000000000E+00  0.00000000000E+00 -0.84648700029E+03  0.16786702576E+04  0.14496184299E+04 0.  0.
        1    1    3    3  502    0 -0.13941267987E+03  0.71032290444E+03 -0.38063454935E+03  0.81784912060E+03  0.50400001928E-02 0. -1.
       -1    1    3    3    0  502  0.13941267987E+03 -0.71032290444E+03 -0.46585245093E+03  0.86082113703E+03  0.50400001928E-02 0.  1.
</event>
<event>
 5   0  0.1238683E-03  0.1413891E+04  0.7818609E-02  0.8943825E-01
       -1   -1    0    0    0  501  0.00000000000E+00  0.00000000000E+00  0.54371435311E+03  0.54371435314E+03  0.50400001928E-02 0.  1.
        1   -1    0    0  501    0  0.00000000000E+00  0.00000000000E+00 -0.91918054779E+03  0.91918054781E+03  0.50400001928E-02 0. -1.
    10030    2    1    2    0    0  0.00000000000E+00  0.00000000000E+00 -0.37546619468E+03  0.14628949009E+04  0.14138905997E+04 0.  0.
        2    1    3    3  502    0  0.34225558927E+03 -0.17329418582E+03  0.42665053793E+03  0.57375991908E+03  0.25500000920E-02 0.  1.
       -2    1    3    3    0  502 -0.34225558927E+03  0.17329418582E+03 -0.80211673261E+03  0.88913498186E+03  0.25500000920E-02 0. -1.
</event>
<event>
 5   0  0.1199720E-03  0.1410290E+04  0.7818609E-02  0.8946404E-01
       -1   -1    0    0    0  501  0.00000000000E+00  0.00000000000E+00  0.55697068301E+03  0.55697068304E+03  0.50400001928E-02 0.  1.
        1   -1    0    0  501    0  0.00000000000E+00  0.00000000000E+00 -0.89273905213E+03  0.89273905214E+03  0.50400001928E-02 0. -1.
    10030    2    1    2    0    0  0.00000000000E+00  0.00000000000E+00 -0.33576836912E+03  0.14497097352E+04  0.14102900122E+04 0.  0.
        5    1    3    3  502    0 -0.10950817278E+00 -0.84352958930E+02  0.55174938188E+03  0.55817999254E+03  0.46999998093E+01 0.  1.
       -5    1    3    3    0  502  0.10950817278E+00  0.84352958930E+02 -0.88751775100E+03  0.89152974264E+03  0.46999998093E+01 0. -1.
</event>
<event>
 5   0  0.2195980E-03  0.1150391E+04  0.7818609E-02  0.9157423E-01
        2   -1    0    0  501    0  0.00000000000E+00  0.00000000000E+00  0.18652722380E+04  0.18652722380E+04  0.25500000920E-02 0. -1.
       -2   -1    0    0    0  501  0.00000000000E+00  0.00000000000E+00 -0.17737344227E+03  0.17737344228E+03  0.25500000920E-02 0.  1.
    10030    2    1    2    0    0  0.00000000000E+00  0.00000000000E+00  0.16878987957E+04  0.20426456803E+04  0.11503908164E+04 0.  0.
        4    1    3    3  502    0 -0.26004047748E+03 -0.79220225525E+02 -0.56113794489E+02  0.27757389086E+03  0.12699999809E+01 0.  1.
       -4    1    3    3    0  502  0.26004047748E+03  0.79220225525E+02  0.17440125902E+04  0.17650717894E+04  0.12699999809E+01 0. -1.
</event>
<event>
 5   0  0.2236184E-03  0.1396220E+04  0.7818609E-02  0.8956559E-01
        2   -1    0    0  501    0  0.00000000000E+00  0.00000000000E+00  0.43156998331E+03  0.43156998332E+03  0.25500000920E-02 0. -1.
       -2   -1    0    0    0  501  0.00000000000E+00  0.00000000000E+00 -0.11292666082E+04  0.11292666082E+04  0.25500000920E-02 0.  1.
    10030    2    1    2    0    0  0.00000000000E+00  0.00000000000E+00 -0.69769662490E+03  0.15608365915E+04  0.13962199988E+04 0.  0.
        3    1    3    3  502    0  0.45767321109E+03 -0.43215385625E+03 -0.68632841926E+03  0.93127248049E+03  0.10100000352E+00 0. -1.
       -3    1    3    3    0  502 -0.45767321109E+03  0.43215385625E+03 -0.11368205641E+02  0.62956411105E+03  0.10100000352E+00 0.  1.
</event>
<event>
 5   0  0.1225690E-03  0.1407741E+04  0.7818609E-02  0.8948234E-01
        1   -1    0    0  501    0  0.00000000000E+00  0.00000000000E+00  0.74625614754E+03  0.74625614756E+03  0.50400001928E-02 0.  1.
       -1   -1    0    0    0  501  0.00000000000E+00  0.00000000000E+00 -0.66389252636E+03  0.66389252638E+03  0.50400001928E-02 0. -1.
    10030    2    1    2    0    0  0.00000000000E+00  0.00000000000E+00  0.82363621177E+02  0.14101486739E+04  0.14077412818E+04 0.  0.
        4    1    3    3  502    0 -0.46515402148E+03  0.10008971626E+03  0.56076533094E+03  0.73542204500E+03  0.12699999809E+01 0.  1.
       -4    1    3    3    0  502  0.46515402148E+03 -0.10008971626E+03 -0.47840170976E+03  0.67472662894E+03  0.12699999809E+01 0. -1.
</event>
<event>
 5   0  0.1238683E-03  0.1406316E+04  0.7818609E-02  0.8949260E-01
        1   -1    0    0  501    0  0.00000000000E+00  0.00000000000E+00  0.19401759978E+04  0.19401759978E+04  0.50400001928E-02 0. -1.
       -1   -1    0    0    0  501  0.00000000000E+00  0.00000000000E+00 -0.25483812985E+03  0.25483812990E+03  0.50400001928E-02 0.  1.
    10030    2    1    2    0    0  0.00000000000E+00  0.00000000000E+00  0.16853378679E+04  0.21950141277E+04  0.14063155022E+04 0.  0.
        2    1    3    3  502    0  0.68295503588E+03  0.14401065725E+03  0.70963953487E+03  0.99536672633E+03  0.25500000920E-02 0. -1.
       -2    1    3    3    0  502 -0.68295503588E+03 -0.14401065725E+03  0.97569833303E+03  0.11996474013E+04  0.25500000920E-02 0.  1.
</event>
<event>
 5   0  0.1225690E-03  0.1370681E+04  0.7818609E-02  0.8975319E-01
       -1   -1    0    0    0  501  0.00000000000E+00  0.00000000000E+00  0.34009292808E+03  0.34009292812E+03  0.50400001928E-02 0.  1.
        1   -1    0    0  501    0  0.00000000000E+00  0.00000000000E+00 -0.13810689812E+04  0.13810689813E+04  0.50400001928E-02 0. -1.
    10030    2    1    2    0    0  0.00000000000E+00  0.00000000000E+00 -0.10409760532E+04  0.17211619094E+04  0.13706812813E+04 0.  0.
        4    1    3    3  502    0 -0.58995822822E+03 -0.20775687837E+03 -0.16872094673E+03  0.64782868285E+03  0.12699999809E+01 0.  1.
       -4    1    3    3    0  502  0.58995822822E+03  0.20775687837E+03 -0.87225510643E+03  0.10733332265E+04  0.12699999809E+01 0. -1.
</event>
<event>
 5   0  0.1210275E-03  0.1396218E+04  0.7818609E-02  0.8956561E-01
        1   -1    0    0  501    0  0.00000000000E+00  0.00000000000E+00  0.84320415888E+03  0.84320415889E+03  0.50400001928E-02 0.  1.
       -1   -1    0    0    0  501  0.00000000000E+00  0.00000000000E+00 -0.57798132654E+03  0.57798132656E+03  0.50400001928E-02 0. -1.
    10030    2    1    2    0    0  0.00000000000E+00  0.00000000000E+00  0.26522283234E+03  0.14211854855E+04  0.13962181181E+04 0.  0.
        1    1    3    3  502    0  0.34642738918E+03 -0.19475384129E+03  0.71682190952E+03  0.81961859707E+03  0.50400001928E-02 0.  1.
       -1    1    3    3    0  502 -0.34642738918E+03  0.19475384129E+03 -0.45159907718E+03  0.60156688838E+03  0.50400001928E-02 0. -1.
</event>
<event>
 5   0  0.8293000E-04  0.1409271E+04  0.7818609E-02  0.8947135E-01
       -3   -1    0    0    0  501  0.00000000000E+00  0.00000000000E+00  0.78717242307E+03  0.78717242955E+03  0.10100000352E+00 0. -1.
        3   -1    0    0  501    0  0.00000000000E+00  0.00000000000E+00 -0.63075236980E+03  0.63075237789E+03  0.10100000352E+00 0.  1.
    10030    2    1    2    0    0  0.00000000000E+00  0.00000000000E+00  0.15642005327E+03  0.14179248074E+04  0.14092705654E+04 0.  0.
        4    1    3    3  502    0  0.32877193693E+03 -0.31298491572E+03  0.62046186466E+03  0.76878155700E+03  0.12699999809E+01 0. -1.
       -4    1    3    3    0  502 -0.32877193693E+03  0.31298491572E+03 -0.46404181139E+03  0.64914325044E+03  0.12699999809E+01 0.  1.
</event>
<event>
 5   0  0.1225690E-03  0.1395543E+04  0.7818609E-02  0.8957051E-01
        1   -1    0    0  501    0  0.00000000000E+00  0.00000000000E+00  0.15439425943E+04  0.15439425944E+04  0.50400001928E-02 0. -1.
       -1   -1    0    0    0  501  0.00000000000E+00  0.00000000000E+00 -0.31535168863E+03  0.31535168867E+03  0.50400001928E-02 0.  1.
    10030    2    1    2    0    0  0.00000000000E+00  0.00000000000E+00  0.12285909057E+04  0.18592942830E+04  0.13955427680E+04 0.  0.
        4    1    3    3  502    0  0.12337366369E+03  0.46778403316E+03  0.12842234944E+04  0.13723245094E+04  0.12699999809E+01 0. -1.
       -4    1    3    3    0  502 -0.12337366369E+03 -0.46778403316E+03 -0.55632588723E+02  0.48696977360E+03  0.12699999809E+01 0.  1.
</event>
<event>
 5   0  0.2195980E-03  0.1151199E+04  0.7818609E-02  0.9156678E-01
        2   -1    0    0  501    0  0.00000000000E+00  0.00000000000E+00  0.36342882235E+03  0.36342882236E+03  0.25500000920E-02 0. -1.
       -2   -1    0    0    0  501  0.00000000000E+00  0.00000000000E+00 -0.91163641407E+03  0.91163641408E+03  0.25500000920E-02 0.  1.
    10030    2    1    2    0    0  0.00000000000E+00  0.00000000000E+00 -0.54820759173E+03  0.12750652364E+04  0.11511992849E+04 0.  0.
        4    1    3    3  502    0 -0.15655082537E+03 -0.41123015422E+03  0.13689530945E+03  0.46082571469E+03  0.12699999809E+01 0. -1.
       -4    1    3    3    0  502  0.15655082537E+03  0.41123015422E+03 -0.68510290118E+03  0.81423952175E+03  0.12699999809E+01 0.  1.
</event>
<event>
 5   0  0.8293000E-04  0.1387665E+04  0.7818609E-02  0.8962796E-01
        3   -1    0    0  501    0  0.00000000000E+00  0.00000000000E+00  0.43926855946E+03  0.43926857107E+03  0.10100000352E+00 0. -1.
       -3   -1    0    0    0  501  0.00000000000E+00  0.00000000000E+00 -0.10959214913E+04  0.10959214960E+04  0.10100000352E+00 0.  1.
    10030    2    1    2    0    0  0.00000000000E+00  0.00000000000E+00 -0.65665293185E+03  0.15351900670E+04  0.13876654745E+04 0.  0.
        5    1    3    3  502    0 -0.22177616443E+03 -0.52368235672E+03  0.11135944004E+03  0.57952643834E+03  0.46999998093E+01 0. -1.
       -5    1    3    3    0  502  0.22177616443E+03  0.52368235672E+03 -0.76801237189E+03  0.95566362870E+03  0.46999998093E+01 0.  1.
</event>
<event>
 5   0  0.2195980E-03  0.1364975E+04  0.7818609E-02  0.8979569E-01
        2   -1    0    0  501    0  0.00000000000E+00  0.00000000000E+00  0.52279573820E+03  0.52279573821E+03  0.25500000920E-02 0.  1.
       -2   -1    0    0    0  501  0.00000000000E+00  0.00000000000E+00 -0.89095824208E+03  0.89095824209E+03  0.25500000920E-02 0. -1.
    10030    2    1    2    0    0  0.00000000000E+00  0.00000000000E+00 -0.36816250388E+03  0.14137539803E+04  0.13649749769E+04 0.  0.
        4    1    3    3  502    0  0.58290978245E+03  0.50327978469E+02  0.17986005521E+03  0.61210127615E+03  0.12699999809E+01 0.  1.
       -4    1    3    3    0  502 -0.58290978245E+03 -0.50327978469E+02 -0.54802255909E+03  0.80165270415E+03  0.12699999809E+01 0. -1.
</event>
<event>
 5   0  0.1210275E-03  0.1351691E+04  0.7818609E-02  0.8989549E-01
        1   -1    0    0  501    0  0.00000000000E+00  0.00000000000E+00  0.17414888859E+04  0.17414888859E+04  0.50400001928E-02 0. -1.
       -1   -1    0    0    0  501  0.00000000000E+00  0.00000000000E+00 -0.26228558192E+03  0.26228558197E+03  0.50400001928E-02 0.  1.
    10030    2    1    2    0    0  0.00000000000E+00  0.00000000000E+00  0.14792033040E+04  0.20037744679E+04  0.13516914232E+04 0.  0.
        1    1    3    3  502    0 -0.26197072969E+03  0.25498269268E+03  0.15822666219E+04  0.16239496604E+04  0.50400001928E-02 0. -1.
       -1    1    3    3    0  502  0.26197072969E+03 -0.25498269268E+03 -0.10306331797E+03  0.37982480740E+03  0.50400001928E-02 0.  1.
</event>
<event>
 5   0  0.1225690E-03  0.1405396E+04  0.7818609E-02  0.8949922E-01
        1   -1    0    0  501    0  0.00000000000E+00  0.00000000000E+00  0.11089647766E+04  0.11089647767E+04  0.50400001928E-02 0. -1.
       -1   -1    0    0    0  501  0.00000000000E+00  0.00000000000E+00 -0.44526586748E+03  0.44526586751E+03  0.50400001928E-02 0.  1.
    10030    2    1    2    0    0  0.00000000000E+00  0.00000000000E+00  0.66369890916E+03  0.15542306442E+04  0.14053955505E+04 0.  0.
        4    1    3    3  502    0 -0.65690725089E+03 -0.21855786785E+03  0.19873684373E+03  0.72027260382E+03  0.12699999809E+01 0.  1.
       -4    1    3    3    0  502  0.65690725089E+03  0.21855786785E+03  0.46496206543E+03  0.83395804035E+03  0.12699999809E+01 0. -1.
</event>
<event>
 5   0  0.2195980E-03  0.1384775E+04  0.7818609E-02  0.8964913E-01
        2   -1    0    0  501    0  0.00000000000E+00  0.00000000000E+00  0.15971471170E+04  0.15971471170E+04  0.25500000920E-02 0.  1.
       -2   -1    0    0    0  501  0.00000000000E+00  0.00000000000E+00 -0.30016053982E+03  0.30016053983E+03  0.25500000920E-02 0. -1.
    10030    2    1    2    0    0  0.00000000000E+00  0.00000000000E+00  0.12969865772E+04  0.18973076568E+04  0.13847751310E+04 0.  0.
        4    1    3    3  502    0  0.21471271590E+03  0.41277800810E+02 -0.25161748940E+03  0.33334423811E+03  0.12699999809E+01 0. -1.
       -4    1    3    3    0  502 -0.21471271590E+03 -0.41277800810E+02  0.15486040666E+04  0.15639634187E+04  0.12699999809E+01 0.  1.
</event>
<event>
 5   0  0.2195980E-03  0.1479241E+04  0.7818609E-02  0.8898376E-01
        2   -1    0    0  501    0  0.00000000000E+00  0.00000000000E+00  0.94692987145E+03  0.94692987145E+03  0.25500000920E-02 0.  1.
       -2   -1    0    0    0  501  0.00000000000E+00  0.00000000000E+00 -0.57769714143E+03  0.57769714143E+03  0.25500000920E-02 0. -1.
    10030    2    1    2    0    0  0.00000000000E+00  0.00000000000E+00  0.36923273002E+03  0.15246270129E+04  0.14792412648E+04 0.  0.
        4    1    3    3  502    0  0.11106585422E+03 -0.68944193314E+03 -0.66521815649E+02  0.70149309904E+03  0.12699999809E+01 0. -1.
       -4    1    3    3    0  502 -0.11106585422E+03  0.68944193314E+03  0.43575454567E+03  0.82313391384E+03  0.12699999809E+01 0.  1.
</event>
<event>
 5   0  0.2190704E-03  0.1364690E+04  0.7818609E-02  0.8979782E-01
        2   -1    0    0  501    0  0.00000000000E+00  0.00000000000E+00  0.12655715837E+04  0.12655715837E+04  0.25500000920E-02 0.  1.
       -2   -1    0    0    0  501  0.00000000000E+00  0.00000000000E+00 -0.36789274998E+03  0.36789274999E+03  0.25500000920E-02 0. -1.
    10030    2    1    2    0    0  0.00000000000E+00  0.00000000000E+00  0.89767883372E+03  0.16334643337E+04  0.13646898699E+04 0.  0.
        5    1    3    3  502    0 -0.23253457830E+03  0.63995828118E+03  0.50174387029E+03  0.84580608483E+03  0.46999998093E+01 0. -1.
       -5    1    3    3    0  502  0.23253457830E+03 -0.63995828118E+03  0.39593496343E+03  0.78765824888E+03  0.46999998093E+01 0.  1.
</event>
<event>
 5   0  0.2083966E-03  0.9121602E+03  0.7818609E-02  0.9410507E-01
       -2   -1    0    0    0  501  0.00000000000E+00  0.00000000000E+00  0.90548529127E+03  0.90548529128E+03  0.25500000920E-02 0. -1.
        2   -1    0    0  501    0  0.00000000000E+00  0.00000000000E+00 -0.22972109287E+03  0.22972109289E+03  0.25500000920E-02 0.  1.
    10030    2    1    2    0    0  0.00000000000E+00  0.00000000000E+00  0.67576419840E+03  0.11352063842E+04  0.91216022869E+03 0.  0.
        1    1    3    3  502    0  0.79941348858E+02  0.42469181942E+03  0.15644027094E+03  0.45959473358E+03  0.50400001928E-02 0. -1.
       -1    1    3    3    0  502 -0.79941348858E+02 -0.42469181942E+03  0.51932392746E+03  0.67561165058E+03  0.50400001928E-02 0.  1.
</event>
<event>
 5   0  0.1199720E-03  0.1487829E+04  0.7818609E-02  0.8892587E-01
        1   -1    0    0  501    0  0.00000000000E+00  0.00000000000E+00  0.84103227349E+03  0.84103227351E+03  0.50400001928E-02 0. -1.
       -1   -1    0    0    0  501  0.00000000000E+00  0.00000000000E+00 -0.65801110387E+03  0.65801110389E+03  0.50400001928E-02 0.  1.
    10030    2    1    2    0    0  0.00000000000E+00  0.00000000000E+00  0.18302116962E+03  0.14990433774E+04  0.14878287196E+04 0.  0.
        5    1    3    3  502    0  0.18546505758E+03 -0.14646377607E+03 -0.61916958620E+03  0.66275334157E+03  0.46999998093E+01 0.  1.
       -5    1    3    3    0  502 -0.18546505758E+03  0.14646377607E+03  0.80219075583E+03  0.83629003582E+03  0.46999998093E+01 0. -1.
</event>
<event>
 5   0  0.2190704E-03  0.1382382E+04  0.7818609E-02  0.8966671E-01
        2   -1    0    0  501    0  0.00000000000E+00  0.00000000000E+00  0.16531604388E+04  0.16531604388E+04  0.25500000920E-02 0.  1.
       -2   -1    0    0    0  501  0.00000000000E+00  0.00000000000E+00 -0.28898892088E+03  0.28898892089E+03  0.25500000920E-02 0. -1.
    10030    2    1    2    0    0  0.00000000000E+00  0.00000000000E+00  0.13641715180E+04  0.19421493597E+04  0.13823820764E+04 0.  0.
        5    1    3    3  502    0 -0.40120505953E+03 -0.49100226754E+02 -0.10561077706E+03  0.41779427747E+03  0.46999998093E+01 0. -1.
       -5    1    3    3    0  502  0.40120505953E+03  0.49100226754E+02  0.14697822950E+04  0.15243550823E+04  0.46999998093E+01 0.  1.
</event>
<event>
 5   0  0.8293000E-04  0.1392981E+04  0.7818609E-02  0.8958915E-01
        4   -1    0    0  501    0  0.00000000000E+00  0.00000000000E+00  0.24875305787E+04  0.24875309028E+04  0.12699999809E+01 0.  1.
       -4   -1    0    0    0  501  0.00000000000E+00  0.00000000000E+00 -0.19500979981E+03  0.19501393520E+03  0.12699999809E+01 0. -1.
    10030    2    1    2    0    0  0.00000000000E+00  0.00000000000E+00  0.22925207788E+04  0.26825448380E+04  0.13929807201E+04 0.  0.
        5    1    3    3  502    0  0.23033839602E+03 -0.35494811910E+03  0.80926203447E+02  0.43083069104E+03  0.46999998093E+01 0. -1.
       -5    1    3    3    0  502 -0.23033839602E+03  0.35494811910E+03  0.22115945754E+04  0.22517141470E+04  0.46999998093E+01 0.  1.
</event>
<event>
 5   0  0.2190704E-03  0.1378594E+04  0.7818609E-02  0.8969461E-01
        2   -1    0    0  501    0  0.00000000000E+00  0.00000000000E+00  0.75489673709E+03  0.75489673709E+03  0.25500000920E-02 0.  1.
       -2   -1    0    0    0  501  0.00000000000E+00  0.00000000000E+00 -0.62939768258E+03  0.62939768258E+03  0.25500000920E-02 0. -1.
    10030    2    1    2    0    0  0.00000000000E+00  0.00000000000E+00  0.12549905451E+03  0.13842944197E+04  0.13785938588E+04 0.  0.
        5    1    3    3  502    0  0.20601407036E+03 -0.65052457952E+03 -0.35039726864E+02  0.68328171218E+03  0.46999998093E+01 0. -1.
       -5    1    3    3    0  502 -0.20601407036E+03  0.65052457952E+03  0.16053878137E+03  0.70101270749E+03  0.46999998093E+01 0.  1.
</event>
<event>
 5   0  0.1175374E-03  0.1063936E+04  0.7818609E-02  0.9241073E-01
        1   -1    0    0  501    0  0.00000000000E+00  0.00000000000E+00  0.27532256503E+03  0.27532256508E+03  0.50400001928E-02 0. -1.
       -1   -1    0    0    0  501  0.00000000000E+00  0.00000000000E+00 -0.10278489695E+04  0.10278489695E+04  0.50400001928E-02 0.  1.
    10030    2    1    2    0    0  0.00000000000E+00  0.00000000000E+00 -0.75252640442E+03  0.13031715345E+04  0.10639361161E+04 0.  0.
        3    1    3    3  502    0  0.29764261872E+03  0.43195230193E+03 -0.48455128602E+03  0.71411755238E+03  0.10100000352E+00 0. -1.
       -3    1    3    3    0  502 -0.29764261872E+03 -0.43195230193E+03 -0.26797511839E+03  0.58905398216E+03  0.10100000352E+00 0.  1.
</event>
<event>
 5   0  0.1225690E-03  0.1455750E+04  0.7818609E-02  0.8914424E-01
       -1   -1    0    0    0  501  0.00000000000E+00  0.00000000000E+00  0.64763060729E+03  0.64763060731E+03  0.50400001928E-02 0.  1.
        1   -1    0    0  501    0  0.00000000000E+00  0.00000000000E+00 -0.81806165144E+03  0.81806165146E+03  0.50400001928E-02 0. -1.
    10030    2    1    2    0    0  0.00000000000E+00  0.00000000000E+00 -0.17043104415E+03  0.14656922588E+04  0.14557496545E+04 0.  0.
        4    1    3    3  502    0  0.67218308025E+03 -0.34262685785E+02  0.19379832374E+03  0.70040233309E+03  0.12699999809E+01 0.  1.
       -4    1    3    3    0  502 -0.67218308025E+03  0.34262685785E+02 -0.36422936789E+03  0.76528992568E+03  0.12699999809E+01 0. -1.
</event>
<event>
 5   0  0.1175374E-03  0.1465559E+04  0.7818609E-02  0.8907684E-01
       -1   -1    0    0    0  501  0.00000000000E+00  0.00000000000E+00  0.66488750356E+03  0.66488750358E+03  0.50400001928E-02 0.  1.
        1   -1    0    0  501    0  0.00000000000E+00  0.00000000000E+00 -0.80760406622E+03  0.80760406623E+03  0.50400001928E-02 0. -1.
    10030    2    1    2    0    0  0.00000000000E+00  0.00000000000E+00 -0.14271656266E+03  0.14724915698E+04  0.14655590762E+04 0.  0.
        3    1    3    3  502    0 -0.34628731786E+03  0.13877372849E+03  0.56233330319E+03  0.67482724331E+03  0.10100000352E+00 0.  1.
       -3    1    3    3    0  502  0.34628731786E+03 -0.13877372849E+03 -0.70504986585E+03  0.79766432650E+03  0.10100000352E+00 0. -1.
</event>
<event>
 5   0  0.1175374E-03  0.1015954E+04  0.7818609E-02  0.9291218E-01
        1   -1    0    0  501    0  0.00000000000E+00  0.00000000000E+00  0.17631023464E+03  0.17631023471E+03  0.50400001928E-02 0.  1.
       -1   -1    0    0    0  501  0.00000000000E+00  0.00000000000E+00 -0.14635593034E+04  0.14635593034E+04  0.50400001928E-02 0. -1.
    10030    2    1    2    0    0  0.00000000000E+00  0.00000000000E+00 -0.12872490688E+04  0.16398695382E+04  0.10159537081E+04 0.  0.
        3    1    3    3  502    0 -0.25373340015E+03 -0.39135816722E+03 -0.31879501111E+03  0.56495320400E+03  0.10100000352E+00 0.  1.
       -3    1    3    3    0  502  0.25373340015E+03  0.39135816722E+03 -0.96845405768E+03  0.10749163342E+04  0.10100000352E+00 0. -1.
</event>
<event>
 5   0  0.2172901E-03  0.1397570E+04  0.7818609E-02  0.8955580E-01
        2   -1    0    0  501    0  0.00000000000E+00  0.00000000000E+00  0.88284243589E+03  0.88284243589E+03  0.25500000920E-02 0. -1.
       -2   -1    0    0    0  501  0.00000000000E+00  0.00000000000E+00 -0.55310007731E+03  0.55310007732E+03  0.25500000920E-02 0.  1.
    10030    2    1    2    0    0  0.00000000000E+00  0.00000000000E+00  0.32974235858E+03  0.14359425132E+04  0.13975696327E+04 0.  0.
        2    1    3    3  502    0 -0.18970539703E+03 -0.63690417347E+03 -0.57081278115E+02  0.66700325049E+03  0.25500000920E-02 0.  1.
       -2    1    3    3    0  502  0.18970539703E+03  0.63690417347E+03  0.38682363669E+03  0.76893926272E+03  0.25500000920E-02 0. -1.
</event>
<event>
 5   0  0.1199720E-03  0.1418344E+04  0.7818609E-02  0.8940646E-01
        1   -1    0    0  501    0  0.00000000000E+00  0.00000000000E+00  0.15457119710E+04  0.15457119710E+04  0.50400001928E-02 0. -1.
       -1   -1    0    0    0  501  0.00000000000E+00  0.00000000000E+00 -0.32536800700E+03  0.32536800704E+03  0.50400001928E-02 0.  1.
    10030    2    1    2    0    0  0.00000000000E+00  0.00000000000E+00  0.12203439640E+04  0.18710799780E+04  0.14183444200E+04 0.  0.
        5    1    3    3  502    0  0.34718057162E+02 -0.69231632523E+03  0.41275029172E+03  0.80677886127E+03  0.46999998093E+01 0.  1.
       -5    1    3    3    0  502 -0.34718057162E+02  0.69231632523E+03  0.80759367227E+03  0.10643011168E+04  0.46999998093E+01 0. -1.
</event>
<event>
 5   0  0.1238683E-03  0.1385570E+04  0.7818609E-02  0.8964330E-01
       -1   -1    0    0    0  501  0.00000000000E+00  0.00000000000E+00  0.75272505217E+03  0.75272505219E+03  0.50400001928E-02 0. -1.
        1   -1    0    0  501    0  0.00000000000E+00  0.00000000000E+00 -0.63761812529E+03  0.63761812531E+03  0.50400001928E-02 0.  1.
    10030    2    1    2    0    0  0.00000000000E+00  0.00000000000E+00  0.11510692688E+03  0.13903431775E+04  0.13855701161E+04 0.  0.
        2    1    3    3  502    0 -0.46081783752E+03 -0.25906313071E+03 -0.39174376781E+03  0.65797413680E+03  0.25500000920E-02 0.  1.
       -2    1    3    3    0  502  0.46081783752E+03  0.25906313071E+03  0.50685069469E+03  0.73236904070E+03  0.25500000920E-02 0. -1.
</event>
<event>
 5   0  0.1175374E-03  0.1421386E+04  0.7818609E-02  0.8938482E-01
        1   -1    0    0  501    0  0.00000000000E+00  0.00000000000E+00  0.62317569185E+03  0.62317569187E+03  0.50400001928E-02 0.  1.
       -1   -1    0    0    0  501  0.00000000000E+00  0.00000000000E+00 -0.81050123660E+03  0.81050123662E+03  0.50400001928E-02 0. -1.
    10030    2    1    2    0    0  0.00000000000E+00  0.00000000000E+00 -0.18732554475E+03  0.14336769285E+04  0.14213861810E+04 0.  0.
        3    1    3    3  502    0 -0.31036599042E+03  0.16401766492E+03  0.52962543851E+03  0.63539905393E+03  0.10100000352E+00 0.  1.
       -3    1    3    3    0  502  0.31036599042E+03 -0.16401766492E+03 -0.71695098326E+03  0.79827787456E+03  0.10100000352E+00 0. -1.
</event>
<event>
 5   0  0.2083966E-03  0.1267188E+04  0.7818609E-02  0.9055997E-01
        2   -1    0    0  501    0  0.00000000000E+00  0.00000000000E+00  0.11707573045E+04  0.11707573045E+04  0.25500000920E-02 0.  1.
       -2   -1    0    0    0  501  0.00000000000E+00  0.00000000000E+00 -0.34289057544E+03  0.34289057545E+03  0.25500000920E-02 0. -1.
    10030    2    1    2    0    0  0.00000000000E+00  0.00000000000E+00  0.82786672903E+03  0.15136478799E+04  0.12671884561E+04 0.  0.
        1    1    3    3  502    0  0.51497709993E+03 -0.24185019822E+03  0.80867399198E+02  0.57465856655E+03  0.50400001928E-02 0. -1.
       -1    1    3    3    0  502 -0.51497709993E+03  0.24185019822E+03  0.74699932983E+03  0.93898931337E+03  0.50400001928E-02 0.  1.
</event>
<event>
 5   0  0.2172901E-03  0.1405975E+04  0.7818609E-02  0.8949505E-01
        2   -1    0    0  501    0  0.00000000000E+00  0.00000000000E+00  0.98813358961E+03  0.98813358962E+03  0.25500000920E-02 0.  1.
       -2   -1    0    0    0  501  0.00000000000E+00  0.00000000000E+00 -0.50012597150E+03  0.50012597151E+03  0.25500000920E-02 0. -1.
    10030    2    1    2    0    0  0.00000000000E+00  0.00000000000E+00  0.48800761811E+03  0.14882595611E+04  0.14059747814E+04 0.  0.
        2    1    3    3  502    0 -0.68061574927E+03 -0.17508587689E+03  0.26228932173E+03  0.75012568996E+03  0.25500000920E-02 0.  1.
       -2    1    3    3    0  502  0.68061574927E+03  0.17508587689E+03  0.22571829638E+03  0.73813387117E+03  0.25500000920E-02 0. -1.
</event>
<event>
 5   0  0.1175374E-03  0.1397326E+04  0.7818609E-02  0.8955756E-01
        1   -1    0    0  501    0  0.00000000000E+00  0.00000000000E+00  0.11675579355E+04  0.11675579355E+04  0.50400001928E-02 0.  1.
       -1   -1    0    0    0  501  0.00000000000E+00  0.00000000000E+00 -0.41807766894E+03  0.41807766897E+03  0.50400001928E-02 0. -1.
    10030    2    1    2    0    0  0.00000000000E+00  0.00000000000E+00  0.74948026655E+03  0.15856356045E+04  0.13973258747E+04 0.  0.
        3    1    3    3  502    0  0.13565655083E+03 -0.14863414265E+01  0.11524677426E+04  0.11604252741E+04  0.10100000352E+00 0.  1.
       -3    1    3    3    0  502 -0.13565655083E+03  0.14863414265E+01 -0.40298747602E+03  0.42521033034E+03  0.10100000352E+00 0. -1.
</event>
<event>
 5   0  0.2083966E-03  0.1383072E+04  0.7818609E-02  0.8966164E-01
       -2   -1    0    0    0  501  0.00000000000E+00  0.00000000000E+00  0.30856357501E+03  0.30856357502E+03  0.25500000920E-02 0. -1.
        2   -1    0    0  501    0  0.00000000000E+00  0.00000000000E+00 -0.15498337166E+04  0.15498337166E+04  0.25500000920E-02 0.  1.
    10030    2    1    2    0    0  0.00000000000E+00  0.00000000000E+00 -0.12412701416E+04  0.18583972917E+04  0.13830722791E+04 0.  0.
        1    1    3    3  502    0  0.19865780042E+03 -0.67062608725E+02 -0.15060942809E+04  0.15206190509E+04  0.50400001928E-02 0.  1.
       -1    1    3    3    0  502 -0.19865780042E+03  0.67062608725E+02  0.26482413924E+03  0.33777824073E+03  0.50400001928E-02 0. -1.
</event>
<event>
 5   0  0.1210275E-03  0.1404112E+04  0.7818609E-02  0.8950847E-01
       -1   -1    0    0    0  501  0.00000000000E+00  0.00000000000E+00  0.57560783667E+03  0.57560783669E+03  0.50400001928E-02 0. -1.
        1   -1    0    0  501    0  0.00000000000E+00  0.00000000000E+00 -0.85628230809E+03  0.85628230810E+03  0.50400001928E-02 0.  1.
    10030    2    1    2    0    0  0.00000000000E+00  0.00000000000E+00 -0.28067447141E+03  0.14318901448E+04  0.14041122561E+04 0.  0.
        1    1    3    3  502    0  0.28770763732E+03 -0.64038911601E+03 -0.13729450935E+03  0.71534864703E+03  0.50400001928E-02 0.  1.
       -1    1    3    3    0  502 -0.28770763732E+03  0.64038911601E+03 -0.14337996206E+03  0.71654149777E+03  0.50400001928E-02 0. -1.
</event>
<event>
 5   0  0.1175374E-03  0.1420873E+04  0.7818609E-02  0.8938847E-01
        1   -1    0    0  501    0  0.00000000000E+00  0.00000000000E+00  0.89699155791E+03  0.89699155793E+03  0.50400001928E-02 0. -1.
       -1   -1    0    0    0  501  0.00000000000E+00  0.00000000000E+00 -0.56268054849E+03  0.56268054852E+03  0.50400001928E-02 0.  1.
    10030    2    1    2    0    0  0.00000000000E+00  0.00000000000E+00  0.33431100942E+03  0.14596721064E+04  0.14208725514E+04 0.  0.
        3    1    3    3  502    0 -0.66813289783E+02  0.43957863991E+03 -0.40207474427E+03  0.59946434968E+03  0.10100000352E+00 0.  1.
       -3    1    3    3    0  502  0.66813289783E+02 -0.43957863991E+03  0.73638575369E+03  0.86020775676E+03  0.10100000352E+00 0. -1.
</event>
<event>
 5   0  0.2195980E-03  0.1399673E+04  0.7818609E-02  0.8954055E-01
        2   -1    0    0  501    0  0.00000000000E+00  0.00000000000E+00  0.52023608554E+03  0.52023608555E+03  0.25500000920E-02 0. -1.
       -2   -1    0    0    0  501  0.00000000000E+00  0.00000000000E+00 -0.94144007475E+03  0.94144007475E+03  0.25500000920E-02 0.  1.
    10030    2    1    2    0    0  0.00000000000E+00  0.00000000000E+00 -0.42120398921E+03  0.14616761603E+04  0.13996729608E+04 0.  0.
        4    1    3    3  502    0  0.64481285815E+03  0.19452246056E+03 -0.12056526033E+02  0.67362421454E+03  0.12699999809E+01 0.  1.
       -4    1    3    3    0  502 -0.64481285815E+03 -0.19452246056E+03 -0.40914746317E+03  0.78805194576E+03  0.12699999809E+01 0. -1.
</event>
<event>
 5   0  0.2190704E-03  0.1410120E+04  0.7818609E-02  0.8946526E-01
       -2   -1    0    0    0  501  0.00000000000E+00  0.00000000000E+00  0.48874339329E+03  0.48874339330E+03  0.25500000920E-02 0. -1.
        2   -1    0    0  501    0  0.00000000000E+00  0.00000000000E+00 -0.10171172051E+04  0.10171172051E+04  0.25500000920E-02 0.  1.
    10030    2    1    2    0    0  0.00000000000E+00  0.00000000000E+00 -0.52837381178E+03  0.15058605984E+04  0.14101195895E+04 0.  0.
        5    1    3    3  502    0 -0.64263633355E+02 -0.99961451370E+02  0.47795457497E+03  0.49252895556E+03  0.46999998093E+01 0. -1.
       -5    1    3    3    0  502  0.64263633355E+02  0.99961451370E+02 -0.10063283868E+04  0.10133316428E+04  0.46999998093E+01 0.  1.
</event>
<event>
 5   0  0.8293000E-04  0.1415064E+04  0.7818609E-02  0.8942986E-01
        3   -1    0    0  501    0  0.00000000000E+00  0.00000000000E+00  0.51219908946E+03  0.51219909942E+03  0.10100000352E+00 0. -1.
       -3   -1    0    0    0  501  0.00000000000E+00  0.00000000000E+00 -0.97735783891E+03  0.97735784413E+03  0.10100000352E+00 0.  1.
    10030    2    1    2    0    0  0.00000000000E+00  0.00000000000E+00 -0.46515874944E+03  0.14895569435E+04  0.14150643893E+04 0.  0.
        1    1    3    3  502    0  0.60491943142E+03  0.54940586037E+02  0.14936572237E+03  0.62550468067E+03  0.50400001928E-02 0.  1.
       -1    1    3    3    0  502 -0.60491943142E+03 -0.54940586037E+02 -0.61452447181E+03  0.86405226288E+03  0.50400001928E-02 0. -1.
</event>
<event>
 5   0  0.2083966E-03  0.1393635E+04  0.7818609E-02  0.8958439E-01
        2   -1    0    0  501    0  0.00000000000E+00  0.00000000000E+00  0.57827479375E+03  0.57827479376E+03  0.25500000920E-02 0. -1.
       -2   -1    0    0    0  501  0.00000000000E+00  0.00000000000E+00 -0.83966058645E+03  0.83966058645E+03  0.25500000920E-02 0.  1.
    10030    2    1    2    0    0  0.00000000000E+00  0.00000000000E+00 -0.26138579270E+03  0.14179353802E+04  0.13936348912E+04 0.  0.
        1    1    3    3  502    0  0.56537133690E+03  0.20713243345E+03  0.22614461651E+03  0.64318736086E+03  0.50400001928E-02 0. -1.
       -1    1    3    3    0  502 -0.56537133690E+03 -0.20713243345E+03 -0.48753040920E+03  0.77474801935E+03  0.50400001928E-02 0.  1.
</event>
<event>
 5   0  0.2190704E-03  0.1413182E+04  0.7818609E-02  0.8944331E-01
       -2   -1    0    0    0  501  0.00000000000E+00  0.00000000000E+00  0.24119846048E+03  0.24119846049E+03  0.25500000920E-02 0. -1.
        2   -1    0    0  501    0  0.00000000000E+00  0.00000000000E+00 -0.20699593433E+04  0.20699593433E+04  0.25500000920E-02 0.  1.
    10030    2    1    2    0    0  0.00000000000E+00  0.00000000000E+00 -0.18287608828E+04  0.23111578038E+04  0.14131822344E+04 0.  0.
        5    1    3    3  502    0 -0.40068057366E+03  0.46193853242E+03 -0.33543710926E+03  0.69747564410E+03  0.46999998093E+01 0. -1.
       -5    1    3    3    0  502  0.40068057366E+03 -0.46193853242E+03 -0.14933237736E+04  0.16136821597E+04  0.46999998093E+01 0.  1.
</event>
<event>
 5   0  0.2195980E-03  0.1408552E+04  0.7818609E-02  0.8947651E-01
       -2   -1    0    0    0  501  0.00000000000E+00  0.00000000000E+00  0.10123276046E+04  0.10123276046E+04  0.25500000920E-02 0.  1.
        2   -1    0    0  501    0  0.00000000000E+00  0.00000000000E+00 -0.48996490329E+03  0.48996490330E+03  0.25500000920E-02 0. -1.
    10030    2    1    2    0    0  0.00000000000E+00  0.00000000000E+00  0.52236270128E+03  0.15022925079E+04  0.14085524440E+04 0.  0.
        4    1    3    3  502    0 -0.55801135059E+02  0.27183860771E+03  0.95155636454E+03  0.99119681351E+03  0.12699999809E+01 0.  1.
       -4    1    3    3    0  502  0.55801135059E+02 -0.27183860771E+03 -0.42919366326E+03  0.51109569436E+03  0.12699999809E+01 0. -1.
</event>
<event>
 5   0  0.1175374E-03  0.1400228E+04  0.7818609E-02  0.8953653E-01
        1   -1    0    0  501    0  0.00000000000E+00  0.00000000000E+00  0.17518251491E+04  0.17518251491E+04  0.50400001928E-02 0.  1.
       -1   -1    0    0    0  501  0.00000000000E+00  0.00000000000E+00 -0.27979941745E+03  0.27979941750E+03  0.50400001928E-02 0. -1.
    10030    2    1    2    0    0  0.00000000000E+00  0.00000000000E+00  0.14720257317E+04  0.20316245666E+04  0.14002280618E+04 0.  0.
        3    1    3    3  502    0  0.59135734804E+03  0.22088775037E+03  0.29672842450E+03  0.69752611382E+03  0.10100000352E+00 0. -1.
       -3    1    3    3    0  502 -0.59135734804E+03 -0.22088775037E+03  0.11752973072E+04  0.13340984528E+04  0.10100000352E+00 0.  1.
</event>
<event>
 5   0  0.1175374E-03  0.1341995E+04  0.7818609E-02  0.8996910E-01
       -1   -1    0    0    0  501  0.00000000000E+00  0.00000000000E+00  0.75263291873E+03  0.75263291875E+03  0.50400001928E-02 0. -1.
        1   -1    0    0  501    0  0.00000000000E+00  0.00000000000E+00 -0.59821712787E+03  0.59821712789E+03  0.50400001928E-02 0.  1.
    10030    2    1    2    0    0  0.00000000000E+00  0.00000000000E+00  0.15441579087E+03  0.13508500466E+04  0.13419953845E+04 0.  0.
        3    1    3    3  502    0  0.26602543245E+03 -0.47474998447E+03 -0.31791336859E+03  0.63025867593E+03  0.10100000352E+00 0.  1.
       -3    1    3    3    0  502 -0.26602543245E+03  0.47474998447E+03  0.47232915945E+03  0.72059137070E+03  0.10100000352E+00 0. -1.
</event>
<event>
 5   0  0.2236184E-03  0.1464980E+04  0.7818609E-02  0.8908081E-01
        2   -1    0    0  501    0  0.00000000000E+00  0.00000000000E+00  0.85008058161E+03  0.85008058161E+03  0.25500000920E-02 0. -1.
       -2   -1    0    0    0  501  0.00000000000E+00  0.00000000000E+00 -0.63116573902E+03  0.63116573902E+03  0.25500000920E-02 0.  1.
    10030    2    1    2    0    0  0.00000000000E+00  0.00000000000E+00  0.21891484259E+03  0.14812463206E+04  0.14649801890E+04 0.  0.
        3    1    3    3  502    0 -0.15678837998E+02 -0.14743496291E+03 -0.61583485423E+03  0.63343150548E+03  0.10100000352E+00 0.  1.
       -3    1    3    3    0  502  0.15678837998E+02  0.14743496291E+03  0.83474969682E+03  0.84781481515E+03  0.10100000352E+00 0. -1.
</event>
<event>
 5   0  0.2195980E-03  0.1377722E+04  0.7818609E-02  0.8970104E-01
       -2   -1    0    0    0  501  0.00000000000E+00  0.00000000000E+00  0.49118618051E+03  0.49118618052E+03  0.25500000920E-02 0. -1.
        2   -1    0    0  501    0  0.00000000000E+00  0.00000000000E+00 -0.96608900931E+03  0.96608900931E+03  0.25500000920E-02 0.  1.
    10030    2    1    2    0    0  0.00000000000E+00  0.00000000000E+00 -0.47490282880E+03  0.14572751898E+04  0.13777221353E+04 0.  0.
        4    1    3    3  502    0  0.66646859633E+02 -0.72465353326E+02 -0.95860756367E+03  0.96365092506E+03  0.12699999809E+01 0.  1.
       -4    1    3    3    0  502 -0.66646859633E+02  0.72465353326E+02  0.48370473487E+03  0.49362426477E+03  0.12699999809E+01 0. -1.
</event>
<event>
 5   0  0.1238683E-03  0.1471832E+04  0.7818609E-02  0.8903404E-01
        1   -1    0    0  501    0  0.00000000000E+00  0.00000000000E+00  0.56071411407E+03  0.56071411409E+03  0.50400001928E-02 0.  1.
       -1   -1    0    0    0  501  0.00000000000E+00  0.00000000000E+00 -0.96586147983E+03  0.96586147984E+03  0.50400001928E-02 0. -1.
    10030    2    1    2    0    0  0.00000000000E+00  0.00000000000E+00 -0.40514736576E+03  0.15265755939E+04  0.14718317349E+04 0.  0.
        2    1    3    3  502    0 -0.19584843922E+03  0.56440832189E+03 -0.64827627046E+03  0.88157557124E+03  0.25500000920E-02 0. -1.
       -2    1    3    3    0  502  0.19584843922E+03 -0.56440832189E+03  0.24312890470E+03  0.64500002269E+03  0.25500000920E-02 0.  1.
</event>
<event>
 5   0  0.1210275E-03  0.1391877E+04  0.7818609E-02  0.8959720E-01
        1   -1    0    0  501    0  0.00000000000E+00  0.00000000000E+00  0.98628464181E+03  0.98628464183E+03  0.50400001928E-02 0. -1.
       -1   -1    0    0    0  501  0.00000000000E+00  0.00000000000E+00 -0.49106522751E+03  0.49106522754E+03  0.50400001928E-02 0.  1.
    10030    2    1    2    0    0  0.00000000000E+00  0.00000000000E+00  0.49521941430E+03  0.14773498694E+04  0.13918765636E+04 0.  0.
        1    1    3    3  502    0 -0.21980641652E+03 -0.59369728672E+03 -0.59170019403E+02  0.63583993286E+03  0.50400001928E-02 0.  1.
       -1    1    3    3    0  502  0.21980641652E+03  0.59369728672E+03  0.55438943370E+03  0.84150993650E+03  0.50400001928E-02 0. -1.
</event>
<event>
 5   0  0.1238683E-03  0.1318262E+04  0.7818609E-02  0.9015207E-01
       -1   -1    0    0    0  501  0.00000000000E+00  0.00000000000E+00  0.46252654092E+03  0.46252654095E+03  0.50400001928E-02 0. -1.
        1   -1    0    0  501    0  0.00000000000E+00  0.00000000000E+00 -0.93930536474E+03  0.93930536476E+03  0.50400001928E-02 0.  1.
    10030    2    1    2    0    0  0.00000000000E+00  0.00000000000E+00 -0.47677882382E+03  0.14018319057E+04  0.13182619789E+04 0.  0.
        2    1    3    3  502    0  0.21107025125E+03  0.20411436894E+03 -0.86591833821E+03  0.91434561027E+03  0.25500000920E-02 0.  1.
       -2    1    3    3    0  502 -0.21107025125E+03 -0.20411436894E+03  0.38913951439E+03  0.48748629543E+03  0.25500000920E-02 0. -1.
</event>
<event>
 5   0  0.8293000E-04  0.1397860E+04  0.7818609E-02  0.8955369E-01
        3   -1    0    0  501    0  0.00000000000E+00  0.00000000000E+00  0.64254098840E+03  0.64254099634E+03  0.10100000352E+00 0.  1.
       -3   -1    0    0    0  501  0.00000000000E+00  0.00000000000E+00 -0.76026794787E+03  0.76026795458E+03  0.10100000352E+00 0. -1.
    10030    2    1    2    0    0  0.00000000000E+00  0.00000000000E+00 -0.11772695947E+03  0.14028089509E+04  0.13978602633E+04 0.  0.
        3    1    3    3  502    0  0.81516875924E+02 -0.15505239155E+02  0.63758032763E+03  0.64295730642E+03  0.10100000352E+00 0.  1.
       -3    1    3    3    0  502 -0.81516875924E+02  0.15505239155E+02 -0.75530728710E+03  0.75985164450E+03  0.10100000352E+00 0. -1.
</event>
<event>
 5   0  0.2195980E-03  0.1388412E+04  0.7818609E-02  0.8962249E-01
       -2   -1    0    0    0  501  0.00000000000E+00  0.00000000000E+00  0.92500197231E+03  0.92500197232E+03  0.25500000920E-02 0. -1.
        2   -1    0    0  501    0  0.00000000000E+00  0.00000000000E+00 -0.52099597491E+03  0.52099597491E+03  0.25500000920E-02 0.  1.
    10030    2    1    2    0    0  0.00000000000E+00  0.00000000000E+00  0.40400599740E+03  0.14459979472E+04  0.13884124810E+04 0.  0.
        4    1    3    3  502    0  0.79725775892E+02  0.52865598600E+03  0.66318669481E+03  0.85185183920E+03  0.12699999809E+01 0. -1.
       -4    1    3    3    0  502 -0.79725775892E+02 -0.52865598600E+03 -0.25918069741E+03  0.59414610803E+03  0.12699999809E+01 0.  1.
</event>
<event>
 5   0  0.2195980E-03  0.1383084E+04  0.7818609E-02  0.8966155E-01
       -2   -1    0    0    0  501  0.00000000000E+00  0.00000000000E+00  0.42621790419E+03  0.42621790419E+03  0.25500000920E-02 0.  1.
        2   -1    0    0  501    0  0.00000000000E+00  0.00000000000E+00 -0.11220318795E+04  0.11220318795E+04  0.25500000920E-02 0. -1.
    10030    2    1    2    0    0  0.00000000000E+00  0.00000000000E+00 -0.69581397529E+03  0.15482497837E+04  0.13830836216E+04 0.  0.
        4    1    3    3  502    0 -0.24530058138E+03 -0.59369990739E+03 -0.61247227892E+02  0.64529434453E+03  0.12699999809E+01 0.  1.
       -4    1    3    3    0  502  0.24530058138E+03  0.59369990739E+03 -0.63456674740E+03  0.90295543914E+03  0.12699999809E+01 0. -1.
</event>
<event>
 5   0  0.2190704E-03  0.1467217E+04  0.7818609E-02  0.8906551E-01
        2   -1    0    0  501    0  0.00000000000E+00  0.00000000000E+00  0.45792626596E+03  0.45792626597E+03  0.25500000920E-02 0.  1.
       -2   -1    0    0    0  501  0.00000000000E+00  0.00000000000E+00 -0.11752582136E+04  0.11752582136E+04  0.25500000920E-02 0. -1.
    10030    2    1    2    0    0  0.00000000000E+00  0.00000000000E+00 -0.71733194760E+03  0.16331844795E+04  0.14672172372E+04 0.  0.
        5    1    3    3  502    0 -0.27556862002E+03 -0.23060516145E+03 -0.10705760704E+04  0.11292794239E+04  0.46999998093E+01 0. -1.
       -5    1    3    3    0  502  0.27556862002E+03  0.23060516145E+03  0.35324412276E+03  0.50390505563E+03  0.46999998093E+01 0.  1.
</event>
<event>
 5   0  0.1175374E-03  0.1382760E+04  0.7818609E-02  0.8966393E-01
        1   -1    0    0  501    0  0.00000000000E+00  0.00000000000E+00  0.96373574498E+03  0.96373574499E+03  0.50400001928E-02 0. -1.
       -1   -1    0    0    0  501  0.00000000000E+00  0.00000000000E+00 -0.49599288946E+03  0.49599288948E+03  0.50400001928E-02 0.  1.
    10030    2    1    2    0    0  0.00000000000E+00  0.00000000000E+00  0.46774285552E+03  0.14597286345E+04  0.13827596709E+04 0.  0.
        3    1    3    3  502    0 -0.64776733769E+03 -0.13909051320E+03  0.44250151128E+03  0.79671594206E+03  0.10100000352E+00 0. -1.
       -3    1    3    3    0  502  0.64776733769E+03  0.13909051320E+03  0.25241344247E+02  0.66301269242E+03  0.10100000352E+00 0.  1.
</event>
<event>
 5   0  0.1238683E-03  0.1407092E+04  0.7818609E-02  0.8948701E-01
        1   -1    0    0  501    0  0.00000000000E+00  0.00000000000E+00  0.10953602047E+04  0.10953602047E+04  0.50400001928E-02 0.  1.
       -1   -1    0    0    0  501  0.00000000000E+00  0.00000000000E+00 -0.45188535867E+03  0.45188535870E+03  0.50400001928E-02 0. -1.
    10030    2    1    2    0    0  0.00000000000E+00  0.00000000000E+00  0.64347484600E+03  0.15472455634E+04  0.14070923765E+04 0.  0.
        2    1    3    3  502    0 -0.46050344286E+03 -0.85449116818E+01  0.90653783032E+03  0.10168319793E+04  0.25500000920E-02 0.  1.
       -2    1    3    3    0  502  0.46050344286E+03  0.85449116818E+01 -0.26306298433E+03  0.53041358403E+03  0.25500000920E-02 0. -1.
</event>
<event>
 5   0  0.2083966E-03  0.1414659E+04  0.7818609E-02  0.8943275E-01
        2   -1    0    0  501    0  0.00000000000E+00  0.00000000000E+00  0.18636713694E+04  0.18636713694E+04  0.25500000920E-02 0. -1.
       -2   -1    0    0    0  501  0.00000000000E+00  0.00000000000E+00 -0.26845684785E+03  0.26845684787E+03  0.25500000920E-02 0.  1.
    10030    2    1    2    0    0  0.00000000000E+00  0.00000000000E+00  0.15952145215E+04  0.21321282173E+04  0.14146594520E+04 0.  0.
        1    1    3    3  502    0 -0.31818967945E+03  0.52485734849E+03  0.26774544478E+03  0.66963238542E+03  0.50400001928E-02 0.  1.
       -1    1    3    3    0  502  0.31818967945E+03 -0.52485734849E+03  0.13274690768E+04  0.14624958318E+04  0.50400001928E-02 0. -1.
</event>
<event>
 5   0  0.1225690E-03  0.1325258E+04  0.7818609E-02  0.9009772E-01
        1   -1    0    0  501    0  0.00000000000E+00  0.00000000000E+00  0.88748068186E+03  0.88748068187E+03  0.50400001928E-02 0.  1.
       -1   -1    0    0    0  501  0.00000000000E+00  0.00000000000E+00 -0.49474575484E+03  0.49474575487E+03  0.50400001928E-02 0. -1.
    10030    2    1    2    0    0  0.00000000000E+00  0.00000000000E+00  0.39273492701E+03  0.13822264367E+04  0.13252581634E+04 0.  0.
        4    1    3    3  502    0 -0.30816236241E+03  0.10481904542E+03 -0.40561254396E+03  0.52007136299E+03  0.12699999809E+01 0. -1.
       -4    1    3    3    0  502  0.30816236241E+03 -0.10481904542E+03  0.79834747097E+03  0.86215507375E+03  0.12699999809E+01 0.  1.
</event>
<event>
 5   0  0.2195980E-03  0.1401748E+04  0.7818609E-02  0.8952554E-01
       -2   -1    0    0    0  501  0.00000000000E+00  0.00000000000E+00  0.11696549554E+04  0.11696549554E+04  0.25500000920E-02 0.  1.
        2   -1    0    0  501    0  0.00000000000E+00  0.00000000000E+00 -0.41997372182E+03  0.41997372183E+03  0.25500000920E-02 0. -1.
    10030    2    1    2    0    0  0.00000000000E+00  0.00000000000E+00  0.74968123361E+03  0.15896286773E+04  0.14017479729E+04 0.  0.
        4    1    3    3  502    0 -0.54654160991E+03 -0.82101036584E+02  0.86362656229E+03  0.10253295878E+04  0.12699999809E+01 0.  1.
       -4    1    3    3    0  502  0.54654160991E+03  0.82101036584E+02 -0.11394532868E+03  0.56429908949E+03  0.12699999809E+01 0. -1.
</event>
<event>
 5   0  0.8293000E-04  0.1402541E+04  0.7818609E-02  0.8951982E-01
        3   -1    0    0  501    0  0.00000000000E+00  0.00000000000E+00  0.48793382791E+03  0.48793383837E+03  0.10100000352E+00 0.  1.
       -3   -1    0    0    0  501  0.00000000000E+00  0.00000000000E+00 -0.10078827697E+04  0.10078827747E+04  0.10100000352E+00 0. -1.
    10030    2    1    2    0    0  0.00000000000E+00  0.00000000000E+00 -0.51994894174E+03  0.14958166131E+04  0.14025407081E+04 0.  0.
        4    1    3    3  502    0 -0.67290692799E+02 -0.48994039715E+03 -0.79024183481E+03  0.93223033660E+03  0.12699999809E+01 0. -1.
       -4    1    3    3    0  502  0.67290692799E+02  0.48994039715E+03  0.27029289307E+03  0.56358627648E+03  0.12699999809E+01 0.  1.
</event>
<event>
 5   0  0.2172901E-03  0.1345447E+04  0.7818609E-02  0.8994282E-01
        2   -1    0    0  501    0  0.00000000000E+00  0.00000000000E+00  0.85931486604E+03  0.85931486604E+03  0.25500000920E-02 0. -1.
       -2   -1    0    0    0  501  0.00000000000E+00  0.00000000000E+00 -0.52664834120E+03  0.52664834121E+03  0.25500000920E-02 0.  1.
    10030    2    1    2    0    0  0.00000000000E+00  0.00000000000E+00  0.33266652484E+03  0.13859632072E+04  0.13454467641E+04 0.  0.
        2    1    3    3  502    0  0.48821060870E+03  0.31381878314E+03 -0.18409460087E+03  0.60886997723E+03  0.25500000920E-02 0.  1.
       -2    1    3    3    0  502 -0.48821060870E+03 -0.31381878314E+03  0.51676112571E+03  0.77709323002E+03  0.25500000920E-02 0. -1.
</event>
<event>
 5   0  0.1225690E-03  0.1432040E+04  0.7818609E-02  0.8930948E-01
       -1   -1    0    0    0  501  0.00000000000E+00  0.00000000000E+00  0.34890129134E+03  0.34890129138E+03  0.50400001928E-02 0. -1.
        1   -1    0    0  501    0  0.00000000000E+00  0.00000000000E+00 -0.14694250278E+04  0.14694250279E+04  0.50400001928E-02 0.  1.
    10030    2    1    2    0    0  0.00000000000E+00  0.00000000000E+00 -0.11205237365E+04  0.18183263192E+04  0.14320395103E+04 0.  0.
        4    1    3    3  502    0  0.46966667354E+03 -0.47690266915E+03 -0.88313640107E+03  0.11081310644E+04  0.12699999809E+01 0.  1.
       -4    1    3    3    0  502 -0.46966667354E+03  0.47690266915E+03 -0.23738733543E+03  0.71019525484E+03  0.12699999809E+01 0. -1.
</event>
<event>
 5   0  0.2195980E-03  0.1377935E+04  0.7818609E-02  0.8969947E-01
       -2   -1    0    0    0  501  0.00000000000E+00  0.00000000000E+00  0.43200709858E+03  0.43200709859E+03  0.25500000920E-02 0.  1.
        2   -1    0    0  501    0  0.00000000000E+00  0.00000000000E+00 -0.10987690660E+04  0.10987690660E+04  0.25500000920E-02 0. -1.
    10030    2    1    2    0    0  0.00000000000E+00  0.00000000000E+00 -0.66676196744E+03  0.15307761646E+04  0.13779347390E+04 0.  0.
        4    1    3    3  502    0 -0.61837896334E+03  0.28212151567E+03 -0.20823917941E+03  0.71087991999E+03  0.12699999809E+01 0.  1.
       -4    1    3    3    0  502  0.61837896334E+03 -0.28212151567E+03 -0.45852278803E+03  0.81989624463E+03  0.12699999809E+01 0. -1.
</event>
<event>
 5   0  0.1175374E-03  0.1393078E+04  0.7818609E-02  0.8958844E-01
       -1   -1    0    0    0  501  0.00000000000E+00  0.00000000000E+00  0.37751927117E+03  0.37751927120E+03  0.50400001928E-02 0. -1.
        1   -1    0    0  501    0  0.00000000000E+00  0.00000000000E+00 -0.12851436084E+04  0.12851436084E+04  0.50400001928E-02 0.  1.
    10030    2    1    2    0    0  0.00000000000E+00  0.00000000000E+00 -0.90762433720E+03  0.16626628796E+04  0.13930778563E+04 0.  0.
        3    1    3    3  502    0 -0.49782819200E+03 -0.42996538832E+03 -0.18043847860E+03  0.68210057812E+03  0.10100000352E+00 0. -1.
       -3    1    3    3    0  502  0.49782819200E+03  0.42996538832E+03 -0.72718585860E+03  0.98056230146E+03  0.10100000352E+00 0.  1.
</event>
<event>
 5   0  0.2190704E-03  0.1391973E+04  0.7818609E-02  0.8959650E-01
       -2   -1    0    0    0  501  0.00000000000E+00  0.00000000000E+00  0.31542810990E+03  0.31542810991E+03  0.25500000920E-02 0. -1.
        2   -1    0    0  501    0  0.00000000000E+00  0.00000000000E+00 -0.15356815563E+04  0.15356815563E+04  0.25500000920E-02 0.  1.
    10030    2    1    2    0    0  0.00000000000E+00  0.00000000000E+00 -0.12202534464E+04  0.18511096662E+04  0.13919728887E+04 0.  0.
        5    1    3    3  502    0  0.32422699135E+02 -0.50975936722E+03  0.18525138523E+02  0.51114686211E+03  0.46999998093E+01 0. -1.
       -5    1    3    3    0  502 -0.32422699135E+02  0.50975936722E+03 -0.12387785849E+04  0.13399628041E+04  0.46999998093E+01 0.  1.
</event>
<event>
 5   0  0.2190704E-03  0.1390471E+04  0.7818609E-02  0.8960745E-01
       -2   -1    0    0    0  501  0.00000000000E+00  0.00000000000E+00  0.29461151735E+03  0.29461151736E+03  0.25500000920E-02 0. -1.
        2   -1    0    0  501    0  0.00000000000E+00  0.00000000000E+00 -0.16406434083E+04  0.16406434083E+04  0.25500000920E-02 0.  1.
    10030    2    1    2    0    0  0.00000000000E+00  0.00000000000E+00 -0.13460318910E+04  0.19352549257E+04  0.13904710626E+04 0.  0.
        5    1    3    3  502    0 -0.33283041606E+03 -0.33894578791E+03 -0.13795094492E+04  0.14590163616E+04  0.46999998093E+01 0.  1.
       -5    1    3    3    0  502  0.33283041606E+03  0.33894578791E+03  0.33477558245E+02  0.47623856406E+03  0.46999998093E+01 0. -1.
</event>
<event>
 5   0  0.2083966E-03  0.1430868E+04  0.7818609E-02  0.8931773E-01
        2   -1    0    0  501    0  0.00000000000E+00  0.00000000000E+00  0.17686455889E+04  0.17686455890E+04  0.25500000920E-02 0.  1.
       -2   -1    0    0    0  501  0.00000000000E+00  0.00000000000E+00 -0.28939971354E+03  0.28939971355E+03  0.25500000920E-02 0. -1.
    10030    2    1    2    0    0  0.00000000000E+00  0.00000000000E+00  0.14792458754E+04  0.20580453025E+04  0.14308676065E+04 0.  0.
        1    1    3    3  502    0 -0.35884413654E+03  0.23238981652E+03  0.15647114464E+04  0.16220653660E+04  0.50400001928E-02 0.  1.
       -1    1    3    3    0  502  0.35884413654E+03 -0.23238981652E+03 -0.85465571002E+02  0.43597993647E+03  0.50400001928E-02 0. -1.
</event>
<event>
 5   0  0.1238683E-03  0.1390134E+04  0.7818609E-02  0.8960991E-01
       -1   -1    0    0    0  501  0.00000000000E+00  0.00000000000E+00  0.29304789227E+03  0.29304789232E+03  0.50400001928E-02 0. -1.
        1   -1    0    0  501    0  0.00000000000E+00  0.00000000000E+00 -0.16485975647E+04  0.16485975647E+04  0.50400001928E-02 0.  1.
    10030    2    1    2    0    0  0.00000000000E+00  0.00000000000E+00 -0.13555496725E+04  0.19416454571E+04  0.13901338664E+04 0.  0.
        2    1    3    3  502    0 -0.46282789921E+03  0.40924571755E+03 -0.11225992770E+04  0.12813745972E+04  0.25500000920E-02 0.  1.
       -2    1    3    3    0  502  0.46282789921E+03 -0.40924571755E+03 -0.23295039547E+03  0.66027085986E+03  0.25500000920E-02 0. -1.
</event>
<event>
 5   0  0.1175374E-03  0.1410389E+04  0.7818609E-02  0.8946333E-01
        1   -1    0    0  501    0  0.00000000000E+00  0.00000000000E+00  0.54944134637E+03  0.54944134639E+03  0.50400001928E-02 0.  1.
       -1   -1    0    0    0  501  0.00000000000E+00  0.00000000000E+00 -0.90509933753E+03  0.90509933755E+03  0.50400001928E-02 0. -1.
    10030    2    1    2    0    0  0.00000000000E+00  0.00000000000E+00 -0.35565799117E+03  0.14545406839E+04  0.14103885970E+04 0.  0.
        3    1    3    3  502    0 -0.27656788757E+03  0.37856263004E+03  0.36544411338E+03  0.59443155325E+03  0.10100000352E+00 0.  1.
       -3    1    3    3    0  502  0.27656788757E+03 -0.37856263004E+03 -0.72110210455E+03  0.86010913068E+03  0.10100000352E+00 0. -1.
</event>
<event>
 5   0  0.1210275E-03  0.1399519E+04  0.7818609E-02  0.8954167E-01
       -1   -1    0    0    0  501  0.00000000000E+00  0.00000000000E+00  0.16160419742E+04  0.16160419742E+04  0.50400001928E-02 0.  1.
        1   -1    0    0  501    0  0.00000000000E+00  0.00000000000E+00 -0.30300150097E+03  0.30300150101E+03  0.50400001928E-02 0. -1.
    10030    2    1    2    0    0  0.00000000000E+00  0.00000000000E+00  0.13130404732E+04  0.19190434752E+04  0.13995186942E+04 0.  0.
        1    1    3    3  502    0 -0.15938641231E+03 -0.19766279826E+03 -0.23760197087E+03  0.34774891349E+03  0.50400001928E-02 0. -1.
       -1    1    3    3    0  502  0.15938641231E+03  0.19766279826E+03  0.15506424441E+04  0.15712945617E+04  0.50400001928E-02 0.  1.
</event>
<event>
 5   0  0.2195980E-03  0.1377160E+04  0.7818609E-02  0.8970519E-01
       -2   -1    0    0    0  501  0.00000000000E+00  0.00000000000E+00  0.56214143233E+03  0.56214143234E+03  0.25500000920E-02 0.  1.
        2   -1    0    0  501    0  0.00000000000E+00  0.00000000000E+00 -0.84345781473E+03  0.84345781474E+03  0.25500000920E-02 0. -1.
    10030    2    1    2    0    0  0.00000000000E+00  0.00000000000E+00 -0.28131638240E+03  0.14055992471E+04  0.13771602435E+04 0.  0.
        4    1    3    3  502    0 -0.34755226237E+03 -0.10964509048E+03  0.45563787941E+03  0.58345703441E+03  0.12699999809E+01 0.  1.
       -4    1    3    3    0  502  0.34755226237E+03  0.10964509048E+03 -0.73695426181E+03  0.82214221267E+03  0.12699999809E+01 0. -1.
</event>
<event>
 5   0  0.1199720E-03  0.1438208E+04  0.7818609E-02  0.8926617E-01
        1   -1    0    0  501    0  0.00000000000E+00  0.00000000000E+00  0.13561076407E+04  0.13561076407E+04  0.50400001928E-02 0.  1.
       -1   -1    0    0    0  501  0.00000000000E+00  0.00000000000E+00 -0.38131961929E+03  0.38131961932E+03  0.50400001928E-02 0. -1.
    10030    2    1    2    0    0  0.00000000000E+00  0.00000000000E+00  0.97478802137E+03  0.17374272600E+04  0.14382078421E+04 0.  0.
        5    1    3    3  502    0  0.45346188978E+03 -0.40950444920E+03  0.94544544929E+03  0.11257045647E+04  0.46999998093E+01 0.  1.
       -5    1    3    3    0  502 -0.45346188978E+03  0.40950444920E+03  0.29342572075E+02  0.61172269529E+03  0.46999998093E+01 0. -1.
</event>
<event>
 5   0  0.1225690E-03  0.1351869E+04  0.7818609E-02  0.8989414E-01
       -1   -1    0    0    0  501  0.00000000000E+00  0.00000000000E+00  0.91145225530E+03  0.91145225531E+03  0.50400001928E-02 0. -1.
        1   -1    0    0  501    0  0.00000000000E+00  0.00000000000E+00 -0.50127418866E+03  0.50127418869E+03  0.50400001928E-02 0.  1.
    10030    2    1    2    0    0  0.00000000000E+00  0.00000000000E+00  0.41017806664E+03  0.14127264440E+04  0.13518690614E+04 0.  0.
        4    1    3    3  502    0 -0.12524003804E+02 -0.67233570788E+03  0.27668394111E+03  0.72715044587E+03  0.12699999809E+01 0.  1.
       -4    1    3    3    0  502  0.12524003804E+02  0.67233570788E+03  0.13349412553E+03  0.68557599813E+03  0.12699999809E+01 0. -1.
</event>
<event>
 5   0  0.1238683E-03  0.1413995E+04  0.7818609E-02  0.8943750E-01
       -1   -1    0    0    0  501  0.00000000000E+00  0.00000000000E+00  0.68992559573E+03  0.68992559575E+03  0.50400001928E-02 0. -1.
        1   -1    0    0  501    0  0.00000000000E+00  0.00000000000E+00 -0.72449231165E+03  0.72449231167E+03  0.50400001928E-02 0.  1.
    10030    2    1    2    0    0  0.00000000000E+00  0.00000000000E+00 -0.34566715922E+02  0.14144179074E+04  0.14139954593E+04 0.  0.
        2    1    3    3  502    0 -0.37104613468E+03 -0.49354919186E+03 -0.36174034471E+03  0.71562707875E+03  0.25500000920E-02 0.  1.
       -2    1    3    3    0  502  0.37104613468E+03  0.49354919186E+03  0.32717362879E+03  0.69879082867E+03  0.25500000920E-02 0. -1.
</event>
<event>
 5   0  0.2236184E-03  0.1471856E+04  0.7818609E-02  0.8903387E-01
       -2   -1    0    0    0  501  0.00000000000E+00  0.00000000000E+00  0.84413634116E+03  0.84413634117E+03  0.25500000920E-02 0. -1.
        2   -1    0    0  501    0  0.00000000000E+00  0.00000000000E+00 -0.64159076058E+03  0.64159076058E+03  0.25500000920E-02 0.  1.
    10030    2    1    2    0    0  0.00000000000E+00  0.00000000000E+00  0.20254558059E+03  0.14857271017E+04  0.14718560761E+04 0.  0.
        3    1    3    3  502    0  0.16382743921E+03  0.69551507570E+03 -0.76481666429E+02  0.71863071592E+03  0.10100000352E+00 0.  1.
       -3    1    3    3    0  502 -0.16382743921E+03 -0.69551507570E+03  0.27902724702E+03  0.76709638583E+03  0.10100000352E+00 0. -1.
</event>
<event>
 5   0  0.2195980E-03  0.1418136E+04  0.7818609E-02  0.8940794E-01
        2   -1    0    0  501    0  0.00000000000E+00  0.00000000000E+00  0.88774953543E+03  0.88774953544E+03  0.25500000920E-02 0.  1.
       -2   -1    0    0    0  501  0.00000000000E+00  0.00000000000E+00 -0.56635058504E+03  0.56635058504E+03  0.25500000920E-02 0. -1.
    10030    2    1    2    0    0  0.00000000000E+00  0.00000000000E+00  0.32139895040E+03  0.14541001205E+04  0.14181360566E+04 0.  0.
        4    1    3    3  502    0  0.20713283139E+03 -0.45951312279E+03 -0.35066594970E+03  0.61402324144E+03  0.12699999809E+01 0. -1.
       -4    1    3    3    0  502 -0.20713283139E+03  0.45951312279E+03  0.67206490010E+03  0.84007687904E+03  0.12699999809E+01 0.  1.
</event>
<event>
 5   0  0.2083966E-03  0.1400710E+04  0.7818609E-02  0.8953304E-01
       -2   -1    0    0    0  501  0.00000000000E+00  0.00000000000E+00  0.80961873376E+03  0.80961873376E+03  0.25500000920E-02 0.  1.
        2   -1    0    0  501    0  0.00000000000E+00  0.00000000000E+00 -0.60583752359E+03  0.60583752359E+03  0.25500000920E-02 0. -1.
    10030    2    1    2    0    0  0.00000000000E+00  0.00000000000E+00  0.20378121017E+03  0.14154562574E+04  0.14007104036E+04 0.  0.
        1    1    3    3  502    0 -0.67079007392E+03  0.13346476968E+03 -0.50445323419E+02  0.68579654322E+03  0.50400001928E-02 0.  1.
       -1    1    3    3    0  502  0.67079007392E+03 -0.13346476968E+03  0.25422653359E+03  0.72965971413E+03  0.50400001928E-02 0. -1.
</event>
<event>
 5   0  0.2236184E-03  0.9428750E+03  0.7818609E-02  0.9373518E-01
       -2   -1    0    0    0  501  0.00000000000E+00  0.00000000000E+00  0.26432907424E+03  0.26432907425E+03  0.25500000920E-02 0.  1.
        2   -1    0    0  501    0  0.00000000000E+00  0.00000000000E+00 -0.84082062491E+03  0.84082062492E+03  0.25500000920E-02 0. -1.
    10030    2    1    2    0    0  0.00000000000E+00  0.00000000000E+00 -0.57649155068E+03  0.11051496992E+04  0.94287504451E+03 0.  0.
        3    1    3    3  502    0 -0.18330978300E+03  0.26462217638E+03  0.11545243896E+03  0.34198925222E+03  0.10100000352E+00 0.  1.
       -3    1    3    3    0  502  0.18330978300E+03 -0.26462217638E+03 -0.69194398964E+03  0.76316044694E+03  0.10100000352E+00 0. -1.
</event>
<event>
 5   0  0.1199720E-03  0.1444047E+04  0.7818609E-02  0.8922538E-01
       -1   -1    0    0    0  501  0.00000000000E+00  0.00000000000E+00  0.48553054812E+03  0.48553054815E+03  0.50400001928E-02 0. -1.
        1   -1    0    0  501    0  0.00000000000E+00  0.00000000000E+00 -0.10737078688E+04  0.10737078688E+04  0.50400001928E-02 0.  1.
    10030    2    1    2    0    0  0.00000000000E+00  0.00000000000E+00 -0.58817732069E+03  0.15592384170E+04  0.14440470492E+04 0.  0.
        5    1    3    3  502    0 -0.43982304580E+03  0.29863787146E+03  0.23341728799E+03  0.58063293932E+03  0.46999998093E+01 0. -1.
       -5    1    3    3    0  502  0.43982304580E+03 -0.29863787146E+03 -0.82159460868E+03  0.97860547765E+03  0.46999998093E+01 0.  1.
</event>
<event>
 5   0  0.1225690E-03  0.1400287E+04  0.7818609E-02  0.8953611E-01
        1   -1    0    0  501    0  0.00000000000E+00  0.00000000000E+00  0.85673303815E+03  0.85673303817E+03  0.50400001928E-02 0.  1.
       -1   -1    0    0    0  501  0.00000000000E+00  0.00000000000E+00 -0.57217473016E+03  0.57217473018E+03  0.50400001928E-02 0. -1.
    10030    2    1    2    0    0  0.00000000000E+00  0.00000000000E+00  0.28455830799E+03  0.14289077684E+04  0.14002871062E+04 0.  0.
        4    1    3    3  502    0  0.39621062379E+03  0.48585882363E+03  0.46035140379E+03  0.77779604189E+03  0.12699999809E+01 0.  1.
       -4    1    3    3    0  502 -0.39621062379E+03 -0.48585882363E+03 -0.17579309580E+03  0.65111172646E+03  0.12699999809E+01 0. -1.
</event>
<event>
 5   0  0.1199720E-03  0.1305522E+04  0.7818609E-02  0.9025198E-01
        1   -1    0    0  501    0  0.00000000000E+00  0.00000000000E+00  0.45421241112E+03  0.45421241115E+03  0.50400001928E-02 0. -1.
       -1   -1    0    0    0  501  0.00000000000E+00  0.00000000000E+00 -0.93810047390E+03  0.93810047391E+03  0.50400001928E-02 0.  1.
    10030    2    1    2    0    0  0.00000000000E+00  0.00000000000E+00 -0.48388806277E+03  0.13923128851E+04  0.13055219311E+04 0.  0.
        5    1    3    3  502    0 -0.48076042329E+03  0.43127183018E+03 -0.34283106760E+03  0.73121898704E+03  0.46999998093E+01 0.  1.
       -5    1    3    3    0  502  0.48076042329E+03 -0.43127183018E+03 -0.14105699518E+03  0.66109389802E+03  0.46999998093E+01 0. -1.
</event>
<event>
 5   0  0.1210275E-03  0.1420116E+04  0.7818609E-02  0.8939385E-01
       -1   -1    0    0    0  501  0.00000000000E+00  0.00000000000E+00  0.23007114381E+03  0.23007114386E+03  0.50400001928E-02 0.  1.
        1   -1    0    0  501    0  0.00000000000E+00  0.00000000000E+00 -0.21914207161E+04  0.21914207161E+04  0.50400001928E-02 0. -1.
    10030    2    1    2    0    0  0.00000000000E+00  0.00000000000E+00 -0.19613495723E+04  0.24214918600E+04  0.14201164330E+04 0.  0.
        1    1    3    3  502    0  0.63807813375E+03 -0.13078855270E+03 -0.14627590857E+04  0.16012224995E+04  0.50400001928E-02 0. -1.
       -1    1    3    3    0  502 -0.63807813375E+03  0.13078855270E+03 -0.49859048662E+03  0.82026936043E+03  0.50400001928E-02 0.  1.
</event>
<event>
 5   0  0.2195980E-03  0.1407643E+04  0.7818609E-02  0.8948305E-01
       -2   -1    0    0    0  501  0.00000000000E+00  0.00000000000E+00  0.84942880913E+03  0.84942880914E+03  0.25500000920E-02 0. -1.
        2   -1    0    0  501    0  0.00000000000E+00  0.00000000000E+00 -0.58317353608E+03  0.58317353609E+03  0.25500000920E-02 0.  1.
    10030    2    1    2    0    0  0.00000000000E+00  0.00000000000E+00  0.26625527305E+03  0.14326023452E+04  0.14076425715E+04 0.  0.
        4    1    3    3  502    0  0.12220898657E+03 -0.48952241784E+03 -0.36628266704E+03  0.62348363174E+03  0.12699999809E+01 0.  1.
       -4    1    3    3    0  502 -0.12220898657E+03  0.48952241784E+03  0.63253794009E+03  0.80911871349E+03  0.12699999809E+01 0. -1.
</event>
<event>
 5   0  0.2083966E-03  0.1398708E+04  0.7818609E-02  0.8954754E-01
        2   -1    0    0  501    0  0.00000000000E+00  0.00000000000E+00  0.10474733991E+04  0.10474733991E+04  0.25500000920E-02 0. -1.
       -2   -1    0    0    0  501  0.00000000000E+00  0.00000000000E+00 -0.46692957096E+03  0.46692957096E+03  0.25500000920E-02 0.  1.
    10030    2    1    2    0    0  0.00000000000E+00  0.00000000000E+00  0.58054382816E+03  0.15144029701E+04  0.13987084111E+04 0.  0.
        1    1    3    3  502    0  0.55979977998E+03 -0.23895467474E+03 -0.82630655695E+02  0.61424991293E+03  0.50400001928E-02 0. -1.
       -1    1    3    3    0  502 -0.55979977998E+03  0.23895467474E+03  0.66317448386E+03  0.90015305716E+03  0.50400001928E-02 0.  1.
</event>
<event>
 5   0  0.2172901E-03  0.1435767E+04  0.7818609E-02  0.8928328E-01
        2   -1    0    0  501    0  0.00000000000E+00  0.00000000000E+00  0.10084774566E+04  0.10084774566E+04  0.25500000920E-02 0. -1.
       -2   -1    0    0    0  501  0.00000000000E+00  0.00000000000E+00 -0.51102437941E+03  0.51102437942E+03  0.25500000920E-02 0.  1.
    10030    2    1    2    0    0  0.00000000000E+00  0.00000000000E+00  0.49745307720E+03  0.15195018360E+04  0.14357667867E+04 0.  0.
        2    1    3    3  502    0 -0.19750278336E+03 -0.63505784846E+03  0.53476843881E+03  0.85339504538E+03  0.25500000920E-02 0. -1.
       -2    1    3    3    0  502  0.19750278336E+03  0.63505784846E+03 -0.37315361615E+02  0.66610679065E+03  0.25500000920E-02 0.  1.
</event>
<event>
 5   0  0.1175374E-03  0.1411388E+04  0.7818609E-02  0.8945617E-01
       -1   -1    0    0    0  501  0.00000000000E+00  0.00000000000E+00  0.13869981420E+04  0.13869981420E+04  0.50400001928E-02 0. -1.
        1   -1    0    0  501    0  0.00000000000E+00  0.00000000000E+00 -0.35905147049E+03  0.35905147053E+03  0.50400001928E-02 0.  1.
    10030    2    1    2    0    0  0.00000000000E+00  0.00000000000E+00  0.10279466715E+04  0.17460496125E+04  0.14113875761E+04 0.  0.
        3    1    3    3  502    0  0.44233472544E+02  0.56516535912E+03  0.10339082148E+04  0.11791245439E+04  0.10100000352E+00 0. -1.
       -3    1    3    3    0  502 -0.44233472544E+02 -0.56516535912E+03 -0.59615432790E+01  0.56692506863E+03  0.10100000352E+00 0.  1.
</event>
<event>
 5   0  0.2236184E-03  0.1403058E+04  0.7818609E-02  0.8951608E-01
        2   -1    0    0  501    0  0.00000000000E+00  0.00000000000E+00  0.97757047190E+03  0.97757047191E+03  0.25500000920E-02 0.  1.
       -2   -1    0    0    0  501  0.00000000000E+00  0.00000000000E+00 -0.50343439936E+03  0.50343439937E+03  0.25500000920E-02 0. -1.
    10030    2    1    2    0    0  0.00000000000E+00  0.00000000000E+00  0.47413607254E+03  0.14810048713E+04  0.14030575232E+04 0.  0.
        3    1    3    3  502    0 -0.42673670755E+03  0.80803245531E+02  0.81859110564E+03  0.92667404759E+03  0.10100000352E+00 0.  1.
       -3    1    3    3    0  502  0.42673670755E+03 -0.80803245531E+02 -0.34445503310E+03  0.55433082368E+03  0.10100000352E+00 0. -1.
</event>
<event>
 5   0  0.2190704E-03  0.1439466E+04  0.7818609E-02  0.8925736E-01
        2   -1    0    0  501    0  0.00000000000E+00  0.00000000000E+00  0.61265829807E+03  0.61265829808E+03  0.25500000920E-02 0.  1.
       -2   -1    0    0    0  501  0.00000000000E+00  0.00000000000E+00 -0.84552159504E+03  0.84552159505E+03  0.25500000920E-02 0. -1.
    10030    2    1    2    0    0  0.00000000000E+00  0.00000000000E+00 -0.23286329697E+03  0.14581798931E+04  0.14394663197E+04 0.  0.
        5    1    3    3  502    0 -0.35992348633E+03  0.16749821049E+03 -0.72456366781E+03  0.82620528033E+03  0.46999998093E+01 0. -1.
       -5    1    3    3    0  502  0.35992348633E+03 -0.16749821049E+03  0.49170037084E+03  0.63197461279E+03  0.46999998093E+01 0.  1.
</event>
<event>
 5   0  0.2083966E-03  0.1404229E+04  0.7818609E-02  0.8950763E-01
        2   -1    0    0  501    0  0.00000000000E+00  0.00000000000E+00  0.92256541205E+03  0.92256541205E+03  0.25500000920E-02 0.  1.
       -2   -1    0    0    0  501  0.00000000000E+00  0.00000000000E+00 -0.53434158625E+03  0.53434158626E+03  0.25500000920E-02 0. -1.
    10030    2    1    2    0    0  0.00000000000E+00  0.00000000000E+00  0.38822382580E+03  0.14569069983E+04  0.14042294196E+04 0.  0.
        1    1    3    3  502    0  0.66206129589E+03  0.41463006227E+02  0.43278676146E+03  0.79205348387E+03  0.50400001928E-02 0.  1.
       -1    1    3    3    0  502 -0.66206129589E+03 -0.41463006227E+02 -0.44562935659E+02  0.66485351444E+03  0.50400001928E-02 0. -1.
</event>
<event>
 5   0  0.1175374E-03  0.1397508E+04  0.7818609E-02  0.8955624E-01
       -1   -1    0    0    0  501  0.00000000000E+00  0.00000000000E+00  0.58043102842E+03  0.58043102844E+03  0.50400001928E-02 0. -1.
        1   -1    0    0  501    0  0.00000000000E+00  0.00000000000E+00 -0.84119780056E+03  0.84119780058E+03  0.50400001928E-02 0.  1.
    10030    2    1    2    0    0  0.00000000000E+00  0.00000000000E+00 -0.26076677214E+03  0.14216288290E+04  0.13975082175E+04 0.  0.
        3    1    3    3  502    0  0.56796678764E+03 -0.29548515510E+03 -0.41514261348E+03  0.76304727800E+03  0.10100000352E+00 0.  1.
       -3    1    3    3    0  502 -0.56796678764E+03  0.29548515510E+03  0.15437584133E+03  0.65858155101E+03  0.10100000352E+00 0. -1.
</event>
<event>
 5   0  0.1225690E-03  0.1408874E+04  0.7818609E-02  0.8947420E-01
        1   -1    0    0  501    0  0.00000000000E+00  0.00000000000E+00  0.51315245280E+03  0.51315245282E+03  0.50400001928E-02 0. -1.
       -1   -1    0    0    0  501  0.00000000000E+00  0.00000000000E+00 -0.96702595205E+03  0.96702595206E+03  0.50400001928E-02 0.  1.
    10030    2    1    2    0    0  0.00000000000E+00  0.00000000000E+00 -0.45387349925E+03  0.14801784049E+04  0.14088743581E+04 0.  0.
        4    1    3    3  502    0  0.25743444775E+03  0.16641144912E+03 -0.89327976154E+03  0.94441283905E+03  0.12699999809E+01 0.  1.
       -4    1    3    3    0  502 -0.25743444775E+03 -0.16641144912E+03  0.43940626229E+03  0.53576556583E+03  0.12699999809E+01 0. -1.
</event>
<event>
 5   0  0.1175374E-03  0.1358436E+04  0.7818609E-02  0.8984466E-01
       -1   -1    0    0    0  501  0.00000000000E+00  0.00000000000E+00  0.77546562582E+03  0.77546562584E+03  0.50400001928E-02 0.  1.
        1   -1    0    0  501    0  0.00000000000E+00  0.00000000000E+00 -0.59491667408E+03  0.59491667411E+03  0.50400001928E-02 0. -1.
    10030    2    1    2    0    0  0.00000000000E+00  0.00000000000E+00  0.18054895174E+03  0.13703822999E+04  0.13584364998E+04 0.  0.
        3    1    3    3  502    0 -0.21222437738E+03  0.60250373294E+03  0.32314526519E+03  0.71587206062E+03  0.10100000352E+00 0.  1.
       -3    1    3    3    0  502  0.21222437738E+03 -0.60250373294E+03 -0.14259631345E+03  0.65451023932E+03  0.10100000352E+00 0. -1.
</event>
<event>
 5   0  0.2195980E-03  0.1403401E+04  0.7818609E-02  0.8951360E-01
       -2   -1    0    0    0  501  0.00000000000E+00  0.00000000000E+00  0.23031010422E+03  0.23031010423E+03  0.25500000920E-02 0.  1.
        2   -1    0    0  501    0  0.00000000000E+00  0.00000000000E+00 -0.21379158195E+04  0.21379158195E+04  0.25500000920E-02 0. -1.
    10030    2    1    2    0    0  0.00000000000E+00  0.00000000000E+00 -0.19076057152E+04  0.23682259237E+04  0.14034010335E+04 0.  0.
        4    1    3    3  502    0 -0.30646155586E+03 -0.28425721634E+03 -0.19048967484E+04  0.19502189840E+04  0.12699999809E+01 0. -1.
       -4    1    3    3    0  502  0.30646155586E+03  0.28425721634E+03 -0.27089667934E+01  0.41800693973E+03  0.12699999809E+01 0.  1.
</event>
<event>
 5   0  0.2190704E-03  0.1024450E+04  0.7818609E-02  0.9282128E-01
        2   -1    0    0  501    0  0.00000000000E+00  0.00000000000E+00  0.82753034964E+03  0.82753034964E+03  0.25500000920E-02 0. -1.
       -2   -1    0    0    0  501  0.00000000000E+00  0.00000000000E+00 -0.31705716013E+03  0.31705716014E+03  0.25500000920E-02 0.  1.
    10030    2    1    2    0    0  0.00000000000E+00  0.00000000000E+00  0.51047318951E+03  0.11445875098E+04  0.10244499453E+04 0.  0.
        5    1    3    3  502    0 -0.45553812942E+03 -0.17329577600E+02 -0.56813832691E+01  0.45592726364E+03  0.46999998093E+01 0.  1.
       -5    1    3    3    0  502  0.45553812942E+03  0.17329577600E+02  0.51615457278E+03  0.68866024614E+03  0.46999998093E+01 0. -1.
</event>
<event>
 5   0  0.2172901E-03  0.1434992E+04  0.7818609E-02  0.8928872E-01
       -2   -1    0    0    0  501  0.00000000000E+00  0.00000000000E+00  0.78216948271E+03  0.78216948272E+03  0.25500000920E-02 0.  1.
        2   -1    0    0  501    0  0.00000000000E+00  0.00000000000E+00 -0.65817003801E+03  0.65817003802E+03  0.25500000920E-02 0. -1.
    10030    2    1    2    0    0  0.00000000000E+00  0.00000000000E+00  0.12399944470E+03  0.14403395207E+04  0.14349920114E+04 0.  0.
        2    1    3    3  502    0 -0.62702467762E+03 -0.16839928008E+03 -0.24455987030E+03  0.69377791406E+03  0.25500000920E-02 0. -1.
       -2    1    3    3    0  502  0.62702467762E+03  0.16839928008E+03  0.36855931500E+03  0.74656160667E+03  0.25500000920E-02 0.  1.
</event>
<event>
 5   0  0.2236184E-03  0.1439281E+04  0.7818609E-02  0.8925866E-01
        2   -1    0    0  501    0  0.00000000000E+00  0.00000000000E+00  0.84941021622E+03  0.84941021623E+03  0.25500000920E-02 0.  1.
       -2   -1    0    0    0  501  0.00000000000E+00  0.00000000000E+00 -0.60969635888E+03  0.60969635888E+03  0.25500000920E-02 0. -1.
    10030    2    1    2    0    0  0.00000000000E+00  0.00000000000E+00  0.23971385735E+03  0.14591065751E+04  0.14392808149E+04 0.  0.
        3    1    3    3  502    0  0.43579770962E+03  0.30498463070E+03  0.61124709866E+03  0.81028284845E+03  0.10100000352E+00 0.  1.
       -3    1    3    3    0  502 -0.43579770962E+03 -0.30498463070E+03 -0.37153324131E+03  0.64882372666E+03  0.10100000352E+00 0. -1.
</event>
<event>
 5   0  0.2172901E-03  0.1271182E+04  0.7818609E-02  0.9052735E-01
        2   -1    0    0  501    0  0.00000000000E+00  0.00000000000E+00  0.12578564027E+04  0.12578564027E+04  0.25500000920E-02 0.  1.
       -2   -1    0    0    0  501  0.00000000000E+00  0.00000000000E+00 -0.32116239628E+03  0.32116239629E+03  0.25500000920E-02 0. -1.
    10030    2    1    2    0    0  0.00000000000E+00  0.00000000000E+00  0.93669400640E+03  0.15790187990E+04  0.12711824046E+04 0.  0.
        2    1    3    3  502    0 -0.14738138965E+03  0.48475677898E+03  0.94503073486E+03  0.10722842434E+04  0.25500000920E-02 0.  1.
       -2    1    3    3    0  502  0.14738138965E+03 -0.48475677898E+03 -0.83367284545E+01  0.50673455559E+03  0.25500000920E-02 0. -1.
</event>
<event>
 5   0  0.2236184E-03  0.1416872E+04  0.7818609E-02  0.8941696E-01
        2   -1    0    0  501    0  0.00000000000E+00  0.00000000000E+00  0.11556262024E+04  0.11556262024E+04  0.25500000920E-02 0. -1.
       -2   -1    0    0    0  501  0.00000000000E+00  0.00000000000E+00 -0.43429381591E+03  0.43429381592E+03  0.25500000920E-02 0.  1.
    10030    2    1    2    0    0  0.00000000000E+00  0.00000000000E+00  0.72133238649E+03  0.15899200183E+04  0.14168716430E+04 0.  0.
        3    1    3    3  502    0 -0.52087736469E+02 -0.67051391034E+03  0.11080729607E+03  0.68160127884E+03  0.10100000352E+00 0.  1.
       -3    1    3    3    0  502  0.52087736469E+02  0.67051391034E+03  0.61052509042E+03  0.90831873948E+03  0.10100000352E+00 0. -1.
</event>
<event>
 5   0  0.2236184E-03  0.1399469E+04  0.7818609E-02  0.8954203E-01
        2   -1    0    0  501    0  0.00000000000E+00  0.00000000000E+00  0.62167292903E+03  0.62167292903E+03  0.25500000920E-02 0. -1.
       -2   -1    0    0    0  501  0.00000000000E+00  0.00000000000E+00 -0.78759818134E+03  0.78759818134E+03  0.25500000920E-02 0.  1.
    10030    2    1    2    0    0  0.00000000000E+00  0.00000000000E+00 -0.16592525231E+03  0.14092711104E+04  0.13994691398E+04 0.  0.
        3    1    3    3  502    0  0.62332382250E+03  0.11302412471E+03  0.21630810082E+03  0.66939991421E+03  0.10100000352E+00 0. -1.
       -3    1    3    3    0  502 -0.62332382250E+03 -0.11302412471E+03 -0.38223335314E+03  0.73987119616E+03  0.10100000352E+00 0.  1.
</event>
<event>
 5   0  0.2195980E-03  0.1387262E+04  0.7818609E-02  0.8963091E-01
        2   -1    0    0  501    0  0.00000000000E+00  0.00000000000E+00  0.17750550773E+04  0.17750550773E+04  0.25500000920E-02 0. -1.
       -2   -1    0    0    0  501  0.00000000000E+00  0.00000000000E+00 -0.27104734445E+03  0.27104734447E+03  0.25500000920E-02 0.  1.
    10030    2    1    2    0    0  0.00000000000E+00  0.00000000000E+00  0.15040077329E+04  0.20461024218E+04  0.13872620012E+04 0.  0.
        4    1    3    3  502    0  0.22459151986E+03 -0.65581119887E+03  0.71609709594E+03  0.99665758567E+03  0.12699999809E+01 0.  1.
       -4    1    3    3    0  502 -0.22459151986E+03  0.65581119887E+03  0.78791063692E+03  0.10494448361E+04  0.12699999809E+01 0. -1.
</event>
<event>
 5   0  0.1175374E-03  0.1375299E+04  0.7818609E-02  0.8971895E-01
       -1   -1    0    0    0  501  0.00000000000E+00  0.00000000000E+00  0.21229810603E+03  0.21229810609E+03  0.50400001928E-02 0.  1.
        1   -1    0    0  501    0  0.00000000000E+00  0.00000000000E+00 -0.22273482093E+04  0.22273482093E+04  0.50400001928E-02 0. -1.
    10030    2    1    2    0    0  0.00000000000E+00  0.00000000000E+00 -0.20150501032E+04  0.24396463154E+04  0.13752989586E+04 0.  0.
        3    1    3    3  502    0 -0.47723415345E+03  0.18679919797E+03 -0.19420395241E+03  0.54805251839E+03  0.10100000352E+00 0.  1.
       -3    1    3    3    0  502  0.47723415345E+03 -0.18679919797E+03 -0.18208461508E+04  0.18915937970E+04  0.10100000352E+00 0. -1.
</event>
<event>
 5   0  0.1238683E-03  0.1253987E+04  0.7818609E-02  0.9066872E-01
       -1   -1    0    0    0  501  0.00000000000E+00  0.00000000000E+00  0.35895364927E+03  0.35895364931E+03  0.50400001928E-02 0.  1.
        1   -1    0    0  501    0  0.00000000000E+00  0.00000000000E+00 -0.10951848790E+04  0.10951848791E+04  0.50400001928E-02 0. -1.
    10030    2    1    2    0    0  0.00000000000E+00  0.00000000000E+00 -0.73623122977E+03  0.14541385284E+04  0.12539866171E+04 0.  0.
        2    1    3    3  502    0  0.14589392314E+02  0.47504161045E+03 -0.84234356754E+03  0.96717116779E+03  0.25500000920E-02 0. -1.
       -2    1    3    3    0  502 -0.14589392314E+02 -0.47504161045E+03  0.10611233777E+03  0.48696736057E+03  0.25500000920E-02 0.  1.
</event>
<event>
 5   0  0.1238683E-03  0.1383866E+04  0.7818609E-02  0.8965581E-01
        1   -1    0    0  501    0  0.00000000000E+00  0.00000000000E+00  0.11270483317E+04  0.11270483317E+04  0.50400001928E-02 0. -1.
       -1   -1    0    0    0  501  0.00000000000E+00  0.00000000000E+00 -0.42480111378E+03  0.42480111381E+03  0.50400001928E-02 0.  1.
    10030    2    1    2    0    0  0.00000000000E+00  0.00000000000E+00  0.70224721788E+03  0.15518494455E+04  0.13838661591E+04 0.  0.
        2    1    3    3  502    0 -0.34799777072E+03  0.12552950168E+02  0.10216261378E+04  0.10793423879E+04  0.25500000920E-02 0. -1.
       -2    1    3    3    0  502  0.34799777072E+03 -0.12552950168E+02 -0.31937891987E+03  0.47250705757E+03  0.25500000920E-02 0.  1.
</event>
<event>
 5   0  0.1175374E-03  0.1415922E+04  0.7818609E-02  0.8942373E-01
       -1   -1    0    0    0  501  0.00000000000E+00  0.00000000000E+00  0.28724106438E+03  0.28724106443E+03  0.50400001928E-02 0.  1.
        1   -1    0    0  501    0  0.00000000000E+00  0.00000000000E+00 -0.17449072219E+04  0.17449072219E+04  0.50400001928E-02 0. -1.
    10030    2    1    2    0    0  0.00000000000E+00  0.00000000000E+00 -0.14576661575E+04  0.20321482863E+04  0.14159223251E+04 0.  0.
        3    1    3    3  502    0  0.45479298315E+03  0.48754268624E+03 -0.38716083780E+03  0.77099160369E+03  0.10100000352E+00 0.  1.
       -3    1    3    3    0  502 -0.45479298315E+03 -0.48754268624E+03 -0.10705053197E+04  0.12611566826E+04  0.10100000352E+00 0. -1.
</event>
<event>
 5   0  0.2083966E-03  0.1258113E+04  0.7818609E-02  0.9063458E-01
        2   -1    0    0  501    0  0.00000000000E+00  0.00000000000E+00  0.13237697827E+04  0.13237697827E+04  0.25500000920E-02 0. -1.
       -2   -1    0    0    0  501  0.00000000000E+00  0.00000000000E+00 -0.29892805314E+03  0.29892805315E+03  0.25500000920E-02 0.  1.
    10030    2    1    2    0    0  0.00000000000E+00  0.00000000000E+00  0.10248417295E+04  0.16226978358E+04  0.12581127516E+04 0.  0.
        1    1    3    3  502    0  0.59495003312E+03 -0.23805204427E+02  0.25068716051E+03  0.64604665632E+03  0.50400001928E-02 0.  1.
       -1    1    3    3    0  502 -0.59495003312E+03  0.23805204427E+02  0.77415456902E+03  0.97665117950E+03  0.50400001928E-02 0. -1.
</event>
<event>
 5   0  0.1175374E-03  0.1422475E+04  0.7818609E-02  0.8937709E-01
        1   -1    0    0  501    0  0.00000000000E+00  0.00000000000E+00  0.64720967542E+03  0.64720967544E+03  0.50400001928E-02 0. -1.
       -1   -1    0    0    0  501  0.00000000000E+00  0.00000000000E+00 -0.78159988132E+03  0.78159988133E+03  0.50400001928E-02 0.  1.
    10030    2    1    2    0    0  0.00000000000E+00  0.00000000000E+00 -0.13439020589E+03  0.14288095568E+04  0.14224753151E+04 0.  0.
        3    1    3    3  502    0  0.45218073072E+03 -0.51094246470E+03 -0.26891111788E+03  0.73337767555E+03  0.10100000352E+00 0. -1.
       -3    1    3    3    0  502 -0.45218073072E+03  0.51094246470E+03  0.13452091199E+03  0.69543188123E+03  0.10100000352E+00 0.  1.
</event>
<event>
 5   0  0.2236184E-03  0.1606934E+04  0.7818609E-02  0.8816299E-01
       -2   -1    0    0    0  501  0.00000000000E+00  0.00000000000E+00  0.79633522677E+03  0.79633522677E+03  0.25500000920E-02 0. -1.
        2   -1    0    0  501    0  0.00000000000E+00  0.00000000000E+00 -0.81066300258E+03  0.81066300259E+03  0.25500000920E-02 0.  1.
    10030    2    1    2    0    0  0.00000000000E+00  0.00000000000E+00 -0.14327775816E+02  0.16069982294E+04  0.16069343558E+04 0.  0.
        3    1    3    3  502    0 -0.46670750689E+03  0.64103279262E+03  0.12253535966E+03  0.80234273398E+03  0.10100000352E+00 0. -1.
       -3    1    3    3    0  502  0.46670750689E+03 -0.64103279262E+03 -0.13686313548E+03  0.80465549538E+03  0.10100000352E+00 0.  1.
</event>
<event>
 5   0  0.1210275E-03  0.1394806E+04  0.7818609E-02  0.8957587E-01
       -1   -1    0    0    0  501  0.00000000000E+00  0.00000000000E+00  0.21360269405E+03  0.21360269411E+03  0.50400001928E-02 0.  1.
        1   -1    0    0  501    0  0.00000000000E+00  0.00000000000E+00 -0.22769883086E+04  0.22769883086E+04  0.50400001928E-02 0. -1.
    10030    2    1    2    0    0  0.00000000000E+00  0.00000000000E+00 -0.20633856145E+04  0.24905910027E+04  0.13948058462E+04 0.  0.
        1    1    3    3  502    0  0.66511233541E+02  0.23281604820E+03 -0.21995251741E+04  0.22128122487E+04  0.50400001928E-02 0. -1.
       -1    1    3    3    0  502 -0.66511233541E+02 -0.23281604820E+03  0.13613955955E+03  0.27777875402E+03  0.50400001928E-02 0.  1.
</event>
<event>
 5   0  0.2195980E-03  0.1416936E+04  0.7818609E-02  0.8941650E-01
       -2   -1    0    0    0  501  0.00000000000E+00  0.00000000000E+00  0.11594199523E+04  0.11594199523E+04  0.25500000920E-02 0.  1.
        2   -1    0    0  501    0  0.00000000000E+00  0.00000000000E+00 -0.43291192653E+03  0.43291192653E+03  0.25500000920E-02 0. -1.
    10030    2    1    2    0    0  0.00000000000E+00  0.00000000000E+00  0.72650802577E+03  0.15923318788E+04  0.14169357434E+04 0.  0.
        4    1    3    3  502    0  0.53325693334E+02 -0.68453241781E+03  0.16700343783E+03  0.70662580037E+03  0.12699999809E+01 0. -1.
       -4    1    3    3    0  502 -0.53325693334E+02  0.68453241781E+03  0.55950458794E+03  0.88570607846E+03  0.12699999809E+01 0.  1.
</event>
<event>
 5   0  0.2195980E-03  0.1384154E+04  0.7818609E-02  0.8965369E-01
       -2   -1    0    0    0  501  0.00000000000E+00  0.00000000000E+00  0.32108109083E+03  0.32108109084E+03  0.25500000920E-02 0. -1.
        2   -1    0    0  501    0  0.00000000000E+00  0.00000000000E+00 -0.14917426286E+04  0.14917426286E+04  0.25500000920E-02 0.  1.
    10030    2    1    2    0    0  0.00000000000E+00  0.00000000000E+00 -0.11706615378E+04  0.18128237194E+04  0.13841536771E+04 0.  0.
        4    1    3    3  502    0 -0.27931132987E+01  0.43153722469E+03 -0.12939447985E+04  0.13640113388E+04  0.12699999809E+01 0.  1.
       -4    1    3    3    0  502  0.27931132987E+01 -0.43153722469E+03  0.12328326074E+03  0.44881238069E+03  0.12699999809E+01 0. -1.
</event>
<event>
 5   0  0.1199720E-03  0.1404397E+04  0.7818609E-02  0.8950642E-01
        1   -1    0    0  501    0  0.00000000000E+00  0.00000000000E+00  0.13833637389E+04  0.13833637390E+04  0.50400001928E-02 0. -1.
       -1   -1    0    0    0  501  0.00000000000E+00  0.00000000000E+00 -0.35643744094E+03  0.35643744098E+03  0.50400001928E-02 0.  1.
    10030    2    1    2    0    0  0.00000000000E+00  0.00000000000E+00  0.10269262980E+04  0.17398011799E+04  0.14043968542E+04 0.  0.
        5    1    3    3  502    0  0.19720193482E+03 -0.32214724666E+03 -0.21984673577E+03  0.43706078394E+03  0.46999998093E+01 0.  1.
       -5    1    3    3    0  502 -0.19720193482E+03  0.32214724666E+03  0.12467730338E+04  0.13027403960E+04  0.46999998093E+01 0. -1.
</event>
<event>
 5   0  0.1175374E-03  0.1404435E+04  0.7818609E-02  0.8950615E-01
       -1   -1    0    0    0  501  0.00000000000E+00  0.00000000000E+00  0.94566629149E+03  0.94566629151E+03  0.50400001928E-02 0.  1.
        1   -1    0    0  501    0  0.00000000000E+00  0.00000000000E+00 -0.52144116545E+03  0.52144116547E+03  0.50400001928E-02 0. -1.
    10030    2    1    2    0    0  0.00000000000E+00  0.00000000000E+00  0.42422512605E+03  0.14671074570E+04  0.14044348802E+04 0.  0.
        3    1    3    3  502    0  0.87346084840E+02  0.42516762711E+02 -0.51438795740E+03  0.52348065348E+03  0.10100000352E+00 0. -1.
       -3    1    3    3    0  502 -0.87346084840E+02 -0.42516762711E+02  0.93861308345E+03  0.94362680350E+03  0.10100000352E+00 0.  1.
</event>
<event>
 5   0  0.1238683E-03  0.1449290E+04  0.7818609E-02  0.8918893E-01
       -1   -1    0    0    0  501  0.00000000000E+00  0.00000000000E+00  0.31540830575E+03  0.31540830579E+03  0.50400001928E-02 0.  1.
        1   -1    0    0  501    0  0.00000000000E+00  0.00000000000E+00 -0.16648600750E+04  0.16648600750E+04  0.50400001928E-02 0. -1.
    10030    2    1    2    0    0  0.00000000000E+00  0.00000000000E+00 -0.13494517693E+04  0.19802683808E+04  0.14492904410E+04 0.  0.
        2    1    3    3  502    0 -0.53391297316E+03  0.48963084115E+03 -0.69875506732E+03  0.10065088512E+04  0.25500000920E-02 0.  1.
       -2    1    3    3    0  502  0.53391297316E+03 -0.48963084115E+03 -0.65069670194E+03  0.97375952957E+03  0.25500000920E-02 0. -1.
</event>
<event>
 5   0  0.2195980E-03  0.1146325E+04  0.7818609E-02  0.9161180E-01
        2   -1    0    0  501    0  0.00000000000E+00  0.00000000000E+00  0.16940307819E+04  0.16940307819E+04  0.25500000920E-02 0.  1.
       -2   -1    0    0    0  501  0.00000000000E+00  0.00000000000E+00 -0.19392525345E+03  0.19392525347E+03  0.25500000920E-02 0. -1.
    10030    2    1    2    0    0  0.00000000000E+00  0.00000000000E+00  0.15001055285E+04  0.18879560354E+04  0.11463251699E+04 0.  0.
        4    1    3    3  502    0  0.19366961063E+03 -0.44249334601E+03  0.24187580722E+03  0.54019792517E+03  0.12699999809E+01 0. -1.
       -4    1    3    3    0  502 -0.19366961063E+03  0.44249334601E+03  0.12582297212E+04  0.13477581102E+04  0.12699999809E+01 0.  1.
</event>
<event>
 5   0  0.1175374E-03  0.1369575E+04  0.7818609E-02  0.8976141E-01
       -1   -1    0    0    0  501  0.00000000000E+00  0.00000000000E+00  0.60991366791E+03  0.60991366793E+03  0.50400001928E-02 0.  1.
        1   -1    0    0  501    0  0.00000000000E+00  0.00000000000E+00 -0.76885329465E+03  0.76885329467E+03  0.50400001928E-02 0. -1.
    10030    2    1    2    0    0  0.00000000000E+00  0.00000000000E+00 -0.15893962674E+03  0.13787669626E+04  0.13695753109E+04 0.  0.
        3    1    3    3  502    0 -0.67167732504E+03  0.86379862536E+02 -0.18174996501E+03  0.70117399381E+03  0.10100000352E+00 0. -1.
       -3    1    3    3    0  502  0.67167732504E+03 -0.86379862536E+02  0.22810338265E+02  0.67759296879E+03  0.10100000352E+00 0.  1.
</event>
<event>
 5   0  0.2172901E-03  0.1400081E+04  0.7818609E-02  0.8953760E-01
        2   -1    0    0  501    0  0.00000000000E+00  0.00000000000E+00  0.11058497665E+04  0.11058497665E+04  0.25500000920E-02 0. -1.
       -2   -1    0    0    0  501  0.00000000000E+00  0.00000000000E+00 -0.44314941480E+03  0.44314941481E+03  0.25500000920E-02 0.  1.
    10030    2    1    2    0    0  0.00000000000E+00  0.00000000000E+00  0.66270035166E+03  0.15489991813E+04  0.14000809646E+04 0.  0.
        2    1    3    3  502    0  0.36969461178E+03 -0.16419151871E+03 -0.30075433490E+03  0.50406956937E+03  0.25500000920E-02 0.  1.
       -2    1    3    3    0  502 -0.36969461178E+03  0.16419151871E+03  0.96345468657E+03  0.10449296119E+04  0.25500000920E-02 0. -1.
</event>
<event>
 5   0  0.2195980E-03  0.1408513E+04  0.7818609E-02  0.8947680E-01
        2   -1    0    0  501    0  0.00000000000E+00  0.00000000000E+00  0.13300791403E+04  0.13300791403E+04  0.25500000920E-02 0.  1.
       -2   -1    0    0    0  501  0.00000000000E+00  0.00000000000E+00 -0.37289285776E+03  0.37289285777E+03  0.25500000920E-02 0. -1.
    10030    2    1    2    0    0  0.00000000000E+00  0.00000000000E+00  0.95718628256E+03  0.17029719981E+04  0.14085127073E+04 0.  0.
        4    1    3    3  502    0 -0.34854603350E+03  0.22128046192E+03  0.11684191913E+04  0.12392152354E+04  0.12699999809E+01 0.  1.
       -4    1    3    3    0  502  0.34854603350E+03 -0.22128046192E+03 -0.21123290871E+03  0.46375676266E+03  0.12699999809E+01 0. -1.
</event>
<event>
 5   0  0.1199720E-03  0.1399854E+04  0.7818609E-02  0.8953924E-01
        1   -1    0    0  501    0  0.00000000000E+00  0.00000000000E+00  0.16856840788E+04  0.16856840788E+04  0.50400001928E-02 0. -1.
       -1   -1    0    0    0  501  0.00000000000E+00  0.00000000000E+00 -0.29062241790E+03  0.29062241795E+03  0.50400001928E-02 0.  1.
    10030    2    1    2    0    0  0.00000000000E+00  0.00000000000E+00  0.13950616609E+04  0.19763064967E+04  0.13998536821E+04 0.  0.
        5    1    3    3  502    0 -0.23115177764E+03  0.59382065957E+03  0.28878904375E+03  0.69962512950E+03  0.46999998093E+01 0.  1.
       -5    1    3    3    0  502  0.23115177764E+03 -0.59382065957E+03  0.11062726171E+04  0.12766813672E+04  0.46999998093E+01 0. -1.
</event>
<event>
 5   0  0.8293000E-04  0.1433392E+04  0.7818609E-02  0.8929996E-01
        4   -1    0    0  501    0  0.00000000000E+00  0.00000000000E+00  0.18393149169E+04  0.18393153554E+04  0.12699999809E+01 0.  1.
       -4   -1    0    0    0  501  0.00000000000E+00  0.00000000000E+00 -0.27926151543E+03  0.27926440321E+03  0.12699999809E+01 0. -1.
    10030    2    1    2    0    0  0.00000000000E+00  0.00000000000E+00  0.15600534015E+04  0.21185797586E+04  0.14333923322E+04 0.  0.
        1    1    3    3  502    0  0.44403831028E+03  0.54307844444E+03  0.56305900220E+03  0.89952190512E+03  0.50400001928E-02 0. -1.
       -1    1    3    3    0  502 -0.44403831028E+03 -0.54307844444E+03  0.99699439930E+03  0.12190578535E+04  0.50400001928E-02 0.  1.
</event>
<event>
 5   0  0.2172901E-03  0.1367483E+04  0.7818609E-02  0.8977698E-01
        2   -1    0    0  501    0  0.00000000000E+00  0.00000000000E+00  0.67457948325E+03  0.67457948326E+03  0.25500000920E-02 0. -1.
       -2   -1    0    0    0  501  0.00000000000E+00  0.00000000000E+00 -0.69302787841E+03  0.69302787841E+03  0.25500000920E-02 0.  1.
    10030    2    1    2    0    0  0.00000000000E+00  0.00000000000E+00 -0.18448395156E+02  0.13676073617E+04  0.13674829258E+04 0.  0.
        2    1    3    3  502    0  0.60042636383E+03 -0.15079374741E+03 -0.29951224306E+03  0.68771953324E+03  0.25500000920E-02 0.  1.
       -2    1    3    3    0  502 -0.60042636383E+03  0.15079374741E+03  0.28106384790E+03  0.67988782843E+03  0.25500000920E-02 0. -1.
</event>
<event>
 5   0  0.2236184E-03  0.1376178E+04  0.7818609E-02  0.8971245E-01
       -2   -1    0    0    0  501  0.00000000000E+00  0.00000000000E+00  0.36688544865E+03  0.36688544866E+03  0.25500000920E-02 0.  1.
        2   -1    0    0  501    0  0.00000000000E+00  0.00000000000E+00 -0.12905015602E+04  0.12905015602E+04  0.25500000920E-02 0. -1.
    10030    2    1    2    0    0  0.00000000000E+00  0.00000000000E+00 -0.92361611157E+03  0.16573870089E+04  0.13761776686E+04 0.  0.
        3    1    3    3  502    0 -0.35392159806E+03  0.58661467352E+03 -0.38479649836E+03  0.78577708550E+03  0.10100000352E+00 0. -1.
       -3    1    3    3    0  502  0.35392159806E+03 -0.58661467352E+03 -0.53881961321E+03  0.87160992338E+03  0.10100000352E+00 0.  1.
</event>
<event>
 5   0  0.2190704E-03  0.1267648E+04  0.7818609E-02  0.9055621E-01
       -2   -1    0    0    0  501  0.00000000000E+00  0.00000000000E+00  0.29760171114E+03  0.29760171115E+03  0.25500000920E-02 0. -1.
        2   -1    0    0  501    0  0.00000000000E+00  0.00000000000E+00 -0.13499018487E+04  0.13499018487E+04  0.25500000920E-02 0.  1.
    10030    2    1    2    0    0  0.00000000000E+00  0.00000000000E+00 -0.10523001376E+04  0.16475035599E+04  0.12676483741E+04 0.  0.
        5    1    3    3  502    0  0.61204679130E+03 -0.15647988511E+03 -0.45957810936E+03  0.78123066875E+03  0.46999998093E+01 0.  1.
       -5    1    3    3    0  502 -0.61204679130E+03  0.15647988511E+03 -0.59272202823E+03  0.86627289114E+03  0.46999998093E+01 0. -1.
</event>
<event>
 5   0  0.1238683E-03  0.1398897E+04  0.7818609E-02  0.8954618E-01
        1   -1    0    0  501    0  0.00000000000E+00  0.00000000000E+00  0.45391816237E+03  0.45391816240E+03  0.50400001928E-02 0.  1.
       -1   -1    0    0    0  501  0.00000000000E+00  0.00000000000E+00 -0.10777888912E+04  0.10777888912E+04  0.50400001928E-02 0. -1.
    10030    2    1    2    0    0  0.00000000000E+00  0.00000000000E+00 -0.62387072882E+03  0.15317070536E+04  0.13988966409E+04 0.  0.
        2    1    3    3  502    0 -0.17437201712E+02  0.61846964978E+03 -0.66912599459E+03  0.91133877364E+03  0.25500000920E-02 0.  1.
       -2    1    3    3    0  502  0.17437201712E+02 -0.61846964978E+03  0.45255265777E+02  0.62036827996E+03  0.25500000920E-02 0. -1.
</event>
<event>
 5   0  0.2172901E-03  0.1441408E+04  0.7818609E-02  0.8924379E-01
       -2   -1    0    0    0  501  0.00000000000E+00  0.00000000000E+00  0.71433613829E+03  0.71433613830E+03  0.25500000920E-02 0. -1.
        2   -1    0    0  501    0  0.00000000000E+00  0.00000000000E+00 -0.72712843993E+03  0.72712843994E+03  0.25500000920E-02 0.  1.
    10030    2    1    2    0    0  0.00000000000E+00  0.00000000000E+00 -0.12792301640E+02  0.14414645782E+04  0.14414078144E+04 0.  0.
        2    1    3    3  502    0  0.63605237032E+03  0.18536912491E+03  0.27732225042E+03  0.71821442539E+03  0.25500000920E-02 0. -1.
       -2    1    3    3    0  502 -0.63605237032E+03 -0.18536912491E+03 -0.29011455206E+03  0.72325015284E+03  0.25500000920E-02 0.  1.
</event>
<event>
 5   0  0.1238683E-03  0.1382470E+04  0.7818609E-02  0.8966606E-01
        1   -1    0    0  501    0  0.00000000000E+00  0.00000000000E+00  0.10262902452E+04  0.10262902453E+04  0.50400001928E-02 0.  1.
       -1   -1    0    0    0  501  0.00000000000E+00  0.00000000000E+00 -0.46556589409E+03  0.46556589412E+03  0.50400001928E-02 0. -1.
    10030    2    1    2    0    0  0.00000000000E+00  0.00000000000E+00  0.56072435115E+03  0.14918561394E+04  0.13824698704E+04 0.  0.
        2    1    3    3  502    0 -0.29751597915E+03 -0.43935727652E+03 -0.19769717195E+03  0.56624618858E+03  0.25500000920E-02 0. -1.
       -2    1    3    3    0  502  0.29751597915E+03  0.43935727652E+03  0.75842152310E+03  0.92560995079E+03  0.25500000920E-02 0.  1.
</event>
<event>
 5   0  0.2190704E-03  0.1468532E+04  0.7818609E-02  0.8905653E-01
        2   -1    0    0  501    0  0.00000000000E+00  0.00000000000E+00  0.17356993974E+04  0.17356993974E+04  0.25500000920E-02 0. -1.
       -2   -1    0    0    0  501  0.00000000000E+00  0.00000000000E+00 -0.31062200904E+03  0.31062200905E+03  0.25500000920E-02 0.  1.
    10030    2    1    2    0    0  0.00000000000E+00  0.00000000000E+00  0.14250773884E+04  0.20463214065E+04  0.14685318300E+04 0.  0.
        5    1    3    3  502    0 -0.60341697528E+03 -0.23712731297E+03  0.11927888449E+04  0.13576114051E+04  0.46999998093E+01 0.  1.
       -5    1    3    3    0  502  0.60341697528E+03  0.23712731297E+03  0.23228854347E+03  0.68871000141E+03  0.46999998093E+01 0. -1.
</event>
<event>
 5   0  0.1225690E-03  0.1413347E+04  0.7818609E-02  0.8944214E-01
       -1   -1    0    0    0  501  0.00000000000E+00  0.00000000000E+00  0.82557665362E+03  0.82557665364E+03  0.50400001928E-02 0. -1.
        1   -1    0    0  501    0  0.00000000000E+00  0.00000000000E+00 -0.60489518645E+03  0.60489518647E+03  0.50400001928E-02 0.  1.
    10030    2    1    2    0    0  0.00000000000E+00  0.00000000000E+00  0.22068146718E+03  0.14304718401E+04  0.14133468702E+04 0.  0.
        4    1    3    3  502    0 -0.69301155475E+03 -0.72404431828E+02  0.22957440278E+03  0.73363031295E+03  0.12699999809E+01 0. -1.
       -4    1    3    3    0  502  0.69301155475E+03  0.72404431828E+02 -0.88929356035E+01  0.69684152716E+03  0.12699999809E+01 0.  1.
</event>
<event>
 5   0  0.1238683E-03  0.1454051E+04  0.7818609E-02  0.8915597E-01
       -1   -1    0    0    0  501  0.00000000000E+00  0.00000000000E+00  0.10981255519E+04  0.10981255519E+04  0.50400001928E-02 0. -1.
        1   -1    0    0  501    0  0.00000000000E+00  0.00000000000E+00 -0.48133471953E+03  0.48133471955E+03  0.50400001928E-02 0.  1.
    10030    2    1    2    0    0  0.00000000000E+00  0.00000000000E+00  0.61679083241E+03  0.15794602715E+04  0.14540508307E+04 0.  0.
        2    1    3    3  502    0 -0.34941301004E+03 -0.17140275782E+03  0.97544174828E+03  0.10502166259E+04  0.25500000920E-02 0. -1.
       -2    1    3    3    0  502  0.34941301004E+03  0.17140275782E+03 -0.35865091587E+03  0.52924364562E+03  0.25500000920E-02 0.  1.
</event>
<event>
 5   0  0.1210275E-03  0.1416424E+04  0.7818609E-02  0.8942015E-01
        1   -1    0    0  501    0  0.00000000000E+00  0.00000000000E+00  0.16640432674E+04  0.16640432674E+04  0.50400001928E-02 0. -1.
       -1   -1    0    0    0  501  0.00000000000E+00  0.00000000000E+00 -0.30141296402E+03  0.30141296406E+03  0.50400001928E-02 0.  1.
    10030    2    1    2    0    0  0.00000000000E+00  0.00000000000E+00  0.13626303034E+04  0.19654562315E+04  0.14164239670E+04 0.  0.
        1    1    3    3  502    0 -0.49491471041E+03  0.31498312079E+03  0.13077972389E+03  0.60104764634E+03  0.50400001928E-02 0.  1.
       -1    1    3    3    0  502  0.49491471041E+03 -0.31498312079E+03  0.12318505795E+04  0.13644085852E+04  0.50400001928E-02 0. -1.
</event>
<event>
 5   0  0.2190704E-03  0.1410176E+04  0.7818609E-02  0.8946485E-01
       -2   -1    0    0    0  501  0.00000000000E+00  0.00000000000E+00  0.30765473624E+03  0.30765473625E+03  0.25500000920E-02 0. -1.
        2   -1    0    0  501    0  0.00000000000E+00  0.00000000000E+00 -0.16159320434E+04  0.16159320434E+04  0.25500000920E-02 0.  1.
    10030    2    1    2    0    0  0.00000000000E+00  0.00000000000E+00 -0.13082773072E+04  0.19235867796E+04  0.14101760835E+04 0.  0.
        5    1    3    3  502    0  0.67182324846E+03 -0.20385848868E+03 -0.74277519016E+03  0.10220772151E+04  0.46999998093E+01 0.  1.
       -5    1    3    3    0  502 -0.67182324846E+03  0.20385848868E+03 -0.56550211699E+03  0.90150956451E+03  0.46999998093E+01 0. -1.
</event>
<event>
 5   0  0.1199720E-03  0.1381162E+04  0.7818609E-02  0.8967568E-01
        1   -1    0    0  501    0  0.00000000000E+00  0.00000000000E+00  0.79362811230E+03  0.79362811231E+03  0.50400001928E-02 0.  1.
       -1   -1    0    0    0  501  0.00000000000E+00  0.00000000000E+00 -0.60091401969E+03  0.60091401971E+03  0.50400001928E-02 0. -1.
    10030    2    1    2    0    0  0.00000000000E+00  0.00000000000E+00  0.19271409261E+03  0.13945421320E+04  0.13811622050E+04 0.  0.
        5    1    3    3  502    0  0.53309591617E+02  0.68401976744E+03  0.17557225016E+03  0.70821794656E+03  0.46999998093E+01 0. -1.
       -5    1    3    3    0  502 -0.53309591617E+02 -0.68401976744E+03  0.17141842448E+02  0.68632418547E+03  0.46999998093E+01 0.  1.
</event>
<event>
 5   0  0.1175374E-03  0.1409007E+04  0.7818609E-02  0.8947325E-01
        1   -1    0    0  501    0  0.00000000000E+00  0.00000000000E+00  0.49103616016E+03  0.49103616018E+03  0.50400001928E-02 0.  1.
       -1   -1    0    0    0  501  0.00000000000E+00  0.00000000000E+00 -0.10107704510E+04  0.10107704510E+04  0.50400001928E-02 0. -1.
    10030    2    1    2    0    0  0.00000000000E+00  0.00000000000E+00 -0.51973429080E+03  0.15018066112E+04  0.14090065168E+04 0.  0.
        3    1    3    3  502    0  0.40045157038E+03 -0.47967795340E+03  0.86943527428E+02  0.63088159456E+03  0.10100000352E+00 0.  1.
       -3    1    3    3    0  502 -0.40045157038E+03  0.47967795340E+03 -0.60667781823E+03  0.87092501659E+03  0.10100000352E+00 0. -1.
</event>
<event>
 5   0  0.2083966E-03  0.1395935E+04  0.7818609E-02  0.8956767E-01
        2   -1    0    0  501    0  0.00000000000E+00  0.00000000000E+00  0.12622113903E+04  0.12622113903E+04  0.25500000920E-02 0.  1.
       -2   -1    0    0    0  501  0.00000000000E+00  0.00000000000E+00 -0.38595627109E+03  0.38595627110E+03  0.25500000920E-02 0. -1.
    10030    2    1    2    0    0  0.00000000000E+00  0.00000000000E+00  0.87625511917E+03  0.16481676614E+04  0.13959346711E+04 0.  0.
        1    1    3    3  502    0  0.30081530687E+03 -0.16544675774E+03 -0.27937515929E+03  0.44262055776E+03  0.50400001928E-02 0. -1.
       -1    1    3    3    0  502 -0.30081530687E+03  0.16544675774E+03  0.11556302785E+04  0.12055471036E+04  0.50400001928E-02 0.  1.
</event>
<event>
 5   0  0.1210275E-03  0.1355776E+04  0.7818609E-02  0.8986467E-01
        1   -1    0    0  501    0  0.00000000000E+00  0.00000000000E+00  0.15574282946E+04  0.15574282946E+04  0.50400001928E-02 0.  1.
       -1   -1    0    0    0  501  0.00000000000E+00  0.00000000000E+00 -0.29505842823E+03  0.29505842827E+03  0.50400001928E-02 0. -1.
    10030    2    1    2    0    0  0.00000000000E+00  0.00000000000E+00  0.12623698664E+04  0.18524867229E+04  0.13557763012E+04 0.  0.
        1    1    3    3  502    0 -0.47874478877E+03  0.29487958110E+03  0.11485702349E+04  0.12788135613E+04  0.50400001928E-02 0.  1.
       -1    1    3    3    0  502  0.47874478877E+03 -0.29487958110E+03  0.11379963146E+03  0.57367316154E+03  0.50400001928E-02 0. -1.
</event>
<event>
 5   0  0.2236184E-03  0.1401616E+04  0.7818609E-02  0.8952650E-01
        2   -1    0    0  501    0  0.00000000000E+00  0.00000000000E+00  0.22041533498E+04  0.22041533498E+04  0.25500000920E-02 0.  1.
       -2   -1    0    0    0  501  0.00000000000E+00  0.00000000000E+00 -0.22282100000E+03  0.22282100002E+03  0.25500000920E-02 0. -1.
    10030    2    1    2    0    0  0.00000000000E+00  0.00000000000E+00  0.19813323498E+04  0.24269743498E+04  0.14016157156E+04 0.  0.
        3    1    3    3  502    0  0.66177322024E+03  0.65277908181E+02  0.60765721162E+03  0.90080647053E+03  0.10100000352E+00 0. -1.
       -3    1    3    3    0  502 -0.66177322024E+03 -0.65277908181E+02  0.13736751382E+04  0.15261678793E+04  0.10100000352E+00 0.  1.
</event>
<event>
 5   0  0.1210275E-03  0.1290535E+04  0.7818609E-02  0.9037105E-01
       -1   -1    0    0    0  501  0.00000000000E+00  0.00000000000E+00  0.12508365209E+04  0.12508365209E+04  0.50400001928E-02 0. -1.
        1   -1    0    0  501    0  0.00000000000E+00  0.00000000000E+00 -0.33287334957E+03  0.33287334961E+03  0.50400001928E-02 0.  1.
    10030    2    1    2    0    0  0.00000000000E+00  0.00000000000E+00  0.91796317132E+03  0.15837098705E+04  0.12905349937E+04 0.  0.
        1    1    3    3  502    0  0.10853867982E+03  0.63031760361E+03  0.56375383067E+03  0.85258390089E+03  0.50400001928E-02 0.  1.
       -1    1    3    3    0  502 -0.10853867982E+03 -0.63031760361E+03  0.35420934065E+03  0.73112596963E+03  0.50400001928E-02 0. -1.
</event>
<event>
 5   0  0.1225690E-03  0.1392839E+04  0.7818609E-02  0.8959018E-01
       -1   -1    0    0    0  501  0.00000000000E+00  0.00000000000E+00  0.25340972082E+03  0.25340972087E+03  0.50400001928E-02 0.  1.
        1   -1    0    0  501    0  0.00000000000E+00  0.00000000000E+00 -0.19138983606E+04  0.19138983606E+04  0.50400001928E-02 0. -1.
    10030    2    1    2    0    0  0.00000000000E+00  0.00000000000E+00 -0.16604886398E+04  0.21673080815E+04  0.13928394729E+04 0.  0.
        4    1    3    3  502    0 -0.11242239016E+03 -0.59695876533E+03 -0.30027699524E+03  0.67761821705E+03  0.12699999809E+01 0.  1.
       -4    1    3    3    0  502  0.11242239016E+03  0.59695876533E+03 -0.13602116445E+04  0.14896898644E+04  0.12699999809E+01 0. -1.
</event>
<event>
 5   0  0.2083966E-03  0.1399844E+04  0.7818609E-02  0.8953931E-01
       -2   -1    0    0    0  501  0.00000000000E+00  0.00000000000E+00  0.19157451398E+03  0.19157451400E+03  0.25500000920E-02 0.  1.
        2   -1    0    0  501    0  0.00000000000E+00  0.00000000000E+00 -0.25571814543E+04  0.25571814543E+04  0.25500000920E-02 0. -1.
    10030    2    1    2    0    0  0.00000000000E+00  0.00000000000E+00 -0.23656069403E+04  0.27487559683E+04  0.13998439832E+04 0.  0.
        1    1    3    3  502    0 -0.15264760684E+03  0.60911904073E+03 -0.57578407677E+03  0.85197100933E+03  0.50400001928E-02 0.  1.
       -1    1    3    3    0  502  0.15264760684E+03 -0.60911904073E+03 -0.17898228636E+04  0.18967849590E+04  0.50400001928E-02 0. -1.
</event>
<event>
 5   0  0.1210275E-03  0.1431438E+04  0.7818609E-02  0.8931371E-01
       -1   -1    0    0    0  501  0.00000000000E+00  0.00000000000E+00  0.63504143021E+03  0.63504143023E+03  0.50400001928E-02 0. -1.
        1   -1    0    0  501    0  0.00000000000E+00  0.00000000000E+00 -0.80664608301E+03  0.80664608302E+03  0.50400001928E-02 0.  1.
    10030    2    1    2    0    0  0.00000000000E+00  0.00000000000E+00 -0.17160465279E+03  0.14416875133E+04  0.14314379934E+04 0.  0.
        1    1    3    3  502    0 -0.67241547096E+03  0.25101716689E+02 -0.33143594273E+03  0.75008162618E+03  0.50400001928E-02 0.  1.
       -1    1    3    3    0  502  0.67241547096E+03 -0.25101716689E+02  0.15983128994E+03  0.69160588708E+03  0.50400001928E-02 0. -1.
</event>
<event>
 5   0  0.1210275E-03  0.1292994E+04  0.7818609E-02  0.9035140E-01
        1   -1    0    0  501    0  0.00000000000E+00  0.00000000000E+00  0.68352692444E+03  0.68352692446E+03  0.50400001928E-02 0. -1.
       -1   -1    0    0    0  501  0.00000000000E+00  0.00000000000E+00 -0.61147308032E+03  0.61147308034E+03  0.50400001928E-02 0.  1.
    10030    2    1    2    0    0  0.00000000000E+00  0.00000000000E+00  0.72053844125E+02  0.12950000048E+04  0.12929939118E+04 0.  0.
        1    1    3    3  502    0  0.47720383310E+03  0.32889514711E+03  0.32293742709E+03  0.66346371262E+03  0.50400001928E-02 0. -1.
       -1    1    3    3    0  502 -0.47720383310E+03 -0.32889514711E+03 -0.25088358297E+03  0.63153629218E+03  0.50400001928E-02 0.  1.
</event>
<event>
 5   0  0.2236184E-03  0.1304391E+04  0.7818609E-02  0.9026090E-01
       -2   -1    0    0    0  501  0.00000000000E+00  0.00000000000E+00  0.14175293461E+04  0.14175293461E+04  0.25500000920E-02 0.  1.
        2   -1    0    0  501    0  0.00000000000E+00  0.00000000000E+00 -0.30007079747E+03  0.30007079748E+03  0.25500000920E-02 0. -1.
    10030    2    1    2    0    0  0.00000000000E+00  0.00000000000E+00  0.11174585486E+04  0.17176001435E+04  0.13043912930E+04 0.  0.
        3    1    3    3  502    0  0.13193475904E+03  0.35845438636E+03 -0.13737804101E+03  0.40591755825E+03  0.10100000352E+00 0. -1.
       -3    1    3    3    0  502 -0.13193475904E+03 -0.35845438636E+03  0.12548365896E+04  0.13116825853E+04  0.10100000352E+00 0.  1.
</event>
<event>
 5   0  0.2190704E-03  0.1429341E+04  0.7818609E-02  0.8932850E-01
        2   -1    0    0  501    0  0.00000000000E+00  0.00000000000E+00  0.93306384443E+03  0.93306384443E+03  0.25500000920E-02 0.  1.
       -2   -1    0    0    0  501  0.00000000000E+00  0.00000000000E+00 -0.54739415689E+03  0.54739415689E+03  0.25500000920E-02 0. -1.
    10030    2    1    2    0    0  0.00000000000E+00  0.00000000000E+00  0.38566968754E+03  0.14804580013E+04  0.14293406822E+04 0.  0.
        5    1    3    3  502    0 -0.60744651500E+02  0.63851348414E+03 -0.13362312688E+03  0.65518441080E+03  0.46999998093E+01 0. -1.
       -5    1    3    3    0  502  0.60744651500E+02 -0.63851348414E+03  0.51929281443E+03  0.82527359053E+03  0.46999998093E+01 0.  1.
</event>
<event>
 5   0  0.2172901E-03  0.1403933E+04  0.7818609E-02  0.8950976E-01
        2   -1    0    0  501    0  0.00000000000E+00  0.00000000000E+00  0.61583452890E+03  0.61583452891E+03  0.25500000920E-02 0. -1.
       -2   -1    0    0    0  501  0.00000000000E+00  0.00000000000E+00 -0.80014520574E+03  0.80014520574E+03  0.25500000920E-02 0.  1.
    10030    2    1    2    0    0  0.00000000000E+00  0.00000000000E+00 -0.18431067683E+03  0.14159797346E+04  0.14039331121E+04 0.  0.
        2    1    3    3  502    0  0.44080306275E+02 -0.51116334811E+03 -0.57535494117E+03  0.77088543260E+03  0.25500000920E-02 0.  1.
       -2    1    3    3    0  502 -0.44080306275E+02  0.51116334811E+03  0.39104426434E+03  0.64509430205E+03  0.25500000920E-02 0. -1.
</event>
<event>
 5   0  0.2172901E-03  0.1374212E+04  0.7818609E-02  0.8972700E-01
       -2   -1    0    0    0  501  0.00000000000E+00  0.00000000000E+00  0.14917996251E+04  0.14917996251E+04  0.25500000920E-02 0.  1.
        2   -1    0    0  501    0  0.00000000000E+00  0.00000000000E+00 -0.31647317162E+03  0.31647317163E+03  0.25500000920E-02 0. -1.
    10030    2    1    2    0    0  0.00000000000E+00  0.00000000000E+00  0.11753264535E+04  0.18082727967E+04  0.13742118596E+04 0.  0.
        2    1    3    3  502    0  0.44500443079E+03 -0.55022783088E+02  0.12727434941E+04  0.13494193017E+04  0.25500000920E-02 0. -1.
       -2    1    3    3    0  502 -0.44500443079E+03  0.55022783088E+02 -0.97417040606E+02  0.45885349502E+03  0.25500000920E-02 0.  1.
</event>
<event>
 5   0  0.2236184E-03  0.1414472E+04  0.7818609E-02  0.8943409E-01
       -2   -1    0    0    0  501  0.00000000000E+00  0.00000000000E+00  0.10997160161E+04  0.10997160161E+04  0.25500000920E-02 0. -1.
        2   -1    0    0  501    0  0.00000000000E+00  0.00000000000E+00 -0.45482894217E+03  0.45482894218E+03  0.25500000920E-02 0.  1.
    10030    2    1    2    0    0  0.00000000000E+00  0.00000000000E+00  0.64488707392E+03  0.15545449583E+04  0.14144718764E+04 0.  0.
        3    1    3    3  502    0 -0.22582799500E+03 -0.66935931899E+03  0.35959136564E+03  0.79268287587E+03  0.10100000352E+00 0. -1.
       -3    1    3    3    0  502  0.22582799500E+03  0.66935931899E+03  0.28529570828E+03  0.76186208241E+03  0.10100000352E+00 0.  1.
</event>
<event>
 5   0  0.1238683E-03  0.1402335E+04  0.7818609E-02  0.8952130E-01
        1   -1    0    0  501    0  0.00000000000E+00  0.00000000000E+00  0.40382056724E+03  0.40382056727E+03  0.50400001928E-02 0. -1.
       -1   -1    0    0    0  501  0.00000000000E+00  0.00000000000E+00 -0.12174608023E+04  0.12174608023E+04  0.50400001928E-02 0.  1.
    10030    2    1    2    0    0  0.00000000000E+00  0.00000000000E+00 -0.81364023503E+03  0.16212813696E+04  0.14023347843E+04 0.  0.
        2    1    3    3  502    0  0.22159078043E+03  0.66335132765E+03 -0.34903380593E+03  0.78164061790E+03  0.25500000920E-02 0. -1.
       -2    1    3    3    0  502 -0.22159078043E+03 -0.66335132765E+03 -0.46460642910E+03  0.83964075165E+03  0.25500000920E-02 0.  1.
</event>
<event>
 5   0  0.2083966E-03  0.1244053E+04  0.7818609E-02  0.9075148E-01
       -2   -1    0    0    0  501  0.00000000000E+00  0.00000000000E+00  0.51368100965E+03  0.51368100966E+03  0.25500000920E-02 0. -1.
        2   -1    0    0  501    0  0.00000000000E+00  0.00000000000E+00 -0.75322380686E+03  0.75322380687E+03  0.25500000920E-02 0.  1.
    10030    2    1    2    0    0  0.00000000000E+00  0.00000000000E+00 -0.23954279721E+03  0.12669048165E+04  0.12440526767E+04 0.  0.
        1    1    3    3  502    0 -0.86377163082E+02  0.59279251472E+03 -0.29033769320E+03  0.66570260322E+03  0.50400001928E-02 0.  1.
       -1    1    3    3    0  502  0.86377163082E+02 -0.59279251472E+03  0.50794895993E+02  0.60120221331E+03  0.50400001928E-02 0. -1.
</event>
<event>
 5   0  0.1175374E-03  0.1395982E+04  0.7818609E-02  0.8956732E-01
       -1   -1    0    0    0  501  0.00000000000E+00  0.00000000000E+00  0.50635429039E+03  0.50635429042E+03  0.50400001928E-02 0. -1.
        1   -1    0    0  501    0  0.00000000000E+00  0.00000000000E+00 -0.96215545343E+03  0.96215545344E+03  0.50400001928E-02 0.  1.
    10030    2    1    2    0    0  0.00000000000E+00  0.00000000000E+00 -0.45580116304E+03  0.14685097439E+04  0.13959821516E+04 0.  0.
        3    1    3    3  502    0 -0.20923078715E+03  0.52870335231E+03 -0.65376261255E+03  0.86643541064E+03  0.10100000352E+00 0. -1.
       -3    1    3    3    0  502  0.20923078715E+03 -0.52870335231E+03  0.19796144951E+03  0.60207433323E+03  0.10100000352E+00 0.  1.
</event>
<event>
 5   0  0.1175374E-03  0.1393296E+04  0.7818609E-02  0.8958686E-01
       -1   -1    0    0    0  501  0.00000000000E+00  0.00000000000E+00  0.74728748486E+03  0.74728748488E+03  0.50400001928E-02 0.  1.
        1   -1    0    0  501    0  0.00000000000E+00  0.00000000000E+00 -0.64943971783E+03  0.64943971785E+03  0.50400001928E-02 0. -1.
    10030    2    1    2    0    0  0.00000000000E+00  0.00000000000E+00  0.97847767037E+02  0.13967272027E+04  0.13932956231E+04 0.  0.
        3    1    3    3  502    0  0.34015817059E+03 -0.35255775749E+03 -0.44758742029E+03  0.66358048674E+03  0.10100000352E+00 0. -1.
       -3    1    3    3    0  502 -0.34015817059E+03  0.35255775749E+03  0.54543518732E+03  0.73314671598E+03  0.10100000352E+00 0.  1.
</event>
<event>
 5   0  0.1225690E-03  0.1457591E+04  0.7818609E-02  0.8913155E-01
       -1   -1    0    0    0  501  0.00000000000E+00  0.00000000000E+00  0.51947655016E+03  0.51947655018E+03  0.50400001928E-02 0.  1.
        1   -1    0    0  501    0  0.00000000000E+00  0.00000000000E+00 -0.10224576354E+04  0.10224576354E+04  0.50400001928E-02 0. -1.
    10030    2    1    2    0    0  0.00000000000E+00  0.00000000000E+00 -0.50298108521E+03  0.15419341856E+04  0.14575908413E+04 0.  0.
        4    1    3    3  502    0  0.23853447638E+03 -0.19741222361E+03 -0.94941755580E+03  0.99863185940E+03  0.12699999809E+01 0. -1.
       -4    1    3    3    0  502 -0.23853447638E+03  0.19741222361E+03  0.44643647058E+03  0.54330232617E+03  0.12699999809E+01 0.  1.
</event>
<event>
 5   0  0.2195980E-03  0.1492633E+04  0.7818609E-02  0.8889367E-01
       -2   -1    0    0    0  501  0.00000000000E+00  0.00000000000E+00  0.56320219474E+03  0.56320219474E+03  0.25500000920E-02 0. -1.
        2   -1    0    0  501    0  0.00000000000E+00  0.00000000000E+00 -0.98896714368E+03  0.98896714369E+03  0.25500000920E-02 0.  1.
    10030    2    1    2    0    0  0.00000000000E+00  0.00000000000E+00 -0.42576494895E+03  0.15521693384E+04  0.14926331979E+04 0.  0.
        4    1    3    3  502    0  0.34402103062E+03  0.57796795281E+03 -0.54918482244E+03  0.86833346480E+03  0.12699999809E+01 0.  1.
       -4    1    3    3    0  502 -0.34402103062E+03 -0.57796795281E+03  0.12341987349E+03  0.68383587363E+03  0.12699999809E+01 0. -1.
</event>
<event>
 5   0  0.1175374E-03  0.1459154E+04  0.7818609E-02  0.8912079E-01
        1   -1    0    0  501    0  0.00000000000E+00  0.00000000000E+00  0.66585817072E+03  0.66585817074E+03  0.50400001928E-02 0.  1.
       -1   -1    0    0    0  501  0.00000000000E+00  0.00000000000E+00 -0.79939348174E+03  0.79939348176E+03  0.50400001928E-02 0. -1.
    10030    2    1    2    0    0  0.00000000000E+00  0.00000000000E+00 -0.13353531102E+03  0.14652516525E+04  0.14591541131E+04 0.  0.
        3    1    3    3  502    0  0.60956304841E+03 -0.36303325936E+03 -0.23754424038E+03  0.74818950389E+03  0.10100000352E+00 0. -1.
       -3    1    3    3    0  502 -0.60956304841E+03  0.36303325936E+03  0.10400892936E+03  0.71706214861E+03  0.10100000352E+00 0.  1.
</event>
<event>
 5   0  0.2190704E-03  0.1403811E+04  0.7818609E-02  0.8951064E-01
       -2   -1    0    0    0  501  0.00000000000E+00  0.00000000000E+00  0.47712734221E+03  0.47712734222E+03  0.25500000920E-02 0. -1.
        2   -1    0    0  501    0  0.00000000000E+00  0.00000000000E+00 -0.10325784581E+04  0.10325784581E+04  0.25500000920E-02 0.  1.
    10030    2    1    2    0    0  0.00000000000E+00  0.00000000000E+00 -0.55545111585E+03  0.15097058003E+04  0.14038111202E+04 0.  0.
        5    1    3    3  502    0 -0.15093390254E+03 -0.45874746773E+02 -0.10132497220E+04  0.10254670275E+04  0.46999998093E+01 0.  1.
       -5    1    3    3    0  502  0.15093390254E+03  0.45874746773E+02  0.45779860613E+03  0.48423877282E+03  0.46999998093E+01 0. -1.
</event>
<event>
 5   0  0.1175374E-03  0.1416128E+04  0.7818609E-02  0.8942226E-01
       -1   -1    0    0    0  501  0.00000000000E+00  0.00000000000E+00  0.41404287589E+03  0.41404287592E+03  0.50400001928E-02 0. -1.
        1   -1    0    0  501    0  0.00000000000E+00  0.00000000000E+00 -0.12108764321E+04  0.12108764321E+04  0.50400001928E-02 0.  1.
    10030    2    1    2    0    0  0.00000000000E+00  0.00000000000E+00 -0.79683355618E+03  0.16249193080E+04  0.14161281867E+04 0.  0.
        3    1    3    3  502    0  0.27504327902E+03  0.25080493422E+03 -0.10895544488E+04  0.11513821379E+04  0.10100000352E+00 0.  1.
       -3    1    3    3    0  502 -0.27504327902E+03 -0.25080493422E+03  0.29272089258E+03  0.47353717015E+03  0.10100000352E+00 0. -1.
</event>
<event>
 5   0  0.2083966E-03  0.1393811E+04  0.7818609E-02  0.8958311E-01
        2   -1    0    0  501    0  0.00000000000E+00  0.00000000000E+00  0.25924050291E+03  0.25924050292E+03  0.25500000920E-02 0.  1.
       -2   -1    0    0    0  501  0.00000000000E+00  0.00000000000E+00 -0.18734626363E+04  0.18734626363E+04  0.25500000920E-02 0. -1.
    10030    2    1    2    0    0  0.00000000000E+00  0.00000000000E+00 -0.16142221334E+04  0.21327031392E+04  0.13938111723E+04 0.  0.
        1    1    3    3  502    0 -0.28119362156E+03 -0.52072085569E+03 -0.13702657864E+04  0.14925978654E+04  0.50400001928E-02 0. -1.
       -1    1    3    3    0  502  0.28119362156E+03  0.52072085569E+03 -0.24395634701E+03  0.64010527386E+03  0.50400001928E-02 0.  1.
</event>
<event>
 5   0  0.1175374E-03  0.1388862E+04  0.7818609E-02  0.8961920E-01
       -1   -1    0    0    0  501  0.00000000000E+00  0.00000000000E+00  0.27752340571E+03  0.27752340575E+03  0.50400001928E-02 0. -1.
        1   -1    0    0  501    0  0.00000000000E+00  0.00000000000E+00 -0.17376353286E+04  0.17376353286E+04  0.50400001928E-02 0.  1.
    10030    2    1    2    0    0  0.00000000000E+00  0.00000000000E+00 -0.14601119229E+04  0.20151587344E+04  0.13888620872E+04 0.  0.
        3    1    3    3  502    0 -0.45524009127E+02 -0.96838691862E+02 -0.17256014817E+04  0.17289160337E+04  0.10100000352E+00 0.  1.
       -3    1    3    3    0  502  0.45524009127E+02  0.96838691862E+02  0.26548955882E+03  0.28624270068E+03  0.10100000352E+00 0. -1.
</event>
<event>
 5   0  0.2190704E-03  0.1167946E+04  0.7818609E-02  0.9141385E-01
        2   -1    0    0  501    0  0.00000000000E+00  0.00000000000E+00  0.13276549903E+04  0.13276549903E+04  0.25500000920E-02 0. -1.
       -2   -1    0    0    0  501  0.00000000000E+00  0.00000000000E+00 -0.25686234815E+03  0.25686234817E+03  0.25500000920E-02 0.  1.
    10030    2    1    2    0    0  0.00000000000E+00  0.00000000000E+00  0.10707926422E+04  0.15845173385E+04  0.11679461946E+04 0.  0.
        5    1    3    3  502    0 -0.42511425766E+03 -0.36883811423E+03  0.32417890106E+03  0.64952115937E+03  0.46999998093E+01 0.  1.
       -5    1    3    3    0  502  0.42511425766E+03  0.36883811423E+03  0.74661374113E+03  0.93499617915E+03  0.46999998093E+01 0. -1.
</event>
<event>
 5   0  0.2236184E-03  0.1390431E+04  0.7818609E-02  0.8960774E-01
       -2   -1    0    0    0  501  0.00000000000E+00  0.00000000000E+00  0.61487002489E+03  0.61487002489E+03  0.25500000920E-02 0.  1.
        2   -1    0    0  501    0  0.00000000000E+00  0.00000000000E+00 -0.78605978637E+03  0.78605978637E+03  0.25500000920E-02 0. -1.
    10030    2    1    2    0    0  0.00000000000E+00  0.00000000000E+00 -0.17118976148E+03  0.14009298113E+04  0.13904310129E+04 0.  0.
        3    1    3    3  502    0 -0.68400728832E+03  0.82272933500E+02  0.83280045535E+01  0.68898778793E+03  0.10100000352E+00 0. -1.
       -3    1    3    3    0  502  0.68400728832E+03 -0.82272933500E+02 -0.17951776604E+03  0.71194202333E+03  0.10100000352E+00 0.  1.
</event>
<event>
 5   0  0.2236184E-03  0.1387609E+04  0.7818609E-02  0.8962837E-01
        2   -1    0    0  501    0  0.00000000000E+00  0.00000000000E+00  0.18716748609E+04  0.18716748609E+04  0.25500000920E-02 0. -1.
       -2   -1    0    0    0  501  0.00000000000E+00  0.00000000000E+00 -0.25718391194E+03  0.25718391196E+03  0.25500000920E-02 0.  1.
    10030    2    1    2    0    0  0.00000000000E+00  0.00000000000E+00  0.16144909489E+04  0.21288587728E+04  0.13876089689E+04 0.  0.
        3    1    3    3  502    0  0.14946745453E+03 -0.66040958069E+03  0.10393262959E+04  0.12404356065E+04  0.10100000352E+00 0.  1.
       -3    1    3    3    0  502 -0.14946745453E+03  0.66040958069E+03  0.57516465300E+03  0.88842316635E+03  0.10100000352E+00 0. -1.
</event>
<event>
 5   0  0.1210275E-03  0.1375290E+04  0.7818609E-02  0.8971901E-01
       -1   -1    0    0    0  501  0.00000000000E+00  0.00000000000E+00  0.77758818286E+03  0.77758818287E+03  0.50400001928E-02 0. -1.
        1   -1    0    0  501    0  0.00000000000E+00  0.00000000000E+00 -0.60810588682E+03  0.60810588685E+03  0.50400001928E-02 0.  1.
    10030    2    1    2    0    0  0.00000000000E+00  0.00000000000E+00  0.16948229603E+03  0.13856940697E+04  0.13752904443E+04 0.  0.
        1    1    3    3  502    0 -0.95603149325E+02 -0.47059701710E+02 -0.59973675437E+03  0.60912950368E+03  0.50400001928E-02 0.  1.
       -1    1    3    3    0  502  0.95603149325E+02  0.47059701710E+02  0.76921905041E+03  0.77656456604E+03  0.50400001928E-02 0. -1.
</event>
<event>
 5   0  0.1225690E-03  0.1393555E+04  0.7818609E-02  0.8958497E-01
        1   -1    0    0  501    0  0.00000000000E+00  0.00000000000E+00  0.88593390209E+03  0.88593390210E+03  0.50400001928E-02 0.  1.
       -1   -1    0    0    0  501  0.00000000000E+00  0.00000000000E+00 -0.54800832068E+03  0.54800832070E+03  0.50400001928E-02 0. -1.
    10030    2    1    2    0    0  0.00000000000E+00  0.00000000000E+00  0.33792558141E+03  0.14339422228E+04  0.13935553809E+04 0.  0.
        4    1    3    3  502    0  0.47756791286E+03  0.25267059874E+03 -0.28377020072E+03  0.61027918413E+03  0.12699999809E+01 0. -1.
       -4    1    3    3    0  502 -0.47756791286E+03 -0.25267059874E+03  0.62169578213E+03  0.82366303868E+03  0.12699999809E+01 0.  1.
</event>
<event>
 5   0  0.1210275E-03  0.1427130E+04  0.7818609E-02  0.8934411E-01
        1   -1    0    0  501    0  0.00000000000E+00  0.00000000000E+00  0.47812149928E+03  0.47812149931E+03  0.50400001928E-02 0.  1.
       -1   -1    0    0    0  501  0.00000000000E+00  0.00000000000E+00 -0.10649492853E+04  0.10649492853E+04  0.50400001928E-02 0. -1.
    10030    2    1    2    0    0  0.00000000000E+00  0.00000000000E+00 -0.58682778603E+03  0.15430707846E+04  0.14271301959E+04 0.  0.
        1    1    3    3  502    0 -0.25722805355E+03 -0.47681015323E+03  0.20870667994E+03  0.58057960009E+03  0.50400001928E-02 0.  1.
       -1    1    3    3    0  502  0.25722805355E+03  0.47681015323E+03 -0.79553446597E+03  0.96249118455E+03  0.50400001928E-02 0. -1.
</event>
<event>
 5   0  0.1199720E-03  0.1406300E+04  0.7818609E-02  0.8949271E-01
       -1   -1    0    0    0  501  0.00000000000E+00  0.00000000000E+00  0.31732598960E+03  0.31732598964E+03  0.50400001928E-02 0. -1.
        1   -1    0    0  501    0  0.00000000000E+00  0.00000000000E+00 -0.15580819905E+04  0.15580819905E+04  0.50400001928E-02 0.  1.
    10030    2    1    2    0    0  0.00000000000E+00  0.00000000000E+00 -0.12407560009E+04  0.18754079802E+04  0.14062999816E+04 0.  0.
        5    1    3    3  502    0 -0.26598122956E+03  0.63186585533E+03 -0.82867790976E+03  0.10755136641E+04  0.46999998093E+01 0. -1.
       -5    1    3    3    0  502  0.26598122956E+03 -0.63186585533E+03 -0.41207809114E+03  0.79989431603E+03  0.46999998093E+01 0.  1.
</event>
<event>
 5   0  0.1175374E-03  0.1408673E+04  0.7818609E-02  0.8947565E-01
        1   -1    0    0  501    0  0.00000000000E+00  0.00000000000E+00  0.22297015828E+04  0.22297015828E+04  0.50400001928E-02 0.  1.
       -1   -1    0    0    0  501  0.00000000000E+00  0.00000000000E+00 -0.22249156726E+03  0.22249156732E+03  0.50400001928E-02 0. -1.
    10030    2    1    2    0    0  0.00000000000E+00  0.00000000000E+00  0.20072100155E+04  0.24521931501E+04  0.14086728502E+04 0.  0.
        3    1    3    3  502    0  0.51996997914E+03  0.30839596356E+03  0.37447900855E+03  0.71113387459E+03  0.10100000352E+00 0. -1.
       -3    1    3    3    0  502 -0.51996997914E+03 -0.30839596356E+03  0.16327310070E+04  0.17410592755E+04  0.10100000352E+00 0.  1.
</event>
<event>
 5   0  0.1225690E-03  0.1166466E+04  0.7818609E-02  0.9142726E-01
        1   -1    0    0  501    0  0.00000000000E+00  0.00000000000E+00  0.65550373805E+03  0.65550373807E+03  0.50400001928E-02 0.  1.
       -1   -1    0    0    0  501  0.00000000000E+00  0.00000000000E+00 -0.51892986358E+03  0.51892986360E+03  0.50400001928E-02 0. -1.
    10030    2    1    2    0    0  0.00000000000E+00  0.00000000000E+00  0.13657387448E+03  0.11744336017E+04  0.11664655424E+04 0.  0.
        4    1    3    3  502    0 -0.26740502651E+03 -0.19085489287E+03 -0.41690510732E+03  0.53079423485E+03  0.12699999809E+01 0. -1.
       -4    1    3    3    0  502  0.26740502651E+03  0.19085489287E+03  0.55347898180E+03  0.64363936683E+03  0.12699999809E+01 0.  1.
</event>
<event>
 5   0  0.1238683E-03  0.1423569E+04  0.7818609E-02  0.8936933E-01
        1   -1    0    0  501    0  0.00000000000E+00  0.00000000000E+00  0.30607693754E+03  0.30607693759E+03  0.50400001928E-02 0.  1.
       -1   -1    0    0    0  501  0.00000000000E+00  0.00000000000E+00 -0.16552602373E+04  0.16552602373E+04  0.50400001928E-02 0. -1.
    10030    2    1    2    0    0  0.00000000000E+00  0.00000000000E+00 -0.13491832997E+04  0.19613371749E+04  0.14235687329E+04 0.  0.
        2    1    3    3  502    0  0.54801575149E+03 -0.45083391741E+03 -0.75086162154E+03  0.10331339021E+04  0.25500000920E-02 0. -1.
       -2    1    3    3    0  502 -0.54801575149E+03  0.45083391741E+03 -0.59832167820E+03  0.92820327278E+03  0.25500000920E-02 0.  1.
</event>
<event>
 5   0  0.2172901E-03  0.1387452E+04  0.7818609E-02  0.8962952E-01
        2   -1    0    0  501    0  0.00000000000E+00  0.00000000000E+00  0.90792708488E+03  0.90792708489E+03  0.25500000920E-02 0. -1.
       -2   -1    0    0    0  501  0.00000000000E+00  0.00000000000E+00 -0.53005976127E+03  0.53005976128E+03  0.25500000920E-02 0.  1.
    10030    2    1    2    0    0  0.00000000000E+00  0.00000000000E+00  0.37786732361E+03  0.14379868462E+04  0.13874517849E+04 0.  0.
        2    1    3    3  502    0 -0.18746503638E+03  0.45508910679E+03 -0.31775566886E+03  0.58584801790E+03  0.25500000920E-02 0.  1.
       -2    1    3    3    0  502  0.18746503638E+03 -0.45508910679E+03  0.69562299246E+03  0.85213882826E+03  0.25500000920E-02 0. -1.
</event>
<event>
 5   0  0.1199720E-03  0.1385448E+04  0.7818609E-02  0.8964420E-01
       -1   -1    0    0    0  501  0.00000000000E+00  0.00000000000E+00  0.37628528153E+03  0.37628528156E+03  0.50400001928E-02 0. -1.
        1   -1    0    0  501    0  0.00000000000E+00  0.00000000000E+00 -0.12752726217E+04  0.12752726217E+04  0.50400001928E-02 0.  1.
    10030    2    1    2    0    0  0.00000000000E+00  0.00000000000E+00 -0.89898734015E+03  0.16515579033E+04  0.13854476786E+04 0.  0.
        5    1    3    3  502    0  0.18439599193E+03  0.10762862863E+03  0.33606350770E+03  0.39817907372E+03  0.46999998093E+01 0. -1.
       -5    1    3    3    0  502 -0.18439599193E+03 -0.10762862863E+03 -0.12350508479E+04  0.12533788295E+04  0.46999998093E+01 0.  1.
</event>
<event>
 5   0  0.1175374E-03  0.1416418E+04  0.7818609E-02  0.8942019E-01
        1   -1    0    0  501    0  0.00000000000E+00  0.00000000000E+00  0.49808803486E+03  0.49808803488E+03  0.50400001928E-02 0.  1.
       -1   -1    0    0    0  501  0.00000000000E+00  0.00000000000E+00 -0.10069706157E+04  0.10069706157E+04  0.50400001928E-02 0. -1.
    10030    2    1    2    0    0  0.00000000000E+00  0.00000000000E+00 -0.50888258080E+03  0.15050586506E+04  0.14164180388E+04 0.  0.
        3    1    3    3  502    0  0.13878449483E+03 -0.37354226051E+03  0.36765876587E+03  0.54218809901E+03  0.10100000352E+00 0.  1.
       -3    1    3    3    0  502 -0.13878449483E+03  0.37354226051E+03 -0.87654134668E+03  0.96287055154E+03  0.10100000352E+00 0. -1.
</event>
<event>
 5   0  0.2172901E-03  0.1471119E+04  0.7818609E-02  0.8903889E-01
        2   -1    0    0  501    0  0.00000000000E+00  0.00000000000E+00  0.14326786337E+04  0.14326786337E+04  0.25500000920E-02 0.  1.
       -2   -1    0    0    0  501  0.00000000000E+00  0.00000000000E+00 -0.37764786274E+03  0.37764786275E+03  0.25500000920E-02 0. -1.
    10030    2    1    2    0    0  0.00000000000E+00  0.00000000000E+00  0.10550307710E+04  0.18103264965E+04  0.14711193344E+04 0.  0.
        2    1    3    3  502    0 -0.32734242140E+03  0.65793396062E+03  0.48825501005E+03  0.88228289807E+03  0.25500000920E-02 0. -1.
       -2    1    3    3    0  502  0.32734242140E+03 -0.65793396062E+03  0.56677576094E+03  0.92804359842E+03  0.25500000920E-02 0.  1.
</event>
<event>
 5   0  0.1238683E-03  0.1398328E+04  0.7818609E-02  0.8955030E-01
        1   -1    0    0  501    0  0.00000000000E+00  0.00000000000E+00  0.28297199477E+04  0.28297199477E+04  0.50400001928E-02 0.  1.
       -1   -1    0    0    0  501  0.00000000000E+00  0.00000000000E+00 -0.17274856649E+03  0.17274856656E+03  0.50400001928E-02 0. -1.
    10030    2    1    2    0    0  0.00000000000E+00  0.00000000000E+00  0.26569713812E+04  0.30024685142E+04  0.13983276649E+04 0.  0.
        2    1    3    3  502    0  0.17117017936E+03 -0.47019468797E+03  0.23769802045E+04  0.24290774313E+04  0.25500000920E-02 0.  1.
       -2    1    3    3    0  502 -0.17117017936E+03  0.47019468797E+03  0.27999117668E+03  0.57339108288E+03  0.25500000920E-02 0. -1.
</event>
<event>
 5   0  0.1199720E-03  0.1348550E+04  0.7818609E-02  0.8991927E-01
       -1   -1    0    0    0  501  0.00000000000E+00  0.00000000000E+00  0.67933253987E+03  0.67933253989E+03  0.50400001928E-02 0. -1.
        1   -1    0    0  501    0  0.00000000000E+00  0.00000000000E+00 -0.66925464589E+03  0.66925464590E+03  0.50400001928E-02 0.  1.
    10030    2    1    2    0    0  0.00000000000E+00  0.00000000000E+00  0.10077893984E+02  0.13485871858E+04  0.13485495296E+04 0.  0.
        5    1    3    3  502    0  0.15305129127E+03 -0.54103817979E+03  0.37717479898E+03  0.67707453706E+03  0.46999998093E+01 0. -1.
       -5    1    3    3    0  502 -0.15305129127E+03  0.54103817979E+03 -0.36709690499E+03  0.67151264873E+03  0.46999998093E+01 0.  1.
</event>
<event>
 5   0  0.2083966E-03  0.1409466E+04  0.7818609E-02  0.8946995E-01
       -2   -1    0    0    0  501  0.00000000000E+00  0.00000000000E+00  0.36226296284E+03  0.36226296284E+03  0.25500000920E-02 0.  1.
        2   -1    0    0  501    0  0.00000000000E+00  0.00000000000E+00 -0.13709613251E+04  0.13709613251E+04  0.25500000920E-02 0. -1.
    10030    2    1    2    0    0  0.00000000000E+00  0.00000000000E+00 -0.10086983622E+04  0.17332242879E+04  0.14094658727E+04 0.  0.
        1    1    3    3  502    0 -0.48529542637E+03  0.51015062017E+03 -0.46780392062E+03  0.84534360724E+03  0.50400001928E-02 0.  1.
       -1    1    3    3    0  502  0.48529542637E+03 -0.51015062017E+03 -0.54089444161E+03  0.88788068067E+03  0.50400001928E-02 0. -1.
</event>
<event>
 5   0  0.2172901E-03  0.1393126E+04  0.7818609E-02  0.8958809E-01
        2   -1    0    0  501    0  0.00000000000E+00  0.00000000000E+00  0.11801254891E+04  0.11801254891E+04  0.25500000920E-02 0. -1.
       -2   -1    0    0    0  501  0.00000000000E+00  0.00000000000E+00 -0.41114294129E+03  0.41114294130E+03  0.25500000920E-02 0.  1.
    10030    2    1    2    0    0  0.00000000000E+00  0.00000000000E+00  0.76898254784E+03  0.15912684304E+04  0.13931263614E+04 0.  0.
        2    1    3    3  502    0  0.39660333825E+03  0.21994883024E+03  0.98839267482E+03  0.10874703561E+04  0.25500000920E-02 0. -1.
       -2    1    3    3    0  502 -0.39660333825E+03 -0.21994883024E+03 -0.21941012698E+03  0.50379807430E+03  0.25500000920E-02 0.  1.
</event>
<event>
 5   0  0.2195980E-03  0.1357581E+04  0.7818609E-02  0.8985109E-01
        2   -1    0    0  501    0  0.00000000000E+00  0.00000000000E+00  0.12624452734E+04  0.12624452734E+04  0.25500000920E-02 0.  1.
       -2   -1    0    0    0  501  0.00000000000E+00  0.00000000000E+00 -0.36497126930E+03  0.36497126931E+03  0.25500000920E-02 0. -1.
    10030    2    1    2    0    0  0.00000000000E+00  0.00000000000E+00  0.89747400407E+03  0.16274165427E+04  0.13575805742E+04 0.  0.
        4    1    3    3  502    0 -0.34508594430E+03  0.27241390605E+03  0.10686965314E+04  0.11555983447E+04  0.12699999809E+01 0.  1.
       -4    1    3    3    0  502  0.34508594430E+03 -0.27241390605E+03 -0.17122252734E+03  0.47181819796E+03  0.12699999809E+01 0. -1.
</event>
<event>
 5   0  0.2190704E-03  0.1156923E+04  0.7818609E-02  0.9151421E-01
        2   -1    0    0  501    0  0.00000000000E+00  0.00000000000E+00  0.58801776947E+03  0.58801776947E+03  0.25500000920E-02 0.  1.
       -2   -1    0    0    0  501  0.00000000000E+00  0.00000000000E+00 -0.56906045036E+03  0.56906045036E+03  0.25500000920E-02 0. -1.
    10030    2    1    2    0    0  0.00000000000E+00  0.00000000000E+00  0.18957319113E+02  0.11570782198E+04  0.11569229131E+04 0.  0.
        5    1    3    3  502    0 -0.35989730838E+03 -0.24776773248E+03  0.38858184234E+03  0.58475025441E+03  0.46999998093E+01 0.  1.
       -5    1    3    3    0  502  0.35989730838E+03  0.24776773248E+03 -0.36962452323E+03  0.57232796543E+03  0.46999998093E+01 0. -1.
</event>
<event>
 5   0  0.2195980E-03  0.1383581E+04  0.7818609E-02  0.8965790E-01
        2   -1    0    0  501    0  0.00000000000E+00  0.00000000000E+00  0.63331646488E+03  0.63331646488E+03  0.25500000920E-02 0. -1.
       -2   -1    0    0    0  501  0.00000000000E+00  0.00000000000E+00 -0.75566362794E+03  0.75566362794E+03  0.25500000920E-02 0.  1.
    10030    2    1    2    0    0  0.00000000000E+00  0.00000000000E+00 -0.12234716306E+03  0.13889800928E+04  0.13835811758E+04 0.  0.
        4    1    3    3  502    0 -0.44759711515E+03  0.52746943609E+03 -0.63510991125E+02  0.69469593520E+03  0.12699999809E+01 0.  1.
       -4    1    3    3    0  502  0.44759711515E+03 -0.52746943609E+03 -0.58836171939E+02  0.69428415762E+03  0.12699999809E+01 0. -1.
</event>
<event>
 5   0  0.2083966E-03  0.1394416E+04  0.7818609E-02  0.8957871E-01
       -2   -1    0    0    0  501  0.00000000000E+00  0.00000000000E+00  0.23881394542E+03  0.23881394543E+03  0.25500000920E-02 0.  1.
        2   -1    0    0  501    0  0.00000000000E+00  0.00000000000E+00 -0.20354713403E+04  0.20354713403E+04  0.25500000920E-02 0. -1.
    10030    2    1    2    0    0  0.00000000000E+00  0.00000000000E+00 -0.17966573949E+04  0.22742852858E+04  0.13944159230E+04 0.  0.
        1    1    3    3  502    0  0.56844189875E+03 -0.31324232808E+03 -0.13136787526E+04  0.14652640763E+04  0.50400001928E-02 0.  1.
       -1    1    3    3    0  502 -0.56844189875E+03  0.31324232808E+03 -0.48297864234E+03  0.80902120944E+03  0.50400001928E-02 0. -1.
</event>
<event>
 5   0  0.1238683E-03  0.1411690E+04  0.7818609E-02  0.8945400E-01
       -1   -1    0    0    0  501  0.00000000000E+00  0.00000000000E+00  0.27311499238E+03  0.27311499243E+03  0.50400001928E-02 0. -1.
        1   -1    0    0  501    0  0.00000000000E+00  0.00000000000E+00 -0.18242017187E+04  0.18242017187E+04  0.50400001928E-02 0.  1.
    10030    2    1    2    0    0  0.00000000000E+00  0.00000000000E+00 -0.15510867264E+04  0.20973167112E+04  0.14116895389E+04 0.  0.
        2    1    3    3  502    0 -0.49877477220E+03 -0.49863643406E+03 -0.73346240811E+03  0.10175370612E+04  0.25500000920E-02 0.  1.
       -2    1    3    3    0  502  0.49877477220E+03  0.49863643406E+03 -0.81762431824E+03  0.10797796500E+04  0.25500000920E-02 0. -1.
</event>
<event>
 5   0  0.2172901E-03  0.1433659E+04  0.7818609E-02  0.8929809E-01
       -2   -1    0    0    0  501  0.00000000000E+00  0.00000000000E+00  0.42166807207E+03  0.42166807208E+03  0.25500000920E-02 0. -1.
        2   -1    0    0  501    0  0.00000000000E+00  0.00000000000E+00 -0.12185990584E+04  0.12185990584E+04  0.25500000920E-02 0.  1.
    10030    2    1    2    0    0  0.00000000000E+00  0.00000000000E+00 -0.79693098637E+03  0.16402671305E+04  0.14336586980E+04 0.  0.
        2    1    3    3  502    0  0.28159037749E+03 -0.25515249566E+03  0.29695212756E+03  0.48226186124E+03  0.25500000920E-02 0. -1.
       -2    1    3    3    0  502 -0.28159037749E+03  0.25515249566E+03 -0.10938831139E+04  0.11580052693E+04  0.25500000920E-02 0.  1.
</event>
<event>
 5   0  0.2236184E-03  0.1397853E+04  0.7818609E-02  0.8955374E-01
       -2   -1    0    0    0  501  0.00000000000E+00  0.00000000000E+00  0.55119083504E+03  0.55119083505E+03  0.25500000920E-02 0. -1.
        2   -1    0    0  501    0  0.00000000000E+00  0.00000000000E+00 -0.88625951832E+03  0.88625951832E+03  0.25500000920E-02 0.  1.
    10030    2    1    2    0    0  0.00000000000E+00  0.00000000000E+00 -0.33506868327E+03  0.14374503534E+04  0.13978528162E+04 0.  0.
        3    1    3    3  502    0  0.38600384746E+03 -0.24085905113E+03  0.37804743421E+03  0.59155044204E+03  0.10100000352E+00 0. -1.
       -3    1    3    3    0  502 -0.38600384746E+03  0.24085905113E+03 -0.71311611748E+03  0.84589991133E+03  0.10100000352E+00 0.  1.
</event>
<event>
 5   0  0.2190704E-03  0.1405738E+04  0.7818609E-02  0.8949675E-01
        2   -1    0    0  501    0  0.00000000000E+00  0.00000000000E+00  0.19194196393E+04  0.19194196393E+04  0.25500000920E-02 0.  1.
       -2   -1    0    0    0  501  0.00000000000E+00  0.00000000000E+00 -0.25738251520E+03  0.25738251521E+03  0.25500000920E-02 0. -1.
    10030    2    1    2    0    0  0.00000000000E+00  0.00000000000E+00  0.16620371241E+04  0.21768021545E+04  0.14057383177E+04 0.  0.
        5    1    3    3  502    0  0.66980413532E+03  0.19488197262E+03  0.69793300320E+03  0.98678727693E+03  0.46999998093E+01 0. -1.
       -5    1    3    3    0  502 -0.66980413532E+03 -0.19488197262E+03  0.96410412086E+03  0.11900148776E+04  0.46999998093E+01 0.  1.
</event>
<event>
 5   0  0.2083966E-03  0.1406703E+04  0.7818609E-02  0.8948981E-01
       -2   -1    0    0    0  501  0.00000000000E+00  0.00000000000E+00  0.62377893211E+03  0.62377893212E+03  0.25500000920E-02 0.  1.
        2   -1    0    0  501    0  0.00000000000E+00  0.00000000000E+00 -0.79307438730E+03  0.79307438730E+03  0.25500000920E-02 0. -1.
    10030    2    1    2    0    0  0.00000000000E+00  0.00000000000E+00 -0.16929545519E+03  0.14168533194E+04  0.14067026614E+04 0.  0.
        1    1    3    3  502    0  0.20845020119E+02 -0.16593049326E+03 -0.77275804623E+03  0.79064685006E+03  0.50400001928E-02 0. -1.
       -1    1    3    3    0  502 -0.20845020119E+02  0.16593049326E+03  0.60346259105E+03  0.62620646937E+03  0.50400001928E-02 0.  1.
</event>
<event>
 5   0  0.1210275E-03  0.1393724E+04  0.7818609E-02  0.8958374E-01
       -1   -1    0    0    0  501  0.00000000000E+00  0.00000000000E+00  0.58255763514E+03  0.58255763516E+03  0.50400001928E-02 0. -1.
        1   -1    0    0  501    0  0.00000000000E+00  0.00000000000E+00 -0.83359409286E+03  0.83359409288E+03  0.50400001928E-02 0.  1.
    10030    2    1    2    0    0  0.00000000000E+00  0.00000000000E+00 -0.25103645772E+03  0.14161517280E+04  0.13937239374E+04 0.  0.
        1    1    3    3  502    0 -0.29669307507E+03 -0.62788207160E+03 -0.66673195131E+02  0.69764460265E+03  0.50400001928E-02 0.  1.
       -1    1    3    3    0  502  0.29669307507E+03  0.62788207160E+03 -0.18436326259E+03  0.71850712540E+03  0.50400001928E-02 0. -1.
</event>
<event>
 5   0  0.2172901E-03  0.1538420E+04  0.7818609E-02  0.8859298E-01
       -2   -1    0    0    0  501  0.00000000000E+00  0.00000000000E+00  0.47374144775E+03  0.47374144776E+03  0.25500000920E-02 0. -1.
        2   -1    0    0  501    0  0.00000000000E+00  0.00000000000E+00 -0.12489603214E+04  0.12489603214E+04  0.25500000920E-02 0.  1.
    10030    2    1    2    0    0  0.00000000000E+00  0.00000000000E+00 -0.77521887361E+03  0.17227017691E+04  0.15384203208E+04 0.  0.
        2    1    3    3  502    0  0.67283439448E+02 -0.63166725716E+03  0.98116681792E+02  0.64277326348E+03  0.25500000920E-02 0. -1.
       -2    1    3    3    0  502 -0.67283439448E+02  0.63166725716E+03 -0.87333555540E+03  0.10799285057E+04  0.25500000920E-02 0.  1.
</event>
<event>
 5   0  0.1175374E-03  0.1401795E+04  0.7818609E-02  0.8952520E-01
       -1   -1    0    0    0  501  0.00000000000E+00  0.00000000000E+00  0.24748933503E+03  0.24748933508E+03  0.50400001928E-02 0. -1.
        1   -1    0    0  501    0  0.00000000000E+00  0.00000000000E+00 -0.19849640156E+04  0.19849640156E+04  0.50400001928E-02 0.  1.
    10030    2    1    2    0    0  0.00000000000E+00  0.00000000000E+00 -0.17374746805E+04  0.22324533507E+04  0.14017951695E+04 0.  0.
        3    1    3    3  502    0  0.16622530434E+03  0.38279545473E+03 -0.17655298747E+04  0.18141827252E+04  0.10100000352E+00 0.  1.
       -3    1    3    3    0  502 -0.16622530434E+03 -0.38279545473E+03  0.28055194145E+02  0.41827062541E+03  0.10100000352E+00 0. -1.
</event>
<event>
 5   0  0.2190704E-03  0.1406657E+04  0.7818609E-02  0.8949014E-01
        2   -1    0    0  501    0  0.00000000000E+00  0.00000000000E+00  0.11673142398E+04  0.11673142398E+04  0.25500000920E-02 0.  1.
       -2   -1    0    0    0  501  0.00000000000E+00  0.00000000000E+00 -0.42376857069E+03  0.42376857069E+03  0.25500000920E-02 0. -1.
    10030    2    1    2    0    0  0.00000000000E+00  0.00000000000E+00  0.74354566915E+03  0.15910828105E+04  0.14066571536E+04 0.  0.
        5    1    3    3  502    0  0.16298876206E+03  0.40603096910E+03  0.99462538291E+03  0.10866131910E+04  0.46999998093E+01 0.  1.
       -5    1    3    3    0  502 -0.16298876206E+03 -0.40603096910E+03 -0.25107971376E+03  0.50446961958E+03  0.46999998093E+01 0. -1.
</event>
<event>
 5   0  0.1238683E-03  0.1378307E+04  0.7818609E-02  0.8969672E-01
        1   -1    0    0  501    0  0.00000000000E+00  0.00000000000E+00  0.12739413132E+04  0.12739413132E+04  0.50400001928E-02 0.  1.
       -1   -1    0    0    0  501  0.00000000000E+00  0.00000000000E+00 -0.37280568290E+03  0.37280568293E+03  0.50400001928E-02 0. -1.
    10030    2    1    2    0    0  0.00000000000E+00  0.00000000000E+00  0.90113563031E+03  0.16467469962E+04  0.13783070214E+04 0.  0.
        2    1    3    3  502    0 -0.34473830382E+03  0.43245898640E+03  0.94182702435E+03  0.10922011797E+04  0.25500000920E-02 0.  1.
       -2    1    3    3    0  502  0.34473830382E+03 -0.43245898640E+03 -0.40691394041E+02  0.55454581650E+03  0.25500000920E-02 0. -1.
</event>
<event>
 5   0  0.2195980E-03  0.1334445E+04  0.7818609E-02  0.9002687E-01
       -2   -1    0    0    0  501  0.00000000000E+00  0.00000000000E+00  0.74143147340E+03  0.74143147340E+03  0.25500000920E-02 0. -1.
        2   -1    0    0  501    0  0.00000000000E+00  0.00000000000E+00 -0.60044074655E+03  0.60044074655E+03  0.25500000920E-02 0.  1.
    10030    2    1    2    0    0  0.00000000000E+00  0.00000000000E+00  0.14099072685E+03  0.13418722200E+04  0.13344447046E+04 0.  0.
        4    1    3    3  502    0  0.12149741817E+03  0.49665735250E+02 -0.58732908559E+03  0.60181839085E+03  0.12699999809E+01 0.  1.
       -4    1    3    3    0  502 -0.12149741817E+03 -0.49665735250E+02  0.72831981244E+03  0.74005382911E+03  0.12699999809E+01 0. -1.
</event>
<event>
 5   0  0.1210275E-03  0.1361585E+04  0.7818609E-02  0.8982104E-01
       -1   -1    0    0    0  501  0.00000000000E+00  0.00000000000E+00  0.62181590601E+03  0.62181590603E+03  0.50400001928E-02 0.  1.
        1   -1    0    0  501    0  0.00000000000E+00  0.00000000000E+00 -0.74536286042E+03  0.74536286044E+03  0.50400001928E-02 0. -1.
    10030    2    1    2    0    0  0.00000000000E+00  0.00000000000E+00 -0.12354695441E+03  0.13671787665E+04  0.13615850798E+04 0.  0.
        1    1    3    3  502    0  0.22547603607E+03 -0.47548131228E+03 -0.49546984492E+03  0.72278094083E+03  0.50400001928E-02 0. -1.
       -1    1    3    3    0  502 -0.22547603607E+03  0.47548131228E+03  0.37192289052E+03  0.64439782564E+03  0.50400001928E-02 0.  1.
</event>
<event>
 5   0  0.2083966E-03  0.1288853E+04  0.7818609E-02  0.9038452E-01
        2   -1    0    0  501    0  0.00000000000E+00  0.00000000000E+00  0.45138266180E+03  0.45138266180E+03  0.25500000920E-02 0.  1.
       -2   -1    0    0    0  501  0.00000000000E+00  0.00000000000E+00 -0.92002969106E+03  0.92002969107E+03  0.25500000920E-02 0. -1.
    10030    2    1    2    0    0  0.00000000000E+00  0.00000000000E+00 -0.46864702927E+03  0.13714123529E+04  0.12888529022E+04 0.  0.
        1    1    3    3  502    0 -0.61373635096E+03  0.57792459186E+02 -0.34481419683E+02  0.61741496998E+03  0.50400001928E-02 0.  1.
       -1    1    3    3    0  502  0.61373635096E+03 -0.57792459186E+02 -0.43416560958E+03  0.75399738289E+03  0.50400001928E-02 0. -1.
</event>
<event>
 5   0  0.1225690E-03  0.1293579E+04  0.7818609E-02  0.9034673E-01
       -1   -1    0    0    0  501  0.00000000000E+00  0.00000000000E+00  0.13878688937E+04  0.13878688937E+04  0.50400001928E-02 0. -1.
        1   -1    0    0  501    0  0.00000000000E+00  0.00000000000E+00 -0.30142357571E+03  0.30142357575E+03  0.50400001928E-02 0.  1.
    10030    2    1    2    0    0  0.00000000000E+00  0.00000000000E+00  0.10864453180E+04  0.16892924695E+04  0.12935786093E+04 0.  0.
        4    1    3    3  502    0 -0.10969847314E+03  0.37920582400E+02  0.13741558378E+04  0.13790495296E+04  0.12699999809E+01 0. -1.
       -4    1    3    3    0  502  0.10969847314E+03 -0.37920582400E+02 -0.28771051986E+03  0.31024293983E+03  0.12699999809E+01 0.  1.
</event>
<event>
 5   0  0.8293000E-04  0.1392957E+04  0.7818609E-02  0.8958933E-01
       -3   -1    0    0    0  501  0.00000000000E+00  0.00000000000E+00  0.47166741780E+03  0.47166742862E+03  0.10100000352E+00 0. -1.
        3   -1    0    0  501    0  0.00000000000E+00  0.00000000000E+00 -0.10284410240E+04  0.10284410289E+04  0.10100000352E+00 0.  1.
    10030    2    1    2    0    0  0.00000000000E+00  0.00000000000E+00 -0.55677360619E+03  0.15001084576E+04  0.13929567602E+04 0.  0.
        3    1    3    3  502    0  0.22787724915E+03 -0.99428882921E+01 -0.98707738978E+03  0.10130886858E+04  0.10100000352E+00 0.  1.
       -3    1    3    3    0  502 -0.22787724915E+03  0.99428882921E+01  0.43030378359E+03  0.48701977175E+03  0.10100000352E+00 0. -1.
</event>
<event>
 5   0  0.2236184E-03  0.1407583E+04  0.7818609E-02  0.8948348E-01
       -2   -1    0    0    0  501  0.00000000000E+00  0.00000000000E+00  0.35950825962E+03  0.35950825963E+03  0.25500000920E-02 0. -1.
        2   -1    0    0  501    0  0.00000000000E+00  0.00000000000E+00 -0.13777772143E+04  0.13777772143E+04  0.25500000920E-02 0.  1.
    10030    2    1    2    0    0  0.00000000000E+00  0.00000000000E+00 -0.10182689547E+04  0.17372854739E+04  0.14075827343E+04 0.  0.
        3    1    3    3  502    0  0.14409112154E+02 -0.61528193608E+03 -0.93048154110E+03  0.11156053926E+04  0.10100000352E+00 0.  1.
       -3    1    3    3    0  502 -0.14409112154E+02  0.61528193608E+03 -0.87787413576E+02  0.62168008137E+03  0.10100000352E+00 0. -1.
</event>
<event>
 5   0  0.1175374E-03  0.1351681E+04  0.7818609E-02  0.8989557E-01
        1   -1    0    0  501    0  0.00000000000E+00  0.00000000000E+00  0.23354859868E+04  0.23354859868E+04  0.50400001928E-02 0.  1.
       -1   -1    0    0    0  501  0.00000000000E+00  0.00000000000E+00 -0.19557396167E+03  0.19557396173E+03  0.50400001928E-02 0. -1.
    10030    2    1    2    0    0  0.00000000000E+00  0.00000000000E+00  0.21399120251E+04  0.25310599485E+04  0.13516808010E+04 0.  0.
        3    1    3    3  502    0  0.35659544133E+03  0.46952124688E+03  0.45131371128E+03  0.74249214557E+03  0.10100000352E+00 0. -1.
       -3    1    3    3    0  502 -0.35659544133E+03 -0.46952124688E+03  0.16885983138E+04  0.17885678029E+04  0.10100000352E+00 0.  1.
</event>
<event>
 5   0  0.2083966E-03  0.1370558E+04  0.7818609E-02  0.8975410E-01
       -2   -1    0    0    0  501  0.00000000000E+00  0.00000000000E+00  0.83426529483E+03  0.83426529483E+03  0.25500000920E-02 0.  1.
        2   -1    0    0  501    0  0.00000000000E+00  0.00000000000E+00 -0.56289944232E+03  0.56289944232E+03  0.25500000920E-02 0. -1.
    10030    2    1    2    0    0  0.00000000000E+00  0.00000000000E+00  0.27136585251E+03  0.13971647372E+04  0.13705582355E+04 0.  0.
        1    1    3    3  502    0  0.18545644909E+03 -0.43084668077E+03  0.64496564362E+03  0.79749836258E+03  0.50400001928E-02 0.  1.
       -1    1    3    3    0  502 -0.18545644909E+03  0.43084668077E+03 -0.37359979111E+03  0.59966637457E+03  0.50400001928E-02 0. -1.
</event>
<event>
 5   0  0.1225690E-03  0.1392572E+04  0.7818609E-02  0.8959213E-01
       -1   -1    0    0    0  501  0.00000000000E+00  0.00000000000E+00  0.76314836185E+03  0.76314836187E+03  0.50400001928E-02 0.  1.
        1   -1    0    0  501    0  0.00000000000E+00  0.00000000000E+00 -0.63528149734E+03  0.63528149736E+03  0.50400001928E-02 0. -1.
    10030    2    1    2    0    0  0.00000000000E+00  0.00000000000E+00  0.12786686451E+03  0.13984298592E+04  0.13925717706E+04 0.  0.
        4    1    3    3  502    0  0.18883481268E+03  0.23655883988E+03 -0.56575599908E+03  0.64163863241E+03  0.12699999809E+01 0. -1.
       -4    1    3    3    0  502 -0.18883481268E+03 -0.23655883988E+03  0.69362286358E+03  0.75679122682E+03  0.12699999809E+01 0.  1.
</event>
<event>
 5   0  0.2236184E-03  0.1348744E+04  0.7818609E-02  0.8991779E-01
        2   -1    0    0  501    0  0.00000000000E+00  0.00000000000E+00  0.93205838013E+03  0.93205838014E+03  0.25500000920E-02 0. -1.
       -2   -1    0    0    0  501  0.00000000000E+00  0.00000000000E+00 -0.48792833300E+03  0.48792833300E+03  0.25500000920E-02 0.  1.
    10030    2    1    2    0    0  0.00000000000E+00  0.00000000000E+00  0.44413004714E+03  0.14199867131E+04  0.13487441443E+04 0.  0.
        3    1    3    3  502    0  0.17808814487E+03  0.56616646465E+03 -0.11503160397E+03  0.60455945378E+03  0.10100000352E+00 0.  1.
       -3    1    3    3    0  502 -0.17808814487E+03 -0.56616646465E+03  0.55916165111E+03  0.81542725936E+03  0.10100000352E+00 0. -1.
</event>
<event>
 5   0  0.1225690E-03  0.1397375E+04  0.7818609E-02  0.8955721E-01
        1   -1    0    0  501    0  0.00000000000E+00  0.00000000000E+00  0.82433947989E+03  0.82433947991E+03  0.50400001928E-02 0.  1.
       -1   -1    0    0    0  501  0.00000000000E+00  0.00000000000E+00 -0.59218858516E+03  0.59218858518E+03  0.50400001928E-02 0. -1.
    10030    2    1    2    0    0  0.00000000000E+00  0.00000000000E+00  0.23215089473E+03  0.14165280651E+04  0.13973752972E+04 0.  0.
        4    1    3    3  502    0  0.63869653293E+03  0.25782067088E+03 -0.28269711130E+01  0.68877744169E+03  0.12699999809E+01 0. -1.
       -4    1    3    3    0  502 -0.63869653293E+03 -0.25782067088E+03  0.23497786585E+03  0.72775062339E+03  0.12699999809E+01 0.  1.
</event>
<event>
 5   0  0.1199720E-03  0.1423260E+04  0.7818609E-02  0.8937151E-01
        1   -1    0    0  501    0  0.00000000000E+00  0.00000000000E+00  0.79559715420E+03  0.79559715421E+03  0.50400001928E-02 0. -1.
       -1   -1    0    0    0  501  0.00000000000E+00  0.00000000000E+00 -0.63652514377E+03  0.63652514379E+03  0.50400001928E-02 0.  1.
    10030    2    1    2    0    0  0.00000000000E+00  0.00000000000E+00  0.15907201043E+03  0.14321222980E+04  0.14232604723E+04 0.  0.
        5    1    3    3  502    0 -0.82578326669E+02  0.29434329770E+03 -0.56706790364E+03  0.64424005950E+03  0.46999998093E+01 0.  1.
       -5    1    3    3    0  502  0.82578326669E+02 -0.29434329770E+03  0.72613991407E+03  0.78788223849E+03  0.46999998093E+01 0. -1.
</event>
<event>
 5   0  0.1225690E-03  0.1477202E+04  0.7818609E-02  0.8899757E-01
        1   -1    0    0  501    0  0.00000000000E+00  0.00000000000E+00  0.80564626863E+03  0.80564626864E+03  0.50400001928E-02 0.  1.
       -1   -1    0    0    0  501  0.00000000000E+00  0.00000000000E+00 -0.67713474984E+03  0.67713474986E+03  0.50400001928E-02 0. -1.
    10030    2    1    2    0    0  0.00000000000E+00  0.00000000000E+00  0.12851151879E+03  0.14827810185E+04  0.14772015226E+04 0.  0.
        4    1    3    3  502    0 -0.68860405365E+03 -0.13803460297E+03  0.29381230588E+03  0.76128600297E+03  0.12699999809E+01 0.  1.
       -4    1    3    3    0  502  0.68860405365E+03  0.13803460297E+03 -0.16530078709E+03  0.72149501553E+03  0.12699999809E+01 0. -1.
</event>
<event>
 5   0  0.1175374E-03  0.1191739E+04  0.7818609E-02  0.9120118E-01
       -1   -1    0    0    0  501  0.00000000000E+00  0.00000000000E+00  0.26573557550E+03  0.26573557554E+03  0.50400001928E-02 0.  1.
        1   -1    0    0  501    0  0.00000000000E+00  0.00000000000E+00 -0.13361423659E+04  0.13361423659E+04  0.50400001928E-02 0. -1.
    10030    2    1    2    0    0  0.00000000000E+00  0.00000000000E+00 -0.10704067904E+04  0.16018779414E+04  0.11917391671E+04 0.  0.
        3    1    3    3  502    0  0.13711376083E+03 -0.24577222683E+03 -0.12411790487E+04  0.12726859833E+04  0.10100000352E+00 0. -1.
       -3    1    3    3    0  502 -0.13711376083E+03  0.24577222683E+03  0.17077225833E+03  0.32919195814E+03  0.10100000352E+00 0.  1.
</event>
<event>
 5   0  0.2172901E-03  0.1436907E+04  0.7818609E-02  0.8927528E-01
        2   -1    0    0  501    0  0.00000000000E+00  0.00000000000E+00  0.48438428314E+03  0.48438428314E+03  0.25500000920E-02 0. -1.
       -2   -1    0    0    0  501  0.00000000000E+00  0.00000000000E+00 -0.10656324759E+04  0.10656324759E+04  0.25500000920E-02 0.  1.
    10030    2    1    2    0    0  0.00000000000E+00  0.00000000000E+00 -0.58124819272E+03  0.15500167590E+04  0.14369072662E+04 0.  0.
        2    1    3    3  502    0  0.17794965304E+03  0.34340153099E+03  0.36249887386E+03  0.53009067532E+03  0.25500000920E-02 0. -1.
       -2    1    3    3    0  502 -0.17794965304E+03 -0.34340153099E+03 -0.94374706658E+03  0.10199260837E+04  0.25500000920E-02 0.  1.
</event>
<event>
 5   0  0.2195980E-03  0.1444570E+04  0.7818609E-02  0.8922173E-01
       -2   -1    0    0    0  501  0.00000000000E+00  0.00000000000E+00  0.92741944882E+03  0.92741944882E+03  0.25500000920E-02 0. -1.
        2   -1    0    0  501    0  0.00000000000E+00  0.00000000000E+00 -0.56252429706E+03  0.56252429707E+03  0.25500000920E-02 0.  1.
    10030    2    1    2    0    0  0.00000000000E+00  0.00000000000E+00  0.36489515175E+03  0.14899437459E+04  0.14445704878E+04 0.  0.
        4    1    3    3  502    0 -0.33999558993E+03  0.50444858007E+03 -0.21917882545E+03  0.64661143010E+03  0.12699999809E+01 0.  1.
       -4    1    3    3    0  502  0.33999558993E+03 -0.50444858007E+03  0.58407397720E+03  0.84333231579E+03  0.12699999809E+01 0. -1.
</event>
<event>
 5   0  0.2190704E-03  0.1370708E+04  0.7818609E-02  0.8975299E-01
       -2   -1    0    0    0  501  0.00000000000E+00  0.00000000000E+00  0.37061073310E+03  0.37061073311E+03  0.25500000920E-02 0.  1.
        2   -1    0    0  501    0  0.00000000000E+00  0.00000000000E+00 -0.12673947348E+04  0.12673947348E+04  0.25500000920E-02 0. -1.
    10030    2    1    2    0    0  0.00000000000E+00  0.00000000000E+00 -0.89678400166E+03  0.16380054679E+04  0.13707079803E+04 0.  0.
        5    1    3    3  502    0  0.40900583555E+03  0.41616077940E+03 -0.87795074059E+03  0.10541798522E+04  0.46999998093E+01 0. -1.
       -5    1    3    3    0  502 -0.40900583555E+03 -0.41616077940E+03 -0.18833261069E+02  0.58382561570E+03  0.46999998093E+01 0.  1.
</event>
<event>
 5   0  0.2190704E-03  0.1355997E+04  0.7818609E-02  0.8986301E-01
       -2   -1    0    0    0  501  0.00000000000E+00  0.00000000000E+00  0.22327927540E+03  0.22327927541E+03  0.25500000920E-02 0.  1.
        2   -1    0    0  501    0  0.00000000000E+00  0.00000000000E+00 -0.20587748173E+04  0.20587748173E+04  0.25500000920E-02 0. -1.
    10030    2    1    2    0    0  0.00000000000E+00  0.00000000000E+00 -0.18354955419E+04  0.22820540927E+04  0.13559966806E+04 0.  0.
        5    1    3    3  502    0  0.51292016954E+03  0.42100860654E+03 -0.11516957685E+04  0.13291954635E+04  0.46999998093E+01 0. -1.
       -5    1    3    3    0  502 -0.51292016954E+03 -0.42100860654E+03 -0.68379977342E+03  0.95285862919E+03  0.46999998093E+01 0.  1.
</event>
<event>
 5   0  0.1225690E-03  0.1367596E+04  0.7818609E-02  0.8977614E-01
        1   -1    0    0  501    0  0.00000000000E+00  0.00000000000E+00  0.75159537791E+03  0.75159537793E+03  0.50400001928E-02 0. -1.
       -1   -1    0    0    0  501  0.00000000000E+00  0.00000000000E+00 -0.62211634409E+03  0.62211634411E+03  0.50400001928E-02 0.  1.
    10030    2    1    2    0    0  0.00000000000E+00  0.00000000000E+00  0.12947903381E+03  0.13737117220E+04  0.13675960935E+04 0.  0.
        4    1    3    3  502    0 -0.24659661078E+03 -0.24306193978E+03 -0.52754902143E+03  0.63102977578E+03  0.12699999809E+01 0.  1.
       -4    1    3    3    0  502  0.24659661078E+03  0.24306193978E+03  0.65702805524E+03  0.74268194626E+03  0.12699999809E+01 0. -1.
</event>
<event>
 5   0  0.1210275E-03  0.1416463E+04  0.7818609E-02  0.8941987E-01
       -1   -1    0    0    0  501  0.00000000000E+00  0.00000000000E+00  0.64791882695E+03  0.64791882697E+03  0.50400001928E-02 0. -1.
        1   -1    0    0  501    0  0.00000000000E+00  0.00000000000E+00 -0.77415888286E+03  0.77415888288E+03  0.50400001928E-02 0.  1.
    10030    2    1    2    0    0  0.00000000000E+00  0.00000000000E+00 -0.12624005591E+03  0.14220777098E+04  0.14164633638E+04 0.  0.
        1    1    3    3  502    0  0.24010375802E+03  0.49955266970E+03 -0.50576374799E+03  0.75033302821E+03  0.50400001928E-02 0.  1.
       -1    1    3    3    0  502 -0.24010375802E+03 -0.49955266970E+03  0.37952369209E+03  0.67174468163E+03  0.50400001928E-02 0. -1.
</event>
<event>
 5   0  0.2236184E-03  0.1396973E+04  0.7818609E-02  0.8956012E-01
       -2   -1    0    0    0  501  0.00000000000E+00  0.00000000000E+00  0.89885359945E+03  0.89885359946E+03  0.25500000920E-02 0. -1.
        2   -1    0    0  501    0  0.00000000000E+00  0.00000000000E+00 -0.54278442236E+03  0.54278442237E+03  0.25500000920E-02 0.  1.
    10030    2    1    2    0    0  0.00000000000E+00  0.00000000000E+00  0.35606917709E+03  0.14416380218E+04  0.13969734883E+04 0.  0.
        3    1    3    3  502    0 -0.34464467104E+03 -0.28495190393E+03 -0.37568968355E+03  0.58405503624E+03  0.10100000352E+00 0.  1.
       -3    1    3    3    0  502  0.34464467104E+03  0.28495190393E+03  0.73175886064E+03  0.85758298558E+03  0.10100000352E+00 0. -1.
</event>
<event>
 5   0  0.2083966E-03  0.1410439E+04  0.7818609E-02  0.8946297E-01
        2   -1    0    0  501    0  0.00000000000E+00  0.00000000000E+00  0.16443142299E+04  0.16443142299E+04  0.25500000920E-02 0.  1.
       -2   -1    0    0    0  501  0.00000000000E+00  0.00000000000E+00 -0.30245725135E+03  0.30245725136E+03  0.25500000920E-02 0. -1.
    10030    2    1    2    0    0  0.00000000000E+00  0.00000000000E+00  0.13418569785E+04  0.19467714813E+04  0.14104393108E+04 0.  0.
        1    1    3    3  502    0  0.19837949588E+03  0.55302330092E+03  0.13254687216E+03  0.60229383949E+03  0.50400001928E-02 0. -1.
       -1    1    3    3    0  502 -0.19837949588E+03 -0.55302330092E+03  0.12093101064E+04  0.13444776418E+04  0.50400001928E-02 0.  1.
</event>
<event>
 5   0  0.8293000E-04  0.1400836E+04  0.7818609E-02  0.8953214E-01
        3   -1    0    0  501    0  0.00000000000E+00  0.00000000000E+00  0.57030003848E+03  0.57030004743E+03  0.10100000352E+00 0. -1.
       -3   -1    0    0    0  501  0.00000000000E+00  0.00000000000E+00 -0.86022276309E+03  0.86022276902E+03  0.10100000352E+00 0.  1.
    10030    2    1    2    0    0  0.00000000000E+00  0.00000000000E+00 -0.28992272461E+03  0.14305228164E+04  0.14008355871E+04 0.  0.
        1    1    3    3  502    0 -0.10739826617E+03  0.64966384473E+03 -0.38874118465E+03  0.76466803739E+03  0.50400001928E-02 0.  1.
       -1    1    3    3    0  502  0.10739826617E+03 -0.64966384473E+03  0.98818460042E+02  0.66585477906E+03  0.50400001928E-02 0. -1.
</event>
<event>
 5   0  0.2236184E-03  0.1395776E+04  0.7818609E-02  0.8956882E-01
       -2   -1    0    0    0  501  0.00000000000E+00  0.00000000000E+00  0.62025595025E+03  0.62025595026E+03  0.25500000920E-02 0. -1.
        2   -1    0    0  501    0  0.00000000000E+00  0.00000000000E+00 -0.78523638707E+03  0.78523638707E+03  0.25500000920E-02 0.  1.
    10030    2    1    2    0    0  0.00000000000E+00  0.00000000000E+00 -0.16498043681E+03  0.14054923373E+04  0.13957758293E+04 0.  0.
        3    1    3    3  502    0  0.43894397588E+02  0.35793365627E+03  0.51916756441E+03  0.63212197443E+03  0.10100000352E+00 0. -1.
       -3    1    3    3    0  502 -0.43894397588E+02 -0.35793365627E+03 -0.68414800122E+03  0.77337036289E+03  0.10100000352E+00 0.  1.
</event>
<event>
 5   0  0.1175374E-03  0.1394559E+04  0.7818609E-02  0.8957766E-01
        1   -1    0    0  501    0  0.00000000000E+00  0.00000000000E+00  0.12633300806E+04  0.12633300806E+04  0.50400001928E-02 0. -1.
       -1   -1    0    0    0  501  0.00000000000E+00  0.00000000000E+00 -0.38485509807E+03  0.38485509810E+03  0.50400001928E-02 0.  1.
    10030    2    1    2    0    0  0.00000000000E+00  0.00000000000E+00  0.87847498256E+03  0.16481851787E+04  0.13945594603E+04 0.  0.
        3    1    3    3  502    0  0.40815948115E+03  0.40347595563E+03  0.90725124869E+03  0.10735417306E+04  0.10100000352E+00 0. -1.
       -3    1    3    3    0  502 -0.40815948115E+03 -0.40347595563E+03 -0.28776266130E+02  0.57464344816E+03  0.10100000352E+00 0.  1.
</event>
<event>
 5   0  0.8293000E-04  0.1416884E+04  0.7818609E-02  0.8941687E-01
        3   -1    0    0  501    0  0.00000000000E+00  0.00000000000E+00  0.50230675681E+03  0.50230676696E+03  0.10100000352E+00 0.  1.
       -3   -1    0    0    0  501  0.00000000000E+00  0.00000000000E+00 -0.99916999649E+03  0.99917000159E+03  0.10100000352E+00 0. -1.
    10030    2    1    2    0    0  0.00000000000E+00  0.00000000000E+00 -0.49686323968E+03  0.15014767686E+04  0.14168836959E+04 0.  0.
        3    1    3    3  502    0  0.13928791923E+03  0.23392461974E+03 -0.94151990042E+03  0.98009264116E+03  0.10100000352E+00 0. -1.
       -3    1    3    3    0  502 -0.13928791923E+03 -0.23392461974E+03  0.44465666074E+03  0.52138412740E+03  0.10100000352E+00 0.  1.
</event>
<event>
 5   0  0.2172901E-03  0.1388652E+04  0.7818609E-02  0.8962074E-01
        2   -1    0    0  501    0  0.00000000000E+00  0.00000000000E+00  0.17763613903E+04  0.17763613903E+04  0.25500000920E-02 0.  1.
       -2   -1    0    0    0  501  0.00000000000E+00  0.00000000000E+00 -0.27139121062E+03  0.27139121063E+03  0.25500000920E-02 0. -1.
    10030    2    1    2    0    0  0.00000000000E+00  0.00000000000E+00  0.15049701797E+04  0.20477526009E+04  0.13886523946E+04 0.  0.
        2    1    3    3  502    0 -0.20689967361E+03  0.35082689415E+03 -0.76728030558E+02  0.41445648176E+03  0.25500000920E-02 0. -1.
       -2    1    3    3    0  502  0.20689967361E+03 -0.35082689415E+03  0.15816982103E+04  0.16332961192E+04  0.25500000920E-02 0.  1.
</event>
<event>
 5   0  0.1210275E-03  0.1395931E+04  0.7818609E-02  0.8956769E-01
        1   -1    0    0  501    0  0.00000000000E+00  0.00000000000E+00  0.93900846109E+03  0.93900846110E+03  0.50400001928E-02 0.  1.
       -1   -1    0    0    0  501  0.00000000000E+00  0.00000000000E+00 -0.51879839491E+03  0.51879839494E+03  0.50400001928E-02 0. -1.
    10030    2    1    2    0    0  0.00000000000E+00  0.00000000000E+00  0.42021006618E+03  0.14578068560E+04  0.13959313485E+04 0.  0.
        1    1    3    3  502    0  0.63900401079E+03 -0.27834414846E+03  0.17167028025E+03  0.71782468329E+03  0.50400001928E-02 0. -1.
       -1    1    3    3    0  502 -0.63900401079E+03  0.27834414846E+03  0.24853978592E+03  0.73998217276E+03  0.50400001928E-02 0.  1.
</event>
<event>
 5   0  0.2236184E-03  0.1386024E+04  0.7818609E-02  0.8963998E-01
        2   -1    0    0  501    0  0.00000000000E+00  0.00000000000E+00  0.10822817061E+04  0.10822817061E+04  0.25500000920E-02 0.  1.
       -2   -1    0    0    0  501  0.00000000000E+00  0.00000000000E+00 -0.44375263362E+03  0.44375263363E+03  0.25500000920E-02 0. -1.
    10030    2    1    2    0    0  0.00000000000E+00  0.00000000000E+00  0.63852907247E+03  0.15260343397E+04  0.13860236036E+04 0.  0.
        3    1    3    3  502    0 -0.72600282840E+02 -0.23216498411E+03 -0.39520413400E+03  0.46406648085E+03  0.10100000352E+00 0. -1.
       -3    1    3    3    0  502  0.72600282840E+02  0.23216498411E+03  0.10337332065E+04  0.10619678589E+04  0.10100000352E+00 0.  1.
</event>
<event>
 5   0  0.2172901E-03  0.1393257E+04  0.7818609E-02  0.8958714E-01
        2   -1    0    0  501    0  0.00000000000E+00  0.00000000000E+00  0.11178427993E+04  0.11178427993E+04  0.25500000920E-02 0.  1.
       -2   -1    0    0    0  501  0.00000000000E+00  0.00000000000E+00 -0.43413188801E+03  0.43413188802E+03  0.25500000920E-02 0. -1.
    10030    2    1    2    0    0  0.00000000000E+00  0.00000000000E+00  0.68371091132E+03  0.15519746874E+04  0.13932569110E+04 0.  0.
        2    1    3    3  502    0 -0.34462180778E+03 -0.58461823786E+03  0.51709339456E+03  0.85318711496E+03  0.25500000920E-02 0.  1.
       -2    1    3    3    0  502  0.34462180778E+03  0.58461823786E+03  0.16661751676E+03  0.69878757239E+03  0.25500000920E-02 0. -1.
</event>
<event>
 5   0  0.1210275E-03  0.1631976E+04  0.7818609E-02  0.8801141E-01
        1   -1    0    0  501    0  0.00000000000E+00  0.00000000000E+00  0.89806978474E+03  0.89806978475E+03  0.50400001928E-02 0.  1.
       -1   -1    0    0    0  501  0.00000000000E+00  0.00000000000E+00 -0.74140822092E+03  0.74140822094E+03  0.50400001928E-02 0. -1.
    10030    2    1    2    0    0  0.00000000000E+00  0.00000000000E+00  0.15666156382E+03  0.16394780057E+04  0.16319758839E+04 0.  0.
        1    1    3    3  502    0 -0.48005962295E+03  0.35841859354E+03 -0.47821519890E+03  0.76655782970E+03  0.50400001928E-02 0. -1.
       -1    1    3    3    0  502  0.48005962295E+03 -0.35841859354E+03  0.63487676272E+03  0.87292017599E+03  0.50400001928E-02 0.  1.
</event>
<event>
 5   0  0.2190704E-03  0.1183979E+04  0.7818609E-02  0.9126996E-01
       -2   -1    0    0    0  501  0.00000000000E+00  0.00000000000E+00  0.16061897657E+04  0.16061897657E+04  0.25500000920E-02 0.  1.
        2   -1    0    0  501    0  0.00000000000E+00  0.00000000000E+00 -0.21818813535E+03  0.21818813536E+03  0.25500000920E-02 0. -1.
    10030    2    1    2    0    0  0.00000000000E+00  0.00000000000E+00  0.13880016303E+04  0.18243779010E+04  0.11839789694E+04 0.  0.
        5    1    3    3  502    0 -0.23487860337E+03  0.41065595296E+03  0.12423124227E+04  0.13293489067E+04  0.46999998093E+01 0.  1.
       -5    1    3    3    0  502  0.23487860337E+03 -0.41065595296E+03  0.14568920757E+03  0.49502899433E+03  0.46999998093E+01 0. -1.
</event>
<event>
 5   0  0.2172901E-03  0.1422824E+04  0.7818609E-02  0.8937461E-01
        2   -1    0    0  501    0  0.00000000000E+00  0.00000000000E+00  0.20528227146E+04  0.20528227146E+04  0.25500000920E-02 0. -1.
       -2   -1    0    0    0  501  0.00000000000E+00  0.00000000000E+00 -0.24654212228E+03  0.24654212229E+03  0.25500000920E-02 0.  1.
    10030    2    1    2    0    0  0.00000000000E+00  0.00000000000E+00  0.18062805923E+04  0.22993648368E+04  0.14228243303E+04 0.  0.
        2    1    3    3  502    0  0.56821551616E+03 -0.19543726034E+03  0.28767368116E+03  0.66619872588E+03  0.25500000920E-02 0.  1.
       -2    1    3    3    0  502 -0.56821551616E+03  0.19543726034E+03  0.15186069111E+04  0.16331661110E+04  0.25500000920E-02 0. -1.
</event>
<event>
 5   0  0.2190704E-03  0.1255223E+04  0.7818609E-02  0.9065847E-01
       -2   -1    0    0    0  501  0.00000000000E+00  0.00000000000E+00  0.57983524976E+03  0.57983524976E+03  0.25500000920E-02 0. -1.
        2   -1    0    0  501    0  0.00000000000E+00  0.00000000000E+00 -0.67932457405E+03  0.67932457405E+03  0.25500000920E-02 0.  1.
    10030    2    1    2    0    0  0.00000000000E+00  0.00000000000E+00 -0.99489324286E+02  0.12591598238E+04  0.12552232217E+04 0.  0.
        5    1    3    3  502    0 -0.52831455102E+03  0.23297098334E+02 -0.38876198639E+03  0.65636650712E+03  0.46999998093E+01 0.  1.
       -5    1    3    3    0  502  0.52831455102E+03 -0.23297098334E+02  0.28927266211E+03  0.60279331669E+03  0.46999998093E+01 0. -1.
</event>
<event>
 5   0  0.1210275E-03  0.1403047E+04  0.7818609E-02  0.8951616E-01
       -1   -1    0    0    0  501  0.00000000000E+00  0.00000000000E+00  0.45528966424E+03  0.45528966426E+03  0.50400001928E-02 0. -1.
        1   -1    0    0  501    0  0.00000000000E+00  0.00000000000E+00 -0.10809279946E+04  0.10809279947E+04  0.50400001928E-02 0.  1.
    10030    2    1    2    0    0  0.00000000000E+00  0.00000000000E+00 -0.62563833041E+03  0.15362176589E+04  0.14030471749E+04 0.  0.
        1    1    3    3  502    0 -0.44632993385E+03 -0.53602356057E+03 -0.23085632417E+03  0.73472873210E+03  0.50400001928E-02 0.  1.
       -1    1    3    3    0  502  0.44632993385E+03  0.53602356057E+03 -0.39478200624E+03  0.80148892682E+03  0.50400001928E-02 0. -1.
</event>
<event>
 5   0  0.2195980E-03  0.1469794E+04  0.7818609E-02  0.8904792E-01
        2   -1    0    0  501    0  0.00000000000E+00  0.00000000000E+00  0.66393701638E+03  0.66393701639E+03  0.25500000920E-02 0. -1.
       -2   -1    0    0    0  501  0.00000000000E+00  0.00000000000E+00 -0.81344141958E+03  0.81344141958E+03  0.25500000920E-02 0.  1.
    10030    2    1    2    0    0  0.00000000000E+00  0.00000000000E+00 -0.14950440320E+03  0.14773784360E+04  0.14697943654E+04 0.  0.
        4    1    3    3  502    0 -0.39386811680E+03  0.28419768108E+03 -0.62911576876E+03  0.79478844906E+03  0.12699999809E+01 0.  1.
       -4    1    3    3    0  502  0.39386811680E+03 -0.28419768108E+03  0.47961136556E+03  0.68258998691E+03  0.12699999809E+01 0. -1.
</event>
<event>
 5   0  0.2236184E-03  0.1529442E+04  0.7818609E-02  0.8865107E-01
        2   -1    0    0  501    0  0.00000000000E+00  0.00000000000E+00  0.73346823771E+03  0.73346823771E+03  0.25500000920E-02 0.  1.
       -2   -1    0    0    0  501  0.00000000000E+00  0.00000000000E+00 -0.79730550664E+03  0.79730550665E+03  0.25500000920E-02 0. -1.
    10030    2    1    2    0    0  0.00000000000E+00  0.00000000000E+00 -0.63837268935E+02  0.15307737444E+04  0.15294420746E+04 0.  0.
        3    1    3    3  502    0 -0.58934682587E+03  0.36241533079E+02  0.45446242971E+03  0.74510350966E+03  0.10100000352E+00 0. -1.
       -3    1    3    3    0  502  0.58934682587E+03 -0.36241533079E+02 -0.51829969865E+03  0.78567023470E+03  0.10100000352E+00 0.  1.
</event>
<event>
 5   0  0.2190704E-03  0.1399556E+04  0.7818609E-02  0.8954140E-01
       -2   -1    0    0    0  501  0.00000000000E+00  0.00000000000E+00  0.39254880079E+03  0.39254880079E+03  0.25500000920E-02 0.  1.
        2   -1    0    0  501    0  0.00000000000E+00  0.00000000000E+00 -0.12474601780E+04  0.12474601780E+04  0.25500000920E-02 0. -1.
    10030    2    1    2    0    0  0.00000000000E+00  0.00000000000E+00 -0.85491137725E+03  0.16400089788E+04  0.13995556394E+04 0.  0.
        5    1    3    3  502    0 -0.56767626097E+03 -0.38335377157E+03 -0.59503004108E+03  0.90735841387E+03  0.46999998093E+01 0. -1.
       -5    1    3    3    0  502  0.56767626097E+03  0.38335377157E+03 -0.25988133618E+03  0.73265056496E+03  0.46999998093E+01 0.  1.
</event>
<event>
 5   0  0.2236184E-03  0.1394499E+04  0.7818609E-02  0.8957810E-01
        2   -1    0    0  501    0  0.00000000000E+00  0.00000000000E+00  0.99491198937E+03  0.99491198937E+03  0.25500000920E-02 0.  1.
       -2   -1    0    0    0  501  0.00000000000E+00  0.00000000000E+00 -0.48864292477E+03  0.48864292478E+03  0.25500000920E-02 0. -1.
    10030    2    1    2    0    0  0.00000000000E+00  0.00000000000E+00  0.50626906459E+03  0.14835549142E+04  0.13944987693E+04 0.  0.
        3    1    3    3  502    0 -0.23768516853E+03  0.63882342698E+03  0.96898498340E+02  0.68846128387E+03  0.10100000352E+00 0. -1.
       -3    1    3    3    0  502  0.23768516853E+03 -0.63882342698E+03  0.40937056625E+03  0.79509363028E+03  0.10100000352E+00 0.  1.
</event>
<event>
 5   0  0.1175374E-03  0.1364364E+04  0.7818609E-02  0.8980026E-01
        1   -1    0    0  501    0  0.00000000000E+00  0.00000000000E+00  0.33954136454E+03  0.33954136457E+03  0.50400001928E-02 0. -1.
       -1   -1    0    0    0  501  0.00000000000E+00  0.00000000000E+00 -0.13705899730E+04  0.13705899730E+04  0.50400001928E-02 0.  1.
    10030    2    1    2    0    0  0.00000000000E+00  0.00000000000E+00 -0.10310486085E+04  0.17101313376E+04  0.13643635728E+04 0.  0.
        3    1    3    3  502    0 -0.28352893280E+03 -0.37039529962E+03 -0.11394628315E+04  0.12312420104E+04  0.10100000352E+00 0.  1.
       -3    1    3    3    0  502  0.28352893280E+03  0.37039529962E+03  0.10841422302E+03  0.47888932716E+03  0.10100000352E+00 0. -1.
</event>
<event>
 5   0  0.1175374E-03  0.1353353E+04  0.7818609E-02  0.8988294E-01
       -1   -1    0    0    0  501  0.00000000000E+00  0.00000000000E+00  0.19416802504E+03  0.19416802511E+03  0.50400001928E-02 0. -1.
        1   -1    0    0  501    0  0.00000000000E+00  0.00000000000E+00 -0.23582205836E+04  0.23582205836E+04  0.50400001928E-02 0.  1.
    10030    2    1    2    0    0  0.00000000000E+00  0.00000000000E+00 -0.21640525585E+04  0.25523886087E+04  0.13533529228E+04 0.  0.
        3    1    3    3  502    0  0.23711608196E+03  0.13680023103E+03 -0.22491268761E+04  0.22657250616E+04  0.10100000352E+00 0.  1.
       -3    1    3    3    0  502 -0.23711608196E+03 -0.13680023103E+03  0.85074317585E+02  0.28666354712E+03  0.10100000352E+00 0. -1.
</event>
<event>
 5   0  0.2195980E-03  0.1469858E+04  0.7818609E-02  0.8904748E-01
        2   -1    0    0  501    0  0.00000000000E+00  0.00000000000E+00  0.66530002425E+03  0.66530002425E+03  0.25500000920E-02 0.  1.
       -2   -1    0    0    0  501  0.00000000000E+00  0.00000000000E+00 -0.81184537573E+03  0.81184537573E+03  0.25500000920E-02 0. -1.
    10030    2    1    2    0    0  0.00000000000E+00  0.00000000000E+00 -0.14654535148E+03  0.14771454000E+04  0.14698581539E+04 0.  0.
        4    1    3    3  502    0 -0.30899303466E+03  0.65475849543E+03 -0.20012746066E+03  0.75115777052E+03  0.12699999809E+01 0. -1.
       -4    1    3    3    0  502  0.30899303466E+03 -0.65475849543E+03  0.53582109178E+02  0.72598762946E+03  0.12699999809E+01 0.  1.
</event>
<event>
 5   0  0.1199720E-03  0.1416401E+04  0.7818609E-02  0.8942031E-01
        1   -1    0    0  501    0  0.00000000000E+00  0.00000000000E+00  0.94444968043E+03  0.94444968045E+03  0.50400001928E-02 0.  1.
       -1   -1    0    0    0  501  0.00000000000E+00  0.00000000000E+00 -0.53104812144E+03  0.53104812146E+03  0.50400001928E-02 0. -1.
    10030    2    1    2    0    0  0.00000000000E+00  0.00000000000E+00  0.41340155900E+03  0.14754978019E+04  0.14164013960E+04 0.  0.
        5    1    3    3  502    0 -0.42219296533E+03 -0.12566687613E+03  0.78435194413E+03  0.89959386725E+03  0.46999998093E+01 0.  1.
       -5    1    3    3    0  502  0.42219296533E+03  0.12566687613E+03 -0.37095038513E+03  0.57590393466E+03  0.46999998093E+01 0. -1.
</event>
<event>
 5   0  0.8293000E-04  0.1372648E+04  0.7818609E-02  0.8973859E-01
       -3   -1    0    0    0  501  0.00000000000E+00  0.00000000000E+00  0.59238360701E+03  0.59238361562E+03  0.10100000352E+00 0. -1.
        3   -1    0    0  501    0  0.00000000000E+00  0.00000000000E+00 -0.79516185441E+03  0.79516186083E+03  0.10100000352E+00 0.  1.
    10030    2    1    2    0    0  0.00000000000E+00  0.00000000000E+00 -0.20277824740E+03  0.13875454765E+04  0.13726483277E+04 0.  0.
        4    1    3    3  502    0 -0.68315005174E+02  0.61531341479E+03 -0.40085026171E+03  0.73753649643E+03  0.12699999809E+01 0.  1.
       -4    1    3    3    0  502  0.68315005174E+02 -0.61531341479E+03  0.19807201431E+03  0.65000898002E+03  0.12699999809E+01 0. -1.
</event>
<event>
 5   0  0.1175374E-03  0.1576311E+04  0.7818609E-02  0.8835234E-01
       -1   -1    0    0    0  501  0.00000000000E+00  0.00000000000E+00  0.39004465306E+03  0.39004465309E+03  0.50400001928E-02 0. -1.
        1   -1    0    0  501    0  0.00000000000E+00  0.00000000000E+00 -0.15926110341E+04  0.15926110341E+04  0.50400001928E-02 0.  1.
    10030    2    1    2    0    0  0.00000000000E+00  0.00000000000E+00 -0.12025663810E+04  0.19826556872E+04  0.15763114137E+04 0.  0.
        3    1    3    3  502    0  0.39506507891E+03 -0.58364268154E+03 -0.10450399406E+04  0.12604854954E+04  0.10100000352E+00 0.  1.
       -3    1    3    3    0  502 -0.39506507891E+03  0.58364268154E+03 -0.15752644035E+03  0.72217019179E+03  0.10100000352E+00 0. -1.
</event>
<event>
 5   0  0.1199720E-03  0.1387873E+04  0.7818609E-02  0.8962643E-01
        1   -1    0    0  501    0  0.00000000000E+00  0.00000000000E+00  0.12035724375E+04  0.12035724375E+04  0.50400001928E-02 0. -1.
       -1   -1    0    0    0  501  0.00000000000E+00  0.00000000000E+00 -0.40009904670E+03  0.40009904673E+03  0.50400001928E-02 0.  1.
    10030    2    1    2    0    0  0.00000000000E+00  0.00000000000E+00  0.80347339081E+03  0.16036714843E+04  0.13878734595E+04 0.  0.
        5    1    3    3  502    0 -0.52970951889E+03 -0.44162615675E+03  0.49049337442E+03  0.84630471881E+03  0.46999998093E+01 0.  1.
       -5    1    3    3    0  502  0.52970951889E+03  0.44162615675E+03  0.31298001639E+03  0.75736676544E+03  0.46999998093E+01 0. -1.
</event>
<event>
 5   0  0.1175374E-03  0.1412741E+04  0.7818609E-02  0.8944647E-01
        1   -1    0    0  501    0  0.00000000000E+00  0.00000000000E+00  0.12643903557E+04  0.12643903557E+04  0.50400001928E-02 0. -1.
       -1   -1    0    0    0  501  0.00000000000E+00  0.00000000000E+00 -0.39462455848E+03  0.39462455851E+03  0.50400001928E-02 0.  1.
    10030    2    1    2    0    0  0.00000000000E+00  0.00000000000E+00  0.86976579721E+03  0.16590149142E+04  0.14127412869E+04 0.  0.
        3    1    3    3  502    0 -0.66511076161E+03  0.70109159548E+02  0.16794226656E+03  0.68955944962E+03  0.10100000352E+00 0.  1.
       -3    1    3    3    0  502  0.66511076161E+03 -0.70109159548E+02  0.70182353065E+03  0.96945546460E+03  0.10100000352E+00 0. -1.
</event>
<event>
 5   0  0.2083966E-03  0.1403597E+04  0.7818609E-02  0.8951219E-01
       -2   -1    0    0    0  501  0.00000000000E+00  0.00000000000E+00  0.73475617434E+03  0.73475617434E+03  0.25500000920E-02 0.  1.
        2   -1    0    0  501    0  0.00000000000E+00  0.00000000000E+00 -0.67031877249E+03  0.67031877249E+03  0.25500000920E-02 0. -1.
    10030    2    1    2    0    0  0.00000000000E+00  0.00000000000E+00  0.64437401850E+02  0.14050749468E+04  0.14035966043E+04 0.  0.
        1    1    3    3  502    0  0.14007351246E+03  0.51422980023E+03 -0.42484513586E+03  0.68157630961E+03  0.50400001928E-02 0. -1.
       -1    1    3    3    0  502 -0.14007351246E+03 -0.51422980023E+03  0.48928253771E+03  0.72349863723E+03  0.50400001928E-02 0.  1.
</event>
<event>
 5   0  0.1238683E-03  0.1412321E+04  0.7818609E-02  0.8944948E-01
       -1   -1    0    0    0  501  0.00000000000E+00  0.00000000000E+00  0.22263790184E+03  0.22263790190E+03  0.50400001928E-02 0.  1.
        1   -1    0    0  501    0  0.00000000000E+00  0.00000000000E+00 -0.22397923127E+04  0.22397923127E+04  0.50400001928E-02 0. -1.
    10030    2    1    2    0    0  0.00000000000E+00  0.00000000000E+00 -0.20171544108E+04  0.24624302146E+04  0.14123210133E+04 0.  0.
        2    1    3    3  502    0  0.28121076596E+03  0.54915471781E+03 -0.40962236605E+03  0.74056794540E+03  0.25500000920E-02 0.  1.
       -2    1    3    3    0  502 -0.28121076596E+03 -0.54915471781E+03 -0.16075320448E+04  0.17218622692E+04  0.25500000920E-02 0. -1.
</event>
<event>
 5   0  0.1175374E-03  0.1270952E+04  0.7818609E-02  0.9052923E-01
       -1   -1    0    0    0  501  0.00000000000E+00  0.00000000000E+00  0.52928238636E+03  0.52928238638E+03  0.50400001928E-02 0. -1.
        1   -1    0    0  501    0  0.00000000000E+00  0.00000000000E+00 -0.76297566536E+03  0.76297566538E+03  0.50400001928E-02 0.  1.
    10030    2    1    2    0    0  0.00000000000E+00  0.00000000000E+00 -0.23369327900E+03  0.12922580518E+04  0.12709517393E+04 0.  0.
        3    1    3    3  502    0  0.10148249562E+03 -0.38517072560E+03 -0.62029825080E+03  0.73717373456E+03  0.10100000352E+00 0.  1.
       -3    1    3    3    0  502 -0.10148249562E+03  0.38517072560E+03  0.38660497180E+03  0.55508431720E+03  0.10100000352E+00 0. -1.
</event>
<event>
 5   0  0.1238683E-03  0.1384765E+04  0.7818609E-02  0.8964921E-01
       -1   -1    0    0    0  501  0.00000000000E+00  0.00000000000E+00  0.19647973142E+03  0.19647973148E+03  0.50400001928E-02 0.  1.
        1   -1    0    0  501    0  0.00000000000E+00  0.00000000000E+00 -0.24399143668E+04  0.24399143668E+04  0.50400001928E-02 0. -1.
    10030    2    1    2    0    0  0.00000000000E+00  0.00000000000E+00 -0.22434346354E+04  0.26363940983E+04  0.13847652791E+04 0.  0.
        2    1    3    3  502    0  0.14465028841E+03 -0.27940010575E+03  0.52524689538E+02  0.31897800558E+03  0.25500000920E-02 0.  1.
       -2    1    3    3    0  502 -0.14465028841E+03  0.27940010575E+03 -0.22959593249E+04  0.23174160927E+04  0.25500000920E-02 0. -1.
</event>
<event>
 5   0  0.1175374E-03  0.1404653E+04  0.7818609E-02  0.8950457E-01
        1   -1    0    0  501    0  0.00000000000E+00  0.00000000000E+00  0.23275719518E+04  0.23275719518E+04  0.50400001928E-02 0.  1.
       -1   -1    0    0    0  501  0.00000000000E+00  0.00000000000E+00 -0.21192145505E+03  0.21192145511E+03  0.50400001928E-02 0. -1.
    10030    2    1    2    0    0  0.00000000000E+00  0.00000000000E+00  0.21156504968E+04  0.25394934069E+04  0.14046528893E+04 0.  0.
        3    1    3    3  502    0 -0.66618593754E+03 -0.21790482090E+03  0.97745512172E+03  0.12027903972E+04  0.10100000352E+00 0.  1.
       -3    1    3    3    0  502  0.66618593754E+03  0.21790482090E+03  0.11381953751E+04  0.13367030098E+04  0.10100000352E+00 0. -1.
</event>
<event>
 5   0  0.2190704E-03  0.1410735E+04  0.7818609E-02  0.8946084E-01
        2   -1    0    0  501    0  0.00000000000E+00  0.00000000000E+00  0.37335763038E+03  0.37335763039E+03  0.25500000920E-02 0.  1.
       -2   -1    0    0    0  501  0.00000000000E+00  0.00000000000E+00 -0.13326186874E+04  0.13326186874E+04  0.25500000920E-02 0. -1.
    10030    2    1    2    0    0  0.00000000000E+00  0.00000000000E+00 -0.95926105704E+03  0.17059763178E+04  0.14107350642E+04 0.  0.
        5    1    3    3  502    0  0.24796851776E+03  0.59121285649E+03 -0.83529148155E+03  0.10529743476E+04  0.46999998093E+01 0.  1.
       -5    1    3    3    0  502 -0.24796851776E+03 -0.59121285649E+03 -0.12396957548E+03  0.65300197023E+03  0.46999998093E+01 0. -1.
</event>
<event>
 5   0  0.2083966E-03  0.1398806E+04  0.7818609E-02  0.8954683E-01
        2   -1    0    0  501    0  0.00000000000E+00  0.00000000000E+00  0.12187613999E+04  0.12187613999E+04  0.25500000920E-02 0.  1.
       -2   -1    0    0    0  501  0.00000000000E+00  0.00000000000E+00 -0.40136221909E+03  0.40136221910E+03  0.25500000920E-02 0. -1.
    10030    2    1    2    0    0  0.00000000000E+00  0.00000000000E+00  0.81739918079E+03  0.16201236190E+04  0.13988063197E+04 0.  0.
        1    1    3    3  502    0  0.11178270979E+03 -0.57081662979E+03 -0.41127529138E+02  0.58311102951E+03  0.50400001928E-02 0. -1.
       -1    1    3    3    0  502 -0.11178270979E+03  0.57081662979E+03  0.85852670993E+03  0.10370125895E+04  0.50400001928E-02 0.  1.
</event>
<event>
 5   0  0.1210275E-03  0.1398201E+04  0.7818609E-02  0.8955122E-01
       -1   -1    0    0    0  501  0.00000000000E+00  0.00000000000E+00  0.21167378075E+03  0.21167378081E+03  0.50400001928E-02 0. -1.
        1   -1    0    0  501    0  0.00000000000E+00  0.00000000000E+00 -0.23089384921E+04  0.23089384921E+04  0.50400001928E-02 0.  1.
    10030    2    1    2    0    0  0.00000000000E+00  0.00000000000E+00 -0.20972647114E+04  0.25206122729E+04  0.13982013306E+04 0.  0.
        1    1    3    3  502    0 -0.58363352182E+02  0.42953478237E+03 -0.59849893974E+02  0.43759389847E+03  0.50400001928E-02 0. -1.
       -1    1    3    3    0  502  0.58363352182E+02 -0.42953478237E+03 -0.20374148174E+04  0.20830183744E+04  0.50400001928E-02 0.  1.
</event>
<event>
 5   0  0.2172901E-03  0.1437576E+04  0.7818609E-02  0.8927059E-01
        2   -1    0    0  501    0  0.00000000000E+00  0.00000000000E+00  0.11966592319E+04  0.11966592319E+04  0.25500000920E-02 0.  1.
       -2   -1    0    0    0  501  0.00000000000E+00  0.00000000000E+00 -0.43174895723E+03  0.43174895723E+03  0.25500000920E-02 0. -1.
    10030    2    1    2    0    0  0.00000000000E+00  0.00000000000E+00  0.76491027472E+03  0.16284081892E+04  0.14375762596E+04 0.  0.
        2    1    3    3  502    0  0.53072909222E+03 -0.20668328605E+03 -0.11423156229E+03  0.58089603191E+03  0.25500000920E-02 0. -1.
       -2    1    3    3    0  502 -0.53072909222E+03  0.20668328605E+03  0.87914183700E+03  0.10475121573E+04  0.25500000920E-02 0.  1.
</event>
<event>
 5   0  0.2190704E-03  0.1389898E+04  0.7818609E-02  0.8961163E-01
       -2   -1    0    0    0  501  0.00000000000E+00  0.00000000000E+00  0.27234166691E+03  0.27234166692E+03  0.25500000920E-02 0. -1.
        2   -1    0    0  501    0  0.00000000000E+00  0.00000000000E+00 -0.17733401256E+04  0.17733401256E+04  0.25500000920E-02 0.  1.
    10030    2    1    2    0    0  0.00000000000E+00  0.00000000000E+00 -0.15009984587E+04  0.20456817925E+04  0.13898984219E+04 0.  0.
        5    1    3    3  502    0  0.30081094608E+03  0.54503518406E+03 -0.12050554812E+04  0.13563669783E+04  0.46999998093E+01 0. -1.
       -5    1    3    3    0  502 -0.30081094608E+03 -0.54503518406E+03 -0.29594297752E+03  0.68931481421E+03  0.46999998093E+01 0.  1.
</event>
<event>
 5   0  0.1238683E-03  0.1383506E+04  0.7818609E-02  0.8965845E-01
        1   -1    0    0  501    0  0.00000000000E+00  0.00000000000E+00  0.72348759586E+03  0.72348759587E+03  0.50400001928E-02 0.  1.
       -1   -1    0    0    0  501  0.00000000000E+00  0.00000000000E+00 -0.66141060158E+03  0.66141060160E+03  0.50400001928E-02 0. -1.
    10030    2    1    2    0    0  0.00000000000E+00  0.00000000000E+00  0.62076994273E+02  0.13848981975E+04  0.13835062212E+04 0.  0.
        2    1    3    3  502    0  0.12940590330E+03  0.53466744937E+02 -0.64707779426E+03  0.66205305864E+03  0.25500000920E-02 0. -1.
       -2    1    3    3    0  502 -0.12940590330E+03 -0.53466744937E+02  0.70915478854E+03  0.72284513883E+03  0.25500000920E-02 0.  1.
</event>
<event>
 5   0  0.2172901E-03  0.1404522E+04  0.7818609E-02  0.8950552E-01
       -2   -1    0    0    0  501  0.00000000000E+00  0.00000000000E+00  0.67533179614E+03  0.67533179615E+03  0.25500000920E-02 0.  1.
        2   -1    0    0  501    0  0.00000000000E+00  0.00000000000E+00 -0.73026389660E+03  0.73026389660E+03  0.25500000920E-02 0. -1.
    10030    2    1    2    0    0  0.00000000000E+00  0.00000000000E+00 -0.54932100456E+02  0.14055956928E+04  0.14045218816E+04 0.  0.
        2    1    3    3  502    0  0.61286297411E+03 -0.96816935531E+02 -0.35664895989E+03  0.71566264723E+03  0.25500000920E-02 0. -1.
       -2    1    3    3    0  502 -0.61286297411E+03  0.96816935531E+02  0.30171685944E+03  0.68993304553E+03  0.25500000920E-02 0.  1.
</event>
<event>
 5   0  0.2236184E-03  0.1395808E+04  0.7818609E-02  0.8956859E-01
        2   -1    0    0  501    0  0.00000000000E+00  0.00000000000E+00  0.77452683479E+03  0.77452683480E+03  0.25500000920E-02 0.  1.
       -2   -1    0    0    0  501  0.00000000000E+00  0.00000000000E+00 -0.62886136581E+03  0.62886136581E+03  0.25500000920E-02 0. -1.
    10030    2    1    2    0    0  0.00000000000E+00  0.00000000000E+00  0.14566546898E+03  0.14033882006E+04  0.13958080143E+04 0.  0.
        3    1    3    3  502    0 -0.16362728305E+03  0.27777509969E+03 -0.54950944517E+03  0.63709774313E+03  0.10100000352E+00 0. -1.
       -3    1    3    3    0  502  0.16362728305E+03 -0.27777509969E+03  0.69517491415E+03  0.76629045748E+03  0.10100000352E+00 0.  1.
</event>
<event>
 5   0  0.1199720E-03  0.1360494E+04  0.7818609E-02  0.8982922E-01
        1   -1    0    0  501    0  0.00000000000E+00  0.00000000000E+00  0.54791102188E+03  0.54791102190E+03  0.50400001928E-02 0.  1.
       -1   -1    0    0    0  501  0.00000000000E+00  0.00000000000E+00 -0.84454614213E+03  0.84454614214E+03  0.50400001928E-02 0. -1.
    10030    2    1    2    0    0  0.00000000000E+00  0.00000000000E+00 -0.29663512025E+03  0.13924571640E+04  0.13604942334E+04 0.  0.
        5    1    3    3  502    0 -0.17749940973E+02  0.23238564580E+03  0.50575484337E+03  0.55689155172E+03  0.46999998093E+01 0.  1.
       -5    1    3    3    0  502  0.17749940973E+02 -0.23238564580E+03 -0.80238996362E+03  0.83556561233E+03  0.46999998093E+01 0. -1.
</event>
<event>
 5   0  0.1199720E-03  0.1140225E+04  0.7818609E-02  0.9166849E-01
        1   -1    0    0  501    0  0.00000000000E+00  0.00000000000E+00  0.13235321556E+04  0.13235321556E+04  0.50400001928E-02 0. -1.
       -1   -1    0    0    0  501  0.00000000000E+00  0.00000000000E+00 -0.24557644986E+03  0.24557644991E+03  0.50400001928E-02 0.  1.
    10030    2    1    2    0    0  0.00000000000E+00  0.00000000000E+00  0.10779557057E+04  0.15691086055E+04  0.11402251148E+04 0.  0.
        5    1    3    3  502    0 -0.54469447470E+03 -0.81753317599E+01  0.30769091133E+03  0.62566340290E+03  0.46999998093E+01 0. -1.
       -5    1    3    3    0  502  0.54469447470E+03  0.81753317599E+01  0.77026479438E+03  0.94344520259E+03  0.46999998093E+01 0.  1.
</event>
<event>
 5   0  0.2083966E-03  0.1418687E+04  0.7818609E-02  0.8940402E-01
        2   -1    0    0  501    0  0.00000000000E+00  0.00000000000E+00  0.10063092667E+04  0.10063092667E+04  0.25500000920E-02 0. -1.
       -2   -1    0    0    0  501  0.00000000000E+00  0.00000000000E+00 -0.50001325621E+03  0.50001325622E+03  0.25500000920E-02 0.  1.
    10030    2    1    2    0    0  0.00000000000E+00  0.00000000000E+00  0.50629601046E+03  0.15063225229E+04  0.14186866789E+04 0.  0.
        1    1    3    3  502    0 -0.16926056624E+03 -0.63401720080E+03 -0.32823865799E+02  0.65704212679E+03  0.50400001928E-02 0.  1.
       -1    1    3    3    0  502  0.16926056624E+03  0.63401720080E+03  0.53911987626E+03  0.84928039609E+03  0.50400001928E-02 0. -1.
</event>
<event>
 5   0  0.1225690E-03  0.1411242E+04  0.7818609E-02  0.8945721E-01
       -1   -1    0    0    0  501  0.00000000000E+00  0.00000000000E+00  0.85809533555E+03  0.85809533556E+03  0.50400001928E-02 0. -1.
        1   -1    0    0  501    0  0.00000000000E+00  0.00000000000E+00 -0.58023962759E+03  0.58023962761E+03  0.50400001928E-02 0.  1.
    10030    2    1    2    0    0  0.00000000000E+00  0.00000000000E+00  0.27785570796E+03  0.14383349632E+04  0.14112418899E+04 0.  0.
        4    1    3    3  502    0  0.20596492107E+03 -0.28316393718E+03  0.76330286321E+03  0.83978344704E+03  0.12699999809E+01 0. -1.
       -4    1    3    3    0  502 -0.20596492107E+03  0.28316393718E+03 -0.48544715525E+03  0.59855151614E+03  0.12699999809E+01 0.  1.
</event>
<event>
 5   0  0.1238683E-03  0.1384307E+04  0.7818609E-02  0.8965257E-01
        1   -1    0    0  501    0  0.00000000000E+00  0.00000000000E+00  0.78666680379E+03  0.78666680381E+03  0.50400001928E-02 0.  1.
       -1   -1    0    0    0  501  0.00000000000E+00  0.00000000000E+00 -0.60899526291E+03  0.60899526293E+03  0.50400001928E-02 0. -1.
    10030    2    1    2    0    0  0.00000000000E+00  0.00000000000E+00  0.17767154088E+03  0.13956620667E+04  0.13843068403E+04 0.  0.
        2    1    3    3  502    0 -0.35573060800E+03  0.45787549455E+03  0.46993393506E+03  0.74634585637E+03  0.25500000920E-02 0.  1.
       -2    1    3    3    0  502  0.35573060800E+03 -0.45787549455E+03 -0.29226239418E+03  0.64931621037E+03  0.25500000920E-02 0. -1.
</event>
<event>
 5   0  0.2195980E-03  0.1401120E+04  0.7818609E-02  0.8953008E-01
       -2   -1    0    0    0  501  0.00000000000E+00  0.00000000000E+00  0.39579717365E+03  0.39579717366E+03  0.25500000920E-02 0.  1.
        2   -1    0    0  501    0  0.00000000000E+00  0.00000000000E+00 -0.12399901407E+04  0.12399901407E+04  0.25500000920E-02 0. -1.
    10030    2    1    2    0    0  0.00000000000E+00  0.00000000000E+00 -0.84419296709E+03  0.16357873144E+04  0.14011203989E+04 0.  0.
        4    1    3    3  502    0 -0.17154569385E+03  0.10371434921E+03  0.36159693062E+03  0.41344714831E+03  0.12699999809E+01 0.  1.
       -4    1    3    3    0  502  0.17154569385E+03 -0.10371434921E+03 -0.12057898977E+04  0.12223401661E+04  0.12699999809E+01 0. -1.
</event>
<event>
 5   0  0.2172901E-03  0.1419704E+04  0.7818609E-02  0.8939678E-01
        2   -1    0    0  501    0  0.00000000000E+00  0.00000000000E+00  0.14880337978E+04  0.14880337978E+04  0.25500000920E-02 0.  1.
       -2   -1    0    0    0  501  0.00000000000E+00  0.00000000000E+00 -0.33862793190E+03  0.33862793191E+03  0.25500000920E-02 0. -1.
    10030    2    1    2    0    0  0.00000000000E+00  0.00000000000E+00  0.11494058659E+04  0.18266617297E+04  0.14197039234E+04 0.  0.
        2    1    3    3  502    0  0.13205795328E+03 -0.69718953500E+03  0.59969365987E+03  0.92905599209E+03  0.25500000920E-02 0.  1.
       -2    1    3    3    0  502 -0.13205795328E+03  0.69718953500E+03  0.54971220604E+03  0.89760573762E+03  0.25500000920E-02 0. -1.
</event>
<event>
 5   0  0.2236184E-03  0.1410316E+04  0.7818609E-02  0.8946385E-01
        2   -1    0    0  501    0  0.00000000000E+00  0.00000000000E+00  0.67568130785E+03  0.67568130786E+03  0.25500000920E-02 0. -1.
       -2   -1    0    0    0  501  0.00000000000E+00  0.00000000000E+00 -0.73592105087E+03  0.73592105088E+03  0.25500000920E-02 0.  1.
    10030    2    1    2    0    0  0.00000000000E+00  0.00000000000E+00 -0.60239743018E+02  0.14116023587E+04  0.14103164158E+04 0.  0.
        3    1    3    3  502    0  0.19329572298E+03 -0.54750153955E+03  0.37040361084E+03  0.68870894975E+03  0.10100000352E+00 0. -1.
       -3    1    3    3    0  502 -0.19329572298E+03  0.54750153955E+03 -0.43064335386E+03  0.72289340899E+03  0.10100000352E+00 0.  1.
</event>
<event>
 5   0  0.8293000E-04  0.1415014E+04  0.7818609E-02  0.8943022E-01
        4   -1    0    0  501    0  0.00000000000E+00  0.00000000000E+00  0.66085758631E+03  0.66085880662E+03  0.12699999809E+01 0. -1.
       -4   -1    0    0    0  501  0.00000000000E+00  0.00000000000E+00 -0.75744694076E+03  0.75744800545E+03  0.12699999809E+01 0.  1.
    10030    2    1    2    0    0  0.00000000000E+00  0.00000000000E+00 -0.96589354446E+02  0.14183068121E+04  0.14150140317E+04 0.  0.
        4    1    3    3  502    0  0.20358806390E+03 -0.41432704476E+03  0.48909617586E+03  0.67255608087E+03  0.12699999809E+01 0. -1.
       -4    1    3    3    0  502 -0.20358806390E+03  0.41432704476E+03 -0.58568553031E+03  0.74575073120E+03  0.12699999809E+01 0.  1.
</event>
<event>
 5   0  0.2195980E-03  0.1405174E+04  0.7818609E-02  0.8950082E-01
        2   -1    0    0  501    0  0.00000000000E+00  0.00000000000E+00  0.16973064445E+04  0.16973064445E+04  0.25500000920E-02 0.  1.
       -2   -1    0    0    0  501  0.00000000000E+00  0.00000000000E+00 -0.29083041096E+03  0.29083041097E+03  0.25500000920E-02 0. -1.
    10030    2    1    2    0    0  0.00000000000E+00  0.00000000000E+00  0.14064760335E+04  0.19881368555E+04  0.14051737697E+04 0.  0.
        4    1    3    3  502    0 -0.49341414874E+03  0.19563622926E+03  0.51943721259E+02  0.53332055975E+03  0.12699999809E+01 0. -1.
       -4    1    3    3    0  502  0.49341414874E+03 -0.19563622926E+03  0.13545323123E+04  0.14548162957E+04  0.12699999809E+01 0.  1.
</event>
<event>
 5   0  0.2236184E-03  0.1413741E+04  0.7818609E-02  0.8943932E-01
        2   -1    0    0  501    0  0.00000000000E+00  0.00000000000E+00  0.72772586691E+03  0.72772586692E+03  0.25500000920E-02 0. -1.
       -2   -1    0    0    0  501  0.00000000000E+00  0.00000000000E+00 -0.68661285234E+03  0.68661285234E+03  0.25500000920E-02 0.  1.
    10030    2    1    2    0    0  0.00000000000E+00  0.00000000000E+00  0.41113014574E+02  0.14143387193E+04  0.14137410416E+04 0.  0.
        3    1    3    3  502    0  0.14317325442E+03 -0.39378752071E+03  0.59009388331E+03  0.72372508148E+03  0.10100000352E+00 0. -1.
       -3    1    3    3    0  502 -0.14317325442E+03  0.39378752071E+03 -0.54898086874E+03  0.69061363778E+03  0.10100000352E+00 0.  1.
</event>
<event>
 5   0  0.1175374E-03  0.1343225E+04  0.7818609E-02  0.8995973E-01
        1   -1    0    0  501    0  0.00000000000E+00  0.00000000000E+00  0.62056334854E+03  0.62056334856E+03  0.50400001928E-02 0. -1.
       -1   -1    0    0    0  501  0.00000000000E+00  0.00000000000E+00 -0.72686113115E+03  0.72686113116E+03  0.50400001928E-02 0.  1.
    10030    2    1    2    0    0  0.00000000000E+00  0.00000000000E+00 -0.10629778260E+03  0.13474244797E+04  0.13432250407E+04 0.  0.
        3    1    3    3  502    0  0.51930840159E+03  0.39143627729E+03 -0.22148232268E+03  0.68699199748E+03  0.10100000352E+00 0.  1.
       -3    1    3    3    0  502 -0.51930840159E+03 -0.39143627729E+03  0.11518454008E+03  0.66043248225E+03  0.10100000352E+00 0. -1.
</event>
<event>
 5   0  0.2083966E-03  0.1453091E+04  0.7818609E-02  0.8916260E-01
       -2   -1    0    0    0  501  0.00000000000E+00  0.00000000000E+00  0.24997934295E+03  0.24997934296E+03  0.25500000920E-02 0. -1.
        2   -1    0    0  501    0  0.00000000000E+00  0.00000000000E+00 -0.21116480350E+04  0.21116480350E+04  0.25500000920E-02 0.  1.
    10030    2    1    2    0    0  0.00000000000E+00  0.00000000000E+00 -0.18616686921E+04  0.23616273780E+04  0.14530910341E+04 0.  0.
        1    1    3    3  502    0  0.70921165731E+03 -0.34636814535E+01 -0.67450284230E+03  0.97874780012E+03  0.50400001928E-02 0. -1.
       -1    1    3    3    0  502 -0.70921165731E+03  0.34636814535E+01 -0.11871658498E+04  0.13828795779E+04  0.50400001928E-02 0.  1.
</event>
<event>
 5   0  0.1238683E-03  0.1054037E+04  0.7818609E-02  0.9251186E-01
       -1   -1    0    0    0  501  0.00000000000E+00  0.00000000000E+00  0.46138808082E+03  0.46138808085E+03  0.50400001928E-02 0.  1.
        1   -1    0    0  501    0  0.00000000000E+00  0.00000000000E+00 -0.60198455244E+03  0.60198455246E+03  0.50400001928E-02 0. -1.
    10030    2    1    2    0    0  0.00000000000E+00  0.00000000000E+00 -0.14059647162E+03  0.10633726333E+04  0.10540369962E+04 0.  0.
        2    1    3    3  502    0  0.38448675765E+03  0.26955584912E+03  0.17110772812E+03  0.49976822351E+03  0.25500000920E-02 0.  1.
       -2    1    3    3    0  502 -0.38448675765E+03 -0.26955584912E+03 -0.31170419974E+03  0.56360440980E+03  0.25500000920E-02 0. -1.
</event>
<event>
 5   0  0.1210275E-03  0.1406055E+04  0.7818609E-02  0.8949447E-01
       -1   -1    0    0    0  501  0.00000000000E+00  0.00000000000E+00  0.83918692162E+03  0.83918692164E+03  0.50400001928E-02 0. -1.
        1   -1    0    0  501    0  0.00000000000E+00  0.00000000000E+00 -0.58896016364E+03  0.58896016366E+03  0.50400001928E-02 0.  1.
    10030    2    1    2    0    0  0.00000000000E+00  0.00000000000E+00  0.25022675798E+03  0.14281470853E+04  0.14060550014E+04 0.  0.
        1    1    3    3  502    0 -0.31029155793E+03 -0.35178410565E+03 -0.40676953713E+03  0.62088192458E+03  0.50400001928E-02 0.  1.
       -1    1    3    3    0  502  0.31029155793E+03  0.35178410565E+03  0.65699629511E+03  0.80726516073E+03  0.50400001928E-02 0. -1.
</event>
<event>
 5   0  0.2195980E-03  0.1383925E+04  0.7818609E-02  0.8965537E-01
       -2   -1    0    0    0  501  0.00000000000E+00  0.00000000000E+00  0.90410788939E+03  0.90410788940E+03  0.25500000920E-02 0. -1.
        2   -1    0    0  501    0  0.00000000000E+00  0.00000000000E+00 -0.52959623720E+03  0.52959623721E+03  0.25500000920E-02 0.  1.
    10030    2    1    2    0    0  0.00000000000E+00  0.00000000000E+00  0.37451165219E+03  0.14337041266E+04  0.13839250504E+04 0.  0.
        4    1    3    3  502    0 -0.38599030493E+02  0.47117430673E+03 -0.33620655889E+03  0.58011341617E+03  0.12699999809E+01 0.  1.
       -4    1    3    3    0  502  0.38599030493E+02 -0.47117430673E+03  0.71071821108E+03  0.85359071044E+03  0.12699999809E+01 0. -1.
</event>
<event>
 5   0  0.2195980E-03  0.1417919E+04  0.7818609E-02  0.8940949E-01
       -2   -1    0    0    0  501  0.00000000000E+00  0.00000000000E+00  0.21463404537E+04  0.21463404537E+04  0.25500000920E-02 0.  1.
        2   -1    0    0  501    0  0.00000000000E+00  0.00000000000E+00 -0.23417685237E+03  0.23417685239E+03  0.25500000920E-02 0. -1.
    10030    2    1    2    0    0  0.00000000000E+00  0.00000000000E+00  0.19121636014E+04  0.23805173061E+04  0.14179185472E+04 0.  0.
        4    1    3    3  502    0  0.46463284532E+03 -0.85312585077E+02  0.68558691474E+02  0.47735084079E+03  0.12699999809E+01 0. -1.
       -4    1    3    3    0  502 -0.46463284532E+03  0.85312585077E+02  0.18436049099E+04  0.19031664653E+04  0.12699999809E+01 0.  1.
</event>
<event>
 5   0  0.2195980E-03  0.1417713E+04  0.7818609E-02  0.8941096E-01
       -2   -1    0    0    0  501  0.00000000000E+00  0.00000000000E+00  0.44211947755E+03  0.44211947755E+03  0.25500000920E-02 0.  1.
        2   -1    0    0  501    0  0.00000000000E+00  0.00000000000E+00 -0.11365195490E+04  0.11365195490E+04  0.25500000920E-02 0. -1.
    10030    2    1    2    0    0  0.00000000000E+00  0.00000000000E+00 -0.69440007144E+03  0.15786390265E+04  0.14177128471E+04 0.  0.
        4    1    3    3  502    0 -0.20240339435E+03  0.31835644661E+03 -0.10154531723E+04  0.10832657657E+04  0.12699999809E+01 0. -1.
       -4    1    3    3    0  502  0.20240339435E+03 -0.31835644661E+03  0.32105310081E+03  0.49537326087E+03  0.12699999809E+01 0.  1.
</event>
<event>
 5   0  0.8293000E-04  0.1369246E+04  0.7818609E-02  0.8976385E-01
       -3   -1    0    0    0  501  0.00000000000E+00  0.00000000000E+00  0.14757877854E+04  0.14757877888E+04  0.10100000352E+00 0.  1.
        3   -1    0    0  501    0  0.00000000000E+00  0.00000000000E+00 -0.31759916265E+03  0.31759917871E+03  0.10100000352E+00 0. -1.
    10030    2    1    2    0    0  0.00000000000E+00  0.00000000000E+00  0.11581886227E+04  0.17933869675E+04  0.13692464824E+04 0.  0.
        1    1    3    3  502    0  0.39555657217E+03  0.41192995970E+03  0.10736186816E+04  0.12160626493E+04  0.50400001928E-02 0.  1.
       -1    1    3    3    0  502 -0.39555657217E+03 -0.41192995970E+03  0.84569941123E+02  0.57732431826E+03  0.50400001928E-02 0. -1.
</event>
<event>
 5   0  0.1210275E-03  0.1405377E+04  0.7818609E-02  0.8949935E-01
       -1   -1    0    0    0  501  0.00000000000E+00  0.00000000000E+00  0.34785118155E+03  0.34785118159E+03  0.50400001928E-02 0.  1.
        1   -1    0    0  501    0  0.00000000000E+00  0.00000000000E+00 -0.14194899343E+04  0.14194899343E+04  0.50400001928E-02 0. -1.
    10030    2    1    2    0    0  0.00000000000E+00  0.00000000000E+00 -0.10716387527E+04  0.17673411159E+04  0.14053771748E+04 0.  0.
        1    1    3    3  502    0  0.13593505242E+03  0.22643253588E+03 -0.13547012927E+04  0.13802049211E+04  0.50400001928E-02 0. -1.
       -1    1    3    3    0  502 -0.13593505242E+03 -0.22643253588E+03  0.28306253994E+03  0.38713619480E+03  0.50400001928E-02 0.  1.
</event>
<event>
 5   0  0.8293000E-04  0.1423108E+04  0.7818609E-02  0.8937259E-01
       -3   -1    0    0    0  501  0.00000000000E+00  0.00000000000E+00  0.72846198291E+03  0.72846198991E+03  0.10100000352E+00 0. -1.
        3   -1    0    0  501    0  0.00000000000E+00  0.00000000000E+00 -0.69503886835E+03  0.69503887569E+03  0.10100000352E+00 0.  1.
    10030    2    1    2    0    0  0.00000000000E+00  0.00000000000E+00  0.33423114557E+02  0.14235008656E+04  0.14231084322E+04 0.  0.
        1    1    3    3  502    0 -0.62806989514E+03 -0.24846400269E+03 -0.20718771727E+03  0.70649338570E+03  0.50400001928E-02 0. -1.
       -1    1    3    3    0  502  0.62806989514E+03  0.24846400269E+03  0.24061083183E+03  0.71700747990E+03  0.50400001928E-02 0.  1.
</event>
<event>
 5   0  0.2236184E-03  0.1388521E+04  0.7818609E-02  0.8962170E-01
        2   -1    0    0  501    0  0.00000000000E+00  0.00000000000E+00  0.12509419416E+04  0.12509419416E+04  0.25500000920E-02 0.  1.
       -2   -1    0    0    0  501  0.00000000000E+00  0.00000000000E+00 -0.38530774976E+03  0.38530774976E+03  0.25500000920E-02 0. -1.
    10030    2    1    2    0    0  0.00000000000E+00  0.00000000000E+00  0.86563419186E+03  0.16362496914E+04  0.13885209752E+04 0.  0.
        3    1    3    3  502    0  0.36984864834E+02  0.54460241793E+03  0.93835161478E+03  0.10855705583E+04  0.10100000352E+00 0.  1.
       -3    1    3    3    0  502 -0.36984864834E+02 -0.54460241793E+03 -0.72717422919E+02  0.55067913310E+03  0.10100000352E+00 0. -1.
</event>
<event>
 5   0  0.2083966E-03  0.1413232E+04  0.7818609E-02  0.8944296E-01
       -2   -1    0    0    0  501  0.00000000000E+00  0.00000000000E+00  0.55019370727E+03  0.55019370728E+03  0.25500000920E-02 0. -1.
        2   -1    0    0  501    0  0.00000000000E+00  0.00000000000E+00 -0.90751022733E+03  0.90751022733E+03  0.25500000920E-02 0.  1.
    10030    2    1    2    0    0  0.00000000000E+00  0.00000000000E+00 -0.35731652006E+03  0.14577039346E+04  0.14132323466E+04 0.  0.
        1    1    3    3  502    0  0.64947608395E+03  0.19112204878E+03 -0.38741167308E+03  0.78002219559E+03  0.50400001928E-02 0.  1.
       -1    1    3    3    0  502 -0.64947608395E+03 -0.19112204878E+03  0.30095153025E+02  0.67768173902E+03  0.50400001928E-02 0. -1.
</event>
<event>
 5   0  0.8293000E-04  0.1413446E+04  0.7818609E-02  0.8944143E-01
       -4   -1    0    0    0  501  0.00000000000E+00  0.00000000000E+00  0.84446688033E+03  0.84446783531E+03  0.12699999809E+01 0.  1.
        4   -1    0    0  501    0  0.00000000000E+00  0.00000000000E+00 -0.59144488520E+03  0.59144624872E+03  0.12699999809E+01 0. -1.
    10030    2    1    2    0    0  0.00000000000E+00  0.00000000000E+00  0.25302199514E+03  0.14359140840E+04  0.14134458344E+04 0.  0.
        4    1    3    3  502    0  0.20145175811E+03 -0.56101302285E+03  0.51220012397E+03  0.78591920866E+03  0.12699999809E+01 0.  1.
       -4    1    3    3    0  502 -0.20145175811E+03  0.56101302285E+03 -0.25917812883E+03  0.64999487537E+03  0.12699999809E+01 0. -1.
</event>
<event>
 5   0  0.1210275E-03  0.1473514E+04  0.7818609E-02  0.8902259E-01
       -1   -1    0    0    0  501  0.00000000000E+00  0.00000000000E+00  0.41177119751E+03  0.41177119755E+03  0.50400001928E-02 0. -1.
        1   -1    0    0  501    0  0.00000000000E+00  0.00000000000E+00 -0.13182338715E+04  0.13182338716E+04  0.50400001928E-02 0.  1.
    10030    2    1    2    0    0  0.00000000000E+00  0.00000000000E+00 -0.90646267403E+03  0.17300050691E+04  0.14735138139E+04 0.  0.
        1    1    3    3  502    0 -0.14269418079E+03  0.30976873181E+02  0.39461269323E+03  0.42076165888E+03  0.50400001928E-02 0. -1.
       -1    1    3    3    0  502  0.14269418079E+03 -0.30976873181E+02 -0.13010753673E+04  0.13092434102E+04  0.50400001928E-02 0.  1.
</event>
<event>
 5   0  0.1238683E-03  0.1425042E+04  0.7818609E-02  0.8935889E-01
        1   -1    0    0  501    0  0.00000000000E+00  0.00000000000E+00  0.49285358288E+03  0.49285358291E+03  0.50400001928E-02 0.  1.
       -1   -1    0    0    0  501  0.00000000000E+00  0.00000000000E+00 -0.10300946439E+04  0.10300946439E+04  0.50400001928E-02 0. -1.
    10030    2    1    2    0    0  0.00000000000E+00  0.00000000000E+00 -0.53724106104E+03  0.15229482268E+04  0.14250415236E+04 0.  0.
        2    1    3    3  502    0 -0.70926835719E+03 -0.21478886631E+02 -0.19966721786E+03  0.73714987823E+03  0.25500000920E-02 0.  1.
       -2    1    3    3    0  502  0.70926835719E+03  0.21478886631E+02 -0.33757384318E+03  0.78579834861E+03  0.25500000920E-02 0. -1.
</event>
<event>
 5   0  0.2236184E-03  0.1393197E+04  0.7818609E-02  0.8958758E-01
        2   -1    0    0  501    0  0.00000000000E+00  0.00000000000E+00  0.61734577415E+03  0.61734577415E+03  0.25500000920E-02 0. -1.
       -2   -1    0    0    0  501  0.00000000000E+00  0.00000000000E+00 -0.78602552379E+03  0.78602552379E+03  0.25500000920E-02 0.  1.
    10030    2    1    2    0    0  0.00000000000E+00  0.00000000000E+00 -0.16867974964E+03  0.14033712979E+04  0.13931970937E+04 0.  0.
        3    1    3    3  502    0  0.14930626990E+03 -0.67220730280E+03  0.21759786488E+02  0.68893288402E+03  0.10100000352E+00 0.  1.
       -3    1    3    3    0  502 -0.14930626990E+03  0.67220730280E+03 -0.19043953613E+03  0.71443841392E+03  0.10100000352E+00 0. -1.
</event>
<event>
 5   0  0.1238683E-03  0.1368548E+04  0.7818609E-02  0.8976905E-01
        1   -1    0    0  501    0  0.00000000000E+00  0.00000000000E+00  0.13588025113E+04  0.13588025113E+04  0.50400001928E-02 0. -1.
       -1   -1    0    0    0  501  0.00000000000E+00  0.00000000000E+00 -0.34459106444E+03  0.34459106448E+03  0.50400001928E-02 0.  1.
    10030    2    1    2    0    0  0.00000000000E+00  0.00000000000E+00  0.10142114468E+04  0.17033935757E+04  0.13685484336E+04 0.  0.
        2    1    3    3  502    0  0.30971022729E+03 -0.19826555058E+03  0.12253595704E+04  0.12793497295E+04  0.25500000920E-02 0. -1.
       -2    1    3    3    0  502 -0.30971022729E+03  0.19826555058E+03 -0.21114812363E+03  0.42404384627E+03  0.25500000920E-02 0.  1.
</event>
<event>
 5   0  0.2172901E-03  0.1325952E+04  0.7818609E-02  0.9009234E-01
        2   -1    0    0  501    0  0.00000000000E+00  0.00000000000E+00  0.73660425784E+03  0.73660425785E+03  0.25500000920E-02 0. -1.
       -2   -1    0    0    0  501  0.00000000000E+00  0.00000000000E+00 -0.59670741796E+03  0.59670741797E+03  0.25500000920E-02 0.  1.
    10030    2    1    2    0    0  0.00000000000E+00  0.00000000000E+00  0.13989683988E+03  0.13333116758E+04  0.13259520727E+04 0.  0.
        2    1    3    3  502    0  0.79425606261E+02 -0.48328433080E+02  0.73001638538E+03  0.73591302972E+03  0.25500000920E-02 0. -1.
       -2    1    3    3    0  502 -0.79425606261E+02  0.48328433080E+02 -0.59011954550E+03  0.59739864610E+03  0.25500000920E-02 0.  1.
</event>
<event>
 5   0  0.1175374E-03  0.1395779E+04  0.7818609E-02  0.8956880E-01
        1   -1    0    0  501    0  0.00000000000E+00  0.00000000000E+00  0.17557291954E+04  0.17557291954E+04  0.50400001928E-02 0. -1.
       -1   -1    0    0    0  501  0.00000000000E+00  0.00000000000E+00 -0.27740578748E+03  0.27740578753E+03  0.50400001928E-02 0.  1.
    10030    2    1    2    0    0  0.00000000000E+00  0.00000000000E+00  0.14783234079E+04  0.20331349830E+04  0.13957785499E+04 0.  0.
        3    1    3    3  502    0 -0.56082066085E+03 -0.32033919740E+03  0.35401441521E+03  0.73652103256E+03  0.10100000352E+00 0.  1.
       -3    1    3    3    0  502  0.56082066085E+03  0.32033919740E+03  0.11243089927E+04  0.12966139504E+04  0.10100000352E+00 0. -1.
</event>
<event>
 5   0  0.1210275E-03  0.1295339E+04  0.7818609E-02  0.9033270E-01
        1   -1    0    0  501    0  0.00000000000E+00  0.00000000000E+00  0.17957611545E+04  0.17957611545E+04  0.50400001928E-02 0. -1.
       -1   -1    0    0    0  501  0.00000000000E+00  0.00000000000E+00 -0.23359211388E+03  0.23359211393E+03  0.50400001928E-02 0.  1.
    10030    2    1    2    0    0  0.00000000000E+00  0.00000000000E+00  0.15621690406E+04  0.20293532684E+04  0.12953387884E+04 0.  0.
        1    1    3    3  502    0 -0.25955274778E+03 -0.16838976783E+03 -0.11033290499E+03  0.32847540660E+03  0.50400001928E-02 0.  1.
       -1    1    3    3    0  502  0.25955274778E+03  0.16838976783E+03  0.16725019456E+04  0.17008778618E+04  0.50400001928E-02 0. -1.
</event>
<event>
 5   0  0.2195980E-03  0.1395221E+04  0.7818609E-02  0.8957285E-01
       -2   -1    0    0    0  501  0.00000000000E+00  0.00000000000E+00  0.23241212467E+03  0.23241212469E+03  0.25500000920E-02 0.  1.
        2   -1    0    0  501    0  0.00000000000E+00  0.00000000000E+00 -0.20939554549E+04  0.20939554549E+04  0.25500000920E-02 0. -1.
    10030    2    1    2    0    0  0.00000000000E+00  0.00000000000E+00 -0.18615433302E+04  0.23263675796E+04  0.13952213248E+04 0.  0.
        4    1    3    3  502    0  0.59910801377E+03  0.67629417893E+02 -0.34562998842E+03  0.69495744627E+03  0.12699999809E+01 0.  1.
       -4    1    3    3    0  502 -0.59910801377E+03 -0.67629417893E+02 -0.15159133418E+04  0.16314101333E+04  0.12699999809E+01 0. -1.
</event>
<event>
 5   0  0.2190704E-03  0.1370625E+04  0.7818609E-02  0.8975360E-01
        2   -1    0    0  501    0  0.00000000000E+00  0.00000000000E+00  0.68972318937E+03  0.68972318938E+03  0.25500000920E-02 0.  1.
       -2   -1    0    0    0  501  0.00000000000E+00  0.00000000000E+00 -0.68093027309E+03  0.68093027309E+03  0.25500000920E-02 0. -1.
    10030    2    1    2    0    0  0.00000000000E+00  0.00000000000E+00  0.87929162859E+01  0.13706534625E+04  0.13706252583E+04 0.  0.
        5    1    3    3  502    0 -0.37502968852E+03 -0.19421880488E+03 -0.53530261111E+03  0.68186449306E+03  0.46999998093E+01 0. -1.
       -5    1    3    3    0  502  0.37502968852E+03  0.19421880488E+03  0.54409552740E+03  0.68878896940E+03  0.46999998093E+01 0.  1.
</event>
<event>
 5   0  0.1238683E-03  0.1170695E+04  0.7818609E-02  0.9138901E-01
        1   -1    0    0  501    0  0.00000000000E+00  0.00000000000E+00  0.93575117015E+03  0.93575117017E+03  0.50400001928E-02 0. -1.
       -1   -1    0    0    0  501  0.00000000000E+00  0.00000000000E+00 -0.36615675630E+03  0.36615675633E+03  0.50400001928E-02 0.  1.
    10030    2    1    2    0    0  0.00000000000E+00  0.00000000000E+00  0.56959441386E+03  0.13019079265E+04  0.11706948590E+04 0.  0.
        2    1    3    3  502    0  0.46629927108E+03 -0.32817572220E+03  0.13769402787E+03  0.58659522686E+03  0.25500000920E-02 0.  1.
       -2    1    3    3    0  502 -0.46629927108E+03  0.32817572220E+03  0.43190038598E+03  0.71531269964E+03  0.25500000920E-02 0. -1.
</event>
<event>
 5   0  0.1238683E-03  0.1356935E+04  0.7818609E-02  0.8985595E-01
        1   -1    0    0  501    0  0.00000000000E+00  0.00000000000E+00  0.72248984464E+03  0.72248984466E+03  0.50400001928E-02 0.  1.
       -1   -1    0    0    0  501  0.00000000000E+00  0.00000000000E+00 -0.63712707657E+03  0.63712707659E+03  0.50400001928E-02 0. -1.
    10030    2    1    2    0    0  0.00000000000E+00  0.00000000000E+00  0.85362768073E+02  0.13596169212E+04  0.13569345490E+04 0.  0.
        2    1    3    3  502    0  0.34724918706E+03  0.58279306436E+03  0.52085500396E+02  0.68039889267E+03  0.25500000920E-02 0. -1.
       -2    1    3    3    0  502 -0.34724918706E+03 -0.58279306436E+03  0.33277267676E+02  0.67921802857E+03  0.25500000920E-02 0.  1.
</event>
<event>
 5   0  0.1210275E-03  0.1149755E+04  0.7818609E-02  0.9158009E-01
        1   -1    0    0  501    0  0.00000000000E+00  0.00000000000E+00  0.34236908503E+03  0.34236908507E+03  0.50400001928E-02 0.  1.
       -1   -1    0    0    0  501  0.00000000000E+00  0.00000000000E+00 -0.96528699281E+03  0.96528699282E+03  0.50400001928E-02 0. -1.
    10030    2    1    2    0    0  0.00000000000E+00  0.00000000000E+00 -0.62291790778E+03  0.13076560779E+04  0.11497554950E+04 0.  0.
        1    1    3    3  502    0  0.36964306527E+03  0.12025699832E+03 -0.79316615959E+03  0.88329513646E+03  0.50400001928E-02 0. -1.
       -1    1    3    3    0  502 -0.36964306527E+03 -0.12025699832E+03  0.17024825181E+03  0.42436094143E+03  0.50400001928E-02 0.  1.
</event>
<event>
 5   0  0.1199720E-03  0.1405544E+04  0.7818609E-02  0.8949815E-01
       -1   -1    0    0    0  501  0.00000000000E+00  0.00000000000E+00  0.41919503315E+03  0.41919503318E+03  0.50400001928E-02 0.  1.
        1   -1    0    0  501    0  0.00000000000E+00  0.00000000000E+00 -0.11781826415E+04  0.11781826415E+04  0.50400001928E-02 0. -1.
    10030    2    1    2    0    0  0.00000000000E+00  0.00000000000E+00 -0.75898760835E+03  0.15973776747E+04  0.14055437546E+04 0.  0.
        5    1    3    3  502    0 -0.14215814906E+02 -0.57407095003E+03 -0.83988431698E+03  0.10174415467E+04  0.46999998093E+01 0. -1.
       -5    1    3    3    0  502  0.14215814906E+02  0.57407095003E+03  0.80896708630E+02  0.57993612798E+03  0.46999998093E+01 0.  1.
</event>
<event>
 5   0  0.1175374E-03  0.1371479E+04  0.7818609E-02  0.8974726E-01
       -1   -1    0    0    0  501  0.00000000000E+00  0.00000000000E+00  0.56949367823E+03  0.56949367825E+03  0.50400001928E-02 0.  1.
        1   -1    0    0  501    0  0.00000000000E+00  0.00000000000E+00 -0.82571343036E+03  0.82571343037E+03  0.50400001928E-02 0. -1.
    10030    2    1    2    0    0  0.00000000000E+00  0.00000000000E+00 -0.25621975213E+03  0.13952071086E+04  0.13714788786E+04 0.  0.
        3    1    3    3  502    0  0.69243393114E+02  0.25930463821E+03 -0.77006242121E+03  0.81549352275E+03  0.10100000352E+00 0. -1.
       -3    1    3    3    0  502 -0.69243393114E+02 -0.25930463821E+03  0.51384266907E+03  0.57971358588E+03  0.10100000352E+00 0.  1.
</event>
<event>
 5   0  0.2083966E-03  0.1364295E+04  0.7818609E-02  0.8980077E-01
        2   -1    0    0  501    0  0.00000000000E+00  0.00000000000E+00  0.12227150816E+04  0.12227150817E+04  0.25500000920E-02 0. -1.
       -2   -1    0    0    0  501  0.00000000000E+00  0.00000000000E+00 -0.38056689114E+03  0.38056689115E+03  0.25500000920E-02 0.  1.
    10030    2    1    2    0    0  0.00000000000E+00  0.00000000000E+00  0.84214819051E+03  0.16032819728E+04  0.13642945098E+04 0.  0.
        1    1    3    3  502    0 -0.20612510020E+03  0.33206230940E+03  0.10780913485E+04  0.11467492707E+04  0.50400001928E-02 0. -1.
       -1    1    3    3    0  502  0.20612510020E+03 -0.33206230940E+03 -0.23594315794E+03  0.45653270208E+03  0.50400001928E-02 0.  1.
</event>
<event>
 5   0  0.1175374E-03  0.1306077E+04  0.7818609E-02  0.9024760E-01
       -1   -1    0    0    0  501  0.00000000000E+00  0.00000000000E+00  0.59902991329E+03  0.59902991331E+03  0.50400001928E-02 0.  1.
        1   -1    0    0  501    0  0.00000000000E+00  0.00000000000E+00 -0.71191626972E+03  0.71191626974E+03  0.50400001928E-02 0. -1.
    10030    2    1    2    0    0  0.00000000000E+00  0.00000000000E+00 -0.11288635643E+03  0.13109461830E+04  0.13060767839E+04 0.  0.
        3    1    3    3  502    0 -0.46478155687E+03 -0.85853222358E+02 -0.50875220216E+03  0.69442169090E+03  0.10100000352E+00 0. -1.
       -3    1    3    3    0  502  0.46478155687E+03  0.85853222358E+02  0.39586584573E+03  0.61652449214E+03  0.10100000352E+00 0.  1.
</event>
<event>
 5   0  0.1210275E-03  0.1404155E+04  0.7818609E-02  0.8950816E-01
       -1   -1    0    0    0  501  0.00000000000E+00  0.00000000000E+00  0.67156724853E+03  0.67156724854E+03  0.50400001928E-02 0.  1.
        1   -1    0    0  501    0  0.00000000000E+00  0.00000000000E+00 -0.73397417104E+03  0.73397417106E+03  0.50400001928E-02 0. -1.
    10030    2    1    2    0    0  0.00000000000E+00  0.00000000000E+00 -0.62406922515E+02  0.14055414196E+04  0.14041552828E+04 0.  0.
        1    1    3    3  502    0 -0.58766294599E+03  0.38403543165E+03 -0.22135617763E+02  0.70236809185E+03  0.50400001928E-02 0. -1.
       -1    1    3    3    0  502  0.58766294599E+03 -0.38403543165E+03 -0.40271304752E+02  0.70317332775E+03  0.50400001928E-02 0.  1.
</event>
<event>
 5   0  0.1210275E-03  0.1461248E+04  0.7818609E-02  0.8910639E-01
       -1   -1    0    0    0  501  0.00000000000E+00  0.00000000000E+00  0.11441772430E+04  0.11441772430E+04  0.50400001928E-02 0. -1.
        1   -1    0    0  501    0  0.00000000000E+00  0.00000000000E+00 -0.46654610553E+03  0.46654610556E+03  0.50400001928E-02 0.  1.
    10030    2    1    2    0    0  0.00000000000E+00  0.00000000000E+00  0.67763113751E+03  0.16107233486E+04  0.14612480102E+04 0.  0.
        1    1    3    3  502    0 -0.57432893472E+03 -0.18357536031E+03 -0.11601592445E+03  0.61401411460E+03  0.50400001928E-02 0.  1.
       -1    1    3    3    0  502  0.57432893472E+03  0.18357536031E+03  0.79364706196E+03  0.99670923401E+03  0.50400001928E-02 0. -1.
</event>
<event>
 5   0  0.1238683E-03  0.1401656E+04  0.7818609E-02  0.8952621E-01
       -1   -1    0    0    0  501  0.00000000000E+00  0.00000000000E+00  0.53261784373E+03  0.53261784375E+03  0.50400001928E-02 0.  1.
        1   -1    0    0  501    0  0.00000000000E+00  0.00000000000E+00 -0.92216134486E+03  0.92216134487E+03  0.50400001928E-02 0. -1.
    10030    2    1    2    0    0  0.00000000000E+00  0.00000000000E+00 -0.38954350113E+03  0.14547791886E+04  0.14016555741E+04 0.  0.
        2    1    3    3  502    0 -0.76923084083E+02  0.66142073201E+03  0.32063659476E+02  0.66665030103E+03  0.25500000920E-02 0.  1.
       -2    1    3    3    0  502  0.76923084083E+02 -0.66142073201E+03 -0.42160716061E+03  0.78812888760E+03  0.25500000920E-02 0. -1.
</event>
<event>
 5   0  0.1175374E-03  0.1397333E+04  0.7818609E-02  0.8955751E-01
        1   -1    0    0  501    0  0.00000000000E+00  0.00000000000E+00  0.50144808745E+03  0.50144808748E+03  0.50400001928E-02 0. -1.
       -1   -1    0    0    0  501  0.00000000000E+00  0.00000000000E+00 -0.97345072886E+03  0.97345072887E+03  0.50400001928E-02 0.  1.
    10030    2    1    2    0    0  0.00000000000E+00  0.00000000000E+00 -0.47200264141E+03  0.14748988164E+04  0.13973331832E+04 0.  0.
        3    1    3    3  502    0 -0.19882074837E+03  0.46187414500E+03 -0.74798076773E+03  0.90129498773E+03  0.10100000352E+00 0.  1.
       -3    1    3    3    0  502  0.19882074837E+03 -0.46187414500E+03  0.27597812632E+03  0.57360382863E+03  0.10100000352E+00 0. -1.
</event>
<event>
 5   0  0.2083966E-03  0.1381933E+04  0.7818609E-02  0.8967001E-01
        2   -1    0    0  501    0  0.00000000000E+00  0.00000000000E+00  0.71814115783E+03  0.71814115783E+03  0.25500000920E-02 0.  1.
       -2   -1    0    0    0  501  0.00000000000E+00  0.00000000000E+00 -0.66481999492E+03  0.66481999493E+03  0.25500000920E-02 0. -1.
    10030    2    1    2    0    0  0.00000000000E+00  0.00000000000E+00  0.53321162908E+02  0.13829611528E+04  0.13819328506E+04 0.  0.
        1    1    3    3  502    0  0.52595020874E+03 -0.40305444906E+03 -0.16933736746E+03  0.68392372018E+03  0.50400001928E-02 0. -1.
       -1    1    3    3    0  502 -0.52595020874E+03  0.40305444906E+03  0.22265853037E+03  0.69903743258E+03  0.50400001928E-02 0.  1.
</event>
<event>
 5   0  0.2236184E-03  0.1399039E+04  0.7818609E-02  0.8954514E-01
       -2   -1    0    0    0  501  0.00000000000E+00  0.00000000000E+00  0.66297076088E+03  0.66297076088E+03  0.25500000920E-02 0.  1.
        2   -1    0    0  501    0  0.00000000000E+00  0.00000000000E+00 -0.73808351221E+03  0.73808351222E+03  0.25500000920E-02 0. -1.
    10030    2    1    2    0    0  0.00000000000E+00  0.00000000000E+00 -0.75112751333E+02  0.14010542731E+04  0.13990393671E+04 0.  0.
        3    1    3    3  502    0 -0.31164510252E+03  0.18859824381E+03 -0.63560638056E+03  0.73258954995E+03  0.10100000352E+00 0. -1.
       -3    1    3    3    0  502  0.31164510252E+03 -0.18859824381E+03  0.56049362922E+03  0.66846472315E+03  0.10100000352E+00 0.  1.
</event>
<event>
 5   0  0.1175374E-03  0.1374190E+04  0.7818609E-02  0.8972716E-01
       -1   -1    0    0    0  501  0.00000000000E+00  0.00000000000E+00  0.68951844723E+03  0.68951844725E+03  0.50400001928E-02 0. -1.
        1   -1    0    0  501    0  0.00000000000E+00  0.00000000000E+00 -0.68467986795E+03  0.68467986797E+03  0.50400001928E-02 0.  1.
    10030    2    1    2    0    0  0.00000000000E+00  0.00000000000E+00  0.48385792810E+01  0.13741983152E+04  0.13741897968E+04 0.  0.
        3    1    3    3  502    0  0.27250710593E+02  0.13593673364E+02  0.68884324137E+03  0.68951606984E+03  0.10100000352E+00 0. -1.
       -3    1    3    3    0  502 -0.27250710593E+02 -0.13593673364E+02 -0.68400466209E+03  0.68468224539E+03  0.10100000352E+00 0.  1.
</event>
<event>
 5   0  0.2190704E-03  0.1480891E+04  0.7818609E-02  0.8897261E-01
        2   -1    0    0  501    0  0.00000000000E+00  0.00000000000E+00  0.24901167328E+04  0.24901167328E+04  0.25500000920E-02 0.  1.
       -2   -1    0    0    0  501  0.00000000000E+00  0.00000000000E+00 -0.22017420162E+03  0.22017420163E+03  0.25500000920E-02 0. -1.
    10030    2    1    2    0    0  0.00000000000E+00  0.00000000000E+00  0.22699425312E+04  0.27102909344E+04  0.14808908989E+04 0.  0.
        5    1    3    3  502    0 -0.61503625930E+03 -0.17187163193E+03  0.44913637866E+03  0.78074005581E+03  0.46999998093E+01 0. -1.
       -5    1    3    3    0  502  0.61503625930E+03  0.17187163193E+03  0.18208061525E+04  0.19295508786E+04  0.46999998093E+01 0.  1.
</event>
<event>
 5   0  0.1225690E-03  0.1411576E+04  0.7818609E-02  0.8945481E-01
        1   -1    0    0  501    0  0.00000000000E+00  0.00000000000E+00  0.12415345777E+04  0.12415345777E+04  0.50400001928E-02 0. -1.
       -1   -1    0    0    0  501  0.00000000000E+00  0.00000000000E+00 -0.40122676519E+03  0.40122676523E+03  0.50400001928E-02 0.  1.
    10030    2    1    2    0    0  0.00000000000E+00  0.00000000000E+00  0.84030781246E+03  0.16427613429E+04  0.14115762856E+04 0.  0.
        4    1    3    3  502    0  0.38231537832E+03  0.45055095929E+03  0.86933913735E+03  0.10511485927E+04  0.12699999809E+01 0. -1.
       -4    1    3    3    0  502 -0.38231537832E+03 -0.45055095929E+03 -0.29031324885E+02  0.59161275015E+03  0.12699999809E+01 0.  1.
</event>
<event>
 5   0  0.1238683E-03  0.1305323E+04  0.7818609E-02  0.9025355E-01
       -1   -1    0    0    0  501  0.00000000000E+00  0.00000000000E+00  0.89972879190E+03  0.89972879191E+03  0.50400001928E-02 0.  1.
        1   -1    0    0  501    0  0.00000000000E+00  0.00000000000E+00 -0.47343918587E+03  0.47343918590E+03  0.50400001928E-02 0. -1.
    10030    2    1    2    0    0  0.00000000000E+00  0.00000000000E+00  0.42628960603E+03  0.13731679778E+04  0.13053227444E+04 0.  0.
        2    1    3    3  502    0  0.42026380820E+03 -0.49932006195E+03  0.21837027751E+03  0.68820619791E+03  0.25500000920E-02 0. -1.
       -2    1    3    3    0  502 -0.42026380820E+03  0.49932006195E+03  0.20791932852E+03  0.68496177990E+03  0.25500000920E-02 0.  1.
</event>
<event>
 5   0  0.1210275E-03  0.1366508E+04  0.7818609E-02  0.8978425E-01
       -1   -1    0    0    0  501  0.00000000000E+00  0.00000000000E+00  0.26078290020E+03  0.26078290025E+03  0.50400001928E-02 0.  1.
        1   -1    0    0  501    0  0.00000000000E+00  0.00000000000E+00 -0.17901325057E+04  0.17901325057E+04  0.50400001928E-02 0. -1.
    10030    2    1    2    0    0  0.00000000000E+00  0.00000000000E+00 -0.15293496055E+04  0.20509154060E+04  0.13665078802E+04 0.  0.
        1    1    3    3  502    0  0.14693623835E+03 -0.65794789627E+03 -0.93146616528E+03  0.11498325571E+04  0.50400001928E-02 0. -1.
       -1    1    3    3    0  502 -0.14693623835E+03  0.65794789627E+03 -0.59788344023E+03  0.90108284884E+03  0.50400001928E-02 0.  1.
</event>
<event>
 5   0  0.1199720E-03  0.1399865E+04  0.7818609E-02  0.8953916E-01
       -1   -1    0    0    0  501  0.00000000000E+00  0.00000000000E+00  0.46831300408E+03  0.46831300411E+03  0.50400001928E-02 0. -1.
        1   -1    0    0  501    0  0.00000000000E+00  0.00000000000E+00 -0.10461070122E+04  0.10461070122E+04  0.50400001928E-02 0.  1.
    10030    2    1    2    0    0  0.00000000000E+00  0.00000000000E+00 -0.57779400810E+03  0.15144200163E+04  0.13998650185E+04 0.  0.
        5    1    3    3  502    0 -0.36441380377E+03  0.26085744308E+03 -0.87051616395E+03  0.97911414437E+03  0.46999998093E+01 0.  1.
       -5    1    3    3    0  502  0.36441380377E+03 -0.26085744308E+03  0.29272215586E+03  0.53530587193E+03  0.46999998093E+01 0. -1.
</event>
<event>
 5   0  0.2190704E-03  0.1379311E+04  0.7818609E-02  0.8968932E-01
       -2   -1    0    0    0  501  0.00000000000E+00  0.00000000000E+00  0.27252614813E+03  0.27252614815E+03  0.25500000920E-02 0.  1.
        2   -1    0    0  501    0  0.00000000000E+00  0.00000000000E+00 -0.17452434479E+04  0.17452434479E+04  0.25500000920E-02 0. -1.
    10030    2    1    2    0    0  0.00000000000E+00  0.00000000000E+00 -0.14727172997E+04  0.20177695960E+04  0.13793106603E+04 0.  0.
        5    1    3    3  502    0  0.13104136610E+03  0.43770150468E+02  0.25205076423E+03  0.28747059580E+03  0.46999998093E+01 0.  1.
       -5    1    3    3    0  502 -0.13104136610E+03 -0.43770150468E+02 -0.17247680640E+04  0.17302990002E+04  0.46999998093E+01 0. -1.
</event>
<event>
 5   0  0.2195980E-03  0.9090272E+03  0.7818609E-02  0.9414367E-01
       -2   -1    0    0    0  501  0.00000000000E+00  0.00000000000E+00  0.34779052214E+03  0.34779052215E+03  0.25500000920E-02 0.  1.
        2   -1    0    0  501    0  0.00000000000E+00  0.00000000000E+00 -0.59398570812E+03  0.59398570812E+03  0.25500000920E-02 0. -1.
    10030    2    1    2    0    0  0.00000000000E+00  0.00000000000E+00 -0.24619518598E+03  0.94177623027E+03  0.90902717138E+03 0.  0.
        4    1    3    3  502    0  0.25040786585E+03 -0.32557584002E+03  0.78534722093E+02  0.41817824233E+03  0.12699999809E+01 0.  1.
       -4    1    3    3    0  502 -0.25040786585E+03  0.32557584002E+03 -0.32472990807E+03  0.52359798794E+03  0.12699999809E+01 0. -1.
</event>
<event>
 5   0  0.1199720E-03  0.1433866E+04  0.7818609E-02  0.8929663E-01
       -1   -1    0    0    0  501  0.00000000000E+00  0.00000000000E+00  0.10190335184E+04  0.10190335184E+04  0.50400001928E-02 0. -1.
        1   -1    0    0  501    0  0.00000000000E+00  0.00000000000E+00 -0.50439238928E+03  0.50439238930E+03  0.50400001928E-02 0.  1.
    10030    2    1    2    0    0  0.00000000000E+00  0.00000000000E+00  0.51464112909E+03  0.15234259077E+04  0.14338657554E+04 0.  0.
        5    1    3    3  502    0  0.32128445412E+03 -0.63066640471E+03  0.37849160965E+03  0.80264674862E+03  0.46999998093E+01 0. -1.
       -5    1    3    3    0  502 -0.32128445412E+03  0.63066640471E+03  0.13614951944E+03  0.72077915906E+03  0.46999998093E+01 0.  1.
</event>
<event>
 5   0  0.1199720E-03  0.1366321E+04  0.7818609E-02  0.8978565E-01
       -1   -1    0    0    0  501  0.00000000000E+00  0.00000000000E+00  0.69826975821E+03  0.69826975822E+03  0.50400001928E-02 0.  1.
        1   -1    0    0  501    0  0.00000000000E+00  0.00000000000E+00 -0.66837790080E+03  0.66837790082E+03  0.50400001928E-02 0. -1.
    10030    2    1    2    0    0  0.00000000000E+00  0.00000000000E+00  0.29891857404E+02  0.13666476590E+04  0.13663207167E+04 0.  0.
        5    1    3    3  502    0  0.39853602882E+03 -0.49372624847E+03  0.26816537043E+03  0.68886234517E+03  0.46999998093E+01 0.  1.
       -5    1    3    3    0  502 -0.39853602882E+03  0.49372624847E+03 -0.23827351303E+03  0.67778531387E+03  0.46999998093E+01 0. -1.
</event>
<event>
 5   0  0.2083966E-03  0.1759484E+04  0.7818609E-02  0.8728147E-01
        2   -1    0    0  501    0  0.00000000000E+00  0.00000000000E+00  0.13098729435E+04  0.13098729436E+04  0.25500000920E-02 0.  1.
       -2   -1    0    0    0  501  0.00000000000E+00  0.00000000000E+00 -0.59085561221E+03  0.59085561221E+03  0.25500000920E-02 0. -1.
    10030    2    1    2    0    0  0.00000000000E+00  0.00000000000E+00  0.71901733134E+03  0.19007285558E+04  0.17594837652E+04 0.  0.
        1    1    3    3  502    0  0.23052966521E+03 -0.52405192406E+03 -0.36207337612E+03  0.67740052803E+03  0.50400001928E-02 0. -1.
       -1    1    3    3    0  502 -0.23052966521E+03  0.52405192406E+03  0.10810907075E+04  0.12233280277E+04  0.50400001928E-02 0.  1.
</event>
<event>
 5   0  0.2195980E-03  0.1385726E+04  0.7818609E-02  0.8964216E-01
        2   -1    0    0  501    0  0.00000000000E+00  0.00000000000E+00  0.10056946176E+04  0.10056946176E+04  0.25500000920E-02 0. -1.
       -2   -1    0    0    0  501  0.00000000000E+00  0.00000000000E+00 -0.47734083916E+03  0.47734083917E+03  0.25500000920E-02 0.  1.
    10030    2    1    2    0    0  0.00000000000E+00  0.00000000000E+00  0.52835377840E+03  0.14830354567E+04  0.13857259652E+04 0.  0.
        4    1    3    3  502    0 -0.48308530599E+03 -0.64968625219E+02 -0.26280884102E+03  0.55377110338E+03  0.12699999809E+01 0.  1.
       -4    1    3    3    0  502  0.48308530599E+03  0.64968625219E+02  0.79116261942E+03  0.92926435334E+03  0.12699999809E+01 0. -1.
</event>
<event>
 5   0  0.2195980E-03  0.1395867E+04  0.7818609E-02  0.8956816E-01
        2   -1    0    0  501    0  0.00000000000E+00  0.00000000000E+00  0.16287095373E+04  0.16287095374E+04  0.25500000920E-02 0. -1.
       -2   -1    0    0    0  501  0.00000000000E+00  0.00000000000E+00 -0.29907799464E+03  0.29907799465E+03  0.25500000920E-02 0.  1.
    10030    2    1    2    0    0  0.00000000000E+00  0.00000000000E+00  0.13296315427E+04  0.19277875320E+04  0.13958670170E+04 0.  0.
        4    1    3    3  502    0  0.15137713393E+03  0.47559446610E+03  0.13385795319E+04  0.14286013821E+04  0.12699999809E+01 0. -1.
       -4    1    3    3    0  502 -0.15137713393E+03 -0.47559446610E+03 -0.89479891478E+01  0.49918614992E+03  0.12699999809E+01 0.  1.
</event>
<event>
 5   0  0.1225690E-03  0.1383565E+04  0.7818609E-02  0.8965802E-01
        1   -1    0    0  501    0  0.00000000000E+00  0.00000000000E+00  0.63313130116E+03  0.63313130118E+03  0.50400001928E-02 0. -1.
       -1   -1    0    0    0  501  0.00000000000E+00  0.00000000000E+00 -0.75586720798E+03  0.75586720800E+03  0.50400001928E-02 0.  1.
    10030    2    1    2    0    0  0.00000000000E+00  0.00000000000E+00 -0.12273590682E+03  0.13889985092E+04  0.13835652336E+04 0.  0.
        4    1    3    3  502    0  0.39984172660E+03  0.37375005343E+03  0.36337631106E+03  0.65696762866E+03  0.12699999809E+01 0.  1.
       -4    1    3    3    0  502 -0.39984172660E+03 -0.37375005343E+03 -0.48611221788E+03  0.73203088052E+03  0.12699999809E+01 0. -1.
</event>
<event>
 5   0  0.1175374E-03  0.1404426E+04  0.7818609E-02  0.8950621E-01
        1   -1    0    0  501    0  0.00000000000E+00  0.00000000000E+00  0.20797307737E+04  0.20797307737E+04  0.50400001928E-02 0.  1.
       -1   -1    0    0    0  501  0.00000000000E+00  0.00000000000E+00 -0.23709965112E+03  0.23709965118E+03  0.50400001928E-02 0. -1.
    10030    2    1    2    0    0  0.00000000000E+00  0.00000000000E+00  0.18426311225E+04  0.23168304249E+04  0.14044264893E+04 0.  0.
        3    1    3    3  502    0 -0.27688224921E+03 -0.32111621566E+03 -0.20891484118E+01  0.42400917281E+03  0.10100000352E+00 0. -1.
       -3    1    3    3    0  502  0.27688224921E+03  0.32111621566E+03  0.18447202710E+04  0.18928212520E+04  0.10100000352E+00 0.  1.
</event>
<event>
 5   0  0.1175374E-03  0.1394167E+04  0.7818609E-02  0.8958052E-01
        1   -1    0    0  501    0  0.00000000000E+00  0.00000000000E+00  0.50602456618E+03  0.50602456621E+03  0.50400001928E-02 0.  1.
       -1   -1    0    0    0  501  0.00000000000E+00  0.00000000000E+00 -0.96027975673E+03  0.96027975675E+03  0.50400001928E-02 0. -1.
    10030    2    1    2    0    0  0.00000000000E+00  0.00000000000E+00 -0.45425519055E+03  0.14663043230E+04  0.13941666290E+04 0.  0.
        3    1    3    3  502    0 -0.52022291888E+03 -0.42222652332E+02 -0.71310832634E+03  0.88370704026E+03  0.10100000352E+00 0. -1.
       -3    1    3    3    0  502  0.52022291888E+03  0.42222652332E+02  0.25885313580E+03  0.58259728270E+03  0.10100000352E+00 0.  1.
</event>
<event>
 5   0  0.2195980E-03  0.1407945E+04  0.7818609E-02  0.8948087E-01
       -2   -1    0    0    0  501  0.00000000000E+00  0.00000000000E+00  0.95206346870E+03  0.95206346870E+03  0.25500000920E-02 0.  1.
        2   -1    0    0  501    0  0.00000000000E+00  0.00000000000E+00 -0.52052986927E+03  0.52052986928E+03  0.25500000920E-02 0. -1.
    10030    2    1    2    0    0  0.00000000000E+00  0.00000000000E+00  0.43153359943E+03  0.14725933380E+04  0.14079452730E+04 0.  0.
        4    1    3    3  502    0 -0.50680781785E+03 -0.40388083896E+03 -0.71816455572E+02  0.65202232516E+03  0.12699999809E+01 0. -1.
       -4    1    3    3    0  502  0.50680781785E+03  0.40388083896E+03  0.50335005500E+03  0.82057101282E+03  0.12699999809E+01 0.  1.
</event>
<event>
 5   0  0.1225690E-03  0.1385987E+04  0.7818609E-02  0.8964025E-01
        1   -1    0    0  501    0  0.00000000000E+00  0.00000000000E+00  0.12374024800E+04  0.12374024800E+04  0.50400001928E-02 0.  1.
       -1   -1    0    0    0  501  0.00000000000E+00  0.00000000000E+00 -0.38810313396E+03  0.38810313400E+03  0.50400001928E-02 0. -1.
    10030    2    1    2    0    0  0.00000000000E+00  0.00000000000E+00  0.84929934604E+03  0.16255056140E+04  0.13859866962E+04 0.  0.
        4    1    3    3  502    0 -0.79295569769E+02  0.33827514276E+01 -0.38275378912E+03  0.39089807671E+03  0.12699999809E+01 0. -1.
       -4    1    3    3    0  502  0.79295569769E+02 -0.33827514276E+01  0.12320531352E+04  0.12346075373E+04  0.12699999809E+01 0.  1.
</event>
<event>
 5   0  0.2083966E-03  0.1396372E+04  0.7818609E-02  0.8956449E-01
       -2   -1    0    0    0  501  0.00000000000E+00  0.00000000000E+00  0.50119442505E+03  0.50119442506E+03  0.25500000920E-02 0.  1.
        2   -1    0    0  501    0  0.00000000000E+00  0.00000000000E+00 -0.97260344343E+03  0.97260344343E+03  0.25500000920E-02 0. -1.
    10030    2    1    2    0    0  0.00000000000E+00  0.00000000000E+00 -0.47140901837E+03  0.14737978685E+04  0.13963716176E+04 0.  0.
        1    1    3    3  502    0 -0.96910532505E+02  0.63874803821E+03 -0.51509484950E+03  0.82626473459E+03  0.50400001928E-02 0. -1.
       -1    1    3    3    0  502  0.96910532505E+02 -0.63874803821E+03  0.43685831123E+02  0.64753313390E+03  0.50400001928E-02 0.  1.
</event>
<event>
 5   0  0.1199720E-03  0.1258353E+04  0.7818609E-02  0.9063259E-01
       -1   -1    0    0    0  501  0.00000000000E+00  0.00000000000E+00  0.61131411844E+03  0.61131411846E+03  0.50400001928E-02 0.  1.
        1   -1    0    0  501    0  0.00000000000E+00  0.00000000000E+00 -0.64756111209E+03  0.64756111211E+03  0.50400001928E-02 0. -1.
    10030    2    1    2    0    0  0.00000000000E+00  0.00000000000E+00 -0.36246993648E+02  0.12588752306E+04  0.12583532897E+04 0.  0.
        5    1    3    3  502    0  0.46333346076E+03  0.13809112306E+03 -0.42089961484E+03  0.64103481177E+03  0.46999998093E+01 0. -1.
       -5    1    3    3    0  502 -0.46333346076E+03 -0.13809112306E+03  0.38465262119E+03  0.61784041881E+03  0.46999998093E+01 0.  1.
</event>
<event>
 5   0  0.2236184E-03  0.1417722E+04  0.7818609E-02  0.8941089E-01
        2   -1    0    0  501    0  0.00000000000E+00  0.00000000000E+00  0.15256199054E+04  0.15256199054E+04  0.25500000920E-02 0. -1.
       -2   -1    0    0    0  501  0.00000000000E+00  0.00000000000E+00 -0.32936387739E+03  0.32936387740E+03  0.25500000920E-02 0.  1.
    10030    2    1    2    0    0  0.00000000000E+00  0.00000000000E+00  0.11962560280E+04  0.18549837828E+04  0.14177222400E+04 0.  0.
        3    1    3    3  502    0 -0.48609187189E+03  0.12762925561E+03  0.12522223442E+04  0.13493092100E+04  0.10100000352E+00 0. -1.
       -3    1    3    3    0  502  0.48609187189E+03 -0.12762925561E+03 -0.55966316180E+02  0.50567457277E+03  0.10100000352E+00 0.  1.
</event>
<event>
 5   0  0.2083966E-03  0.1383248E+04  0.7818609E-02  0.8966034E-01
        2   -1    0    0  501    0  0.00000000000E+00  0.00000000000E+00  0.67042702710E+03  0.67042702711E+03  0.25500000920E-02 0. -1.
       -2   -1    0    0    0  501  0.00000000000E+00  0.00000000000E+00 -0.71349161896E+03  0.71349161896E+03  0.25500000920E-02 0.  1.
    10030    2    1    2    0    0  0.00000000000E+00  0.00000000000E+00 -0.43064591854E+02  0.13839186461E+04  0.13832484447E+04 0.  0.
        1    1    3    3  502    0 -0.40055597976E+03  0.14339348355E+03  0.52401832320E+03  0.67498295321E+03  0.50400001928E-02 0. -1.
       -1    1    3    3    0  502  0.40055597976E+03 -0.14339348355E+03 -0.56708291506E+03  0.70893569287E+03  0.50400001928E-02 0.  1.
</event>
<event>
 5   0  0.1199720E-03  0.1369046E+04  0.7818609E-02  0.8976534E-01
        1   -1    0    0  501    0  0.00000000000E+00  0.00000000000E+00  0.20283902624E+04  0.20283902624E+04  0.50400001928E-02 0. -1.
       -1   -1    0    0    0  501  0.00000000000E+00  0.00000000000E+00 -0.23100672511E+03  0.23100672517E+03  0.50400001928E-02 0.  1.
    10030    2    1    2    0    0  0.00000000000E+00  0.00000000000E+00  0.17973835373E+04  0.22593969876E+04  0.13690460793E+04 0.  0.
        5    1    3    3  502    0  0.65431003317E+03 -0.36213375238E+01  0.56691528456E+03  0.86576542057E+03  0.46999998093E+01 0. -1.
       -5    1    3    3    0  502 -0.65431003317E+03  0.36213375238E+01  0.12304682528E+04  0.13936315670E+04  0.46999998093E+01 0.  1.
</event>
<event>
 5   0  0.1238683E-03  0.1391807E+04  0.7818609E-02  0.8959771E-01
        1   -1    0    0  501    0  0.00000000000E+00  0.00000000000E+00  0.77155720569E+03  0.77155720571E+03  0.50400001928E-02 0. -1.
       -1   -1    0    0    0  501  0.00000000000E+00  0.00000000000E+00 -0.62766783505E+03  0.62766783507E+03  0.50400001928E-02 0.  1.
    10030    2    1    2    0    0  0.00000000000E+00  0.00000000000E+00  0.14388937064E+03  0.13992250408E+04  0.13918069420E+04 0.  0.
        2    1    3    3  502    0 -0.60187788808E+02  0.96852009513E+02  0.76210105982E+03  0.77058478252E+03  0.25500000920E-02 0. -1.
       -2    1    3    3    0  502  0.60187788808E+02 -0.96852009513E+02 -0.61821168918E+03  0.62864025826E+03  0.25500000920E-02 0.  1.
</event>
<event>
 5   0  0.2172901E-03  0.1330840E+04  0.7818609E-02  0.9005460E-01
       -2   -1    0    0    0  501  0.00000000000E+00  0.00000000000E+00  0.67528283652E+03  0.67528283652E+03  0.25500000920E-02 0.  1.
        2   -1    0    0  501    0  0.00000000000E+00  0.00000000000E+00 -0.65570126391E+03  0.65570126391E+03  0.25500000920E-02 0. -1.
    10030    2    1    2    0    0  0.00000000000E+00  0.00000000000E+00  0.19581572609E+02  0.13309841004E+04  0.13308400496E+04 0.  0.
        2    1    3    3  502    0 -0.10949699851E+03  0.43413415184E+03  0.50210594536E+03  0.67273504060E+03  0.25500000920E-02 0.  1.
       -2    1    3    3    0  502  0.10949699851E+03 -0.43413415184E+03 -0.48252437275E+03  0.65824905984E+03  0.25500000920E-02 0. -1.
</event>
<event>
 5   0  0.2172901E-03  0.1373466E+04  0.7818609E-02  0.8973252E-01
        2   -1    0    0  501    0  0.00000000000E+00  0.00000000000E+00  0.17200072671E+04  0.17200072671E+04  0.25500000920E-02 0.  1.
       -2   -1    0    0    0  501  0.00000000000E+00  0.00000000000E+00 -0.27418613922E+03  0.27418613923E+03  0.25500000920E-02 0. -1.
    10030    2    1    2    0    0  0.00000000000E+00  0.00000000000E+00  0.14458211279E+04  0.19941934063E+04  0.13734659108E+04 0.  0.
        2    1    3    3  502    0  0.27044772706E+03  0.15755823643E+03 -0.16459994610E+03  0.35363782774E+03  0.25500000920E-02 0. -1.
       -2    1    3    3    0  502 -0.27044772706E+03 -0.15755823643E+03  0.16104210740E+04  0.16405555786E+04  0.25500000920E-02 0.  1.
</event>
<event>
 5   0  0.1175374E-03  0.1422872E+04  0.7818609E-02  0.8937427E-01
       -1   -1    0    0    0  501  0.00000000000E+00  0.00000000000E+00  0.21422050268E+03  0.21422050274E+03  0.50400001928E-02 0.  1.
        1   -1    0    0  501    0  0.00000000000E+00  0.00000000000E+00 -0.23627111112E+04  0.23627111112E+04  0.50400001928E-02 0. -1.
    10030    2    1    2    0    0  0.00000000000E+00  0.00000000000E+00 -0.21484906085E+04  0.25769316139E+04  0.14228719718E+04 0.  0.
        3    1    3    3  502    0  0.33938855786E+03  0.31540986509E+03 -0.20520145324E+04  0.21036709884E+04  0.10100000352E+00 0. -1.
       -3    1    3    3    0  502 -0.33938855786E+03 -0.31540986509E+03 -0.96476076128E+02  0.47326062552E+03  0.10100000352E+00 0.  1.
</event>
<event>
 5   0  0.1238683E-03  0.1430396E+04  0.7818609E-02  0.8932106E-01
        1   -1    0    0  501    0  0.00000000000E+00  0.00000000000E+00  0.91739813339E+03  0.91739813341E+03  0.50400001928E-02 0. -1.
       -1   -1    0    0    0  501  0.00000000000E+00  0.00000000000E+00 -0.55756403050E+03  0.55756403052E+03  0.50400001928E-02 0.  1.
    10030    2    1    2    0    0  0.00000000000E+00  0.00000000000E+00  0.35983410290E+03  0.14749621639E+04  0.14303960303E+04 0.  0.
        2    1    3    3  502    0 -0.67330609096E+03  0.11924983511E+03  0.39608293515E+03  0.79021725293E+03  0.25500000920E-02 0.  1.
       -2    1    3    3    0  502  0.67330609096E+03 -0.11924983511E+03 -0.36248832257E+02  0.68474491100E+03  0.25500000920E-02 0. -1.
</event>
<event>
 5   0  0.2083966E-03  0.1406127E+04  0.7818609E-02  0.8949396E-01
        2   -1    0    0  501    0  0.00000000000E+00  0.00000000000E+00  0.11537945321E+04  0.11537945321E+04  0.25500000920E-02 0. -1.
       -2   -1    0    0    0  501  0.00000000000E+00  0.00000000000E+00 -0.42841081806E+03  0.42841081807E+03  0.25500000920E-02 0.  1.
    10030    2    1    2    0    0  0.00000000000E+00  0.00000000000E+00  0.72538371403E+03  0.15822053502E+04  0.14061266790E+04 0.  0.
        1    1    3    3  502    0  0.14793587767E+03  0.40534247199E+03  0.98727701648E+03  0.10774522963E+04  0.50400001928E-02 0. -1.
       -1    1    3    3    0  502 -0.14793587767E+03 -0.40534247199E+03 -0.26189330245E+03  0.50475305387E+03  0.50400001928E-02 0.  1.
</event>
<event>
 5   0  0.1225690E-03  0.1387721E+04  0.7818609E-02  0.8962755E-01
        1   -1    0    0  501    0  0.00000000000E+00  0.00000000000E+00  0.11744161717E+04  0.11744161717E+04  0.50400001928E-02 0.  1.
       -1   -1    0    0    0  501  0.00000000000E+00  0.00000000000E+00 -0.40994208215E+03  0.40994208218E+03  0.50400001928E-02 0. -1.
    10030    2    1    2    0    0  0.00000000000E+00  0.00000000000E+00  0.76447408954E+03  0.15843582539E+04  0.13877213132E+04 0.  0.
        4    1    3    3  502    0  0.60301325022E+03 -0.16476620571E+03  0.38458770930E+02  0.62630150282E+03  0.12699999809E+01 0. -1.
       -4    1    3    3    0  502 -0.60301325022E+03  0.16476620571E+03  0.72601531861E+03  0.95805675105E+03  0.12699999809E+01 0.  1.
</event>
<event>
 5   0  0.2083966E-03  0.1399405E+04  0.7818609E-02  0.8954249E-01
       -2   -1    0    0    0  501  0.00000000000E+00  0.00000000000E+00  0.44335450555E+03  0.44335450556E+03  0.25500000920E-02 0.  1.
        2   -1    0    0  501    0  0.00000000000E+00  0.00000000000E+00 -0.11042717729E+04  0.11042717730E+04  0.25500000920E-02 0. -1.
    10030    2    1    2    0    0  0.00000000000E+00  0.00000000000E+00 -0.66091726740E+03  0.15476262785E+04  0.13994053964E+04 0.  0.
        1    1    3    3  502    0 -0.18881457630E+03  0.64550560465E+03 -0.11699820548E+03  0.68265438544E+03  0.50400001928E-02 0.  1.
       -1    1    3    3    0  502  0.18881457630E+03 -0.64550560465E+03 -0.54391906192E+03  0.86497189307E+03  0.50400001928E-02 0. -1.
</event>
<event>
 5   0  0.1210275E-03  0.1405444E+04  0.7818609E-02  0.8949887E-01
        1   -1    0    0  501    0  0.00000000000E+00  0.00000000000E+00  0.15184276978E+04  0.15184276979E+04  0.50400001928E-02 0.  1.
       -1   -1    0    0    0  501  0.00000000000E+00  0.00000000000E+00 -0.32521683985E+03  0.32521683988E+03  0.50400001928E-02 0. -1.
    10030    2    1    2    0    0  0.00000000000E+00  0.00000000000E+00  0.11932108580E+04  0.18436445377E+04  0.14054440686E+04 0.  0.
        1    1    3    3  502    0 -0.10847138292E+02 -0.32097014638E+03 -0.22331843264E+03  0.39116571637E+03  0.50400001928E-02 0. -1.
       -1    1    3    3    0  502  0.10847138292E+02  0.32097014638E+03  0.14165292906E+04  0.14524788214E+04  0.50400001928E-02 0.  1.
</event>
<event>
 5   0  0.2195980E-03  0.1417306E+04  0.7818609E-02  0.8941386E-01
        2   -1    0    0  501    0  0.00000000000E+00  0.00000000000E+00  0.99049770648E+03  0.99049770648E+03  0.25500000920E-02 0. -1.
       -2   -1    0    0    0  501  0.00000000000E+00  0.00000000000E+00 -0.50700694148E+03  0.50700694149E+03  0.25500000920E-02 0.  1.
    10030    2    1    2    0    0  0.00000000000E+00  0.00000000000E+00  0.48349076499E+03  0.14975046480E+04  0.14173061952E+04 0.  0.
        4    1    3    3  502    0  0.13133908628E+03  0.35639227031E+03  0.87386432947E+03  0.95284095480E+03  0.12699999809E+01 0. -1.
       -4    1    3    3    0  502 -0.13133908628E+03 -0.35639227031E+03 -0.39037356447E+03  0.54466369318E+03  0.12699999809E+01 0.  1.
</event>
<event>
 5   0  0.1199720E-03  0.1403789E+04  0.7818609E-02  0.8951080E-01
        1   -1    0    0  501    0  0.00000000000E+00  0.00000000000E+00  0.90934929912E+03  0.90934929914E+03  0.50400001928E-02 0.  1.
       -1   -1    0    0    0  501  0.00000000000E+00  0.00000000000E+00 -0.54176772193E+03  0.54176772196E+03  0.50400001928E-02 0. -1.
    10030    2    1    2    0    0  0.00000000000E+00  0.00000000000E+00  0.36758157719E+03  0.14511170211E+04  0.14037892979E+04 0.  0.
        5    1    3    3  502    0 -0.69718532182E+03 -0.78811903385E+02  0.20327621132E+03  0.73049435122E+03  0.46999998093E+01 0.  1.
       -5    1    3    3    0  502  0.69718532182E+03  0.78811903385E+02  0.16430536587E+03  0.72062266987E+03  0.46999998093E+01 0. -1.
</event>
<event>
 5   0  0.2236184E-03  0.1410244E+04  0.7818609E-02  0.8946437E-01
        2   -1    0    0  501    0  0.00000000000E+00  0.00000000000E+00  0.13353310555E+04  0.13353310555E+04  0.25500000920E-02 0. -1.
       -2   -1    0    0    0  501  0.00000000000E+00  0.00000000000E+00 -0.37233966025E+03  0.37233966026E+03  0.25500000920E-02 0.  1.
    10030    2    1    2    0    0  0.00000000000E+00  0.00000000000E+00  0.96299139522E+03  0.17076707157E+04  0.14102435414E+04 0.  0.
        3    1    3    3  502    0  0.55055046839E+03 -0.39123472149E+03  0.23622760199E+03  0.71552352560E+03  0.10100000352E+00 0.  1.
       -3    1    3    3    0  502 -0.55055046839E+03  0.39123472149E+03  0.72676379323E+03  0.99214719013E+03  0.10100000352E+00 0. -1.
</event>
<event>
 5   0  0.2172901E-03  0.1434851E+04  0.7818609E-02  0.8928971E-01
        2   -1    0    0  501    0  0.00000000000E+00  0.00000000000E+00  0.80971874858E+03  0.80971874858E+03  0.25500000920E-02 0.  1.
       -2   -1    0    0    0  501  0.00000000000E+00  0.00000000000E+00 -0.63565233047E+03  0.63565233048E+03  0.25500000920E-02 0. -1.
    10030    2    1    2    0    0  0.00000000000E+00  0.00000000000E+00  0.17406641811E+03  0.14453710791E+04  0.14348513645E+04 0.  0.
        2    1    3    3  502    0 -0.65867339550E+03  0.26557998431E+03 -0.15280341153E+02  0.71036389185E+03  0.25500000920E-02 0. -1.
       -2    1    3    3    0  502  0.65867339550E+03 -0.26557998431E+03  0.18934675926E+03  0.73500718721E+03  0.25500000920E-02 0.  1.
</event>
<event>
 5   0  0.2083966E-03  0.1387712E+04  0.7818609E-02  0.8962762E-01
        2   -1    0    0  501    0  0.00000000000E+00  0.00000000000E+00  0.16509239678E+04  0.16509239678E+04  0.25500000920E-02 0.  1.
       -2   -1    0    0    0  501  0.00000000000E+00  0.00000000000E+00 -0.29161608538E+03  0.29161608539E+03  0.25500000920E-02 0. -1.
    10030    2    1    2    0    0  0.00000000000E+00  0.00000000000E+00  0.13593078824E+04  0.19425400532E+04  0.13877117637E+04 0.  0.
        1    1    3    3  502    0 -0.58216114010E+03 -0.58254652668E+02  0.12017883731E+04  0.13366377562E+04  0.50400001928E-02 0.  1.
       -1    1    3    3    0  502  0.58216114010E+03  0.58254652668E+02  0.15751950928E+03  0.60590229693E+03  0.50400001928E-02 0. -1.
</event>
<event>
 5   0  0.1238683E-03  0.1390306E+04  0.7818609E-02  0.8960865E-01
        1   -1    0    0  501    0  0.00000000000E+00  0.00000000000E+00  0.34538337364E+03  0.34538337368E+03  0.50400001928E-02 0. -1.
       -1   -1    0    0    0  501  0.00000000000E+00  0.00000000000E+00 -0.13991348836E+04  0.13991348836E+04  0.50400001928E-02 0.  1.
    10030    2    1    2    0    0  0.00000000000E+00  0.00000000000E+00 -0.10537515099E+04  0.17445182573E+04  0.13903063350E+04 0.  0.
        2    1    3    3  502    0 -0.22609618878E+03  0.26007317832E+03 -0.12844096957E+04  0.13298367610E+04  0.25500000920E-02 0.  1.
       -2    1    3    3    0  502  0.22609618878E+03 -0.26007317832E+03  0.23065818574E+03  0.41468149623E+03  0.25500000920E-02 0. -1.
</event>
<event>
 5   0  0.2172901E-03  0.1377875E+04  0.7818609E-02  0.8969991E-01
       -2   -1    0    0    0  501  0.00000000000E+00  0.00000000000E+00  0.65302429204E+03  0.65302429204E+03  0.25500000920E-02 0. -1.
        2   -1    0    0  501    0  0.00000000000E+00  0.00000000000E+00 -0.72682554424E+03  0.72682554425E+03  0.25500000920E-02 0.  1.
    10030    2    1    2    0    0  0.00000000000E+00  0.00000000000E+00 -0.73801252206E+02  0.13798498363E+04  0.13778747932E+04 0.  0.
        2    1    3    3  502    0 -0.25707162038E+03  0.58564154507E+03  0.21953848560E+03  0.67620927528E+03  0.25500000920E-02 0.  1.
       -2    1    3    3    0  502  0.25707162038E+03 -0.58564154507E+03 -0.29333973781E+03  0.70364056101E+03  0.25500000920E-02 0. -1.
</event>
<event>
 5   0  0.1175374E-03  0.1376530E+04  0.7818609E-02  0.8970985E-01
       -1   -1    0    0    0  501  0.00000000000E+00  0.00000000000E+00  0.92282670818E+03  0.92282670819E+03  0.50400001928E-02 0.  1.
        1   -1    0    0  501    0  0.00000000000E+00  0.00000000000E+00 -0.51332378938E+03  0.51332378941E+03  0.50400001928E-02 0. -1.
    10030    2    1    2    0    0  0.00000000000E+00  0.00000000000E+00  0.40950291879E+03  0.14361504976E+04  0.13765302798E+04 0.  0.
        3    1    3    3  502    0 -0.42097856541E+03  0.15827074570E+03 -0.33880937445E+03  0.56308470402E+03  0.10100000352E+00 0. -1.
       -3    1    3    3    0  502  0.42097856541E+03 -0.15827074570E+03  0.74831229325E+03  0.87306579358E+03  0.10100000352E+00 0.  1.
</event>
<event>
 5   0  0.1225690E-03  0.1525884E+04  0.7818609E-02  0.8867420E-01
        1   -1    0    0  501    0  0.00000000000E+00  0.00000000000E+00  0.89698086226E+03  0.89698086227E+03  0.50400001928E-02 0. -1.
       -1   -1    0    0    0  501  0.00000000000E+00  0.00000000000E+00 -0.64893317365E+03  0.64893317367E+03  0.50400001928E-02 0.  1.
    10030    2    1    2    0    0  0.00000000000E+00  0.00000000000E+00  0.24804768861E+03  0.15459140359E+04  0.15258841865E+04 0.  0.
        4    1    3    3  502    0  0.11997209918E+03 -0.14231455448E+03 -0.62557511067E+03  0.65268106223E+03  0.12699999809E+01 0.  1.
       -4    1    3    3    0  502 -0.11997209918E+03  0.14231455448E+03  0.87362279928E+03  0.89323297371E+03  0.12699999809E+01 0. -1.
</event>
<event>
 5   0  0.1238683E-03  0.1417921E+04  0.7818609E-02  0.8940947E-01
       -1   -1    0    0    0  501  0.00000000000E+00  0.00000000000E+00  0.12994811369E+04  0.12994811369E+04  0.50400001928E-02 0.  1.
        1   -1    0    0  501    0  0.00000000000E+00  0.00000000000E+00 -0.38678912571E+03  0.38678912575E+03  0.50400001928E-02 0. -1.
    10030    2    1    2    0    0  0.00000000000E+00  0.00000000000E+00  0.91269201114E+03  0.16862702626E+04  0.14179212571E+04 0.  0.
        2    1    3    3  502    0  0.13327286229E+03  0.39446733959E+03 -0.22606169416E+03  0.47378267951E+03  0.25500000920E-02 0. -1.
       -2    1    3    3    0  502 -0.13327286229E+03 -0.39446733959E+03  0.11387537053E+04  0.12124875831E+04  0.25500000920E-02 0.  1.
</event>
<event>
 5   0  0.1199720E-03  0.1383753E+04  0.7818609E-02  0.8965664E-01
        1   -1    0    0  501    0  0.00000000000E+00  0.00000000000E+00  0.50822350379E+03  0.50822350381E+03  0.50400001928E-02 0.  1.
       -1   -1    0    0    0  501  0.00000000000E+00  0.00000000000E+00 -0.94189455301E+03  0.94189455302E+03  0.50400001928E-02 0. -1.
    10030    2    1    2    0    0  0.00000000000E+00  0.00000000000E+00 -0.43367104922E+03  0.14501180568E+04  0.13837527958E+04 0.  0.
        5    1    3    3  502    0  0.70208153479E+02 -0.44488469723E+03  0.33353752611E+03  0.56046494089E+03  0.46999998093E+01 0.  1.
       -5    1    3    3    0  502 -0.70208153479E+02  0.44488469723E+03 -0.76720857533E+03  0.88965311594E+03  0.46999998093E+01 0. -1.
</event>
<event>
 5   0  0.2083966E-03  0.1389347E+04  0.7818609E-02  0.8961566E-01
        2   -1    0    0  501    0  0.00000000000E+00  0.00000000000E+00  0.12509037935E+04  0.12509037935E+04  0.25500000920E-02 0. -1.
       -2   -1    0    0    0  501  0.00000000000E+00  0.00000000000E+00 -0.38577795881E+03  0.38577795882E+03  0.25500000920E-02 0.  1.
    10030    2    1    2    0    0  0.00000000000E+00  0.00000000000E+00  0.86512583466E+03  0.16366817523E+04  0.13893467704E+04 0.  0.
        1    1    3    3  502    0 -0.54125913594E+02  0.14647325015E+03  0.12299606677E+04  0.12398335661E+04  0.50400001928E-02 0. -1.
       -1    1    3    3    0  502  0.54125913594E+02 -0.14647325015E+03 -0.36483483299E+03  0.39684818624E+03  0.50400001928E-02 0.  1.
</event>
<event>
 5   0  0.2195980E-03  0.1402123E+04  0.7818609E-02  0.8952283E-01
       -2   -1    0    0    0  501  0.00000000000E+00  0.00000000000E+00  0.25988742686E+03  0.25988742687E+03  0.25500000920E-02 0. -1.
        2   -1    0    0  501    0  0.00000000000E+00  0.00000000000E+00 -0.18911543052E+04  0.18911543052E+04  0.25500000920E-02 0.  1.
    10030    2    1    2    0    0  0.00000000000E+00  0.00000000000E+00 -0.16312668783E+04  0.21510417320E+04  0.14021229991E+04 0.  0.
        4    1    3    3  502    0  0.56335017828E+03  0.15211183773E+03 -0.14117462340E+04  0.15275897606E+04  0.12699999809E+01 0.  1.
       -4    1    3    3    0  502 -0.56335017828E+03 -0.15211183773E+03 -0.21952064432E+03  0.62345197147E+03  0.12699999809E+01 0. -1.
</event>
<event>
 5   0  0.2236184E-03  0.1509358E+04  0.7818609E-02  0.8878254E-01
        2   -1    0    0  501    0  0.00000000000E+00  0.00000000000E+00  0.17597412665E+04  0.17597412665E+04  0.25500000920E-02 0. -1.
       -2   -1    0    0    0  501  0.00000000000E+00  0.00000000000E+00 -0.32365005021E+03  0.32365005022E+03  0.25500000920E-02 0.  1.
    10030    2    1    2    0    0  0.00000000000E+00  0.00000000000E+00  0.14360912163E+04  0.20833913168E+04  0.15093579420E+04 0.  0.
        3    1    3    3  502    0 -0.35786532502E+03 -0.43309584343E+03  0.14135671532E+04  0.15211218582E+04  0.10100000352E+00 0. -1.
       -3    1    3    3    0  502  0.35786532502E+03  0.43309584343E+03  0.22524063072E+02  0.56226945859E+03  0.10100000352E+00 0.  1.
</event>
<event>
 5   0  0.1238683E-03  0.1405936E+04  0.7818609E-02  0.8949533E-01
        1   -1    0    0  501    0  0.00000000000E+00  0.00000000000E+00  0.13981188580E+04  0.13981188580E+04  0.50400001928E-02 0.  1.
       -1   -1    0    0    0  501  0.00000000000E+00  0.00000000000E+00 -0.35344937365E+03  0.35344937369E+03  0.50400001928E-02 0. -1.
    10030    2    1    2    0    0  0.00000000000E+00  0.00000000000E+00  0.10446694844E+04  0.17515682317E+04  0.14059363210E+04 0.  0.
        2    1    3    3  502    0  0.47289629083E+03  0.43708658030E+03  0.17108664438E+03  0.66629289389E+03  0.25500000920E-02 0. -1.
       -2    1    3    3    0  502 -0.47289629083E+03 -0.43708658030E+03  0.87358283998E+03  0.10852753378E+04  0.25500000920E-02 0.  1.
</event>
<event>
 5   0  0.8293000E-04  0.1383264E+04  0.7818609E-02  0.8966023E-01
       -4   -1    0    0    0  501  0.00000000000E+00  0.00000000000E+00  0.40454440757E+03  0.40454640105E+03  0.12699999809E+01 0. -1.
        4   -1    0    0  501    0  0.00000000000E+00  0.00000000000E+00 -0.11824483362E+04  0.11824490182E+04  0.12699999809E+01 0.  1.
    10030    2    1    2    0    0  0.00000000000E+00  0.00000000000E+00 -0.77790392859E+03  0.15869954192E+04  0.13832642331E+04 0.  0.
        4    1    3    3  502    0  0.61333553838E+03  0.22413178777E+03 -0.12748764625E+03  0.66533469305E+03  0.12699999809E+01 0. -1.
       -4    1    3    3    0  502 -0.61333553838E+03 -0.22413178777E+03 -0.65041628235E+03  0.92166072618E+03  0.12699999809E+01 0.  1.
</event>
<event>
 5   0  0.8293000E-04  0.1429019E+04  0.7818609E-02  0.8933077E-01
        3   -1    0    0  501    0  0.00000000000E+00  0.00000000000E+00  0.90503710176E+03  0.90503710740E+03  0.10100000352E+00 0.  1.
       -3   -1    0    0    0  501  0.00000000000E+00  0.00000000000E+00 -0.56409193303E+03  0.56409194207E+03  0.10100000352E+00 0. -1.
    10030    2    1    2    0    0  0.00000000000E+00  0.00000000000E+00  0.34094516873E+03  0.14691290495E+04  0.14290194386E+04 0.  0.
        2    1    3    3  502    0 -0.42215475084E+03 -0.12402090105E+03 -0.40829251577E+03  0.60024877841E+03  0.25500000920E-02 0. -1.
       -2    1    3    3    0  502  0.42215475084E+03  0.12402090105E+03  0.74923768450E+03  0.86888027105E+03  0.25500000920E-02 0.  1.
</event>
<event>
 5   0  0.1199720E-03  0.1358041E+04  0.7818609E-02  0.8984763E-01
        1   -1    0    0  501    0  0.00000000000E+00  0.00000000000E+00  0.19630126450E+04  0.19630126450E+04  0.50400001928E-02 0. -1.
       -1   -1    0    0    0  501  0.00000000000E+00  0.00000000000E+00 -0.23487834439E+03  0.23487834444E+03  0.50400001928E-02 0.  1.
    10030    2    1    2    0    0  0.00000000000E+00  0.00000000000E+00  0.17281343006E+04  0.21978909894E+04  0.13580414723E+04 0.  0.
        5    1    3    3  502    0  0.17135513159E+03 -0.64539547259E+03  0.10632663448E+04  0.12555697142E+04  0.46999998093E+01 0. -1.
       -5    1    3    3    0  502 -0.17135513159E+03  0.64539547259E+03  0.66486795574E+03  0.94232127522E+03  0.46999998093E+01 0.  1.
</event>
<event>
 5   0  0.1225690E-03  0.1360971E+04  0.7818609E-02  0.8982565E-01
       -1   -1    0    0    0  501  0.00000000000E+00  0.00000000000E+00  0.37685769893E+03  0.37685769897E+03  0.50400001928E-02 0.  1.
        1   -1    0    0  501    0  0.00000000000E+00  0.00000000000E+00 -0.12287409576E+04  0.12287409576E+04  0.50400001928E-02 0. -1.
    10030    2    1    2    0    0  0.00000000000E+00  0.00000000000E+00 -0.85188325862E+03  0.16055986565E+04  0.13609709621E+04 0.  0.
        4    1    3    3  502    0  0.37966011392E+03 -0.21526229452E+02  0.23980853771E+03  0.44957193897E+03  0.12699999809E+01 0.  1.
       -4    1    3    3    0  502 -0.37966011392E+03  0.21526229452E+02 -0.10916917963E+04  0.11560267176E+04  0.12699999809E+01 0. -1.
</event>
<event>
 5   0  0.1210275E-03  0.1415571E+04  0.7818609E-02  0.8942624E-01
        1   -1    0    0  501    0  0.00000000000E+00  0.00000000000E+00  0.17858819333E+04  0.17858819333E+04  0.50400001928E-02 0.  1.
       -1   -1    0    0    0  501  0.00000000000E+00  0.00000000000E+00 -0.28051145400E+03  0.28051145405E+03  0.50400001928E-02 0. -1.
    10030    2    1    2    0    0  0.00000000000E+00  0.00000000000E+00  0.15053704793E+04  0.20663933873E+04  0.14155710337E+04 0.  0.
        1    1    3    3  502    0  0.35704899985E+03  0.51302898725E+03  0.26792721806E+03  0.68004979542E+03  0.50400001928E-02 0. -1.
       -1    1    3    3    0  502 -0.35704899985E+03 -0.51302898725E+03  0.12374432612E+04  0.13863435919E+04  0.50400001928E-02 0.  1.
</event>
<event>
 5   0  0.2195980E-03  0.1455549E+04  0.7818609E-02  0.8914562E-01
        2   -1    0    0  501    0  0.00000000000E+00  0.00000000000E+00  0.10495357326E+04  0.10495357326E+04  0.25500000920E-02 0. -1.
       -2   -1    0    0    0  501  0.00000000000E+00  0.00000000000E+00 -0.50465744481E+03  0.50465744481E+03  0.25500000920E-02 0.  1.
    10030    2    1    2    0    0  0.00000000000E+00  0.00000000000E+00  0.54487828777E+03  0.15541931774E+04  0.14555494097E+04 0.  0.
        4    1    3    3  502    0 -0.23829406564E+02 -0.63102075217E+02 -0.50131145223E+03  0.50583050279E+03  0.12699999809E+01 0.  1.
       -4    1    3    3    0  502  0.23829406564E+02  0.63102075217E+02  0.10461897400E+04  0.10483626746E+04  0.12699999809E+01 0. -1.
</event>
<event>
 5   0  0.2190704E-03  0.1387013E+04  0.7818609E-02  0.8963273E-01
        2   -1    0    0  501    0  0.00000000000E+00  0.00000000000E+00  0.10649944630E+04  0.10649944630E+04  0.25500000920E-02 0. -1.
       -2   -1    0    0    0  501  0.00000000000E+00  0.00000000000E+00 -0.45159996570E+03  0.45159996571E+03  0.25500000920E-02 0.  1.
    10030    2    1    2    0    0  0.00000000000E+00  0.00000000000E+00  0.61339449726E+03  0.15165944287E+04  0.13870132847E+04 0.  0.
        5    1    3    3  502    0  0.48213727993E+03 -0.49811558079E+02  0.84900919661E+03  0.97763809968E+03  0.46999998093E+01 0. -1.
       -5    1    3    3    0  502 -0.48213727993E+03  0.49811558079E+02 -0.23561469935E+03  0.53895632900E+03  0.46999998093E+01 0.  1.
</event>
<event>
 5   0  0.1199720E-03  0.1468438E+04  0.7818609E-02  0.8905717E-01
       -1   -1    0    0    0  501  0.00000000000E+00  0.00000000000E+00  0.73111704622E+03  0.73111704624E+03  0.50400001928E-02 0. -1.
        1   -1    0    0  501    0  0.00000000000E+00  0.00000000000E+00 -0.73733365584E+03  0.73733365585E+03  0.50400001928E-02 0.  1.
    10030    2    1    2    0    0  0.00000000000E+00  0.00000000000E+00 -0.62166096170E+01  0.14684507021E+04  0.14684375432E+04 0.  0.
        5    1    3    3  502    0  0.10809361380E+02  0.57844876993E+03 -0.45514697020E+03  0.73613903321E+03  0.46999998093E+01 0.  1.
       -5    1    3    3    0  502 -0.10809361380E+02 -0.57844876993E+03  0.44893036059E+03  0.73231166888E+03  0.46999998093E+01 0. -1.
</event>
<event>
 5   0  0.2083966E-03  0.1399538E+04  0.7818609E-02  0.8954153E-01
       -2   -1    0    0    0  501  0.00000000000E+00  0.00000000000E+00  0.88950181611E+03  0.88950181611E+03  0.25500000920E-02 0. -1.
        2   -1    0    0  501    0  0.00000000000E+00  0.00000000000E+00 -0.55050693756E+03  0.55050693756E+03  0.25500000920E-02 0.  1.
    10030    2    1    2    0    0  0.00000000000E+00  0.00000000000E+00  0.33899487855E+03  0.14400087537E+04  0.13995383821E+04 0.  0.
        1    1    3    3  502    0 -0.20755846882E+03  0.23217182372E+03 -0.47527535347E+03  0.56821733109E+03  0.50400001928E-02 0.  1.
       -1    1    3    3    0  502  0.20755846882E+03 -0.23217182372E+03  0.81427023202E+03  0.87179142259E+03  0.50400001928E-02 0. -1.
</event>
<event>
 5   0  0.2172901E-03  0.1356254E+04  0.7818609E-02  0.8986107E-01
        2   -1    0    0  501    0  0.00000000000E+00  0.00000000000E+00  0.15044002931E+04  0.15044002931E+04  0.25500000920E-02 0.  1.
       -2   -1    0    0    0  501  0.00000000000E+00  0.00000000000E+00 -0.30567416809E+03  0.30567416810E+03  0.25500000920E-02 0. -1.
    10030    2    1    2    0    0  0.00000000000E+00  0.00000000000E+00  0.11987261251E+04  0.18100744612E+04  0.13562541179E+04 0.  0.
        2    1    3    3  502    0  0.53802253194E+03 -0.34735800442E+03  0.30173992104E+03  0.70793559599E+03  0.25500000920E-02 0. -1.
       -2    1    3    3    0  502 -0.53802253194E+03  0.34735800442E+03  0.89698620401E+03  0.11021388652E+04  0.25500000920E-02 0.  1.
</event>
<event>
 5   0  0.2172901E-03  0.1388230E+04  0.7818609E-02  0.8962383E-01
        2   -1    0    0  501    0  0.00000000000E+00  0.00000000000E+00  0.12664283242E+04  0.12664283242E+04  0.25500000920E-02 0. -1.
       -2   -1    0    0    0  501  0.00000000000E+00  0.00000000000E+00 -0.38043651675E+03  0.38043651676E+03  0.25500000920E-02 0.  1.
    10030    2    1    2    0    0  0.00000000000E+00  0.00000000000E+00  0.88599180743E+03  0.16468648409E+04  0.13882299239E+04 0.  0.
        2    1    3    3  502    0 -0.52665204454E+03  0.11716125947E+03  0.96105492406E+03  0.11021414173E+04  0.25500000920E-02 0. -1.
       -2    1    3    3    0  502  0.52665204454E+03 -0.11716125947E+03 -0.75063116631E+02  0.54472342360E+03  0.25500000920E-02 0.  1.
</event>
<event>
 5   0  0.1225690E-03  0.1295873E+04  0.7818609E-02  0.9032844E-01
       -1   -1    0    0    0  501  0.00000000000E+00  0.00000000000E+00  0.10917994057E+04  0.10917994057E+04  0.50400001928E-02 0.  1.
        1   -1    0    0  501    0  0.00000000000E+00  0.00000000000E+00 -0.38452303900E+03  0.38452303903E+03  0.50400001928E-02 0. -1.
    10030    2    1    2    0    0  0.00000000000E+00  0.00000000000E+00  0.70727636672E+03  0.14763224448E+04  0.12958734900E+04 0.  0.
        4    1    3    3  502    0  0.28437757245E+03 -0.26902497383E+03  0.94184307140E+03  0.10199583444E+04  0.12699999809E+01 0.  1.
       -4    1    3    3    0  502 -0.28437757245E+03  0.26902497383E+03 -0.23456670468E+03  0.45636410037E+03  0.12699999809E+01 0. -1.
</event>
<event>
 5   0  0.1210275E-03  0.1400055E+04  0.7818609E-02  0.8953779E-01
        1   -1    0    0  501    0  0.00000000000E+00  0.00000000000E+00  0.61820659051E+03  0.61820659053E+03  0.50400001928E-02 0.  1.
       -1   -1    0    0    0  501  0.00000000000E+00  0.00000000000E+00 -0.79267732906E+03  0.79267732908E+03  0.50400001928E-02 0. -1.
    10030    2    1    2    0    0  0.00000000000E+00  0.00000000000E+00 -0.17447073855E+03  0.14108839196E+04  0.14000547832E+04 0.  0.
        1    1    3    3  502    0  0.84723960771E+02  0.15558883201E+03  0.59524167624E+03  0.62104644539E+03  0.50400001928E-02 0.  1.
       -1    1    3    3    0  502 -0.84723960771E+02 -0.15558883201E+03 -0.76971241479E+03  0.78983747422E+03  0.50400001928E-02 0. -1.
</event>
<event>
 5   0  0.2190704E-03  0.1402357E+04  0.7818609E-02  0.8952114E-01
        2   -1    0    0  501    0  0.00000000000E+00  0.00000000000E+00  0.37849613708E+03  0.37849613709E+03  0.25500000920E-02 0. -1.
       -2   -1    0    0    0  501  0.00000000000E+00  0.00000000000E+00 -0.12989592198E+04  0.12989592198E+04  0.25500000920E-02 0.  1.
    10030    2    1    2    0    0  0.00000000000E+00  0.00000000000E+00 -0.92046308272E+03  0.16774553569E+04  0.14023566550E+04 0.  0.
        5    1    3    3  502    0 -0.38101771736E+03  0.37157562202E+03  0.85811370468E+02  0.53909982853E+03  0.46999998093E+01 0. -1.
       -5    1    3    3    0  502  0.38101771736E+03 -0.37157562202E+03 -0.10062744532E+04  0.11383555284E+04  0.46999998093E+01 0.  1.
</event>
<event>
 5   0  0.1199720E-03  0.1413737E+04  0.7818609E-02  0.8943934E-01
        1   -1    0    0  501    0  0.00000000000E+00  0.00000000000E+00  0.11917203823E+04  0.11917203824E+04  0.50400001928E-02 0.  1.
       -1   -1    0    0    0  501  0.00000000000E+00  0.00000000000E+00 -0.41927892579E+03  0.41927892582E+03  0.50400001928E-02 0. -1.
    10030    2    1    2    0    0  0.00000000000E+00  0.00000000000E+00  0.77244145655E+03  0.16109993082E+04  0.14137372341E+04 0.  0.
        5    1    3    3  502    0  0.12592106277E+03 -0.43671552864E+03 -0.23067011992E+03  0.50971301850E+03  0.46999998093E+01 0. -1.
       -5    1    3    3    0  502 -0.12592106277E+03  0.43671552864E+03  0.10031115765E+04  0.11012862897E+04  0.46999998093E+01 0.  1.
</event>
<event>
 5   0  0.2172901E-03  0.1393057E+04  0.7818609E-02  0.8958860E-01
       -2   -1    0    0    0  501  0.00000000000E+00  0.00000000000E+00  0.40847412625E+03  0.40847412626E+03  0.25500000920E-02 0. -1.
        2   -1    0    0  501    0  0.00000000000E+00  0.00000000000E+00 -0.11877172382E+04  0.11877172382E+04  0.25500000920E-02 0.  1.
    10030    2    1    2    0    0  0.00000000000E+00  0.00000000000E+00 -0.77924311199E+03  0.15961913645E+04  0.13930567270E+04 0.  0.
        2    1    3    3  502    0 -0.89236085211E+02 -0.42704361060E+03  0.23253032846E+03  0.49436795802E+03  0.25500000920E-02 0. -1.
       -2    1    3    3    0  502  0.89236085211E+02  0.42704361060E+03 -0.10117734405E+04  0.11018234065E+04  0.25500000920E-02 0.  1.
</event>
<event>
 5   0  0.2195980E-03  0.1408213E+04  0.7818609E-02  0.8947895E-01
       -2   -1    0    0    0  501  0.00000000000E+00  0.00000000000E+00  0.53109732628E+03  0.53109732629E+03  0.25500000920E-02 0.  1.
        2   -1    0    0  501    0  0.00000000000E+00  0.00000000000E+00 -0.93347476706E+03  0.93347476706E+03  0.25500000920E-02 0. -1.
    10030    2    1    2    0    0  0.00000000000E+00  0.00000000000E+00 -0.40237744078E+03  0.14645720933E+04  0.14082129852E+04 0.  0.
        4    1    3    3  502    0 -0.21012307638E+03  0.29556577487E+03 -0.82887737658E+03  0.90473761545E+03  0.12699999809E+01 0. -1.
       -4    1    3    3    0  502  0.21012307638E+03 -0.29556577487E+03  0.42649993581E+03  0.55983447790E+03  0.12699999809E+01 0.  1.
</event>
<event>
 5   0  0.1225690E-03  0.1402694E+04  0.7818609E-02  0.8951871E-01
       -1   -1    0    0    0  501  0.00000000000E+00  0.00000000000E+00  0.24606234799E+03  0.24606234804E+03  0.50400001928E-02 0.  1.
        1   -1    0    0  501    0  0.00000000000E+00  0.00000000000E+00 -0.19990370515E+04  0.19990370515E+04  0.50400001928E-02 0. -1.
    10030    2    1    2    0    0  0.00000000000E+00  0.00000000000E+00 -0.17529747035E+04  0.22450993995E+04  0.14026941943E+04 0.  0.
        4    1    3    3  502    0  0.31890956525E+03  0.49641702317E+03 -0.14833368279E+04  0.15963780660E+04  0.12699999809E+01 0. -1.
       -4    1    3    3    0  502 -0.31890956525E+03 -0.49641702317E+03 -0.26963787557E+03  0.64872133350E+03  0.12699999809E+01 0.  1.
</event>
<event>
 5   0  0.2190704E-03  0.1398104E+04  0.7818609E-02  0.8955192E-01
        2   -1    0    0  501    0  0.00000000000E+00  0.00000000000E+00  0.22022031465E+04  0.22022031465E+04  0.25500000920E-02 0. -1.
       -2   -1    0    0    0  501  0.00000000000E+00  0.00000000000E+00 -0.22190214672E+03  0.22190214673E+03  0.25500000920E-02 0.  1.
    10030    2    1    2    0    0  0.00000000000E+00  0.00000000000E+00  0.19803009998E+04  0.24241052933E+04  0.13981038670E+04 0.  0.
        5    1    3    3  502    0 -0.58845704242E+03 -0.93788951593E+02  0.35646739702E+03  0.69438401000E+03  0.46999998093E+01 0.  1.
       -5    1    3    3    0  502  0.58845704242E+03  0.93788951593E+02  0.16238336028E+04  0.17297212833E+04  0.46999998093E+01 0. -1.
</event>
<event>
 5   0  0.2236184E-03  0.1395743E+04  0.7818609E-02  0.8956906E-01
        2   -1    0    0  501    0  0.00000000000E+00  0.00000000000E+00  0.74764813619E+03  0.74764813620E+03  0.25500000920E-02 0.  1.
       -2   -1    0    0    0  501  0.00000000000E+00  0.00000000000E+00 -0.65140906159E+03  0.65140906160E+03  0.25500000920E-02 0. -1.
    10030    2    1    2    0    0  0.00000000000E+00  0.00000000000E+00  0.96239074598E+02  0.13990571978E+04  0.13957432010E+04 0.  0.
        3    1    3    3  502    0 -0.66744474987E+02 -0.63714398207E+03  0.32557538724E+03  0.71861437629E+03  0.10100000352E+00 0.  1.
       -3    1    3    3    0  502  0.66744474987E+02  0.63714398207E+03 -0.22933631265E+03  0.68044282150E+03  0.10100000352E+00 0. -1.
</event>
<event>
 5   0  0.2195980E-03  0.1395379E+04  0.7818609E-02  0.8957171E-01
       -2   -1    0    0    0  501  0.00000000000E+00  0.00000000000E+00  0.25840545783E+03  0.25840545784E+03  0.25500000920E-02 0.  1.
        2   -1    0    0  501    0  0.00000000000E+00  0.00000000000E+00 -0.18837463348E+04  0.18837463348E+04  0.25500000920E-02 0. -1.
    10030    2    1    2    0    0  0.00000000000E+00  0.00000000000E+00 -0.16253408770E+04  0.21421517926E+04  0.13953785638E+04 0.  0.
        4    1    3    3  502    0 -0.26357555451E+03  0.64545233584E+03 -0.77240518387E+03  0.10405249501E+04  0.12699999809E+01 0.  1.
       -4    1    3    3    0  502  0.26357555451E+03 -0.64545233584E+03 -0.85293569311E+03  0.11016268426E+04  0.12699999809E+01 0. -1.
</event>
<event>
 5   0  0.1238683E-03  0.1417323E+04  0.7818609E-02  0.8941374E-01
       -1   -1    0    0    0  501  0.00000000000E+00  0.00000000000E+00  0.54414398012E+03  0.54414398014E+03  0.50400001928E-02 0.  1.
        1   -1    0    0  501    0  0.00000000000E+00  0.00000000000E+00 -0.92291987900E+03  0.92291987901E+03  0.50400001928E-02 0. -1.
    10030    2    1    2    0    0  0.00000000000E+00  0.00000000000E+00 -0.37877589888E+03  0.14670638592E+04  0.14173232466E+04 0.  0.
        2    1    3    3  502    0  0.60305861790E+02  0.30511592215E+03 -0.84849933647E+03  0.90370550895E+03  0.25500000920E-02 0. -1.
       -2    1    3    3    0  502 -0.60305861790E+02 -0.30511592215E+03  0.46972343759E+03  0.56335835020E+03  0.25500000920E-02 0.  1.
</event>
<event>
 5   0  0.2236184E-03  0.1401992E+04  0.7818609E-02  0.8952378E-01
       -2   -1    0    0    0  501  0.00000000000E+00  0.00000000000E+00  0.58928549749E+03  0.58928549749E+03  0.25500000920E-02 0.  1.
        2   -1    0    0  501    0  0.00000000000E+00  0.00000000000E+00 -0.83388280184E+03  0.83388280184E+03  0.25500000920E-02 0. -1.
    10030    2    1    2    0    0  0.00000000000E+00  0.00000000000E+00 -0.24459730435E+03  0.14231682993E+04  0.14019915003E+04 0.  0.
        3    1    3    3  502    0 -0.47554311188E+03 -0.21140591168E+03  0.35443472354E+03  0.62964886580E+03  0.10100000352E+00 0.  1.
       -3    1    3    3    0  502  0.47554311188E+03  0.21140591168E+03 -0.59903202789E+03  0.79351943353E+03  0.10100000352E+00 0. -1.
</event>
<event>
 5   0  0.1175374E-03  0.1493960E+04  0.7818609E-02  0.8888479E-01
        1   -1    0    0  501    0  0.00000000000E+00  0.00000000000E+00  0.73606037699E+03  0.73606037701E+03  0.50400001928E-02 0.  1.
       -1   -1    0    0    0  501  0.00000000000E+00  0.00000000000E+00 -0.75806188552E+03  0.75806188554E+03  0.50400001928E-02 0. -1.
    10030    2    1    2    0    0  0.00000000000E+00  0.00000000000E+00 -0.22001508529E+02  0.14941222626E+04  0.14939602636E+04 0.  0.
        3    1    3    3  502    0 -0.44784789545E+03 -0.29945085835E+03  0.50649206853E+03  0.73944085612E+03  0.10100000352E+00 0.  1.
       -3    1    3    3    0  502  0.44784789545E+03  0.29945085835E+03 -0.52849357705E+03  0.75468140643E+03  0.10100000352E+00 0. -1.
</event>
<event>
 5   0  0.2195980E-03  0.1393226E+04  0.7818609E-02  0.8958737E-01
       -2   -1    0    0    0  501  0.00000000000E+00  0.00000000000E+00  0.36651043259E+03  0.36651043260E+03  0.25500000920E-02 0.  1.
        2   -1    0    0  501    0  0.00000000000E+00  0.00000000000E+00 -0.13240267930E+04  0.13240267930E+04  0.25500000920E-02 0. -1.
    10030    2    1    2    0    0  0.00000000000E+00  0.00000000000E+00 -0.95751636046E+03  0.16905372256E+04  0.13932259439E+04 0.  0.
        4    1    3    3  502    0 -0.61748173696E+03 -0.17641029439E+03 -0.80629406798E+03  0.10307841794E+04  0.12699999809E+01 0. -1.
       -4    1    3    3    0  502  0.61748173696E+03  0.17641029439E+03 -0.15122229248E+03  0.65975304629E+03  0.12699999809E+01 0.  1.
</event>
<event>
 5   0  0.1210275E-03  0.1404672E+04  0.7818609E-02  0.8950444E-01
        1   -1    0    0  501    0  0.00000000000E+00  0.00000000000E+00  0.98953386110E+03  0.98953386111E+03  0.50400001928E-02 0.  1.
       -1   -1    0    0    0  501  0.00000000000E+00  0.00000000000E+00 -0.49849298566E+03  0.49849298569E+03  0.50400001928E-02 0. -1.
    10030    2    1    2    0    0  0.00000000000E+00  0.00000000000E+00  0.49104087544E+03  0.14880268468E+04  0.14046717607E+04 0.  0.
        1    1    3    3  502    0 -0.15878815711E+03  0.19195956111E+03 -0.45011565689E+03  0.51445724462E+03  0.50400001928E-02 0. -1.
       -1    1    3    3    0  502  0.15878815711E+03 -0.19195956111E+03  0.94115653232E+03  0.97356960218E+03  0.50400001928E-02 0.  1.
</event>
<event>
 5   0  0.2190704E-03  0.1387821E+04  0.7818609E-02  0.8962682E-01
       -2   -1    0    0    0  501  0.00000000000E+00  0.00000000000E+00  0.51596456362E+03  0.51596456362E+03  0.25500000920E-02 0.  1.
        2   -1    0    0  501    0  0.00000000000E+00  0.00000000000E+00 -0.93322592500E+03  0.93322592500E+03  0.25500000920E-02 0. -1.
    10030    2    1    2    0    0  0.00000000000E+00  0.00000000000E+00 -0.41726136138E+03  0.14491904886E+04  0.13878206039E+04 0.  0.
        5    1    3    3  502    0 -0.28619380221E+03  0.58531537016E+03 -0.45790959062E+03  0.79636942317E+03  0.46999998093E+01 0. -1.
       -5    1    3    3    0  502  0.28619380221E+03 -0.58531537016E+03  0.40648229240E+02  0.65282106546E+03  0.46999998093E+01 0.  1.
</event>
<event>
 5   0  0.1199720E-03  0.1332184E+04  0.7818609E-02  0.9004425E-01
        1   -1    0    0  501    0  0.00000000000E+00  0.00000000000E+00  0.11608394013E+04  0.11608394014E+04  0.50400001928E-02 0. -1.
       -1   -1    0    0    0  501  0.00000000000E+00  0.00000000000E+00 -0.38220509508E+03  0.38220509511E+03  0.50400001928E-02 0.  1.
    10030    2    1    2    0    0  0.00000000000E+00  0.00000000000E+00  0.77863430627E+03  0.15430444965E+04  0.13321842722E+04 0.  0.
        5    1    3    3  502    0 -0.11954663040E+02  0.33354776551E+03  0.10569734180E+04  0.11084276802E+04  0.46999998093E+01 0. -1.
       -5    1    3    3    0  502  0.11954663040E+02 -0.33354776551E+03 -0.27833911175E+03  0.43461681626E+03  0.46999998093E+01 0.  1.
</event>
<event>
 5   0  0.1199720E-03  0.9205627E+03  0.7818609E-02  0.9400236E-01
        1   -1    0    0  501    0  0.00000000000E+00  0.00000000000E+00  0.11569076429E+04  0.11569076429E+04  0.50400001928E-02 0.  1.
       -1   -1    0    0    0  501  0.00000000000E+00  0.00000000000E+00 -0.18312517688E+03  0.18312517695E+03  0.50400001928E-02 0. -1.
    10030    2    1    2    0    0  0.00000000000E+00  0.00000000000E+00  0.97378246606E+03  0.13400328199E+04  0.92056269053E+03 0.  0.
        5    1    3    3  502    0 -0.33407318284E+03  0.99943809111E+02  0.92418092275E+03  0.98778850188E+03  0.46999998093E+01 0.  1.
       -5    1    3    3    0  502  0.33407318284E+03 -0.99943809111E+02  0.49601543307E+02  0.35224431801E+03  0.46999998093E+01 0. -1.
</event>
<event>
 5   0  0.2190704E-03  0.1416231E+04  0.7818609E-02  0.8942153E-01
        2   -1    0    0  501    0  0.00000000000E+00  0.00000000000E+00  0.15228554449E+04  0.15228554449E+04  0.25500000920E-02 0. -1.
       -2   -1    0    0    0  501  0.00000000000E+00  0.00000000000E+00 -0.32926808362E+03  0.32926808363E+03  0.25500000920E-02 0.  1.
    10030    2    1    2    0    0  0.00000000000E+00  0.00000000000E+00  0.11935873613E+04  0.18521235286E+04  0.14162311873E+04 0.  0.
        5    1    3    3  502    0 -0.28214805297E+03 -0.61659770766E+03  0.86354733015E+03  0.10979691882E+04  0.46999998093E+01 0. -1.
       -5    1    3    3    0  502  0.28214805297E+03  0.61659770766E+03  0.33004003115E+03  0.75415434034E+03  0.46999998093E+01 0.  1.
</event>
<event>
 5   0  0.1225690E-03  0.1398075E+04  0.7818609E-02  0.8955213E-01
        1   -1    0    0  501    0  0.00000000000E+00  0.00000000000E+00  0.59321131931E+03  0.59321131933E+03  0.50400001928E-02 0. -1.
       -1   -1    0    0    0  501  0.00000000000E+00  0.00000000000E+00 -0.82374223422E+03  0.82374223423E+03  0.50400001928E-02 0.  1.
    10030    2    1    2    0    0  0.00000000000E+00  0.00000000000E+00 -0.23053091491E+03  0.14169535536E+04  0.13980747012E+04 0.  0.
        4    1    3    3  502    0 -0.54970440477E+03  0.42447169880E+03 -0.34818247557E+02  0.69538843747E+03  0.12699999809E+01 0. -1.
       -4    1    3    3    0  502  0.54970440477E+03 -0.42447169880E+03 -0.19571266735E+03  0.72156511610E+03  0.12699999809E+01 0.  1.
</event>
<event>
 5   0  0.1225690E-03  0.1520290E+04  0.7818609E-02  0.8871072E-01
       -1   -1    0    0    0  501  0.00000000000E+00  0.00000000000E+00  0.29858929181E+03  0.29858929185E+03  0.50400001928E-02 0.  1.
        1   -1    0    0  501    0  0.00000000000E+00  0.00000000000E+00 -0.19351666630E+04  0.19351666630E+04  0.50400001928E-02 0. -1.
    10030    2    1    2    0    0  0.00000000000E+00  0.00000000000E+00 -0.16365773712E+04  0.22337559549E+04  0.15202895034E+04 0.  0.
        4    1    3    3  502    0  0.44228725589E+03  0.49572887602E+03 -0.27553667557E+03  0.71922681243E+03  0.12699999809E+01 0.  1.
       -4    1    3    3    0  502 -0.44228725589E+03 -0.49572887602E+03 -0.13610406956E+04  0.15145291424E+04  0.12699999809E+01 0. -1.
</event>
<event>
 5   0  0.1199720E-03  0.1390174E+04  0.7818609E-02  0.8960962E-01
        1   -1    0    0  501    0  0.00000000000E+00  0.00000000000E+00  0.15669743123E+04  0.15669743124E+04  0.50400001928E-02 0. -1.
       -1   -1    0    0    0  501  0.00000000000E+00  0.00000000000E+00 -0.30833065452E+03  0.30833065456E+03  0.50400001928E-02 0.  1.
    10030    2    1    2    0    0  0.00000000000E+00  0.00000000000E+00  0.12586436578E+04  0.18753049669E+04  0.13901743997E+04 0.  0.
        5    1    3    3  502    0 -0.10836769435E+03 -0.58030804072E+03  0.11242731469E+04  0.12698476988E+04  0.46999998093E+01 0. -1.
       -5    1    3    3    0  502  0.10836769435E+03  0.58030804072E+03  0.13437051092E+03  0.60545726811E+03  0.46999998093E+01 0.  1.
</event>
<event>
 5   0  0.1238683E-03  0.1410823E+04  0.7818609E-02  0.8946021E-01
       -1   -1    0    0    0  501  0.00000000000E+00  0.00000000000E+00  0.43616211102E+03  0.43616211105E+03  0.50400001928E-02 0.  1.
        1   -1    0    0  501    0  0.00000000000E+00  0.00000000000E+00 -0.11408723088E+04  0.11408723088E+04  0.50400001928E-02 0. -1.
    10030    2    1    2    0    0  0.00000000000E+00  0.00000000000E+00 -0.70471019781E+03  0.15770344199E+04  0.14108228445E+04 0.  0.
        2    1    3    3  502    0  0.18667119874E+03 -0.60923434897E+03 -0.14057440142E+02  0.63734624815E+03  0.25500000920E-02 0.  1.
       -2    1    3    3    0  502 -0.18667119874E+03  0.60923434897E+03 -0.69065275767E+03  0.93968817173E+03  0.25500000920E-02 0. -1.
</event>
<event>
 5   0  0.1225690E-03  0.1375458E+04  0.7818609E-02  0.8971777E-01
       -1   -1    0    0    0  501  0.00000000000E+00  0.00000000000E+00  0.42776473025E+03  0.42776473028E+03  0.50400001928E-02 0.  1.
        1   -1    0    0  501    0  0.00000000000E+00  0.00000000000E+00 -0.11056811807E+04  0.11056811807E+04  0.50400001928E-02 0. -1.
    10030    2    1    2    0    0  0.00000000000E+00  0.00000000000E+00 -0.67791645043E+03  0.15334459110E+04  0.13754583411E+04 0.  0.
        4    1    3    3  502    0 -0.20829936258E+02 -0.59564569223E+03 -0.72150711871E+03  0.93584283519E+03  0.12699999809E+01 0. -1.
       -4    1    3    3    0  502  0.20829936258E+02  0.59564569223E+03  0.43590668278E+02  0.59760307578E+03  0.12699999809E+01 0.  1.
</event>
<event>
 5   0  0.1225690E-03  0.1122345E+04  0.7818609E-02  0.9183682E-01
        1   -1    0    0  501    0  0.00000000000E+00  0.00000000000E+00  0.30307531122E+03  0.30307531126E+03  0.50400001928E-02 0. -1.
       -1   -1    0    0    0  501  0.00000000000E+00  0.00000000000E+00 -0.10390643989E+04  0.10390643989E+04  0.50400001928E-02 0.  1.
    10030    2    1    2    0    0  0.00000000000E+00  0.00000000000E+00 -0.73598908768E+03  0.13421397102E+04  0.11223453410E+04 0.  0.
        4    1    3    3  502    0 -0.12989033887E+03 -0.23534691715E+03  0.22107216817E+03  0.34804337083E+03  0.12699999809E+01 0. -1.
       -4    1    3    3    0  502  0.12989033887E+03  0.23534691715E+03 -0.95706125585E+03  0.99409633934E+03  0.12699999809E+01 0.  1.
</event>
<event>
 5   0  0.1210275E-03  0.1389378E+04  0.7818609E-02  0.8961543E-01
        1   -1    0    0  501    0  0.00000000000E+00  0.00000000000E+00  0.19026967018E+04  0.19026967018E+04  0.50400001928E-02 0. -1.
       -1   -1    0    0    0  501  0.00000000000E+00  0.00000000000E+00 -0.25363619530E+03  0.25363619535E+03  0.50400001928E-02 0.  1.
    10030    2    1    2    0    0  0.00000000000E+00  0.00000000000E+00  0.16490605065E+04  0.21563328971E+04  0.13893779217E+04 0.  0.
        1    1    3    3  502    0  0.15834575866E+03 -0.88114701283E+02 -0.21630860732E+03  0.28218255349E+03  0.50400001928E-02 0.  1.
       -1    1    3    3    0  502 -0.15834575866E+03  0.88114701283E+02  0.18653691138E+04  0.18741503437E+04  0.50400001928E-02 0. -1.
</event>
<event>
 5   0  0.2172901E-03  0.1405435E+04  0.7818609E-02  0.8949894E-01
       -2   -1    0    0    0  501  0.00000000000E+00  0.00000000000E+00  0.31394569051E+03  0.31394569052E+03  0.25500000920E-02 0.  1.
        2   -1    0    0  501    0  0.00000000000E+00  0.00000000000E+00 -0.15729219420E+04  0.15729219420E+04  0.25500000920E-02 0. -1.
    10030    2    1    2    0    0  0.00000000000E+00  0.00000000000E+00 -0.12589762515E+04  0.18868676326E+04  0.14054352568E+04 0.  0.
        2    1    3    3  502    0  0.48902082227E+03  0.45334111065E+03 -0.33183971748E+03  0.74483362257E+03  0.25500000920E-02 0.  1.
       -2    1    3    3    0  502 -0.48902082227E+03 -0.45334111065E+03 -0.92713653404E+03  0.11420340100E+04  0.25500000920E-02 0. -1.
</event>
<event>
 5   0  0.1210275E-03  0.1575523E+04  0.7818609E-02  0.8835728E-01
        1   -1    0    0  501    0  0.00000000000E+00  0.00000000000E+00  0.10602906449E+04  0.10602906449E+04  0.50400001928E-02 0. -1.
       -1   -1    0    0    0  501  0.00000000000E+00  0.00000000000E+00 -0.58528085350E+03  0.58528085352E+03  0.50400001928E-02 0.  1.
    10030    2    1    2    0    0  0.00000000000E+00  0.00000000000E+00  0.47500979137E+03  0.16455714984E+04  0.15755225338E+04 0.  0.
        1    1    3    3  502    0  0.22800208145E+03 -0.47773048541E+03 -0.37183431947E+03  0.64689421623E+03  0.50400001928E-02 0.  1.
       -1    1    3    3    0  502 -0.22800208145E+03  0.47773048541E+03  0.84684411084E+03  0.99867728217E+03  0.50400001928E-02 0. -1.
</event>
<event>
 5   0  0.1225690E-03  0.1288112E+04  0.7818609E-02  0.9039046E-01
       -1   -1    0    0    0  501  0.00000000000E+00  0.00000000000E+00  0.22977582027E+03  0.22977582033E+03  0.50400001928E-02 0.  1.
        1   -1    0    0  501    0  0.00000000000E+00  0.00000000000E+00 -0.18052743263E+04  0.18052743263E+04  0.50400001928E-02 0. -1.
    10030    2    1    2    0    0  0.00000000000E+00  0.00000000000E+00 -0.15754985060E+04  0.20350501466E+04  0.12881124007E+04 0.  0.
        4    1    3    3  502    0 -0.10752185355E+03  0.25067268890E+03 -0.17095178118E+04  0.17311413887E+04  0.12699999809E+01 0. -1.
       -4    1    3    3    0  502  0.10752185355E+03 -0.25067268890E+03  0.13401930574E+03  0.30390875795E+03  0.12699999809E+01 0.  1.
</event>
<event>
 5   0  0.2190704E-03  0.1533005E+04  0.7818609E-02  0.8862797E-01
        2   -1    0    0  501    0  0.00000000000E+00  0.00000000000E+00  0.10293002634E+04  0.10293002634E+04  0.25500000920E-02 0. -1.
       -2   -1    0    0    0  501  0.00000000000E+00  0.00000000000E+00 -0.57080132551E+03  0.57080132552E+03  0.25500000920E-02 0.  1.
    10030    2    1    2    0    0  0.00000000000E+00  0.00000000000E+00  0.45849893790E+03  0.16001015889E+04  0.15330048333E+04 0.  0.
        5    1    3    3  502    0 -0.13096138514E+03 -0.54939707336E+03 -0.31161566266E+03  0.64506932947E+03  0.46999998093E+01 0.  1.
       -5    1    3    3    0  502  0.13096138514E+03  0.54939707336E+03  0.77011460056E+03  0.95503225946E+03  0.46999998093E+01 0. -1.
</event>
<event>
 5   0  0.2190704E-03  0.1398494E+04  0.7818609E-02  0.8954909E-01
        2   -1    0    0  501    0  0.00000000000E+00  0.00000000000E+00  0.19823510074E+04  0.19823510074E+04  0.25500000920E-02 0.  1.
       -2   -1    0    0    0  501  0.00000000000E+00  0.00000000000E+00 -0.24664973262E+03  0.24664973263E+03  0.25500000920E-02 0. -1.
    10030    2    1    2    0    0  0.00000000000E+00  0.00000000000E+00  0.17357012748E+04  0.22290007401E+04  0.13984939699E+04 0.  0.
        5    1    3    3  502    0  0.56995196452E+03  0.30888484554E+03  0.45018331133E+03  0.78926687088E+03  0.46999998093E+01 0.  1.
       -5    1    3    3    0  502 -0.56995196452E+03 -0.30888484554E+03  0.12855179635E+04  0.14397338692E+04  0.46999998093E+01 0. -1.
</event>
<event>
 5   0  0.1175374E-03  0.1359952E+04  0.7818609E-02  0.8983328E-01
        1   -1    0    0  501    0  0.00000000000E+00  0.00000000000E+00  0.85128136604E+03  0.85128136606E+03  0.50400001928E-02 0. -1.
       -1   -1    0    0    0  501  0.00000000000E+00  0.00000000000E+00 -0.54314308285E+03  0.54314308287E+03  0.50400001928E-02 0.  1.
    10030    2    1    2    0    0  0.00000000000E+00  0.00000000000E+00  0.30813828320E+03  0.13944244489E+04  0.13599523309E+04 0.  0.
        3    1    3    3  502    0  0.58663749343E+03 -0.91404603982E+02 -0.18579812107E+03  0.62210875441E+03  0.10100000352E+00 0.  1.
       -3    1    3    3    0  502 -0.58663749343E+03  0.91404603982E+02  0.49393640427E+03  0.77231569451E+03  0.10100000352E+00 0. -1.
</event>
<event>
 5   0  0.1225690E-03  0.1413227E+04  0.7818609E-02  0.8944299E-01
       -1   -1    0    0    0  501  0.00000000000E+00  0.00000000000E+00  0.34949734822E+03  0.34949734826E+03  0.50400001928E-02 0.  1.
        1   -1    0    0  501    0  0.00000000000E+00  0.00000000000E+00 -0.14286307962E+04  0.14286307962E+04  0.50400001928E-02 0. -1.
    10030    2    1    2    0    0  0.00000000000E+00  0.00000000000E+00 -0.10791334480E+04  0.17781281445E+04  0.14132270517E+04 0.  0.
        4    1    3    3  502    0 -0.31765972836E+03 -0.59339713931E+03 -0.26891184951E+03  0.72480553507E+03  0.12699999809E+01 0.  1.
       -4    1    3    3    0  502  0.31765972836E+03  0.59339713931E+03 -0.81022159847E+03  0.10533226094E+04  0.12699999809E+01 0. -1.
</event>
<event>
 5   0  0.1225690E-03  0.1401361E+04  0.7818609E-02  0.8952834E-01
       -1   -1    0    0    0  501  0.00000000000E+00  0.00000000000E+00  0.88241725392E+03  0.88241725394E+03  0.50400001928E-02 0.  1.
        1   -1    0    0  501    0  0.00000000000E+00  0.00000000000E+00 -0.55637336842E+03  0.55637336844E+03  0.50400001928E-02 0. -1.
    10030    2    1    2    0    0  0.00000000000E+00  0.00000000000E+00  0.32604388550E+03  0.14387906224E+04  0.14013614237E+04 0.  0.
        4    1    3    3  502    0  0.43890012234E+03 -0.17032473098E+02  0.72352280349E+03  0.84641023304E+03  0.12699999809E+01 0.  1.
       -4    1    3    3    0  502 -0.43890012234E+03  0.17032473098E+02 -0.39747891798E+03  0.59238038933E+03  0.12699999809E+01 0. -1.
</event>
<event>
 5   0  0.2195980E-03  0.1412640E+04  0.7818609E-02  0.8944720E-01
        2   -1    0    0  501    0  0.00000000000E+00  0.00000000000E+00  0.55871188035E+03  0.55871188035E+03  0.25500000920E-02 0.  1.
       -2   -1    0    0    0  501  0.00000000000E+00  0.00000000000E+00 -0.89292492053E+03  0.89292492054E+03  0.25500000920E-02 0. -1.
    10030    2    1    2    0    0  0.00000000000E+00  0.00000000000E+00 -0.33421304019E+03  0.14516368009E+04  0.14126397437E+04 0.  0.
        4    1    3    3  502    0 -0.83975650386E+02  0.67233463207E+03 -0.37211421589E+03  0.77301770349E+03  0.12699999809E+01 0.  1.
       -4    1    3    3    0  502  0.83975650386E+02 -0.67233463207E+03  0.37901175705E+02  0.67861909740E+03  0.12699999809E+01 0. -1.
</event>
<event>
 5   0  0.8293000E-04  0.1456152E+04  0.7818609E-02  0.8914146E-01
       -3   -1    0    0    0  501  0.00000000000E+00  0.00000000000E+00  0.83586995808E+03  0.83586996418E+03  0.10100000352E+00 0.  1.
        3   -1    0    0  501    0  0.00000000000E+00  0.00000000000E+00 -0.63418357287E+03  0.63418358091E+03  0.10100000352E+00 0. -1.
    10030    2    1    2    0    0  0.00000000000E+00  0.00000000000E+00  0.20168638521E+03  0.14700535451E+04  0.14561524740E+04 0.  0.
        2    1    3    3  502    0  0.11098278583E+03 -0.44986246703E+03 -0.46612440527E+03  0.65724073154E+03  0.25500000920E-02 0. -1.
       -2    1    3    3    0  502 -0.11098278583E+03  0.44986246703E+03  0.66781079048E+03  0.81281281356E+03  0.25500000920E-02 0.  1.
</event>
<event>
 5   0  0.1175374E-03  0.1425280E+04  0.7818609E-02  0.8935721E-01
       -1   -1    0    0    0  501  0.00000000000E+00  0.00000000000E+00  0.55912782563E+03  0.55912782565E+03  0.50400001928E-02 0.  1.
        1   -1    0    0  501    0  0.00000000000E+00  0.00000000000E+00 -0.90829935708E+03  0.90829935709E+03  0.50400001928E-02 0. -1.
    10030    2    1    2    0    0  0.00000000000E+00  0.00000000000E+00 -0.34917153145E+03  0.14674271827E+04  0.14252795439E+04 0.  0.
        3    1    3    3  502    0  0.35913016104E+03  0.10964918043E+03  0.44901338634E+03  0.58532934887E+03  0.10100000352E+00 0.  1.
       -3    1    3    3    0  502 -0.35913016104E+03 -0.10964918043E+03 -0.79818491779E+03  0.88209783388E+03  0.10100000352E+00 0. -1.
</event>
<event>
 5   0  0.2172901E-03  0.1408280E+04  0.7818609E-02  0.8947847E-01
       -2   -1    0    0    0  501  0.00000000000E+00  0.00000000000E+00  0.20418472613E+03  0.20418472615E+03  0.25500000920E-02 0. -1.
        2   -1    0    0  501    0  0.00000000000E+00  0.00000000000E+00 -0.24282562148E+04  0.24282562148E+04  0.25500000920E-02 0.  1.
    10030    2    1    2    0    0  0.00000000000E+00  0.00000000000E+00 -0.22240714887E+04  0.26324409410E+04  0.14082795606E+04 0.  0.
        2    1    3    3  502    0 -0.11463208979E+03  0.64159043323E+03 -0.61383658749E+03  0.89530673859E+03  0.25500000920E-02 0. -1.
       -2    1    3    3    0  502  0.11463208979E+03 -0.64159043323E+03 -0.16102349012E+04  0.17371342024E+04  0.25500000920E-02 0.  1.
</event>
<event>
 5   0  0.2190704E-03  0.1492046E+04  0.7818609E-02  0.8889759E-01
       -2   -1    0    0    0  501  0.00000000000E+00  0.00000000000E+00  0.85536059319E+03  0.85536059320E+03  0.25500000920E-02 0.  1.
        2   -1    0    0  501    0  0.00000000000E+00  0.00000000000E+00 -0.65066193942E+03  0.65066193942E+03  0.25500000920E-02 0. -1.
    10030    2    1    2    0    0  0.00000000000E+00  0.00000000000E+00  0.20469865377E+03  0.15060225326E+04  0.14920463565E+04 0.  0.
        5    1    3    3  502    0 -0.32116365751E+03 -0.17468412012E+03 -0.55402485502E+03  0.66379685650E+03  0.46999998093E+01 0. -1.
       -5    1    3    3    0  502  0.32116365751E+03  0.17468412012E+03  0.75872350879E+03  0.84222567612E+03  0.46999998093E+01 0.  1.
</event>
<event>
 5   0  0.2236184E-03  0.1429520E+04  0.7818609E-02  0.8932723E-01
        2   -1    0    0  501    0  0.00000000000E+00  0.00000000000E+00  0.25834867455E+04  0.25834867455E+04  0.25500000920E-02 0. -1.
       -2   -1    0    0    0  501  0.00000000000E+00  0.00000000000E+00 -0.19774892237E+03  0.19774892238E+03  0.25500000920E-02 0.  1.
    10030    2    1    2    0    0  0.00000000000E+00  0.00000000000E+00  0.23857378231E+04  0.27812356679E+04  0.14295198073E+04 0.  0.
        3    1    3    3  502    0 -0.36986502843E+03 -0.15814561893E+03  0.23423579392E+04  0.23766469872E+04  0.10100000352E+00 0. -1.
       -3    1    3    3    0  502  0.36986502843E+03  0.15814561893E+03  0.43379883944E+02  0.40458868073E+03  0.10100000352E+00 0.  1.
</event>
<event>
 5   0  0.1238683E-03  0.1416732E+04  0.7818609E-02  0.8941795E-01
        1   -1    0    0  501    0  0.00000000000E+00  0.00000000000E+00  0.22246725001E+04  0.22246725001E+04  0.50400001928E-02 0. -1.
       -1   -1    0    0    0  501  0.00000000000E+00  0.00000000000E+00 -0.22555347569E+03  0.22555347575E+03  0.50400001928E-02 0.  1.
    10030    2    1    2    0    0  0.00000000000E+00  0.00000000000E+00  0.19991190244E+04  0.24502259758E+04  0.14167323173E+04 0.  0.
        2    1    3    3  502    0  0.50935931732E+03 -0.34980256739E+03  0.40051145652E+03  0.73635465443E+03  0.25500000920E-02 0.  1.
       -2    1    3    3    0  502 -0.50935931732E+03  0.34980256739E+03  0.15986075679E+04  0.17138713214E+04  0.25500000920E-02 0. -1.
</event>
<event>
 5   0  0.2236184E-03  0.1413420E+04  0.7818609E-02  0.8944161E-01
       -2   -1    0    0    0  501  0.00000000000E+00  0.00000000000E+00  0.28854823599E+03  0.28854823600E+03  0.25500000920E-02 0.  1.
        2   -1    0    0  501    0  0.00000000000E+00  0.00000000000E+00 -0.17308683641E+04  0.17308683641E+04  0.25500000920E-02 0. -1.
    10030    2    1    2    0    0  0.00000000000E+00  0.00000000000E+00 -0.14423201281E+04  0.20194166001E+04  0.14134199846E+04 0.  0.
        3    1    3    3  502    0 -0.61078768419E+03 -0.20460201353E+03 -0.11365181614E+04  0.13063679116E+04  0.10100000352E+00 0. -1.
       -3    1    3    3    0  502  0.61078768419E+03  0.20460201353E+03 -0.30580196668E+03  0.71304868847E+03  0.10100000352E+00 0.  1.
</event>
<event>
 5   0  0.1199720E-03  0.1392981E+04  0.7818609E-02  0.8958915E-01
        1   -1    0    0  501    0  0.00000000000E+00  0.00000000000E+00  0.18162805071E+04  0.18162805071E+04  0.50400001928E-02 0. -1.
       -1   -1    0    0    0  501  0.00000000000E+00  0.00000000000E+00 -0.26708371832E+03  0.26708371836E+03  0.50400001928E-02 0.  1.
    10030    2    1    2    0    0  0.00000000000E+00  0.00000000000E+00  0.15491967888E+04  0.20833642255E+04  0.13929809064E+04 0.  0.
        5    1    3    3  502    0  0.51758742488E+03 -0.30470449568E+03  0.13019706076E+04  0.14338379006E+04  0.46999998093E+01 0. -1.
       -5    1    3    3    0  502 -0.51758742488E+03  0.30470449568E+03  0.24722618120E+03  0.64952632491E+03  0.46999998093E+01 0.  1.
</event>
<event>
 5   0  0.1175374E-03  0.1413943E+04  0.7818609E-02  0.8943787E-01
       -1   -1    0    0    0  501  0.00000000000E+00  0.00000000000E+00  0.64669549839E+03  0.64669549840E+03  0.50400001928E-02 0.  1.
        1   -1    0    0  501    0  0.00000000000E+00  0.00000000000E+00 -0.77286538424E+03  0.77286538426E+03  0.50400001928E-02 0. -1.
    10030    2    1    2    0    0  0.00000000000E+00  0.00000000000E+00 -0.12616988586E+03  0.14195608827E+04  0.14139428063E+04 0.  0.
        3    1    3    3  502    0  0.35744040935E+03  0.31662995204E+03 -0.58649157673E+03  0.75630057023E+03  0.10100000352E+00 0. -1.
       -3    1    3    3    0  502 -0.35744040935E+03 -0.31662995204E+03  0.46032169087E+03  0.66326031243E+03  0.10100000352E+00 0.  1.
</event>
<event>
 5   0  0.1225690E-03  0.1405384E+04  0.7818609E-02  0.8949931E-01
        1   -1    0    0  501    0  0.00000000000E+00  0.00000000000E+00  0.98151907447E+03  0.98151907449E+03  0.50400001928E-02 0.  1.
       -1   -1    0    0    0  501  0.00000000000E+00  0.00000000000E+00 -0.50307313688E+03  0.50307313690E+03  0.50400001928E-02 0. -1.
    10030    2    1    2    0    0  0.00000000000E+00  0.00000000000E+00  0.47844593760E+03  0.14845922114E+04  0.14053837622E+04 0.  0.
        4    1    3    3  502    0 -0.11360711767E+03  0.59318861295E+03  0.61862409526E+03  0.86456734374E+03  0.12699999809E+01 0.  1.
       -4    1    3    3    0  502  0.11360711767E+03 -0.59318861295E+03 -0.14017815767E+03  0.62002486765E+03  0.12699999809E+01 0. -1.
</event>
<event>
 5   0  0.2195980E-03  0.1440860E+04  0.7818609E-02  0.8924762E-01
        2   -1    0    0  501    0  0.00000000000E+00  0.00000000000E+00  0.15179448688E+04  0.15179448688E+04  0.25500000920E-02 0. -1.
       -2   -1    0    0    0  501  0.00000000000E+00  0.00000000000E+00 -0.34192233333E+03  0.34192233334E+03  0.25500000920E-02 0.  1.
    10030    2    1    2    0    0  0.00000000000E+00  0.00000000000E+00  0.11760225355E+04  0.18598672022E+04  0.14408598147E+04 0.  0.
        4    1    3    3  502    0  0.42089000078E+03 -0.35102766839E+03 -0.15567254601E+02  0.54828165120E+03  0.12699999809E+01 0.  1.
       -4    1    3    3    0  502 -0.42089000078E+03  0.35102766839E+03  0.11915897901E+04  0.13115855510E+04  0.12699999809E+01 0. -1.
</event>
<event>
 5   0  0.1225690E-03  0.1461998E+04  0.7818609E-02  0.8910125E-01
       -1   -1    0    0    0  501  0.00000000000E+00  0.00000000000E+00  0.36899486947E+03  0.36899486951E+03  0.50400001928E-02 0.  1.
        1   -1    0    0  501    0  0.00000000000E+00  0.00000000000E+00 -0.14481485461E+04  0.14481485461E+04  0.50400001928E-02 0. -1.
    10030    2    1    2    0    0  0.00000000000E+00  0.00000000000E+00 -0.10791536767E+04  0.18171434157E+04  0.14619977891E+04 0.  0.
        4    1    3    3  502    0 -0.65714788947E+03  0.83052448466E+02 -0.92391135882E+03  0.11368178701E+04  0.12699999809E+01 0. -1.
       -4    1    3    3    0  502  0.65714788947E+03 -0.83052448466E+02 -0.15524231784E+03  0.68032554559E+03  0.12699999809E+01 0.  1.
</event>
<event>
 5   0  0.2190704E-03  0.1398883E+04  0.7818609E-02  0.8954628E-01
        2   -1    0    0  501    0  0.00000000000E+00  0.00000000000E+00  0.69095254075E+03  0.69095254076E+03  0.25500000920E-02 0.  1.
       -2   -1    0    0    0  501  0.00000000000E+00  0.00000000000E+00 -0.70803469736E+03  0.70803469736E+03  0.25500000920E-02 0. -1.
    10030    2    1    2    0    0  0.00000000000E+00  0.00000000000E+00 -0.17082156610E+02  0.13989872381E+04  0.13988829445E+04 0.  0.
        5    1    3    3  502    0 -0.11288301565E+03  0.47431455389E+03  0.49297353893E+03  0.69336993830E+03  0.46999998093E+01 0.  1.
       -5    1    3    3    0  502  0.11288301565E+03 -0.47431455389E+03 -0.51005569554E+03  0.70561729982E+03  0.46999998093E+01 0. -1.
</event>
<event>
 5   0  0.1175374E-03  0.1406298E+04  0.7818609E-02  0.8949272E-01
       -1   -1    0    0    0  501  0.00000000000E+00  0.00000000000E+00  0.12672808364E+04  0.12672808364E+04  0.50400001928E-02 0.  1.
        1   -1    0    0  501    0  0.00000000000E+00  0.00000000000E+00 -0.39014132311E+03  0.39014132315E+03  0.50400001928E-02 0. -1.
    10030    2    1    2    0    0  0.00000000000E+00  0.00000000000E+00  0.87713951327E+03  0.16574221595E+04  0.14062981509E+04 0.  0.
        3    1    3    3  502    0  0.49219234557E+03  0.50162978104E+03  0.46577585738E+03  0.84310906873E+03  0.10100000352E+00 0.  1.
       -3    1    3    3    0  502 -0.49219234557E+03 -0.50162978104E+03  0.41136365589E+03  0.81431309080E+03  0.10100000352E+00 0. -1.
</event>
<event>
 5   0  0.2172901E-03  0.1396176E+04  0.7818609E-02  0.8956591E-01
        2   -1    0    0  501    0  0.00000000000E+00  0.00000000000E+00  0.14598018652E+04  0.14598018652E+04  0.25500000920E-02 0. -1.
       -2   -1    0    0    0  501  0.00000000000E+00  0.00000000000E+00 -0.33383073532E+03  0.33383073533E+03  0.25500000920E-02 0.  1.
    10030    2    1    2    0    0  0.00000000000E+00  0.00000000000E+00  0.11259711299E+04  0.17936326006E+04  0.13961758200E+04 0.  0.
        2    1    3    3  502    0 -0.48328322488E+03 -0.41383772742E+03  0.19398533100E+03  0.66517264581E+03  0.25500000920E-02 0.  1.
       -2    1    3    3    0  502  0.48328322488E+03  0.41383772742E+03  0.93198579892E+03  0.11284599548E+04  0.25500000920E-02 0. -1.
</event>
<event>
 5   0  0.2195980E-03  0.1377758E+04  0.7818609E-02  0.8970078E-01
       -2   -1    0    0    0  501  0.00000000000E+00  0.00000000000E+00  0.24952329685E+03  0.24952329686E+03  0.25500000920E-02 0.  1.
        2   -1    0    0  501    0  0.00000000000E+00  0.00000000000E+00 -0.19018441070E+04  0.19018441070E+04  0.25500000920E-02 0. -1.
    10030    2    1    2    0    0  0.00000000000E+00  0.00000000000E+00 -0.16523208101E+04  0.21513674038E+04  0.13777581960E+04 0.  0.
        4    1    3    3  502    0 -0.36568949919E+03 -0.57130299123E+03 -0.63854077650E+03  0.93158566635E+03  0.12699999809E+01 0.  1.
       -4    1    3    3    0  502  0.36568949919E+03  0.57130299123E+03 -0.10137800336E+04  0.12197817375E+04  0.12699999809E+01 0. -1.
</event>
<event>
 5   0  0.2172901E-03  0.1408628E+04  0.7818609E-02  0.8947596E-01
        2   -1    0    0  501    0  0.00000000000E+00  0.00000000000E+00  0.20061294037E+04  0.20061294037E+04  0.25500000920E-02 0. -1.
       -2   -1    0    0    0  501  0.00000000000E+00  0.00000000000E+00 -0.24727142350E+03  0.24727142352E+03  0.25500000920E-02 0.  1.
    10030    2    1    2    0    0  0.00000000000E+00  0.00000000000E+00  0.17588579802E+04  0.22534008272E+04  0.14086283731E+04 0.  0.
        2    1    3    3  502    0  0.44701569502E+03 -0.16022295972E+03  0.17115319351E+04  0.17761857992E+04  0.25500000920E-02 0. -1.
       -2    1    3    3    0  502 -0.44701569502E+03  0.16022295972E+03  0.47326045103E+02  0.47721502802E+03  0.25500000920E-02 0.  1.
</event>
<event>
 5   0  0.1225690E-03  0.1377613E+04  0.7818609E-02  0.8970185E-01
        1   -1    0    0  501    0  0.00000000000E+00  0.00000000000E+00  0.15246130230E+04  0.15246130230E+04  0.50400001928E-02 0.  1.
       -1   -1    0    0    0  501  0.00000000000E+00  0.00000000000E+00 -0.31119643893E+03  0.31119643897E+03  0.50400001928E-02 0. -1.
    10030    2    1    2    0    0  0.00000000000E+00  0.00000000000E+00  0.12134165840E+04  0.18358094620E+04  0.13776126357E+04 0.  0.
        4    1    3    3  502    0  0.26810341764E+03 -0.41280250033E+03  0.12488056798E+04  0.13423124024E+04  0.12699999809E+01 0.  1.
       -4    1    3    3    0  502 -0.26810341764E+03  0.41280250033E+03 -0.35389095727E+02  0.49349705959E+03  0.12699999809E+01 0. -1.
</event>
<event>
 5   0  0.2190704E-03  0.1404838E+04  0.7818609E-02  0.8950324E-01
       -2   -1    0    0    0  501  0.00000000000E+00  0.00000000000E+00  0.29043962152E+03  0.29043962153E+03  0.25500000920E-02 0. -1.
        2   -1    0    0  501    0  0.00000000000E+00  0.00000000000E+00 -0.16987772906E+04  0.16987772906E+04  0.25500000920E-02 0.  1.
    10030    2    1    2    0    0  0.00000000000E+00  0.00000000000E+00 -0.14083376691E+04  0.19892169122E+04  0.14048376893E+04 0.  0.
        5    1    3    3  502    0  0.34089334343E+02 -0.24215632585E+03 -0.16365313201E+04  0.16547080167E+04  0.46999998093E+01 0.  1.
       -5    1    3    3    0  502 -0.34089334343E+02  0.24215632585E+03  0.22819365092E+03  0.33450889552E+03  0.46999998093E+01 0. -1.
</event>
<event>
 5   0  0.1238683E-03  0.1392885E+04  0.7818609E-02  0.8958985E-01
       -1   -1    0    0    0  501  0.00000000000E+00  0.00000000000E+00  0.33287138998E+03  0.33287139002E+03  0.50400001928E-02 0.  1.
        1   -1    0    0  501    0  0.00000000000E+00  0.00000000000E+00 -0.14571147782E+04  0.14571147782E+04  0.50400001928E-02 0. -1.
    10030    2    1    2    0    0  0.00000000000E+00  0.00000000000E+00 -0.11242433882E+04  0.17899861682E+04  0.13928845202E+04 0.  0.
        2    1    3    3  502    0  0.45272990957E+01  0.53424457682E+03 -0.11362492165E+04  0.12555875303E+04  0.25500000920E-02 0. -1.
       -2    1    3    3    0  502 -0.45272990957E+01 -0.53424457682E+03  0.12005828267E+02  0.53439863792E+03  0.25500000920E-02 0.  1.
</event>
<event>
 5   0  0.1210275E-03  0.1414745E+04  0.7818609E-02  0.8943214E-01
       -1   -1    0    0    0  501  0.00000000000E+00  0.00000000000E+00  0.53957700921E+03  0.53957700924E+03  0.50400001928E-02 0.  1.
        1   -1    0    0  501    0  0.00000000000E+00  0.00000000000E+00 -0.92734876468E+03  0.92734876469E+03  0.50400001928E-02 0. -1.
    10030    2    1    2    0    0  0.00000000000E+00  0.00000000000E+00 -0.38777175546E+03  0.14669257739E+04  0.14147453099E+04 0.  0.
        1    1    3    3  502    0 -0.66995446611E+03  0.11318782924E+03 -0.39793228998E+03  0.78740115492E+03  0.50400001928E-02 0. -1.
       -1    1    3    3    0  502  0.66995446611E+03 -0.11318782924E+03  0.10160534518E+02  0.67952461900E+03  0.50400001928E-02 0.  1.
</event>
<event>
 5   0  0.1199720E-03  0.1396914E+04  0.7818609E-02  0.8956055E-01
       -1   -1    0    0    0  501  0.00000000000E+00  0.00000000000E+00  0.62705872629E+03  0.62705872631E+03  0.50400001928E-02 0.  1.
        1   -1    0    0  501    0  0.00000000000E+00  0.00000000000E+00 -0.77798477521E+03  0.77798477522E+03  0.50400001928E-02 0. -1.
    10030    2    1    2    0    0  0.00000000000E+00  0.00000000000E+00 -0.15092604892E+03  0.14050435015E+04  0.13969139447E+04 0.  0.
        5    1    3    3  502    0 -0.32389389691E+03 -0.46538445086E+03 -0.48567237298E+03  0.74658535174E+03  0.46999998093E+01 0. -1.
       -5    1    3    3    0  502  0.32389389691E+03  0.46538445086E+03  0.33474632406E+03  0.65845814979E+03  0.46999998093E+01 0.  1.
</event>
<event>
 5   0  0.1225690E-03  0.1396647E+04  0.7818609E-02  0.8956249E-01
       -1   -1    0    0    0  501  0.00000000000E+00  0.00000000000E+00  0.49297382064E+03  0.49297382067E+03  0.50400001928E-02 0.  1.
        1   -1    0    0  501    0  0.00000000000E+00  0.00000000000E+00 -0.98921188593E+03  0.98921188594E+03  0.50400001928E-02 0. -1.
    10030    2    1    2    0    0  0.00000000000E+00  0.00000000000E+00 -0.49623806529E+03  0.14821857066E+04  0.13966467884E+04 0.  0.
        4    1    3    3  502    0  0.16137054559E+03  0.15709795091E+03 -0.94961280580E+03  0.97595405271E+03  0.12699999809E+01 0. -1.
       -4    1    3    3    0  502 -0.16137054559E+03 -0.15709795091E+03  0.45337474052E+03  0.50623165389E+03  0.12699999809E+01 0.  1.
</event>
<event>
 5   0  0.2083966E-03  0.1409673E+04  0.7818609E-02  0.8946847E-01
       -2   -1    0    0    0  501  0.00000000000E+00  0.00000000000E+00  0.11443968734E+04  0.11443968734E+04  0.25500000920E-02 0. -1.
        2   -1    0    0  501    0  0.00000000000E+00  0.00000000000E+00 -0.43411003761E+03  0.43411003761E+03  0.25500000920E-02 0.  1.
    10030    2    1    2    0    0  0.00000000000E+00  0.00000000000E+00  0.71028683579E+03  0.15785069110E+04  0.14096725432E+04 0.  0.
        1    1    3    3  502    0 -0.18484945793E+03 -0.14121813950E+03 -0.38988753826E+03  0.45400900601E+03  0.50400001928E-02 0.  1.
       -1    1    3    3    0  502  0.18484945793E+03  0.14121813950E+03  0.11001743740E+04  0.11244979050E+04  0.50400001928E-02 0. -1.
</event>
<event>
 5   0  0.1210275E-03  0.1421010E+04  0.7818609E-02  0.8938750E-01
        1   -1    0    0  501    0  0.00000000000E+00  0.00000000000E+00  0.13749496369E+04  0.13749496369E+04  0.50400001928E-02 0. -1.
       -1   -1    0    0    0  501  0.00000000000E+00  0.00000000000E+00 -0.36715314193E+03  0.36715314196E+03  0.50400001928E-02 0.  1.
    10030    2    1    2    0    0  0.00000000000E+00  0.00000000000E+00  0.10077964949E+04  0.17421027788E+04  0.14210096118E+04 0.  0.
        1    1    3    3  502    0 -0.85187111963E+02 -0.47684605888E+03  0.11411364537E+04  0.12396900475E+04  0.50400001928E-02 0. -1.
       -1    1    3    3    0  502  0.85187111963E+02  0.47684605888E+03 -0.13333995881E+03  0.50241273128E+03  0.50400001928E-02 0.  1.
</event>
<event>
 5   0  0.2236184E-03  0.1458644E+04  0.7818609E-02  0.8912430E-01
        2   -1    0    0  501    0  0.00000000000E+00  0.00000000000E+00  0.16568766942E+04  0.16568766942E+04  0.25500000920E-02 0. -1.
       -2   -1    0    0    0  501  0.00000000000E+00  0.00000000000E+00 -0.32103219515E+03  0.32103219516E+03  0.25500000920E-02 0.  1.
    10030    2    1    2    0    0  0.00000000000E+00  0.00000000000E+00  0.13358444991E+04  0.19779088894E+04  0.14586442503E+04 0.  0.
        3    1    3    3  502    0 -0.36518457574E+03  0.33685479398E+03  0.13919248732E+04  0.14779329448E+04  0.10100000352E+00 0. -1.
       -3    1    3    3    0  502  0.36518457574E+03 -0.33685479398E+03 -0.56080374115E+02  0.49997594457E+03  0.10100000352E+00 0.  1.
</event>
<event>
 5   0  0.2083966E-03  0.1419208E+04  0.7818609E-02  0.8940031E-01
       -2   -1    0    0    0  501  0.00000000000E+00  0.00000000000E+00  0.40879861566E+03  0.40879861567E+03  0.25500000920E-02 0. -1.
        2   -1    0    0  501    0  0.00000000000E+00  0.00000000000E+00 -0.12317500847E+04  0.12317500847E+04  0.25500000920E-02 0.  1.
    10030    2    1    2    0    0  0.00000000000E+00  0.00000000000E+00 -0.82295146903E+03  0.16405487004E+04  0.14192078487E+04 0.  0.
        1    1    3    3  502    0  0.38080565865E+03 -0.48066437572E+03  0.12630550049E+01  0.61323143028E+03  0.50400001928E-02 0. -1.
       -1    1    3    3    0  502 -0.38080565865E+03  0.48066437572E+03 -0.82421452403E+03  0.10273172701E+04  0.50400001928E-02 0.  1.
</event>
<event>
 5   0  0.2083966E-03  0.1394383E+04  0.7818609E-02  0.8957895E-01
       -2   -1    0    0    0  501  0.00000000000E+00  0.00000000000E+00  0.10779554703E+04  0.10779554703E+04  0.25500000920E-02 0.  1.
        2   -1    0    0  501    0  0.00000000000E+00  0.00000000000E+00 -0.45092383781E+03  0.45092383782E+03  0.25500000920E-02 0. -1.
    10030    2    1    2    0    0  0.00000000000E+00  0.00000000000E+00  0.62703163247E+03  0.15288793081E+04  0.13943827561E+04 0.  0.
        1    1    3    3  502    0 -0.21300208381E+03 -0.49447736774E+03  0.79918277358E+03  0.96362381691E+03  0.50400001928E-02 0.  1.
       -1    1    3    3    0  502  0.21300208381E+03  0.49447736774E+03 -0.17215114111E+03  0.56525549119E+03  0.50400001928E-02 0. -1.
</event>
<event>
 5   0  0.2190704E-03  0.1391708E+04  0.7818609E-02  0.8959843E-01
        2   -1    0    0  501    0  0.00000000000E+00  0.00000000000E+00  0.50125207742E+03  0.50125207743E+03  0.25500000920E-02 0. -1.
       -2   -1    0    0    0  501  0.00000000000E+00  0.00000000000E+00 -0.96600597541E+03  0.96600597541E+03  0.25500000920E-02 0.  1.
    10030    2    1    2    0    0  0.00000000000E+00  0.00000000000E+00 -0.46475389799E+03  0.14672580528E+04  0.13917075871E+04 0.  0.
        5    1    3    3  502    0 -0.30295352000E+03 -0.54200691510E+03 -0.56349344187E+03  0.83851015517E+03  0.46999998093E+01 0.  1.
       -5    1    3    3    0  502  0.30295352000E+03  0.54200691510E+03  0.98739543885E+02  0.62874789766E+03  0.46999998093E+01 0. -1.
</event>
<event>
 5   0  0.1199720E-03  0.1399259E+04  0.7818609E-02  0.8954355E-01
        1   -1    0    0  501    0  0.00000000000E+00  0.00000000000E+00  0.47686166921E+03  0.47686166923E+03  0.50400001928E-02 0. -1.
       -1   -1    0    0    0  501  0.00000000000E+00  0.00000000000E+00 -0.10264636687E+04  0.10264636687E+04  0.50400001928E-02 0.  1.
    10030    2    1    2    0    0  0.00000000000E+00  0.00000000000E+00 -0.54960199946E+03  0.15033253379E+04  0.13992586301E+04 0.  0.
        5    1    3    3  502    0 -0.20149128955E+03 -0.33772782698E+03  0.34685177843E+03  0.52439209670E+03  0.46999998093E+01 0. -1.
       -5    1    3    3    0  502  0.20149128955E+03  0.33772782698E+03 -0.89645377789E+03  0.97893324122E+03  0.46999998093E+01 0.  1.
</event>
<event>
 5   0  0.2236184E-03  0.1385138E+04  0.7818609E-02  0.8964647E-01
       -2   -1    0    0    0  501  0.00000000000E+00  0.00000000000E+00  0.78050539478E+03  0.78050539478E+03  0.25500000920E-02 0.  1.
        2   -1    0    0  501    0  0.00000000000E+00  0.00000000000E+00 -0.61453993503E+03  0.61453993504E+03  0.25500000920E-02 0. -1.
    10030    2    1    2    0    0  0.00000000000E+00  0.00000000000E+00  0.16596545974E+03  0.13950453298E+04  0.13851378770E+04 0.  0.
        3    1    3    3  502    0 -0.50980442438E+03 -0.33662492113E+03 -0.24559430894E+03  0.65843258078E+03  0.10100000352E+00 0.  1.
       -3    1    3    3    0  502  0.50980442438E+03  0.33662492113E+03  0.41155976869E+03  0.73661274904E+03  0.10100000352E+00 0. -1.
</event>
<event>
 5   0  0.1238683E-03  0.1391892E+04  0.7818609E-02  0.8959708E-01
       -1   -1    0    0    0  501  0.00000000000E+00  0.00000000000E+00  0.75897359725E+03  0.75897359727E+03  0.50400001928E-02 0.  1.
        1   -1    0    0  501    0  0.00000000000E+00  0.00000000000E+00 -0.63815250125E+03  0.63815250127E+03  0.50400001928E-02 0. -1.
    10030    2    1    2    0    0  0.00000000000E+00  0.00000000000E+00  0.12082109599E+03  0.13971260985E+04  0.13918920928E+04 0.  0.
        2    1    3    3  502    0  0.24201215297E+02 -0.66829977593E+03 -0.13300709237E+03  0.68183661970E+03  0.25500000920E-02 0.  1.
       -2    1    3    3    0  502 -0.24201215297E+02  0.66829977593E+03  0.25382818836E+03  0.71528947884E+03  0.25500000920E-02 0. -1.
</event>
<event>
 5   0  0.1210275E-03  0.1443984E+04  0.7818609E-02  0.8922582E-01
       -1   -1    0    0    0  501  0.00000000000E+00  0.00000000000E+00  0.76506394099E+03  0.76506394101E+03  0.50400001928E-02 0. -1.
        1   -1    0    0  501    0  0.00000000000E+00  0.00000000000E+00 -0.68134496124E+03  0.68134496126E+03  0.50400001928E-02 0.  1.
    10030    2    1    2    0    0  0.00000000000E+00  0.00000000000E+00  0.83718979746E+02  0.14464089023E+04  0.14439840183E+04 0.  0.
        1    1    3    3  502    0  0.10805847725E+03 -0.67506287519E+03  0.27438276755E+03  0.73666303228E+03  0.50400001928E-02 0.  1.
       -1    1    3    3    0  502 -0.10805847725E+03  0.67506287519E+03 -0.19066378780E+03  0.70974586999E+03  0.50400001928E-02 0. -1.
</event>
<event>
 5   0  0.1175374E-03  0.1373464E+04  0.7818609E-02  0.8973254E-01
        1   -1    0    0  501    0  0.00000000000E+00  0.00000000000E+00  0.56044910316E+03  0.56044910319E+03  0.50400001928E-02 0.  1.
       -1   -1    0    0    0  501  0.00000000000E+00  0.00000000000E+00 -0.84146941794E+03  0.84146941795E+03  0.50400001928E-02 0. -1.
    10030    2    1    2    0    0  0.00000000000E+00  0.00000000000E+00 -0.28102031477E+03  0.14019185211E+04  0.13734639138E+04 0.  0.
        3    1    3    3  502    0 -0.60715575251E+03 -0.34155473770E+02 -0.46617510602E+03  0.76624013460E+03  0.10100000352E+00 0. -1.
       -3    1    3    3    0  502  0.60715575251E+03  0.34155473770E+02  0.18515479125E+03  0.63567838654E+03  0.10100000352E+00 0.  1.
</event>
<event>
 5   0  0.1175374E-03  0.1286144E+04  0.7818609E-02  0.9040626E-01
       -1   -1    0    0    0  501  0.00000000000E+00  0.00000000000E+00  0.64040045548E+03  0.64040045550E+03  0.50400001928E-02 0. -1.
        1   -1    0    0  501    0  0.00000000000E+00  0.00000000000E+00 -0.64575427838E+03  0.64575427840E+03  0.50400001928E-02 0.  1.
    10030    2    1    2    0    0  0.00000000000E+00  0.00000000000E+00 -0.53538229014E+01  0.12861547339E+04  0.12861435908E+04 0.  0.
        3    1    3    3  502    0 -0.19983799005E+03 -0.61929434334E+02 -0.61077004093E+03  0.64560865097E+03  0.10100000352E+00 0.  1.
       -3    1    3    3    0  502  0.19983799005E+03  0.61929434334E+02  0.60541621803E+03  0.64054608293E+03  0.10100000352E+00 0. -1.
</event>
<event>
 5   0  0.2172901E-03  0.1663480E+04  0.7818609E-02  0.8782472E-01
       -2   -1    0    0    0  501  0.00000000000E+00  0.00000000000E+00  0.78103656598E+03  0.78103656599E+03  0.25500000920E-02 0. -1.
        2   -1    0    0  501    0  0.00000000000E+00  0.00000000000E+00 -0.88573476542E+03  0.88573476542E+03  0.25500000920E-02 0.  1.
    10030    2    1    2    0    0  0.00000000000E+00  0.00000000000E+00 -0.10469819944E+03  0.16667713314E+04  0.16634797739E+04 0.  0.
        2    1    3    3  502    0  0.42742846085E+03 -0.55850719808E+03  0.39256314261E+03  0.80543851434E+03  0.25500000920E-02 0. -1.
       -2    1    3    3    0  502 -0.42742846085E+03  0.55850719808E+03 -0.49726134205E+03  0.86133281706E+03  0.25500000920E-02 0.  1.
</event>
<event>
 5   0  0.1199720E-03  0.1342255E+04  0.7818609E-02  0.8996712E-01
       -1   -1    0    0    0  501  0.00000000000E+00  0.00000000000E+00  0.42162100999E+03  0.42162101002E+03  0.50400001928E-02 0. -1.
        1   -1    0    0  501    0  0.00000000000E+00  0.00000000000E+00 -0.10682860353E+04  0.10682860353E+04  0.50400001928E-02 0.  1.
    10030    2    1    2    0    0  0.00000000000E+00  0.00000000000E+00 -0.64666502531E+03  0.14899070453E+04  0.13422545767E+04 0.  0.
        5    1    3    3  502    0  0.46438773921E+03  0.48446690129E+03 -0.32894834124E+03  0.74739096327E+03  0.46999998093E+01 0. -1.
       -5    1    3    3    0  502 -0.46438773921E+03 -0.48446690129E+03 -0.31771668407E+03  0.74251608206E+03  0.46999998093E+01 0.  1.
</event>
<event>
 5   0  0.2190704E-03  0.1317182E+04  0.7818609E-02  0.9016049E-01
       -2   -1    0    0    0  501  0.00000000000E+00  0.00000000000E+00  0.30640118506E+03  0.30640118508E+03  0.25500000920E-02 0.  1.
        2   -1    0    0  501    0  0.00000000000E+00  0.00000000000E+00 -0.14156029023E+04  0.14156029023E+04  0.25500000920E-02 0. -1.
    10030    2    1    2    0    0  0.00000000000E+00  0.00000000000E+00 -0.11092017172E+04  0.17220040873E+04  0.13171824579E+04 0.  0.
        5    1    3    3  502    0  0.60505853602E+03 -0.19543646193E+03 -0.77887362476E+03  0.10054638014E+04  0.46999998093E+01 0.  1.
       -5    1    3    3    0  502 -0.60505853602E+03  0.19543646193E+03 -0.33032809244E+03  0.71654028590E+03  0.46999998093E+01 0. -1.
</event>
<event>
 5   0  0.1238683E-03  0.1363171E+04  0.7818609E-02  0.8980917E-01
        1   -1    0    0  501    0  0.00000000000E+00  0.00000000000E+00  0.22621030632E+04  0.22621030632E+04  0.50400001928E-02 0.  1.
       -1   -1    0    0    0  501  0.00000000000E+00  0.00000000000E+00 -0.20536581276E+03  0.20536581283E+03  0.50400001928E-02 0. -1.
    10030    2    1    2    0    0  0.00000000000E+00  0.00000000000E+00  0.20567372504E+04  0.24674688760E+04  0.13631707658E+04 0.  0.
        2    1    3    3  502    0  0.42622613078E+03  0.39934901072E+03  0.39248579114E+03  0.70369982463E+03  0.25500000920E-02 0. -1.
       -2    1    3    3    0  502 -0.42622613078E+03 -0.39934901072E+03  0.16642514593E+04  0.17637690514E+04  0.25500000920E-02 0.  1.
</event>
<event>
 5   0  0.8293000E-04  0.1410742E+04  0.7818609E-02  0.8946079E-01
       -4   -1    0    0    0  501  0.00000000000E+00  0.00000000000E+00  0.71998254086E+03  0.71998366095E+03  0.12699999809E+01 0. -1.
        4   -1    0    0  501    0  0.00000000000E+00  0.00000000000E+00 -0.69105386738E+03  0.69105503437E+03  0.12699999809E+01 0.  1.
    10030    2    1    2    0    0  0.00000000000E+00  0.00000000000E+00  0.28928673473E+02  0.14110386953E+04  0.14107421209E+04 0.  0.
        2    1    3    3  502    0  0.90914919735E+02  0.25640887912E+03 -0.63646990930E+03  0.69217409759E+03  0.25500000920E-02 0.  1.
       -2    1    3    3    0  502 -0.90914919735E+02 -0.25640887912E+03  0.66539858277E+03  0.71886459774E+03  0.25500000920E-02 0. -1.
</event>
<event>
 5   0  0.1210275E-03  0.1377273E+04  0.7818609E-02  0.8970436E-01
        1   -1    0    0  501    0  0.00000000000E+00  0.00000000000E+00  0.92489696541E+03  0.92489696543E+03  0.50400001928E-02 0. -1.
       -1   -1    0    0    0  501  0.00000000000E+00  0.00000000000E+00 -0.51272755058E+03  0.51272755061E+03  0.50400001928E-02 0.  1.
    10030    2    1    2    0    0  0.00000000000E+00  0.00000000000E+00  0.41216941483E+03  0.14376245160E+04  0.13772728933E+04 0.  0.
        1    1    3    3  502    0  0.16876371444E+03 -0.21281075045E+03 -0.45445650130E+03  0.52943396039E+03  0.50400001928E-02 0.  1.
       -1    1    3    3    0  502 -0.16876371444E+03  0.21281075045E+03  0.86662591613E+03  0.90819055564E+03  0.50400001928E-02 0. -1.
</event>
<event>
 5   0  0.1238683E-03  0.1384835E+04  0.7818609E-02  0.8964869E-01
        1   -1    0    0  501    0  0.00000000000E+00  0.00000000000E+00  0.64965403509E+03  0.64965403511E+03  0.50400001928E-02 0. -1.
       -1   -1    0    0    0  501  0.00000000000E+00  0.00000000000E+00 -0.73799628437E+03  0.73799628438E+03  0.50400001928E-02 0.  1.
    10030    2    1    2    0    0  0.00000000000E+00  0.00000000000E+00 -0.88342249276E+02  0.13876503195E+04  0.13848353896E+04 0.  0.
        2    1    3    3  502    0  0.13980280941E+03  0.66899032913E+03  0.67182518266E+02  0.68673603135E+03  0.25500000920E-02 0. -1.
       -2    1    3    3    0  502 -0.13980280941E+03 -0.66899032913E+03 -0.15552476754E+03  0.70091428814E+03  0.25500000920E-02 0.  1.
</event>
<event>
 5   0  0.2083966E-03  0.1403350E+04  0.7818609E-02  0.8951397E-01
       -2   -1    0    0    0  501  0.00000000000E+00  0.00000000000E+00  0.39558829756E+03  0.39558829756E+03  0.25500000920E-02 0. -1.
        2   -1    0    0  501    0  0.00000000000E+00  0.00000000000E+00 -0.12445964999E+04  0.12445964999E+04  0.25500000920E-02 0.  1.
    10030    2    1    2    0    0  0.00000000000E+00  0.00000000000E+00 -0.84900820238E+03  0.16401847975E+04  0.14033500070E+04 0.  0.
        1    1    3    3  502    0 -0.67919941602E+03  0.17503963419E+03 -0.40121399844E+03  0.80803675215E+03  0.50400001928E-02 0. -1.
       -1    1    3    3    0  502  0.67919941602E+03 -0.17503963419E+03 -0.44779420395E+03  0.83214804535E+03  0.50400001928E-02 0.  1.
</event>
<event>
 5   0  0.2083966E-03  0.1405546E+04  0.7818609E-02  0.8949814E-01
       -2   -1    0    0    0  501  0.00000000000E+00  0.00000000000E+00  0.31762485015E+03  0.31762485016E+03  0.25500000920E-02 0. -1.
        2   -1    0    0  501    0  0.00000000000E+00  0.00000000000E+00 -0.15549467669E+04  0.15549467669E+04  0.25500000920E-02 0.  1.
    10030    2    1    2    0    0  0.00000000000E+00  0.00000000000E+00 -0.12373219167E+04  0.18725716170E+04  0.14055457784E+04 0.  0.
        1    1    3    3  502    0 -0.68725098026E+03 -0.12464357527E+03 -0.51512175218E+03  0.86787115997E+03  0.50400001928E-02 0. -1.
       -1    1    3    3    0  502  0.68725098026E+03  0.12464357527E+03 -0.72220016455E+03  0.10047004571E+04  0.50400001928E-02 0.  1.
</event>
<event>
 5   0  0.8293000E-04  0.1401435E+04  0.7818609E-02  0.8952781E-01
        3   -1    0    0  501    0  0.00000000000E+00  0.00000000000E+00  0.49537507341E+03  0.49537508371E+03  0.10100000352E+00 0. -1.
       -3   -1    0    0    0  501  0.00000000000E+00  0.00000000000E+00 -0.99117794609E+03  0.99117795124E+03  0.10100000352E+00 0.  1.
    10030    2    1    2    0    0  0.00000000000E+00  0.00000000000E+00 -0.49580287268E+03  0.14865530349E+04  0.14014347781E+04 0.  0.
        2    1    3    3  502    0  0.59802184108E+02  0.69125039555E+03 -0.14396306672E+03  0.70861045375E+03  0.25500000920E-02 0. -1.
       -2    1    3    3    0  502 -0.59802184108E+02 -0.69125039555E+03 -0.35183980596E+03  0.77794258120E+03  0.25500000920E-02 0.  1.
</event>
<event>
 5   0  0.1225690E-03  0.1372647E+04  0.7818609E-02  0.8973860E-01
        1   -1    0    0  501    0  0.00000000000E+00  0.00000000000E+00  0.20710895720E+04  0.20710895720E+04  0.50400001928E-02 0.  1.
       -1   -1    0    0    0  501  0.00000000000E+00  0.00000000000E+00 -0.22743573969E+03  0.22743573974E+03  0.50400001928E-02 0. -1.
    10030    2    1    2    0    0  0.00000000000E+00  0.00000000000E+00  0.18436538324E+04  0.22985253118E+04  0.13726467701E+04 0.  0.
        4    1    3    3  502    0 -0.61325363686E+03 -0.29727558448E+03  0.78593897827E+03  0.10402665460E+04  0.12699999809E+01 0.  1.
       -4    1    3    3    0  502  0.61325363686E+03  0.29727558448E+03  0.10577148541E+04  0.12582587658E+04  0.12699999809E+01 0. -1.
</event>
<event>
 5   0  0.2190704E-03  0.1390085E+04  0.7818609E-02  0.8961027E-01
       -2   -1    0    0    0  501  0.00000000000E+00  0.00000000000E+00  0.58862650258E+03  0.58862650258E+03  0.25500000920E-02 0. -1.
        2   -1    0    0  501    0  0.00000000000E+00  0.00000000000E+00 -0.82069751667E+03  0.82069751667E+03  0.25500000920E-02 0.  1.
    10030    2    1    2    0    0  0.00000000000E+00  0.00000000000E+00 -0.23207101409E+03  0.14093240193E+04  0.13900853340E+04 0.  0.
        5    1    3    3  502    0  0.85543833403E+02 -0.31001229895E+03 -0.74070970905E+03  0.80752605903E+03  0.46999998093E+01 0.  1.
       -5    1    3    3    0  502 -0.85543833403E+02  0.31001229895E+03  0.50863869495E+03  0.60179796023E+03  0.46999998093E+01 0. -1.
</event>
<event>
 5   0  0.1199720E-03  0.1399325E+04  0.7818609E-02  0.8954307E-01
        1   -1    0    0  501    0  0.00000000000E+00  0.00000000000E+00  0.14905545123E+04  0.14905545123E+04  0.50400001928E-02 0.  1.
       -1   -1    0    0    0  501  0.00000000000E+00  0.00000000000E+00 -0.32841980120E+03  0.32841980124E+03  0.50400001928E-02 0. -1.
    10030    2    1    2    0    0  0.00000000000E+00  0.00000000000E+00  0.11621347111E+04  0.18189743136E+04  0.13993250039E+04 0.  0.
        5    1    3    3  502    0 -0.11555334883E+03  0.25637615627E+03 -0.25170147333E+03  0.37743480444E+03  0.46999998093E+01 0. -1.
       -5    1    3    3    0  502  0.11555334883E+03 -0.25637615627E+03  0.14138361845E+04  0.14415395091E+04  0.46999998093E+01 0.  1.
</event>
<event>
 5   0  0.1238683E-03  0.1404844E+04  0.7818609E-02  0.8950320E-01
       -1   -1    0    0    0  501  0.00000000000E+00  0.00000000000E+00  0.25315744281E+03  0.25315744286E+03  0.50400001928E-02 0.  1.
        1   -1    0    0  501    0  0.00000000000E+00  0.00000000000E+00 -0.19489717942E+04  0.19489717942E+04  0.50400001928E-02 0. -1.
    10030    2    1    2    0    0  0.00000000000E+00  0.00000000000E+00 -0.16958143514E+04  0.22021292371E+04  0.14048440705E+04 0.  0.
        2    1    3    3  502    0 -0.70486137917E+02 -0.53251894228E+03 -0.15573783915E+04  0.16474137834E+04  0.25500000920E-02 0. -1.
       -2    1    3    3    0  502  0.70486137917E+02  0.53251894228E+03 -0.13843595991E+03  0.55471545366E+03  0.25500000920E-02 0.  1.
</event>
<event>
 5   0  0.2190704E-03  0.1405030E+04  0.7818609E-02  0.8950185E-01
        2   -1    0    0  501    0  0.00000000000E+00  0.00000000000E+00  0.70679486371E+03  0.70679486372E+03  0.25500000920E-02 0.  1.
       -2   -1    0    0    0  501  0.00000000000E+00  0.00000000000E+00 -0.69826143636E+03  0.69826143636E+03  0.25500000920E-02 0. -1.
    10030    2    1    2    0    0  0.00000000000E+00  0.00000000000E+00  0.85334273525E+01  0.14050563001E+04  0.14050303865E+04 0.  0.
        5    1    3    3  502    0 -0.73820866930E+01 -0.41942817489E+03 -0.55924258570E+03  0.69910574934E+03  0.46999998093E+01 0. -1.
       -5    1    3    3    0  502  0.73820866930E+01  0.41942817489E+03  0.56777601305E+03  0.70595055074E+03  0.46999998093E+01 0.  1.
</event>
<event>
 5   0  0.2083966E-03  0.1420300E+04  0.7818609E-02  0.8939254E-01
        2   -1    0    0  501    0  0.00000000000E+00  0.00000000000E+00  0.19021126869E+04  0.19021126869E+04  0.25500000920E-02 0.  1.
       -2   -1    0    0    0  501  0.00000000000E+00  0.00000000000E+00 -0.26513322652E+03  0.26513322653E+03  0.25500000920E-02 0. -1.
    10030    2    1    2    0    0  0.00000000000E+00  0.00000000000E+00  0.16369794604E+04  0.21672459135E+04  0.14203003540E+04 0.  0.
        1    1    3    3  502    0  0.26565506954E+03 -0.28341867210E+03 -0.88641644675E+02  0.39844209223E+03  0.50400001928E-02 0. -1.
       -1    1    3    3    0  502 -0.26565506954E+03  0.28341867210E+03  0.17256211051E+04  0.17688038212E+04  0.50400001928E-02 0.  1.
</event>
<event>
 5   0  0.1238683E-03  0.1397340E+04  0.7818609E-02  0.8955746E-01
        1   -1    0    0  501    0  0.00000000000E+00  0.00000000000E+00  0.90574294825E+03  0.90574294827E+03  0.50400001928E-02 0. -1.
       -1   -1    0    0    0  501  0.00000000000E+00  0.00000000000E+00 -0.53893825876E+03  0.53893825879E+03  0.50400001928E-02 0.  1.
    10030    2    1    2    0    0  0.00000000000E+00  0.00000000000E+00  0.36680468949E+03  0.14446812071E+04  0.13973396544E+04 0.  0.
        2    1    3    3  502    0  0.22613434592E+03 -0.15177096288E+03  0.84860444821E+03  0.89123547793E+03  0.25500000920E-02 0. -1.
       -2    1    3    3    0  502 -0.22613434592E+03  0.15177096288E+03 -0.48179975872E+03  0.55344572913E+03  0.25500000920E-02 0.  1.
</event>
<event>
 5   0  0.1199720E-03  0.1366171E+04  0.7818609E-02  0.8978676E-01
        1   -1    0    0  501    0  0.00000000000E+00  0.00000000000E+00  0.73871580549E+03  0.73871580551E+03  0.50400001928E-02 0.  1.
       -1   -1    0    0    0  501  0.00000000000E+00  0.00000000000E+00 -0.63164477953E+03  0.63164477955E+03  0.50400001928E-02 0. -1.
    10030    2    1    2    0    0  0.00000000000E+00  0.00000000000E+00  0.10707102597E+03  0.13703605851E+04  0.13661712662E+04 0.  0.
        5    1    3    3  502    0  0.22646021452E+03 -0.37239770731E+03  0.58109470568E+03  0.72640032223E+03  0.46999998093E+01 0.  1.
       -5    1    3    3    0  502 -0.22646021452E+03  0.37239770731E+03 -0.47402367972E+03  0.64396026282E+03  0.46999998093E+01 0. -1.
</event>
<event>
 5   0  0.1175374E-03  0.1368881E+04  0.7818609E-02  0.8976657E-01
       -1   -1    0    0    0  501  0.00000000000E+00  0.00000000000E+00  0.28512871912E+03  0.28512871916E+03  0.50400001928E-02 0.  1.
        1   -1    0    0  501    0  0.00000000000E+00  0.00000000000E+00 -0.16429738934E+04  0.16429738934E+04  0.50400001928E-02 0. -1.
    10030    2    1    2    0    0  0.00000000000E+00  0.00000000000E+00 -0.13578451743E+04  0.19281026126E+04  0.13688813562E+04 0.  0.
        3    1    3    3  502    0  0.14409815988E+03  0.29985818225E+03 -0.15214271404E+04  0.15573759222E+04  0.10100000352E+00 0. -1.
       -3    1    3    3    0  502 -0.14409815988E+03 -0.29985818225E+03  0.16358196612E+03  0.37072669042E+03  0.10100000352E+00 0.  1.
</event>
<event>
 5   0  0.1175374E-03  0.1389015E+04  0.7818609E-02  0.8961808E-01
       -1   -1    0    0    0  501  0.00000000000E+00  0.00000000000E+00  0.51796956904E+03  0.51796956906E+03  0.50400001928E-02 0.  1.
        1   -1    0    0  501    0  0.00000000000E+00  0.00000000000E+00 -0.93121469395E+03  0.93121469396E+03  0.50400001928E-02 0. -1.
    10030    2    1    2    0    0  0.00000000000E+00  0.00000000000E+00 -0.41324512491E+03  0.14491842630E+04  0.13890152969E+04 0.  0.
        3    1    3    3  502    0 -0.36511607040E+03  0.15320466044E+02  0.40955031668E+03  0.54888608439E+03  0.10100000352E+00 0.  1.
       -3    1    3    3    0  502  0.36511607040E+03 -0.15320466044E+02 -0.82279544159E+03  0.90029817863E+03  0.10100000352E+00 0. -1.
</event>
<event>
 5   0  0.1199720E-03  0.1388687E+04  0.7818609E-02  0.8962049E-01
       -1   -1    0    0    0  501  0.00000000000E+00  0.00000000000E+00  0.34199778447E+03  0.34199778451E+03  0.50400001928E-02 0.  1.
        1   -1    0    0  501    0  0.00000000000E+00  0.00000000000E+00 -0.14096953870E+04  0.14096953870E+04  0.50400001928E-02 0. -1.
    10030    2    1    2    0    0  0.00000000000E+00  0.00000000000E+00 -0.10676976025E+04  0.17516931715E+04  0.13886867165E+04 0.  0.
        5    1    3    3  502    0 -0.17419314312E+01 -0.64913495108E+03 -0.84465440777E+03  0.10652898092E+04  0.46999998093E+01 0. -1.
       -5    1    3    3    0  502  0.17419314312E+01  0.64913495108E+03 -0.22304319474E+03  0.68640336229E+03  0.46999998093E+01 0.  1.
</event>
<event>
 5   0  0.1225690E-03  0.1397379E+04  0.7818609E-02  0.8955718E-01
        1   -1    0    0  501    0  0.00000000000E+00  0.00000000000E+00  0.81818599422E+03  0.81818599424E+03  0.50400001928E-02 0. -1.
       -1   -1    0    0    0  501  0.00000000000E+00  0.00000000000E+00 -0.59664581046E+03  0.59664581048E+03  0.50400001928E-02 0.  1.
    10030    2    1    2    0    0  0.00000000000E+00  0.00000000000E+00  0.22154018376E+03  0.14148318047E+04  0.13973793267E+04 0.  0.
        4    1    3    3  502    0  0.39510956732E+03 -0.55785428930E+03 -0.35437920689E+02  0.68452205034E+03  0.12699999809E+01 0.  1.
       -4    1    3    3    0  502 -0.39510956732E+03  0.55785428930E+03  0.25697810445E+03  0.73030975438E+03  0.12699999809E+01 0. -1.
</event>
<event>
 5   0  0.1199720E-03  0.1390644E+04  0.7818609E-02  0.8960619E-01
        1   -1    0    0  501    0  0.00000000000E+00  0.00000000000E+00  0.34071714034E+03  0.34071714038E+03  0.50400001928E-02 0.  1.
       -1   -1    0    0    0  501  0.00000000000E+00  0.00000000000E+00 -0.14189848078E+04  0.14189848078E+04  0.50400001928E-02 0. -1.
    10030    2    1    2    0    0  0.00000000000E+00  0.00000000000E+00 -0.10782676675E+04  0.17597019482E+04  0.13906436581E+04 0.  0.
        5    1    3    3  502    0  0.20808075323E+01  0.17959950563E+03 -0.13891026824E+04  0.14006743606E+04  0.46999998093E+01 0. -1.
       -5    1    3    3    0  502 -0.20808075323E+01 -0.17959950563E+03  0.31083501491E+03  0.35902758762E+03  0.46999998093E+01 0.  1.
</event>
<event>
 5   0  0.2195980E-03  0.1405158E+04  0.7818609E-02  0.8950093E-01
       -2   -1    0    0    0  501  0.00000000000E+00  0.00000000000E+00  0.31426279114E+03  0.31426279115E+03  0.25500000920E-02 0. -1.
        2   -1    0    0  501    0  0.00000000000E+00  0.00000000000E+00 -0.15707159548E+04  0.15707159548E+04  0.25500000920E-02 0.  1.
    10030    2    1    2    0    0  0.00000000000E+00  0.00000000000E+00 -0.12564531636E+04  0.18849787459E+04  0.14051584680E+04 0.  0.
        4    1    3    3  502    0  0.19081239600E+03  0.51969538713E+03 -0.12085165839E+04  0.13292880096E+04  0.12699999809E+01 0.  1.
       -4    1    3    3    0  502 -0.19081239600E+03 -0.51969538713E+03 -0.47936579689E+02  0.55569073633E+03  0.12699999809E+01 0. -1.
</event>
<event>
 5   0  0.1175374E-03  0.1378609E+04  0.7818609E-02  0.8969449E-01
        1   -1    0    0  501    0  0.00000000000E+00  0.00000000000E+00  0.14463903228E+04  0.14463903228E+04  0.50400001928E-02 0.  1.
       -1   -1    0    0    0  501  0.00000000000E+00  0.00000000000E+00 -0.32850118453E+03  0.32850118456E+03  0.50400001928E-02 0. -1.
    10030    2    1    2    0    0  0.00000000000E+00  0.00000000000E+00  0.11178891383E+04  0.17748915074E+04  0.13786093491E+04 0.  0.
        3    1    3    3  502    0 -0.67331526848E+03  0.13871617397E+03  0.49399148447E+03  0.84653601496E+03  0.10100000352E+00 0.  1.
       -3    1    3    3    0  502  0.67331526848E+03 -0.13871617397E+03  0.62389765383E+03  0.92835549244E+03  0.10100000352E+00 0. -1.
</event>
<event>
 5   0  0.2236184E-03  0.1380845E+04  0.7818609E-02  0.8967802E-01
        2   -1    0    0  501    0  0.00000000000E+00  0.00000000000E+00  0.16421661092E+04  0.16421661092E+04  0.25500000920E-02 0.  1.
       -2   -1    0    0    0  501  0.00000000000E+00  0.00000000000E+00 -0.29027712019E+03  0.29027712020E+03  0.25500000920E-02 0. -1.
    10030    2    1    2    0    0  0.00000000000E+00  0.00000000000E+00  0.13518889890E+04  0.19324432294E+04  0.13808450298E+04 0.  0.
        3    1    3    3  502    0 -0.47264645284E+03  0.29964465572E+03  0.12418225764E+04  0.13620957788E+04  0.10100000352E+00 0.  1.
       -3    1    3    3    0  502  0.47264645284E+03 -0.29964465572E+03  0.11006641263E+03  0.57034745066E+03  0.10100000352E+00 0. -1.
</event>
<event>
 5   0  0.2236184E-03  0.1422408E+04  0.7818609E-02  0.8937756E-01
        2   -1    0    0  501    0  0.00000000000E+00  0.00000000000E+00  0.20958182248E+04  0.20958182248E+04  0.25500000920E-02 0.  1.
       -2   -1    0    0    0  501  0.00000000000E+00  0.00000000000E+00 -0.24134313108E+03  0.24134313110E+03  0.25500000920E-02 0. -1.
    10030    2    1    2    0    0  0.00000000000E+00  0.00000000000E+00  0.18544750937E+04  0.23371613559E+04  0.14224082854E+04 0.  0.
        3    1    3    3  502    0 -0.33068246027E+03  0.60501373377E+03  0.12138107432E+04  0.13959688528E+04  0.10100000352E+00 0.  1.
       -3    1    3    3    0  502  0.33068246027E+03 -0.60501373377E+03  0.64066435053E+03  0.94119250307E+03  0.10100000352E+00 0. -1.
</event>
<event>
 5   0  0.8293000E-04  0.1367779E+04  0.7818609E-02  0.8977478E-01
       -4   -1    0    0    0  501  0.00000000000E+00  0.00000000000E+00  0.78924504700E+03  0.78924606880E+03  0.12699999809E+01 0.  1.
        4   -1    0    0  501    0  0.00000000000E+00  0.00000000000E+00 -0.59259585047E+03  0.59259721135E+03  0.12699999809E+01 0. -1.
    10030    2    1    2    0    0  0.00000000000E+00  0.00000000000E+00  0.19664919653E+03  0.13818432801E+04  0.13677792016E+04 0.  0.
        2    1    3    3  502    0 -0.33444975456E+03  0.22956704570E+03  0.65457413387E+03  0.77008114088E+03  0.25500000920E-02 0.  1.
       -2    1    3    3    0  502  0.33444975456E+03 -0.22956704570E+03 -0.45792493734E+03  0.61176213927E+03  0.25500000920E-02 0. -1.
</event>
<event>
 5   0  0.2190704E-03  0.1439627E+04  0.7818609E-02  0.8925623E-01
       -2   -1    0    0    0  501  0.00000000000E+00  0.00000000000E+00  0.30937064029E+03  0.30937064030E+03  0.25500000920E-02 0.  1.
        2   -1    0    0  501    0  0.00000000000E+00  0.00000000000E+00 -0.16747931415E+04  0.16747931415E+04  0.25500000920E-02 0. -1.
    10030    2    1    2    0    0  0.00000000000E+00  0.00000000000E+00 -0.13654225012E+04  0.19841637818E+04  0.14396274887E+04 0.  0.
        5    1    3    3  502    0  0.30782141064E+03 -0.41595981428E+03 -0.13722942851E+04  0.14666254747E+04  0.46999998093E+01 0. -1.
       -5    1    3    3    0  502 -0.30782141064E+03  0.41595981428E+03  0.68717839076E+01  0.51753830714E+03  0.46999998093E+01 0.  1.
</event>
<event>
 5   0  0.1199720E-03  0.1420309E+04  0.7818609E-02  0.8939248E-01
        1   -1    0    0  501    0  0.00000000000E+00  0.00000000000E+00  0.11859655928E+04  0.11859655929E+04  0.50400001928E-02 0.  1.
       -1   -1    0    0    0  501  0.00000000000E+00  0.00000000000E+00 -0.42523962801E+03  0.42523962804E+03  0.50400001928E-02 0. -1.
    10030    2    1    2    0    0  0.00000000000E+00  0.00000000000E+00  0.76072596483E+03  0.16112052209E+04  0.14203092164E+04 0.  0.
        5    1    3    3  502    0  0.65005197290E+03 -0.20998757223E+03  0.16029104679E+03  0.70169627164E+03  0.46999998093E+01 0. -1.
       -5    1    3    3    0  502 -0.65005197290E+03  0.20998757223E+03  0.60043491804E+03  0.90950894925E+03  0.46999998093E+01 0.  1.
</event>
<event>
 5   0  0.1238683E-03  0.1408125E+04  0.7818609E-02  0.8947958E-01
       -1   -1    0    0    0  501  0.00000000000E+00  0.00000000000E+00  0.11542251188E+04  0.11542251188E+04  0.50400001928E-02 0.  1.
        1   -1    0    0  501    0  0.00000000000E+00  0.00000000000E+00 -0.42946909747E+03  0.42946909749E+03  0.50400001928E-02 0. -1.
    10030    2    1    2    0    0  0.00000000000E+00  0.00000000000E+00  0.72475602136E+03  0.15836942163E+04  0.14081250230E+04 0.  0.
        2    1    3    3  502    0  0.11421890677E+03 -0.66380753981E+03  0.13183827273E+03  0.68634374677E+03  0.25500000920E-02 0. -1.
       -2    1    3    3    0  502 -0.11421890677E+03  0.66380753981E+03  0.59291774863E+03  0.89735046956E+03  0.25500000920E-02 0.  1.
</event>
<event>
 5   0  0.2190704E-03  0.1410344E+04  0.7818609E-02  0.8946365E-01
        2   -1    0    0  501    0  0.00000000000E+00  0.00000000000E+00  0.88465323643E+03  0.88465323644E+03  0.25500000920E-02 0. -1.
       -2   -1    0    0    0  501  0.00000000000E+00  0.00000000000E+00 -0.56210468367E+03  0.56210468367E+03  0.25500000920E-02 0.  1.
    10030    2    1    2    0    0  0.00000000000E+00  0.00000000000E+00  0.32254855277E+03  0.14467579201E+04  0.14103442525E+04 0.  0.
        5    1    3    3  502    0 -0.57520173764E+03 -0.18120028024E+03 -0.21361317558E+03  0.63979938990E+03  0.46999998093E+01 0.  1.
       -5    1    3    3    0  502  0.57520173764E+03  0.18120028024E+03  0.53616172834E+03  0.80695853021E+03  0.46999998093E+01 0. -1.
</event>
<event>
 5   0  0.2083966E-03  0.1421338E+04  0.7818609E-02  0.8938516E-01
        2   -1    0    0  501    0  0.00000000000E+00  0.00000000000E+00  0.17951026719E+04  0.17951026719E+04  0.25500000920E-02 0. -1.
       -2   -1    0    0    0  501  0.00000000000E+00  0.00000000000E+00 -0.28134918184E+03  0.28134918185E+03  0.25500000920E-02 0.  1.
    10030    2    1    2    0    0  0.00000000000E+00  0.00000000000E+00  0.15137534900E+04  0.20764518537E+04  0.14213383384E+04 0.  0.
        1    1    3    3  502    0  0.48399374641E+03 -0.18454475943E+03  0.46049864389E+02  0.52002625398E+03  0.50400001928E-02 0.  1.
       -1    1    3    3    0  502 -0.48399374641E+03  0.18454475943E+03  0.14677036256E+04  0.15564255997E+04  0.50400001928E-02 0. -1.
</event>
<event>
 5   0  0.1238683E-03  0.1437386E+04  0.7818609E-02  0.8927193E-01
       -1   -1    0    0    0  501  0.00000000000E+00  0.00000000000E+00  0.18149063052E+03  0.18149063059E+03  0.50400001928E-02 0.  1.
        1   -1    0    0  501    0  0.00000000000E+00  0.00000000000E+00 -0.28459844169E+04  0.28459844169E+04  0.50400001928E-02 0. -1.
    10030    2    1    2    0    0  0.00000000000E+00  0.00000000000E+00 -0.26644937864E+04  0.30274750475E+04  0.14373858304E+04 0.  0.
        2    1    3    3  502    0 -0.54863977022E+02 -0.69226724350E+03 -0.17221881625E+04  0.18569265089E+04  0.25500000920E-02 0. -1.
       -2    1    3    3    0  502  0.54863977022E+02  0.69226724350E+03 -0.94230562390E+03  0.11705485386E+04  0.25500000920E-02 0.  1.
</event>
<event>
 5   0  0.2083966E-03  0.1508273E+04  0.7818609E-02  0.8878970E-01
        2   -1    0    0  501    0  0.00000000000E+00  0.00000000000E+00  0.13150910263E+04  0.13150910264E+04  0.25500000920E-02 0. -1.
       -2   -1    0    0    0  501  0.00000000000E+00  0.00000000000E+00 -0.43245841682E+03  0.43245841683E+03  0.25500000920E-02 0.  1.
    10030    2    1    2    0    0  0.00000000000E+00  0.00000000000E+00  0.88263260953E+03  0.17475494432E+04  0.15082734278E+04 0.  0.
        1    1    3    3  502    0  0.44678368515E+02 -0.58062902318E+03  0.99649337015E+03  0.11541773070E+04  0.50400001928E-02 0. -1.
       -1    1    3    3    0  502 -0.44678368515E+02  0.58062902318E+03 -0.11386076062E+03  0.59337213619E+03  0.50400001928E-02 0.  1.
</event>
<event>
 5   0  0.1225690E-03  0.1406002E+04  0.7818609E-02  0.8949485E-01
        1   -1    0    0  501    0  0.00000000000E+00  0.00000000000E+00  0.15173054951E+04  0.15173054951E+04  0.50400001928E-02 0.  1.
       -1   -1    0    0    0  501  0.00000000000E+00  0.00000000000E+00 -0.32571586737E+03  0.32571586741E+03  0.50400001928E-02 0. -1.
    10030    2    1    2    0    0  0.00000000000E+00  0.00000000000E+00  0.11915896278E+04  0.18430213625E+04  0.14060020988E+04 0.  0.
        4    1    3    3  502    0 -0.56549560904E+03  0.36852024276E+03  0.33820401554E+03  0.75496756367E+03  0.12699999809E+01 0. -1.
       -4    1    3    3    0  502  0.56549560904E+03 -0.36852024276E+03  0.85338561222E+03  0.10880537989E+04  0.12699999809E+01 0.  1.
</event>
<event>
 5   0  0.2236184E-03  0.1405331E+04  0.7818609E-02  0.8949969E-01
        2   -1    0    0  501    0  0.00000000000E+00  0.00000000000E+00  0.35464880028E+03  0.35464880029E+03  0.25500000920E-02 0.  1.
       -2   -1    0    0    0  501  0.00000000000E+00  0.00000000000E+00 -0.13921909410E+04  0.13921909410E+04  0.25500000920E-02 0. -1.
    10030    2    1    2    0    0  0.00000000000E+00  0.00000000000E+00 -0.10375421407E+04  0.17468397413E+04  0.14053310599E+04 0.  0.
        3    1    3    3  502    0  0.37867300133E+03 -0.37565618560E+03 -0.10873416016E+04  0.12111245107E+04  0.10100000352E+00 0. -1.
       -3    1    3    3    0  502 -0.37867300133E+03  0.37565618560E+03  0.49799460918E+02  0.53571523053E+03  0.10100000352E+00 0.  1.
</event>
<event>
 5   0  0.1225690E-03  0.1414668E+04  0.7818609E-02  0.8943269E-01
       -1   -1    0    0    0  501  0.00000000000E+00  0.00000000000E+00  0.59745717968E+03  0.59745717970E+03  0.50400001928E-02 0. -1.
        1   -1    0    0  501    0  0.00000000000E+00  0.00000000000E+00 -0.83741802907E+03  0.83741802908E+03  0.50400001928E-02 0.  1.
    10030    2    1    2    0    0  0.00000000000E+00  0.00000000000E+00 -0.23996084939E+03  0.14348752088E+04  0.14146680372E+04 0.  0.
        4    1    3    3  502    0  0.42984826607E+02 -0.27590543545E+03  0.53918582719E+03  0.60720216878E+03  0.12699999809E+01 0. -1.
       -4    1    3    3    0  502 -0.42984826607E+02  0.27590543545E+03 -0.77914667658E+03  0.82767304001E+03  0.12699999809E+01 0.  1.
</event>
<event>
 5   0  0.2236184E-03  0.1393185E+04  0.7818609E-02  0.8958766E-01
        2   -1    0    0  501    0  0.00000000000E+00  0.00000000000E+00  0.19443704786E+04  0.19443704786E+04  0.25500000920E-02 0. -1.
       -2   -1    0    0    0  501  0.00000000000E+00  0.00000000000E+00 -0.24956221885E+03  0.24956221886E+03  0.25500000920E-02 0.  1.
    10030    2    1    2    0    0  0.00000000000E+00  0.00000000000E+00  0.16948082598E+04  0.21939326975E+04  0.13931854305E+04 0.  0.
        3    1    3    3  502    0  0.49937930516E+03 -0.39073671993E+03  0.13015975838E+04  0.14478298087E+04  0.10100000352E+00 0. -1.
       -3    1    3    3    0  502 -0.49937930516E+03  0.39073671993E+03  0.39321067603E+03  0.74610288879E+03  0.10100000352E+00 0.  1.
</event>
<event>
 5   0  0.2195980E-03  0.1394933E+04  0.7818609E-02  0.8957494E-01
       -2   -1    0    0    0  501  0.00000000000E+00  0.00000000000E+00  0.57275561298E+03  0.57275561298E+03  0.25500000920E-02 0.  1.
        2   -1    0    0  501    0  0.00000000000E+00  0.00000000000E+00 -0.84933192410E+03  0.84933192410E+03  0.25500000920E-02 0. -1.
    10030    2    1    2    0    0  0.00000000000E+00  0.00000000000E+00 -0.27657631112E+03  0.14220875371E+04  0.13949331551E+04 0.  0.
        4    1    3    3  502    0  0.52300241548E+03 -0.16110150763E+03  0.30253270663E+03  0.62531022208E+03  0.12699999809E+01 0.  1.
       -4    1    3    3    0  502 -0.52300241548E+03  0.16110150763E+03 -0.57910901775E+03  0.79677731500E+03  0.12699999809E+01 0. -1.
</event>
<event>
 5   0  0.2172901E-03  0.1337466E+04  0.7818609E-02  0.9000371E-01
       -2   -1    0    0    0  501  0.00000000000E+00  0.00000000000E+00  0.99454424160E+03  0.99454424161E+03  0.25500000920E-02 0. -1.
        2   -1    0    0  501    0  0.00000000000E+00  0.00000000000E+00 -0.44965719392E+03  0.44965719393E+03  0.25500000920E-02 0.  1.
    10030    2    1    2    0    0  0.00000000000E+00  0.00000000000E+00  0.54488704768E+03  0.14442014355E+04  0.13374662208E+04 0.  0.
        2    1    3    3  502    0 -0.13469935410E+03 -0.39948199856E+03  0.83297955926E+03  0.93358702289E+03  0.25500000920E-02 0. -1.
       -2    1    3    3    0  502  0.13469935410E+03  0.39948199856E+03 -0.28809251157E+03  0.51061441264E+03  0.25500000920E-02 0.  1.
</event>
<event>
 5   0  0.2172901E-03  0.1350895E+04  0.7818609E-02  0.8990151E-01
        2   -1    0    0  501    0  0.00000000000E+00  0.00000000000E+00  0.51137415255E+03  0.51137415256E+03  0.25500000920E-02 0.  1.
       -2   -1    0    0    0  501  0.00000000000E+00  0.00000000000E+00 -0.89216291549E+03  0.89216291549E+03  0.25500000920E-02 0. -1.
    10030    2    1    2    0    0  0.00000000000E+00  0.00000000000E+00 -0.38078876294E+03  0.14035370680E+04  0.13508945997E+04 0.  0.
        2    1    3    3  502    0 -0.42116359756E+03 -0.33920197503E+03  0.23008931453E+03  0.58768856415E+03  0.25500000920E-02 0.  1.
       -2    1    3    3    0  502  0.42116359756E+03  0.33920197503E+03 -0.61087807746E+03  0.81584850389E+03  0.25500000920E-02 0. -1.
</event>
<event>
 5   0  0.1238683E-03  0.1422234E+04  0.7818609E-02  0.8937880E-01
        1   -1    0    0  501    0  0.00000000000E+00  0.00000000000E+00  0.13698177971E+04  0.13698177971E+04  0.50400001928E-02 0.  1.
       -1   -1    0    0    0  501  0.00000000000E+00  0.00000000000E+00 -0.36916409860E+03  0.36916409864E+03  0.50400001928E-02 0. -1.
    10030    2    1    2    0    0  0.00000000000E+00  0.00000000000E+00  0.10006536985E+04  0.17389818957E+04  0.14222342315E+04 0.  0.
        2    1    3    3  502    0  0.26875994440E+03 -0.11283968045E+03 -0.29276225555E+03  0.41312763098E+03  0.25500000920E-02 0. -1.
       -2    1    3    3    0  502 -0.26875994440E+03  0.11283968045E+03  0.12934159540E+04  0.13258542647E+04  0.25500000920E-02 0.  1.
</event>
<event>
 5   0  0.2172901E-03  0.1380908E+04  0.7818609E-02  0.8967756E-01
        2   -1    0    0  501    0  0.00000000000E+00  0.00000000000E+00  0.26374891291E+04  0.26374891291E+04  0.25500000920E-02 0.  1.
       -2   -1    0    0    0  501  0.00000000000E+00  0.00000000000E+00 -0.18075012543E+03  0.18075012545E+03  0.25500000920E-02 0. -1.
    10030    2    1    2    0    0  0.00000000000E+00  0.00000000000E+00  0.24567390036E+04  0.28182392545E+04  0.13809076594E+04 0.  0.
        2    1    3    3  502    0 -0.68898199899E+03  0.36156026020E+02  0.11734920779E+04  0.13612814221E+04  0.25500000920E-02 0. -1.
       -2    1    3    3    0  502  0.68898199899E+03 -0.36156026020E+02  0.12832469257E+04  0.14569578324E+04  0.25500000920E-02 0.  1.
</event>
<event>
 5   0  0.2190704E-03  0.1408072E+04  0.7818609E-02  0.8947996E-01
        2   -1    0    0  501    0  0.00000000000E+00  0.00000000000E+00  0.80359385180E+03  0.80359385180E+03  0.25500000920E-02 0.  1.
       -2   -1    0    0    0  501  0.00000000000E+00  0.00000000000E+00 -0.61681286426E+03  0.61681286427E+03  0.25500000920E-02 0. -1.
    10030    2    1    2    0    0  0.00000000000E+00  0.00000000000E+00  0.18678098753E+03  0.14204067161E+04  0.14080724774E+04 0.  0.
        5    1    3    3  502    0 -0.57442774574E+03 -0.62494794617E+02  0.49912273530E+03  0.76355643493E+03  0.46999998093E+01 0.  1.
       -5    1    3    3    0  502  0.57442774574E+03  0.62494794617E+02 -0.31234174777E+03  0.65685028114E+03  0.46999998093E+01 0. -1.
</event>
<event>
 5   0  0.2190704E-03  0.1417821E+04  0.7818609E-02  0.8941019E-01
        2   -1    0    0  501    0  0.00000000000E+00  0.00000000000E+00  0.67057734024E+03  0.67057734024E+03  0.25500000920E-02 0. -1.
       -2   -1    0    0    0  501  0.00000000000E+00  0.00000000000E+00 -0.74943489216E+03  0.74943489217E+03  0.25500000920E-02 0.  1.
    10030    2    1    2    0    0  0.00000000000E+00  0.00000000000E+00 -0.78857551928E+02  0.14200122324E+04  0.14178209431E+04 0.  0.
        5    1    3    3  502    0  0.41433134611E+03 -0.57386641331E+03 -0.78717480709E+02  0.71218793619E+03  0.46999998093E+01 0.  1.
       -5    1    3    3    0  502 -0.41433134611E+03  0.57386641331E+03 -0.14007121891E+00  0.70782429621E+03  0.46999998093E+01 0. -1.
</event>
<event>
 5   0  0.2236184E-03  0.1384796E+04  0.7818609E-02  0.8964898E-01
        2   -1    0    0  501    0  0.00000000000E+00  0.00000000000E+00  0.15774629290E+04  0.15774629290E+04  0.25500000920E-02 0. -1.
       -2   -1    0    0    0  501  0.00000000000E+00  0.00000000000E+00 -0.30391519609E+03  0.30391519610E+03  0.25500000920E-02 0.  1.
    10030    2    1    2    0    0  0.00000000000E+00  0.00000000000E+00  0.12735477330E+04  0.18813781251E+04  0.13847959495E+04 0.  0.
        3    1    3    3  502    0 -0.23604743043E+03 -0.46737199803E+03  0.21253485907E+02  0.52402928813E+03  0.10100000352E+00 0.  1.
       -3    1    3    3    0  502  0.23604743043E+03  0.46737199803E+03  0.12522942471E+04  0.13573488370E+04  0.10100000352E+00 0. -1.
</event>
<event>
 5   0  0.1199720E-03  0.1252599E+04  0.7818609E-02  0.9068023E-01
        1   -1    0    0  501    0  0.00000000000E+00  0.00000000000E+00  0.89810365189E+03  0.89810365191E+03  0.50400001928E-02 0. -1.
       -1   -1    0    0    0  501  0.00000000000E+00  0.00000000000E+00 -0.43675510010E+03  0.43675510013E+03  0.50400001928E-02 0.  1.
    10030    2    1    2    0    0  0.00000000000E+00  0.00000000000E+00  0.46134855180E+03  0.13348587520E+04  0.12525994578E+04 0.  0.
        5    1    3    3  502    0  0.35738559032E+03  0.60059622153E+02  0.77499913763E+03  0.85555676124E+03  0.46999998093E+01 0. -1.
       -5    1    3    3    0  502 -0.35738559032E+03 -0.60059622153E+02 -0.31365058583E+03  0.47930199079E+03  0.46999998093E+01 0.  1.
</event>
<event>
 5   0  0.1210275E-03  0.1379099E+04  0.7818609E-02  0.8969088E-01
       -1   -1    0    0    0  501  0.00000000000E+00  0.00000000000E+00  0.40237622669E+03  0.40237622672E+03  0.50400001928E-02 0. -1.
        1   -1    0    0  501    0  0.00000000000E+00  0.00000000000E+00 -0.11816764404E+04  0.11816764404E+04  0.50400001928E-02 0.  1.
    10030    2    1    2    0    0  0.00000000000E+00  0.00000000000E+00 -0.77930021369E+03  0.15840526671E+04  0.13790989918E+04 0.  0.
        1    1    3    3  502    0  0.31516443322E+03  0.58743930401E+03 -0.59209625371E+03  0.89162297500E+03  0.50400001928E-02 0.  1.
       -1    1    3    3    0  502 -0.31516443322E+03 -0.58743930401E+03 -0.18720395998E+03  0.69242969212E+03  0.50400001928E-02 0. -1.
</event>
<event>
 5   0  0.2236184E-03  0.1415957E+04  0.7818609E-02  0.8942348E-01
       -2   -1    0    0    0  501  0.00000000000E+00  0.00000000000E+00  0.41643842940E+03  0.41643842941E+03  0.25500000920E-02 0.  1.
        2   -1    0    0  501    0  0.00000000000E+00  0.00000000000E+00 -0.12036199584E+04  0.12036199584E+04  0.25500000920E-02 0. -1.
    10030    2    1    2    0    0  0.00000000000E+00  0.00000000000E+00 -0.78718152903E+03  0.16200583878E+04  0.14159570687E+04 0.  0.
        3    1    3    3  502    0  0.21748647615E+02 -0.70121591405E+03 -0.50247594209E+03  0.86293617630E+03  0.10100000352E+00 0. -1.
       -3    1    3    3    0  502 -0.21748647615E+02  0.70121591405E+03 -0.28470558694E+03  0.75712221155E+03  0.10100000352E+00 0.  1.
</event>
<event>
 5   0  0.8293000E-04  0.1402678E+04  0.7818609E-02  0.8951882E-01
       -4   -1    0    0    0  501  0.00000000000E+00  0.00000000000E+00  0.96821972108E+03  0.96822055400E+03  0.12699999809E+01 0.  1.
        4   -1    0    0  501    0  0.00000000000E+00  0.00000000000E+00 -0.50801993262E+03  0.50802152006E+03  0.12699999809E+01 0. -1.
    10030    2    1    2    0    0  0.00000000000E+00  0.00000000000E+00  0.46019978845E+03  0.14762420741E+04  0.14026784435E+04 0.  0.
        3    1    3    3  502    0 -0.61796100524E+03 -0.17375486324E+03  0.52742287975E+03  0.83080771589E+03  0.10100000352E+00 0.  1.
       -3    1    3    3    0  502  0.61796100524E+03  0.17375486324E+03 -0.67223091298E+02  0.64543435817E+03  0.10100000352E+00 0. -1.
</event>
<event>
 5   0  0.2195980E-03  0.1399748E+04  0.7818609E-02  0.8954001E-01
       -2   -1    0    0    0  501  0.00000000000E+00  0.00000000000E+00  0.28374505276E+03  0.28374505277E+03  0.25500000920E-02 0. -1.
        2   -1    0    0  501    0  0.00000000000E+00  0.00000000000E+00 -0.17262801869E+04  0.17262801869E+04  0.25500000920E-02 0.  1.
    10030    2    1    2    0    0  0.00000000000E+00  0.00000000000E+00 -0.14425351341E+04  0.20100252397E+04  0.13997477812E+04 0.  0.
        4    1    3    3  502    0 -0.87046491117E+02 -0.69254845799E+03 -0.79478962738E+03  0.10577772086E+04  0.12699999809E+01 0. -1.
       -4    1    3    3    0  502  0.87046491117E+02  0.69254845799E+03 -0.64774550674E+03  0.95224803108E+03  0.12699999809E+01 0.  1.
</event>
<event>
 5   0  0.8293000E-04  0.1415011E+04  0.7818609E-02  0.8943024E-01
       -3   -1    0    0    0  501  0.00000000000E+00  0.00000000000E+00  0.11061141436E+04  0.11061141482E+04  0.10100000352E+00 0.  1.
        3   -1    0    0  501    0  0.00000000000E+00  0.00000000000E+00 -0.45254303923E+03  0.45254305050E+03  0.10100000352E+00 0. -1.
    10030    2    1    2    0    0  0.00000000000E+00  0.00000000000E+00  0.65357110433E+03  0.15586571987E+04  0.14150113337E+04 0.  0.
        3    1    3    3  502    0  0.15723341818E+03  0.16753521063E+03 -0.41030367109E+03  0.47025472597E+03  0.10100000352E+00 0. -1.
       -3    1    3    3    0  502 -0.15723341818E+03 -0.16753521063E+03  0.10638747754E+04  0.10884024727E+04  0.10100000352E+00 0.  1.
</event>
<event>
 5   0  0.1225690E-03  0.1406579E+04  0.7818609E-02  0.8949070E-01
        1   -1    0    0  501    0  0.00000000000E+00  0.00000000000E+00  0.46712401254E+03  0.46712401257E+03  0.50400001928E-02 0. -1.
       -1   -1    0    0    0  501  0.00000000000E+00  0.00000000000E+00 -0.10588543831E+04  0.10588543831E+04  0.50400001928E-02 0.  1.
    10030    2    1    2    0    0  0.00000000000E+00  0.00000000000E+00 -0.59173037057E+03  0.15259783957E+04  0.14065792664E+04 0.  0.
        4    1    3    3  502    0 -0.91191886523E+02 -0.14766429530E+03 -0.10352562937E+04  0.10497037253E+04  0.12699999809E+01 0.  1.
       -4    1    3    3    0  502  0.91191886523E+02  0.14766429530E+03  0.44352592315E+03  0.47627467042E+03  0.12699999809E+01 0. -1.
</event>
<event>
 5   0  0.2195980E-03  0.1024407E+04  0.7818609E-02  0.9282173E-01
        2   -1    0    0  501    0  0.00000000000E+00  0.00000000000E+00  0.43791433092E+03  0.43791433092E+03  0.25500000920E-02 0. -1.
       -2   -1    0    0    0  501  0.00000000000E+00  0.00000000000E+00 -0.59909585312E+03  0.59909585313E+03  0.25500000920E-02 0.  1.
    10030    2    1    2    0    0  0.00000000000E+00  0.00000000000E+00 -0.16118152220E+03  0.10370101840E+04  0.10244074574E+04 0.  0.
        4    1    3    3  502    0  0.48778101228E+03 -0.91613691994E+01 -0.23851254020E+03  0.54305072633E+03  0.12699999809E+01 0.  1.
       -4    1    3    3    0  502 -0.48778101228E+03  0.91613691994E+01  0.77331017997E+02  0.49395945772E+03  0.12699999809E+01 0. -1.
</event>
<event>
 5   0  0.2083966E-03  0.1409618E+04  0.7818609E-02  0.8946886E-01
        2   -1    0    0  501    0  0.00000000000E+00  0.00000000000E+00  0.15834371604E+04  0.15834371604E+04  0.25500000920E-02 0. -1.
       -2   -1    0    0    0  501  0.00000000000E+00  0.00000000000E+00 -0.31371982345E+03  0.31371982346E+03  0.25500000920E-02 0.  1.
    10030    2    1    2    0    0  0.00000000000E+00  0.00000000000E+00  0.12697173370E+04  0.18971569839E+04  0.14096178580E+04 0.  0.
        1    1    3    3  502    0 -0.45110462370E+03  0.53363899548E+03  0.51085137936E+03  0.86558367062E+03  0.50400001928E-02 0. -1.
       -1    1    3    3    0  502  0.45110462370E+03 -0.53363899548E+03  0.75886595761E+03  0.10315733133E+04  0.50400001928E-02 0.  1.
</event>
<event>
 5   0  0.2172901E-03  0.1304852E+04  0.7818609E-02  0.9025726E-01
        2   -1    0    0  501    0  0.00000000000E+00  0.00000000000E+00  0.11312260686E+04  0.11312260686E+04  0.25500000920E-02 0.  1.
       -2   -1    0    0    0  501  0.00000000000E+00  0.00000000000E+00 -0.37628176686E+03  0.37628176687E+03  0.25500000920E-02 0. -1.
    10030    2    1    2    0    0  0.00000000000E+00  0.00000000000E+00  0.75494430176E+03  0.15075078355E+04  0.13048520894E+04 0.  0.
        2    1    3    3  502    0 -0.28133293239E+03  0.49696820459E+03  0.74196104676E+03  0.93628617961E+03  0.25500000920E-02 0.  1.
       -2    1    3    3    0  502  0.28133293239E+03 -0.49696820459E+03  0.12983254993E+02  0.57122165587E+03  0.25500000920E-02 0. -1.
</event>
<event>
 5   0  0.1175374E-03  0.1428632E+04  0.7818609E-02  0.8933350E-01
        1   -1    0    0  501    0  0.00000000000E+00  0.00000000000E+00  0.18170612463E+04  0.18170612463E+04  0.50400001928E-02 0. -1.
       -1   -1    0    0    0  501  0.00000000000E+00  0.00000000000E+00 -0.28080917243E+03  0.28080917247E+03  0.50400001928E-02 0.  1.
    10030    2    1    2    0    0  0.00000000000E+00  0.00000000000E+00  0.15362520738E+04  0.20978704188E+04  0.14286321638E+04 0.  0.
        3    1    3    3  502    0  0.63519195242E+03  0.32616253104E+02  0.12455741370E+04  0.13985662578E+04  0.10100000352E+00 0. -1.
       -3    1    3    3    0  502 -0.63519195242E+03 -0.32616253104E+02  0.29067793680E+03  0.69930416095E+03  0.10100000352E+00 0.  1.
</event>
<event>
 5   0  0.8293000E-04  0.1402215E+04  0.7818609E-02  0.8952217E-01
        3   -1    0    0  501    0  0.00000000000E+00  0.00000000000E+00  0.65175230377E+03  0.65175231160E+03  0.10100000352E+00 0. -1.
       -3   -1    0    0    0  501  0.00000000000E+00  0.00000000000E+00 -0.75419999071E+03  0.75419999747E+03  0.10100000352E+00 0.  1.
    10030    2    1    2    0    0  0.00000000000E+00  0.00000000000E+00 -0.10244768694E+03  0.14059523091E+04  0.14022148077E+04 0.  0.
        1    1    3    3  502    0  0.70088858584E+03  0.84553121479E+01 -0.66603881790E+02  0.70409685354E+03  0.50400001928E-02 0. -1.
       -1    1    3    3    0  502 -0.70088858584E+03 -0.84553121479E+01 -0.35843805149E+02  0.70185545553E+03  0.50400001928E-02 0.  1.
</event>
<event>
 5   0  0.1210275E-03  0.1409017E+04  0.7818609E-02  0.8947317E-01
        1   -1    0    0  501    0  0.00000000000E+00  0.00000000000E+00  0.72754237330E+03  0.72754237332E+03  0.50400001928E-02 0.  1.
       -1   -1    0    0    0  501  0.00000000000E+00  0.00000000000E+00 -0.68220398116E+03  0.68220398118E+03  0.50400001928E-02 0. -1.
    10030    2    1    2    0    0  0.00000000000E+00  0.00000000000E+00  0.45338392145E+02  0.14097463545E+04  0.14090171093E+04 0.  0.
        1    1    3    3  502    0  0.26268290464E+03 -0.12657006462E+03 -0.61899728736E+03  0.68423675102E+03  0.50400001928E-02 0. -1.
       -1    1    3    3    0  502 -0.26268290464E+03  0.12657006462E+03  0.66433567951E+03  0.72550960348E+03  0.50400001928E-02 0.  1.
</event>
<event>
 5   0  0.1238683E-03  0.1405665E+04  0.7818609E-02  0.8949728E-01
       -1   -1    0    0    0  501  0.00000000000E+00  0.00000000000E+00  0.50030883705E+03  0.50030883708E+03  0.50400001928E-02 0. -1.
        1   -1    0    0  501    0  0.00000000000E+00  0.00000000000E+00 -0.98733704096E+03  0.98733704097E+03  0.50400001928E-02 0.  1.
    10030    2    1    2    0    0  0.00000000000E+00  0.00000000000E+00 -0.48702820391E+03  0.14876458781E+04  0.14056648915E+04 0.  0.
        2    1    3    3  502    0 -0.52980400322E+03  0.45751540354E+03 -0.31011964042E+03  0.76562838093E+03  0.25500000920E-02 0. -1.
       -2    1    3    3    0  502  0.52980400322E+03 -0.45751540354E+03 -0.17690856349E+03  0.72201749712E+03  0.25500000920E-02 0.  1.
</event>
<event>
 5   0  0.2172901E-03  0.8626363E+03  0.7818609E-02  0.9473532E-01
        2   -1    0    0  501    0  0.00000000000E+00  0.00000000000E+00  0.15323909506E+04  0.15323909506E+04  0.25500000920E-02 0. -1.
       -2   -1    0    0    0  501  0.00000000000E+00  0.00000000000E+00 -0.12140202122E+03  0.12140202125E+03  0.25500000920E-02 0.  1.
    10030    2    1    2    0    0  0.00000000000E+00  0.00000000000E+00  0.14109889293E+04  0.16537929718E+04  0.86263632830E+03 0.  0.
        2    1    3    3  502    0  0.32531311801E+03 -0.19646507522E+03  0.10965540228E+04  0.11605420610E+04  0.25500000920E-02 0. -1.
       -2    1    3    3    0  502 -0.32531311801E+03  0.19646507522E+03  0.31443490659E+03  0.49325091081E+03  0.25500000920E-02 0.  1.
</event>
<event>
 5   0  0.2190704E-03  0.1424579E+04  0.7818609E-02  0.8936216E-01
        2   -1    0    0  501    0  0.00000000000E+00  0.00000000000E+00  0.16548813781E+04  0.16548813781E+04  0.25500000920E-02 0. -1.
       -2   -1    0    0    0  501  0.00000000000E+00  0.00000000000E+00 -0.30658190456E+03  0.30658190457E+03  0.25500000920E-02 0.  1.
    10030    2    1    2    0    0  0.00000000000E+00  0.00000000000E+00  0.13482994735E+04  0.19614632826E+04  0.14245794955E+04 0.  0.
        5    1    3    3  502    0 -0.34706165857E+03  0.32273227523E+03  0.14062606643E+04  0.14839808160E+04  0.46999998093E+01 0. -1.
       -5    1    3    3    0  502  0.34706165857E+03 -0.32273227523E+03 -0.57961190773E+02  0.47748246665E+03  0.46999998093E+01 0.  1.
</event>
<event>
 5   0  0.1210275E-03  0.1371168E+04  0.7818609E-02  0.8974957E-01
       -1   -1    0    0    0  501  0.00000000000E+00  0.00000000000E+00  0.55773139766E+03  0.55773139768E+03  0.50400001928E-02 0. -1.
        1   -1    0    0  501    0  0.00000000000E+00  0.00000000000E+00 -0.84274459679E+03  0.84274459681E+03  0.50400001928E-02 0.  1.
    10030    2    1    2    0    0  0.00000000000E+00  0.00000000000E+00 -0.28501319913E+03  0.14004759945E+04  0.13711675636E+04 0.  0.
        1    1    3    3  502    0 -0.49661710025E+03  0.14599966829E+03 -0.60164913627E+03  0.79367885861E+03  0.50400001928E-02 0.  1.
       -1    1    3    3    0  502  0.49661710025E+03 -0.14599966829E+03  0.31663593714E+03  0.60679713588E+03  0.50400001928E-02 0. -1.
</event>
<event>
 5   0  0.2083966E-03  0.1342532E+04  0.7818609E-02  0.8996500E-01
        2   -1    0    0  501    0  0.00000000000E+00  0.00000000000E+00  0.87916720048E+03  0.87916720048E+03  0.25500000920E-02 0.  1.
       -2   -1    0    0    0  501  0.00000000000E+00  0.00000000000E+00 -0.51252863398E+03  0.51252863399E+03  0.25500000920E-02 0. -1.
    10030    2    1    2    0    0  0.00000000000E+00  0.00000000000E+00  0.36663856650E+03  0.13916958345E+04  0.13425324790E+04 0.  0.
        1    1    3    3  502    0 -0.20592841231E+02 -0.39905270556E+03 -0.37581317372E+03  0.54854595841E+03  0.50400001928E-02 0. -1.
       -1    1    3    3    0  502  0.20592841231E+02  0.39905270556E+03  0.74245174022E+03  0.84314987606E+03  0.50400001928E-02 0.  1.
</event>
<event>
 5   0  0.1210275E-03  0.1552598E+04  0.7818609E-02  0.8850210E-01
        1   -1    0    0  501    0  0.00000000000E+00  0.00000000000E+00  0.99842970691E+03  0.99842970692E+03  0.50400001928E-02 0. -1.
       -1   -1    0    0    0  501  0.00000000000E+00  0.00000000000E+00 -0.60358821539E+03  0.60358821541E+03  0.50400001928E-02 0.  1.
    10030    2    1    2    0    0  0.00000000000E+00  0.00000000000E+00  0.39484149151E+03  0.16020179223E+04  0.15525983447E+04 0.  0.
        1    1    3    3  502    0  0.12274160143E+03 -0.53684785075E+03  0.76198304717E+03  0.94015385963E+03  0.50400001928E-02 0. -1.
       -1    1    3    3    0  502 -0.12274160143E+03  0.53684785075E+03 -0.36714155566E+03  0.66186406270E+03  0.50400001928E-02 0.  1.
</event>
<event>
 5   0  0.2190704E-03  0.1405022E+04  0.7818609E-02  0.8950192E-01
       -2   -1    0    0    0  501  0.00000000000E+00  0.00000000000E+00  0.86073474209E+03  0.86073474210E+03  0.25500000920E-02 0.  1.
        2   -1    0    0  501    0  0.00000000000E+00  0.00000000000E+00 -0.57337236827E+03  0.57337236827E+03  0.25500000920E-02 0. -1.
    10030    2    1    2    0    0  0.00000000000E+00  0.00000000000E+00  0.28736237383E+03  0.14341071104E+04  0.14050217330E+04 0.  0.
        5    1    3    3  502    0  0.10001183529E+03  0.63775139416E+03  0.42649130196E+03  0.77372225546E+03  0.46999998093E+01 0.  1.
       -5    1    3    3    0  502 -0.10001183529E+03 -0.63775139416E+03 -0.13912892814E+03  0.66038485491E+03  0.46999998093E+01 0. -1.
</event>
<event>
 5   0  0.2195980E-03  0.1429102E+04  0.7818609E-02  0.8933018E-01
       -2   -1    0    0    0  501  0.00000000000E+00  0.00000000000E+00  0.43714126378E+03  0.43714126379E+03  0.25500000920E-02 0. -1.
        2   -1    0    0  501    0  0.00000000000E+00  0.00000000000E+00 -0.11680053355E+04  0.11680053355E+04  0.25500000920E-02 0.  1.
    10030    2    1    2    0    0  0.00000000000E+00  0.00000000000E+00 -0.73086407177E+03  0.16051465993E+04  0.14291022755E+04 0.  0.
        4    1    3    3  502    0 -0.46036495573E+03 -0.28260264401E+03  0.15992766775E+03  0.56336366467E+03  0.12699999809E+01 0. -1.
       -4    1    3    3    0  502  0.46036495573E+03  0.28260264401E+03 -0.89079173952E+03  0.10417829347E+04  0.12699999809E+01 0.  1.
</event>
<event>
 5   0  0.2190704E-03  0.1390394E+04  0.7818609E-02  0.8960802E-01
        2   -1    0    0  501    0  0.00000000000E+00  0.00000000000E+00  0.98476397063E+03  0.98476397064E+03  0.25500000920E-02 0.  1.
       -2   -1    0    0    0  501  0.00000000000E+00  0.00000000000E+00 -0.49077618124E+03  0.49077618125E+03  0.25500000920E-02 0. -1.
    10030    2    1    2    0    0  0.00000000000E+00  0.00000000000E+00  0.49398778939E+03  0.14755401519E+04  0.13903937585E+04 0.  0.
        5    1    3    3  502    0 -0.13758804527E+03 -0.37465571481E+03  0.85104239558E+03  0.93999607654E+03  0.46999998093E+01 0.  1.
       -5    1    3    3    0  502  0.13758804527E+03  0.37465571481E+03 -0.35705460619E+03  0.53554407535E+03  0.46999998093E+01 0. -1.
</event>
<event>
 5   0  0.2190704E-03  0.1511566E+04  0.7818609E-02  0.8876798E-01
        2   -1    0    0  501    0  0.00000000000E+00  0.00000000000E+00  0.20031153041E+04  0.20031153041E+04  0.25500000920E-02 0.  1.
       -2   -1    0    0    0  501  0.00000000000E+00  0.00000000000E+00 -0.28515979682E+03  0.28515979683E+03  0.25500000920E-02 0. -1.
    10030    2    1    2    0    0  0.00000000000E+00  0.00000000000E+00  0.17179555072E+04  0.22882751009E+04  0.15115660133E+04 0.  0.
        5    1    3    3  502    0  0.51298828560E+03 -0.44954407426E+03  0.13517078225E+04  0.15140617502E+04  0.46999998093E+01 0. -1.
       -5    1    3    3    0  502 -0.51298828560E+03  0.44954407426E+03  0.36624768471E+03  0.77421335071E+03  0.46999998093E+01 0.  1.
</event>
<event>
 5   0  0.8293000E-04  0.1411861E+04  0.7818609E-02  0.8945278E-01
       -4   -1    0    0    0  501  0.00000000000E+00  0.00000000000E+00  0.74170597633E+03  0.74170706362E+03  0.12699999809E+01 0. -1.
        4   -1    0    0  501    0  0.00000000000E+00  0.00000000000E+00 -0.67187832596E+03  0.67187952625E+03  0.12699999809E+01 0.  1.
    10030    2    1    2    0    0  0.00000000000E+00  0.00000000000E+00  0.69827650376E+02  0.14135865899E+04  0.14118608806E+04 0.  0.
        2    1    3    3  502    0 -0.14293022671E+03 -0.12440582877E+03 -0.64594083855E+03  0.67316077341E+03  0.25500000920E-02 0.  1.
       -2    1    3    3    0  502  0.14293022671E+03  0.12440582877E+03  0.71576848893E+03  0.74042581646E+03  0.25500000920E-02 0. -1.
</event>
<event>
 5   0  0.2083966E-03  0.1378385E+04  0.7818609E-02  0.8969615E-01
        2   -1    0    0  501    0  0.00000000000E+00  0.00000000000E+00  0.20743476773E+04  0.20743476773E+04  0.25500000920E-02 0. -1.
       -2   -1    0    0    0  501  0.00000000000E+00  0.00000000000E+00 -0.22898105905E+03  0.22898105906E+03  0.25500000920E-02 0.  1.
    10030    2    1    2    0    0  0.00000000000E+00  0.00000000000E+00  0.18453666182E+04  0.23033287363E+04  0.13783850376E+04 0.  0.
        1    1    3    3  502    0 -0.27434885365E+03  0.16977622115E+03 -0.94995908073E+02  0.33632645056E+03  0.50400001928E-02 0.  1.
       -1    1    3    3    0  502  0.27434885365E+03 -0.16977622115E+03  0.19403625263E+04  0.19670022858E+04  0.50400001928E-02 0. -1.
</event>
<event>
 5   0  0.1238683E-03  0.9527802E+03  0.7818609E-02  0.9361907E-01
       -1   -1    0    0    0  501  0.00000000000E+00  0.00000000000E+00  0.36024062190E+03  0.36024062194E+03  0.50400001928E-02 0.  1.
        1   -1    0    0  501    0  0.00000000000E+00  0.00000000000E+00 -0.62998874924E+03  0.62998874926E+03  0.50400001928E-02 0. -1.
    10030    2    1    2    0    0  0.00000000000E+00  0.00000000000E+00 -0.26974812734E+03  0.99022937120E+03  0.95278022408E+03 0.  0.
        2    1    3    3  502    0 -0.44057869038E+03 -0.15106854878E+03 -0.23888898553E+03  0.52344936361E+03  0.25500000920E-02 0.  1.
       -2    1    3    3    0  502  0.44057869038E+03  0.15106854878E+03 -0.30859141812E+02  0.46678000759E+03  0.25500000920E-02 0. -1.
</event>
<event>
 5   0  0.2195980E-03  0.1416688E+04  0.7818609E-02  0.8941827E-01
       -2   -1    0    0    0  501  0.00000000000E+00  0.00000000000E+00  0.41871270745E+03  0.41871270746E+03  0.25500000920E-02 0. -1.
        2   -1    0    0  501    0  0.00000000000E+00  0.00000000000E+00 -0.11983191565E+04  0.11983191565E+04  0.25500000920E-02 0.  1.
    10030    2    1    2    0    0  0.00000000000E+00  0.00000000000E+00 -0.77960644905E+03  0.16170318640E+04  0.14166883333E+04 0.  0.
        4    1    3    3  502    0 -0.17475025727E+03  0.53935594862E+03  0.94872178690E+02  0.57484331336E+03  0.12699999809E+01 0. -1.
       -4    1    3    3    0  502  0.17475025727E+03 -0.53935594862E+03 -0.87447862774E+03  0.10421885506E+04  0.12699999809E+01 0.  1.
</event>
<event>
 5   0  0.1175374E-03  0.1323088E+04  0.7818609E-02  0.9011454E-01
       -1   -1    0    0    0  501  0.00000000000E+00  0.00000000000E+00  0.47607820123E+03  0.47607820126E+03  0.50400001928E-02 0. -1.
        1   -1    0    0  501    0  0.00000000000E+00  0.00000000000E+00 -0.91926222377E+03  0.91926222379E+03  0.50400001928E-02 0.  1.
    10030    2    1    2    0    0  0.00000000000E+00  0.00000000000E+00 -0.44318402254E+03  0.13953404250E+04  0.13230883659E+04 0.  0.
        3    1    3    3  502    0 -0.59268303328E+02 -0.38290312826E+03  0.34389181594E+03  0.51806286171E+03  0.10100000352E+00 0. -1.
       -3    1    3    3    0  502  0.59268303328E+02  0.38290312826E+03 -0.78707583848E+03  0.87727756334E+03  0.10100000352E+00 0.  1.
</event>
<event>
 5   0  0.2236184E-03  0.1335729E+04  0.7818609E-02  0.9001702E-01
       -2   -1    0    0    0  501  0.00000000000E+00  0.00000000000E+00  0.27970179004E+03  0.27970179005E+03  0.25500000920E-02 0. -1.
        2   -1    0    0  501    0  0.00000000000E+00  0.00000000000E+00 -0.15947101849E+04  0.15947101849E+04  0.25500000920E-02 0.  1.
    10030    2    1    2    0    0  0.00000000000E+00  0.00000000000E+00 -0.13150083949E+04  0.18744119750E+04  0.13357294536E+04 0.  0.
        3    1    3    3  502    0 -0.23215841062E+03  0.44326057335E+03 -0.12782360490E+04  0.13726852773E+04  0.10100000352E+00 0.  1.
       -3    1    3    3    0  502  0.23215841062E+03 -0.44326057335E+03 -0.36772345923E+02  0.50172669765E+03  0.10100000352E+00 0. -1.
</event>
<event>
 5   0  0.1225690E-03  0.1386332E+04  0.7818609E-02  0.8963772E-01
       -1   -1    0    0    0  501  0.00000000000E+00  0.00000000000E+00  0.10364716743E+04  0.10364716743E+04  0.50400001928E-02 0. -1.
        1   -1    0    0  501    0  0.00000000000E+00  0.00000000000E+00 -0.46357168187E+03  0.46357168189E+03  0.50400001928E-02 0.  1.
    10030    2    1    2    0    0  0.00000000000E+00  0.00000000000E+00  0.57289999239E+03  0.15000433562E+04  0.13863317313E+04 0.  0.
        4    1    3    3  502    0  0.21111626573E+03 -0.37333796081E+03 -0.30275718727E+03  0.52499032180E+03  0.12699999809E+01 0.  1.
       -4    1    3    3    0  502 -0.21111626573E+03  0.37333796081E+03  0.87565717966E+03  0.97505303437E+03  0.12699999809E+01 0. -1.
</event>
<event>
 5   0  0.2083966E-03  0.1434917E+04  0.7818609E-02  0.8928924E-01
        2   -1    0    0  501    0  0.00000000000E+00  0.00000000000E+00  0.11967407288E+04  0.11967407288E+04  0.25500000920E-02 0.  1.
       -2   -1    0    0    0  501  0.00000000000E+00  0.00000000000E+00 -0.43012405885E+03  0.43012405886E+03  0.25500000920E-02 0. -1.
    10030    2    1    2    0    0  0.00000000000E+00  0.00000000000E+00  0.76661667000E+03  0.16268647877E+04  0.14349173909E+04 0.  0.
        1    1    3    3  502    0  0.11708052969E+03 -0.63723835123E+03  0.73269761614E+03  0.97807278024E+03  0.50400001928E-02 0.  1.
       -1    1    3    3    0  502 -0.11708052969E+03  0.63723835123E+03  0.33919053853E+02  0.64879200747E+03  0.50400001928E-02 0. -1.
</event>
<event>
 5   0  0.1199720E-03  0.1406026E+04  0.7818609E-02  0.8949468E-01
       -1   -1    0    0    0  501  0.00000000000E+00  0.00000000000E+00  0.26438533033E+03  0.26438533038E+03  0.50400001928E-02 0. -1.
        1   -1    0    0  501    0  0.00000000000E+00  0.00000000000E+00 -0.18693445154E+04  0.18693445154E+04  0.50400001928E-02 0.  1.
    10030    2    1    2    0    0  0.00000000000E+00  0.00000000000E+00 -0.16049591851E+04  0.21337298458E+04  0.14060259845E+04 0.  0.
        5    1    3    3  502    0  0.24654199517E+03  0.35108034174E+03 -0.16476462404E+04  0.17025864399E+04  0.46999998093E+01 0.  1.
       -5    1    3    3    0  502 -0.24654199517E+03 -0.35108034174E+03  0.42687055376E+02  0.43114340588E+03  0.46999998093E+01 0. -1.
</event>
<event>
 5   0  0.1225690E-03  0.1418097E+04  0.7818609E-02  0.8940822E-01
        1   -1    0    0  501    0  0.00000000000E+00  0.00000000000E+00  0.17481761351E+04  0.17481761351E+04  0.50400001928E-02 0.  1.
       -1   -1    0    0    0  501  0.00000000000E+00  0.00000000000E+00 -0.28758539457E+03  0.28758539462E+03  0.50400001928E-02 0. -1.
    10030    2    1    2    0    0  0.00000000000E+00  0.00000000000E+00  0.14605907405E+04  0.20357615297E+04  0.14180972092E+04 0.  0.
        4    1    3    3  502    0 -0.58722999391E+03 -0.57912219196E+01  0.15989663395E+03  0.60863876844E+03  0.12699999809E+01 0. -1.
       -4    1    3    3    0  502  0.58722999391E+03  0.57912219196E+01  0.13006941066E+04  0.14271227613E+04  0.12699999809E+01 0.  1.
</event>
<event>
 5   0  0.2236184E-03  0.1404124E+04  0.7818609E-02  0.8950839E-01
       -2   -1    0    0    0  501  0.00000000000E+00  0.00000000000E+00  0.16806328226E+04  0.16806328226E+04  0.25500000920E-02 0. -1.
        2   -1    0    0  501    0  0.00000000000E+00  0.00000000000E+00 -0.29327705608E+03  0.29327705609E+03  0.25500000920E-02 0.  1.
    10030    2    1    2    0    0  0.00000000000E+00  0.00000000000E+00  0.13873557666E+04  0.19739098787E+04  0.14041239925E+04 0.  0.
        3    1    3    3  502    0 -0.25699829064E+03 -0.33086817787E+03  0.14856396651E+04  0.15435825528E+04  0.10100000352E+00 0. -1.
       -3    1    3    3    0  502  0.25699829064E+03  0.33086817787E+03 -0.98283898571E+02  0.43032732592E+03  0.10100000352E+00 0.  1.
</event>
<event>
 5   0  0.1199720E-03  0.1427053E+04  0.7818609E-02  0.8934466E-01
        1   -1    0    0  501    0  0.00000000000E+00  0.00000000000E+00  0.76632096188E+03  0.76632096190E+03  0.50400001928E-02 0.  1.
       -1   -1    0    0    0  501  0.00000000000E+00  0.00000000000E+00 -0.66436930772E+03  0.66436930774E+03  0.50400001928E-02 0. -1.
    10030    2    1    2    0    0  0.00000000000E+00  0.00000000000E+00  0.10195165416E+03  0.14306902696E+04  0.14270530852E+04 0.  0.
        5    1    3    3  502    0 -0.28398210046E+03  0.51300036336E+03  0.45856192809E+03  0.74438990998E+03  0.46999998093E+01 0.  1.
       -5    1    3    3    0  502  0.28398210046E+03 -0.51300036336E+03 -0.35661027393E+03  0.68630035965E+03  0.46999998093E+01 0. -1.
</event>
<event>
 5   0  0.1175374E-03  0.1406736E+04  0.7818609E-02  0.8948957E-01
        1   -1    0    0  501    0  0.00000000000E+00  0.00000000000E+00  0.15801863280E+04  0.15801863281E+04  0.50400001928E-02 0. -1.
       -1   -1    0    0    0  501  0.00000000000E+00  0.00000000000E+00 -0.31308093649E+03  0.31308093653E+03  0.50400001928E-02 0.  1.
    10030    2    1    2    0    0  0.00000000000E+00  0.00000000000E+00  0.12671053916E+04  0.18932672646E+04  0.14067355337E+04 0.  0.
        3    1    3    3  502    0  0.65434799098E+02  0.23204769950E+03  0.15228367742E+04  0.15418040403E+04  0.10100000352E+00 0. -1.
       -3    1    3    3    0  502 -0.65434799098E+02 -0.23204769950E+03 -0.25573138260E+03  0.35146322428E+03  0.10100000352E+00 0.  1.
</event>
<event>
 5   0  0.1238683E-03  0.1381212E+04  0.7818609E-02  0.8967532E-01
       -1   -1    0    0    0  501  0.00000000000E+00  0.00000000000E+00  0.11022560029E+04  0.11022560029E+04  0.50400001928E-02 0. -1.
        1   -1    0    0  501    0  0.00000000000E+00  0.00000000000E+00 -0.43269138072E+03  0.43269138075E+03  0.50400001928E-02 0.  1.
    10030    2    1    2    0    0  0.00000000000E+00  0.00000000000E+00  0.66956462219E+03  0.15349473837E+04  0.13812120356E+04 0.  0.
        2    1    3    3  502    0 -0.64156585079E+03 -0.25052551882E+03  0.27847857400E+03  0.74291324706E+03  0.25500000920E-02 0.  1.
       -2    1    3    3    0  502  0.64156585079E+03  0.25052551882E+03  0.39108604819E+03  0.79203413662E+03  0.25500000920E-02 0. -1.
</event>
<event>
 5   0  0.2172901E-03  0.1383583E+04  0.7818609E-02  0.8965789E-01
        2   -1    0    0  501    0  0.00000000000E+00  0.00000000000E+00  0.63471970371E+03  0.63471970372E+03  0.25500000920E-02 0.  1.
       -2   -1    0    0    0  501  0.00000000000E+00  0.00000000000E+00 -0.75399455890E+03  0.75399455890E+03  0.25500000920E-02 0. -1.
    10030    2    1    2    0    0  0.00000000000E+00  0.00000000000E+00 -0.11927485518E+03  0.13887142626E+04  0.13835826004E+04 0.  0.
        2    1    3    3  502    0 -0.31316437756E+03  0.55229071062E+03 -0.33538944949E+03  0.71804111250E+03  0.25500000920E-02 0. -1.
       -2    1    3    3    0  502  0.31316437756E+03 -0.55229071062E+03  0.21611459431E+03  0.67067315012E+03  0.25500000920E-02 0.  1.
</event>
<event>
 5   0  0.1238683E-03  0.1400989E+04  0.7818609E-02  0.8953103E-01
        1   -1    0    0  501    0  0.00000000000E+00  0.00000000000E+00  0.80619525100E+03  0.80619525101E+03  0.50400001928E-02 0.  1.
       -1   -1    0    0    0  501  0.00000000000E+00  0.00000000000E+00 -0.60865207544E+03  0.60865207546E+03  0.50400001928E-02 0. -1.
    10030    2    1    2    0    0  0.00000000000E+00  0.00000000000E+00  0.19754317555E+03  0.14148473265E+04  0.14009888119E+04 0.  0.
        2    1    3    3  502    0  0.55809599555E+02  0.14597659261E+03 -0.59082160590E+03  0.61114159325E+03  0.25500000920E-02 0. -1.
       -2    1    3    3    0  502 -0.55809599555E+02 -0.14597659261E+03  0.78836478145E+03  0.80370573323E+03  0.25500000920E-02 0.  1.
</event>
<event>
 5   0  0.1238683E-03  0.1398289E+04  0.7818609E-02  0.8955058E-01
        1   -1    0    0  501    0  0.00000000000E+00  0.00000000000E+00  0.62758825722E+03  0.62758825724E+03  0.50400001928E-02 0. -1.
       -1   -1    0    0    0  501  0.00000000000E+00  0.00000000000E+00 -0.77885954048E+03  0.77885954049E+03  0.50400001928E-02 0.  1.
    10030    2    1    2    0    0  0.00000000000E+00  0.00000000000E+00 -0.15127128326E+03  0.14064477977E+04  0.13982890998E+04 0.  0.
        2    1    3    3  502    0  0.48606887020E+03 -0.45133243281E+03 -0.29792100764E+03  0.72713192633E+03  0.25500000920E-02 0.  1.
       -2    1    3    3    0  502 -0.48606887020E+03  0.45133243281E+03  0.14664972439E+03  0.67931587141E+03  0.25500000920E-02 0. -1.
</event>
<event>
 5   0  0.1175374E-03  0.1351731E+04  0.7818609E-02  0.8989519E-01
        1   -1    0    0  501    0  0.00000000000E+00  0.00000000000E+00  0.13113575782E+04  0.13113575782E+04  0.50400001928E-02 0. -1.
       -1   -1    0    0    0  501  0.00000000000E+00  0.00000000000E+00 -0.34833697901E+03  0.34833697904E+03  0.50400001928E-02 0.  1.
    10030    2    1    2    0    0  0.00000000000E+00  0.00000000000E+00  0.96302059916E+03  0.16596945572E+04  0.13517312414E+04 0.  0.
        3    1    3    3  502    0  0.23817072532E+03  0.36327461258E+02 -0.29382188368E+03  0.37996879921E+03  0.10100000352E+00 0.  1.
       -3    1    3    3    0  502 -0.23817072532E+03 -0.36327461258E+02  0.12568424828E+04  0.12797257580E+04  0.10100000352E+00 0. -1.
</event>
<event>
 5   0  0.2083966E-03  0.1387367E+04  0.7818609E-02  0.8963014E-01
       -2   -1    0    0    0  501  0.00000000000E+00  0.00000000000E+00  0.31103606162E+03  0.31103606163E+03  0.25500000920E-02 0. -1.
        2   -1    0    0  501    0  0.00000000000E+00  0.00000000000E+00 -0.15470776663E+04  0.15470776663E+04  0.25500000920E-02 0.  1.
    10030    2    1    2    0    0  0.00000000000E+00  0.00000000000E+00 -0.12360416047E+04  0.18581137280E+04  0.13873672107E+04 0.  0.
        1    1    3    3  502    0  0.66714808946E+03  0.14329125002E+03 -0.78518241747E+03  0.10402549612E+04  0.50400001928E-02 0. -1.
       -1    1    3    3    0  502 -0.66714808946E+03 -0.14329125002E+03 -0.45085918725E+03  0.81785876675E+03  0.50400001928E-02 0.  1.
</event>
<event>
 5   0  0.2195980E-03  0.1407937E+04  0.7818609E-02  0.8948093E-01
        2   -1    0    0  501    0  0.00000000000E+00  0.00000000000E+00  0.16809465170E+04  0.16809465170E+04  0.25500000920E-02 0. -1.
       -2   -1    0    0    0  501  0.00000000000E+00  0.00000000000E+00 -0.29481701221E+03  0.29481701222E+03  0.25500000920E-02 0.  1.
    10030    2    1    2    0    0  0.00000000000E+00  0.00000000000E+00  0.13861295048E+04  0.19757635292E+04  0.14079369728E+04 0.  0.
        4    1    3    3  502    0  0.54896841803E+03  0.29396996934E+03  0.23235053028E+03  0.66466010012E+03  0.12699999809E+01 0.  1.
       -4    1    3    3    0  502 -0.54896841803E+03 -0.29396996934E+03  0.11537789745E+04  0.13111034291E+04  0.12699999809E+01 0. -1.
</event>
<event>
 5   0  0.1210275E-03  0.1377580E+04  0.7818609E-02  0.8970209E-01
        1   -1    0    0  501    0  0.00000000000E+00  0.00000000000E+00  0.27909614815E+03  0.27909614819E+03  0.50400001928E-02 0. -1.
       -1   -1    0    0    0  501  0.00000000000E+00  0.00000000000E+00 -0.16998857224E+04  0.16998857224E+04  0.50400001928E-02 0.  1.
    10030    2    1    2    0    0  0.00000000000E+00  0.00000000000E+00 -0.14207895743E+04  0.19789818706E+04  0.13775798452E+04 0.  0.
        1    1    3    3  502    0  0.34699723156E+03  0.22724657809E+02  0.14373663843E+03  0.37627610877E+03  0.50400001928E-02 0. -1.
       -1    1    3    3    0  502 -0.34699723156E+03 -0.22724657809E+02 -0.15645262127E+04  0.16027057619E+04  0.50400001928E-02 0.  1.
</event>
<event>
 5   0  0.2083966E-03  0.1333377E+04  0.7818609E-02  0.9003508E-01
       -2   -1    0    0    0  501  0.00000000000E+00  0.00000000000E+00  0.26295233308E+03  0.26295233309E+03  0.25500000920E-02 0. -1.
        2   -1    0    0  501    0  0.00000000000E+00  0.00000000000E+00 -0.16903204019E+04  0.16903204019E+04  0.25500000920E-02 0.  1.
    10030    2    1    2    0    0  0.00000000000E+00  0.00000000000E+00 -0.14273680689E+04  0.19532727350E+04  0.13333772060E+04 0.  0.
        1    1    3    3  502    0 -0.66660573826E+02 -0.32593068045E+03 -0.15600389900E+04  0.15951163252E+04  0.50400001928E-02 0.  1.
       -1    1    3    3    0  502  0.66660573826E+02  0.32593068045E+03  0.13267092114E+03  0.35815640983E+03  0.50400001928E-02 0. -1.
</event>
<event>
 5   0  0.2195980E-03  0.1515953E+04  0.7818609E-02  0.8873913E-01
        2   -1    0    0  501    0  0.00000000000E+00  0.00000000000E+00  0.75943773699E+03  0.75943773699E+03  0.25500000920E-02 0.  1.
       -2   -1    0    0    0  501  0.00000000000E+00  0.00000000000E+00 -0.75651820715E+03  0.75651820716E+03  0.25500000920E-02 0. -1.
    10030    2    1    2    0    0  0.00000000000E+00  0.00000000000E+00  0.29195298360E+01  0.15159559441E+04  0.15159531328E+04 0.  0.
        4    1    3    3  502    0 -0.11132945463E+03  0.17215638764E+03  0.73118352640E+03  0.75938332314E+03  0.12699999809E+01 0.  1.
       -4    1    3    3    0  502  0.11132945463E+03 -0.17215638764E+03 -0.72826399657E+03  0.75657262101E+03  0.12699999809E+01 0. -1.
</event>
<event>
 5   0  0.2190704E-03  0.1420969E+04  0.7818609E-02  0.8938778E-01
       -2   -1    0    0    0  501  0.00000000000E+00  0.00000000000E+00  0.29152840991E+03  0.29152840992E+03  0.25500000920E-02 0.  1.
        2   -1    0    0  501    0  0.00000000000E+00  0.00000000000E+00 -0.17315241604E+04  0.17315241604E+04  0.25500000920E-02 0. -1.
    10030    2    1    2    0    0  0.00000000000E+00  0.00000000000E+00 -0.14399957505E+04  0.20230525704E+04  0.14209693666E+04 0.  0.
        5    1    3    3  502    0 -0.21866350342E+03  0.29060498717E+03  0.14893536831E+03  0.39302521577E+03  0.46999998093E+01 0.  1.
       -5    1    3    3    0  502  0.21866350342E+03 -0.29060498717E+03 -0.15889311188E+04  0.16300273546E+04  0.46999998093E+01 0. -1.
</event>
<event>
 5   0  0.2083966E-03  0.1310949E+04  0.7818609E-02  0.9020927E-01
       -2   -1    0    0    0  501  0.00000000000E+00  0.00000000000E+00  0.64425466566E+03  0.64425466566E+03  0.25500000920E-02 0.  1.
        2   -1    0    0  501    0  0.00000000000E+00  0.00000000000E+00 -0.66688949440E+03  0.66688949440E+03  0.25500000920E-02 0. -1.
    10030    2    1    2    0    0  0.00000000000E+00  0.00000000000E+00 -0.22634828741E+02  0.13111441601E+04  0.13109487683E+04 0.  0.
        1    1    3    3  502    0  0.30308641961E+03  0.10576205031E+03  0.56025676565E+03  0.64570475646E+03  0.50400001928E-02 0.  1.
       -1    1    3    3    0  502 -0.30308641961E+03 -0.10576205031E+03 -0.58289159439E+03  0.66543940361E+03  0.50400001928E-02 0. -1.
</event>
<event>
 5   0  0.2190704E-03  0.1378559E+04  0.7818609E-02  0.8969486E-01
       -2   -1    0    0    0  501  0.00000000000E+00  0.00000000000E+00  0.50013477776E+03  0.50013477777E+03  0.25500000920E-02 0.  1.
        2   -1    0    0  501    0  0.00000000000E+00  0.00000000000E+00 -0.94995701998E+03  0.94995701999E+03  0.25500000920E-02 0. -1.
    10030    2    1    2    0    0  0.00000000000E+00  0.00000000000E+00 -0.44982224222E+03  0.14500917978E+04  0.13785594555E+04 0.  0.
        5    1    3    3  502    0  0.16879834235E+03  0.22113857431E+03 -0.88825992403E+03  0.93081842057E+03  0.46999998093E+01 0. -1.
       -5    1    3    3    0  502 -0.16879834235E+03 -0.22113857431E+03  0.43843768181E+03  0.51927337719E+03  0.46999998093E+01 0.  1.
</event>
<event>
 5   0  0.2083966E-03  0.1343868E+04  0.7818609E-02  0.8995483E-01
        2   -1    0    0  501    0  0.00000000000E+00  0.00000000000E+00  0.11991145437E+04  0.11991145437E+04  0.25500000920E-02 0. -1.
       -2   -1    0    0    0  501  0.00000000000E+00  0.00000000000E+00 -0.37652413539E+03  0.37652413539E+03  0.25500000920E-02 0.  1.
    10030    2    1    2    0    0  0.00000000000E+00  0.00000000000E+00  0.82259040830E+03  0.15756386791E+04  0.13438683965E+04 0.  0.
        1    1    3    3  502    0  0.48001713574E+03 -0.18560986700E+03  0.91780564528E+03  0.10522521921E+04  0.50400001928E-02 0. -1.
       -1    1    3    3    0  502 -0.48001713574E+03  0.18560986700E+03 -0.95215236986E+02  0.52338648694E+03  0.50400001928E-02 0.  1.
</event>
<event>
 5   0  0.1225690E-03  0.1423160E+04  0.7818609E-02  0.8937222E-01
        1   -1    0    0  501    0  0.00000000000E+00  0.00000000000E+00  0.77680084943E+03  0.77680084945E+03  0.50400001928E-02 0.  1.
       -1   -1    0    0    0  501  0.00000000000E+00  0.00000000000E+00 -0.65183553437E+03  0.65183553439E+03  0.50400001928E-02 0. -1.
    10030    2    1    2    0    0  0.00000000000E+00  0.00000000000E+00  0.12496531506E+03  0.14286363838E+04  0.14231604222E+04 0.  0.
        4    1    3    3  502    0 -0.27090915190E+03  0.64743523849E+02 -0.59483550708E+03  0.65682142614E+03  0.12699999809E+01 0. -1.
       -4    1    3    3    0  502  0.27090915190E+03 -0.64743523849E+02  0.71980082214E+03  0.77181495769E+03  0.12699999809E+01 0.  1.
</event>
<event>
 5   0  0.1175374E-03  0.1405002E+04  0.7818609E-02  0.8950206E-01
        1   -1    0    0  501    0  0.00000000000E+00  0.00000000000E+00  0.71108103115E+03  0.71108103117E+03  0.50400001928E-02 0.  1.
       -1   -1    0    0    0  501  0.00000000000E+00  0.00000000000E+00 -0.69402444611E+03  0.69402444613E+03  0.50400001928E-02 0. -1.
    10030    2    1    2    0    0  0.00000000000E+00  0.00000000000E+00  0.17056585040E+02  0.14051054773E+04  0.14050019485E+04 0.  0.
        3    1    3    3  502    0 -0.60185410999E+03 -0.35431042112E+03  0.84318864681E+02  0.70347276093E+03  0.10100000352E+00 0.  1.
       -3    1    3    3    0  502  0.60185410999E+03  0.35431042112E+03 -0.67262279642E+02  0.70163271637E+03  0.10100000352E+00 0. -1.
</event>
<event>
 5   0  0.2083966E-03  0.1423457E+04  0.7818609E-02  0.8937012E-01
       -2   -1    0    0    0  501  0.00000000000E+00  0.00000000000E+00  0.24688172883E+03  0.24688172884E+03  0.25500000920E-02 0.  1.
        2   -1    0    0  501    0  0.00000000000E+00  0.00000000000E+00 -0.20518230311E+04  0.20518230311E+04  0.25500000920E-02 0. -1.
    10030    2    1    2    0    0  0.00000000000E+00  0.00000000000E+00 -0.18049413023E+04  0.22987047600E+04  0.14234572241E+04 0.  0.
        1    1    3    3  502    0  0.13865314220E+03 -0.82449897206E+02  0.21697047700E+03  0.27036802198E+03  0.50400001928E-02 0.  1.
       -1    1    3    3    0  502 -0.13865314220E+03  0.82449897206E+02 -0.20219117793E+04  0.20283367380E+04  0.50400001928E-02 0. -1.
</event>
<event>
 5   0  0.1238683E-03  0.1406234E+04  0.7818609E-02  0.8949318E-01
        1   -1    0    0  501    0  0.00000000000E+00  0.00000000000E+00  0.13645223814E+04  0.13645223814E+04  0.50400001928E-02 0.  1.
       -1   -1    0    0    0  501  0.00000000000E+00  0.00000000000E+00 -0.36230526548E+03  0.36230526552E+03  0.50400001928E-02 0. -1.
    10030    2    1    2    0    0  0.00000000000E+00  0.00000000000E+00  0.10022171159E+04  0.17268276469E+04  0.14062341820E+04 0.  0.
        2    1    3    3  502    0 -0.10757385691E+03 -0.38438674788E+03 -0.20968760746E+03  0.45088158020E+03  0.25500000920E-02 0. -1.
       -2    1    3    3    0  502  0.10757385691E+03  0.38438674788E+03  0.12119047233E+04  0.12759460667E+04  0.25500000920E-02 0.  1.
</event>
<event>
 5   0  0.2172901E-03  0.1421979E+04  0.7818609E-02  0.8938061E-01
       -2   -1    0    0    0  501  0.00000000000E+00  0.00000000000E+00  0.11364087601E+04  0.11364087601E+04  0.25500000920E-02 0. -1.
        2   -1    0    0  501    0  0.00000000000E+00  0.00000000000E+00 -0.44482741854E+03  0.44482741854E+03  0.25500000920E-02 0.  1.
    10030    2    1    2    0    0  0.00000000000E+00  0.00000000000E+00  0.69158134158E+03  0.15812361787E+04  0.14219785866E+04 0.  0.
        2    1    3    3  502    0 -0.20708819397E+03 -0.60984050237E+03  0.68071199511E+03  0.93710179741E+03  0.25500000920E-02 0. -1.
       -2    1    3    3    0  502  0.20708819397E+03  0.60984050237E+03  0.10869346473E+02  0.64413438125E+03  0.25500000920E-02 0.  1.
</event>
<event>
 5   0  0.1225690E-03  0.1397869E+04  0.7818609E-02  0.8955363E-01
       -1   -1    0    0    0  501  0.00000000000E+00  0.00000000000E+00  0.31856783752E+03  0.31856783756E+03  0.50400001928E-02 0.  1.
        1   -1    0    0  501    0  0.00000000000E+00  0.00000000000E+00 -0.15334542188E+04  0.15334542188E+04  0.50400001928E-02 0. -1.
    10030    2    1    2    0    0  0.00000000000E+00  0.00000000000E+00 -0.12148863813E+04  0.18520220563E+04  0.13978686554E+04 0.  0.
        4    1    3    3  502    0 -0.55909735556E+03  0.68175291675E+02 -0.59140651813E+02  0.56633643092E+03  0.12699999809E+01 0.  1.
       -4    1    3    3    0  502  0.55909735556E+03 -0.68175291675E+02 -0.11557457294E+04  0.12856856254E+04  0.12699999809E+01 0. -1.
</event>
<event>
 5   0  0.2190704E-03  0.1404827E+04  0.7818609E-02  0.8950332E-01
        2   -1    0    0  501    0  0.00000000000E+00  0.00000000000E+00  0.20077997542E+04  0.20077997542E+04  0.25500000920E-02 0. -1.
       -2   -1    0    0    0  501  0.00000000000E+00  0.00000000000E+00 -0.24573411630E+03  0.24573411632E+03  0.25500000920E-02 0.  1.
    10030    2    1    2    0    0  0.00000000000E+00  0.00000000000E+00  0.17620656379E+04  0.22535338705E+04  0.14048272468E+04 0.  0.
        5    1    3    3  502    0 -0.57473441910E+03  0.32031677387E+03  0.12754034326E+04  0.14351301314E+04  0.46999998093E+01 0. -1.
       -5    1    3    3    0  502  0.57473441910E+03 -0.32031677387E+03  0.48666220522E+03  0.81840373906E+03  0.46999998093E+01 0.  1.
</event>
<event>
 5   0  0.1225690E-03  0.1452695E+04  0.7818609E-02  0.8916534E-01
        1   -1    0    0  501    0  0.00000000000E+00  0.00000000000E+00  0.10869646525E+04  0.10869646525E+04  0.50400001928E-02 0. -1.
       -1   -1    0    0    0  501  0.00000000000E+00  0.00000000000E+00 -0.48537045272E+03  0.48537045275E+03  0.50400001928E-02 0.  1.
    10030    2    1    2    0    0  0.00000000000E+00  0.00000000000E+00  0.60159419977E+03  0.15723351053E+04  0.14526947725E+04 0.  0.
        4    1    3    3  502    0  0.48776493931E+03 -0.53738567617E+03  0.26867256061E+03  0.77387632003E+03  0.12699999809E+01 0. -1.
       -4    1    3    3    0  502 -0.48776493931E+03  0.53738567617E+03  0.33292163916E+03  0.79845878522E+03  0.12699999809E+01 0.  1.
</event>
<event>
 5   0  0.2083966E-03  0.1358986E+04  0.7818609E-02  0.8984054E-01
        2   -1    0    0  501    0  0.00000000000E+00  0.00000000000E+00  0.42189373159E+03  0.42189373160E+03  0.25500000920E-02 0. -1.
       -2   -1    0    0    0  501  0.00000000000E+00  0.00000000000E+00 -0.10943767564E+04  0.10943767564E+04  0.25500000920E-02 0.  1.
    10030    2    1    2    0    0  0.00000000000E+00  0.00000000000E+00 -0.67248302479E+03  0.15162704880E+04  0.13589859360E+04 0.  0.
        1    1    3    3  502    0  0.35905133101E+03  0.53012367342E+03 -0.82397984476E+02  0.64555278273E+03  0.50400001928E-02 0. -1.
       -1    1    3    3    0  502 -0.35905133101E+03 -0.53012367342E+03 -0.59008504032E+03  0.87071770526E+03  0.50400001928E-02 0.  1.
</event>
<event>
 5   0  0.1238683E-03  0.1433264E+04  0.7818609E-02  0.8930087E-01
       -1   -1    0    0    0  501  0.00000000000E+00  0.00000000000E+00  0.72151221284E+03  0.72151221286E+03  0.50400001928E-02 0.  1.
        1   -1    0    0  501    0  0.00000000000E+00  0.00000000000E+00 -0.71178433879E+03  0.71178433881E+03  0.50400001928E-02 0. -1.
    10030    2    1    2    0    0  0.00000000000E+00  0.00000000000E+00  0.97278740437E+01  0.14332965517E+04  0.14332635394E+04 0.  0.
        2    1    3    3  502    0 -0.12251630128E+03 -0.64208854451E+03 -0.28886574243E+03  0.71465471398E+03  0.25500000920E-02 0. -1.
       -2    1    3    3    0  502  0.12251630128E+03  0.64208854451E+03  0.29859361647E+03  0.71864183768E+03  0.25500000920E-02 0.  1.
</event>
<event>
 5   0  0.1238683E-03  0.1400685E+04  0.7818609E-02  0.8953323E-01
       -1   -1    0    0    0  501  0.00000000000E+00  0.00000000000E+00  0.70381158103E+03  0.70381158105E+03  0.50400001928E-02 0. -1.
        1   -1    0    0  501    0  0.00000000000E+00  0.00000000000E+00 -0.69689077965E+03  0.69689077966E+03  0.50400001928E-02 0.  1.
    10030    2    1    2    0    0  0.00000000000E+00  0.00000000000E+00  0.69208013833E+01  0.14007023607E+04  0.14006852629E+04 0.  0.
        2    1    3    3  502    0  0.13074792848E+03 -0.11818794445E+03 -0.67435049213E+03  0.69700215011E+03  0.25500000920E-02 0.  1.
       -2    1    3    3    0  502 -0.13074792848E+03  0.11818794445E+03  0.68127129352E+03  0.70370021060E+03  0.25500000920E-02 0. -1.
</event>
<event>
 5   0  0.1175374E-03  0.1413464E+04  0.7818609E-02  0.8944130E-01
        1   -1    0    0  501    0  0.00000000000E+00  0.00000000000E+00  0.12760001331E+04  0.12760001331E+04  0.50400001928E-02 0. -1.
       -1   -1    0    0    0  501  0.00000000000E+00  0.00000000000E+00 -0.39143432801E+03  0.39143432804E+03  0.50400001928E-02 0.  1.
    10030    2    1    2    0    0  0.00000000000E+00  0.00000000000E+00  0.88456580508E+03  0.16674344611E+04  0.14134641908E+04 0.  0.
        3    1    3    3  502    0 -0.57379402826E+03 -0.19842586283E+03  0.86902336856E+03  0.10601009552E+04  0.10100000352E+00 0. -1.
       -3    1    3    3    0  502  0.57379402826E+03  0.19842586283E+03  0.15542436517E+02  0.60733350594E+03  0.10100000352E+00 0.  1.
</event>
<event>
 5   0  0.1199720E-03  0.1398375E+04  0.7818609E-02  0.8954995E-01
        1   -1    0    0  501    0  0.00000000000E+00  0.00000000000E+00  0.13649973755E+04  0.13649973755E+04  0.50400001928E-02 0.  1.
       -1   -1    0    0    0  501  0.00000000000E+00  0.00000000000E+00 -0.35814243183E+03  0.35814243186E+03  0.50400001928E-02 0. -1.
    10030    2    1    2    0    0  0.00000000000E+00  0.00000000000E+00  0.10068549436E+04  0.17231398073E+04  0.13983754568E+04 0.  0.
        5    1    3    3  502    0  0.93239638295E+02 -0.66687298284E+03  0.27148986638E+03  0.72604548269E+03  0.46999998093E+01 0. -1.
       -5    1    3    3    0  502 -0.93239638295E+02  0.66687298284E+03  0.73536507724E+03  0.99709432463E+03  0.46999998093E+01 0.  1.
</event>
<event>
 5   0  0.1225690E-03  0.1399997E+04  0.7818609E-02  0.8953821E-01
       -1   -1    0    0    0  501  0.00000000000E+00  0.00000000000E+00  0.82155785008E+03  0.82155785009E+03  0.50400001928E-02 0. -1.
        1   -1    0    0  501    0  0.00000000000E+00  0.00000000000E+00 -0.59642518550E+03  0.59642518552E+03  0.50400001928E-02 0.  1.
    10030    2    1    2    0    0  0.00000000000E+00  0.00000000000E+00  0.22513266458E+03  0.14179830356E+04  0.13999968474E+04 0.  0.
        4    1    3    3  502    0 -0.27646729835E+03  0.21718184402E+03 -0.50051513682E+03  0.61165279000E+03  0.12699999809E+01 0.  1.
       -4    1    3    3    0  502  0.27646729835E+03 -0.21718184402E+03  0.72564780140E+03  0.80633024562E+03  0.12699999809E+01 0. -1.
</event>
<event>
 5   0  0.2195980E-03  0.1411006E+04  0.7818609E-02  0.8945890E-01
        2   -1    0    0  501    0  0.00000000000E+00  0.00000000000E+00  0.83996185242E+03  0.83996185243E+03  0.25500000920E-02 0. -1.
       -2   -1    0    0    0  501  0.00000000000E+00  0.00000000000E+00 -0.59256761587E+03  0.59256761588E+03  0.25500000920E-02 0.  1.
    10030    2    1    2    0    0  0.00000000000E+00  0.00000000000E+00  0.24739423655E+03  0.14325294683E+04  0.14110055880E+04 0.  0.
        4    1    3    3  502    0  0.13250952285E+03 -0.37934900188E+03  0.71242918591E+03  0.81793728165E+03  0.12699999809E+01 0. -1.
       -4    1    3    3    0  502 -0.13250952285E+03  0.37934900188E+03 -0.46503494936E+03  0.61459218666E+03  0.12699999809E+01 0.  1.
</event>
<event>
 5   0  0.2083966E-03  0.1467561E+04  0.7818609E-02  0.8906316E-01
        2   -1    0    0  501    0  0.00000000000E+00  0.00000000000E+00  0.57503204503E+03  0.57503204504E+03  0.25500000920E-02 0. -1.
       -2   -1    0    0    0  501  0.00000000000E+00  0.00000000000E+00 -0.93635445939E+03  0.93635445939E+03  0.25500000920E-02 0.  1.
    10030    2    1    2    0    0  0.00000000000E+00  0.00000000000E+00 -0.36132241436E+03  0.15113865044E+04  0.14675609966E+04 0.  0.
        1    1    3    3  502    0  0.52259557154E+03 -0.45263727948E+03 -0.43386336747E+03  0.81622549569E+03  0.50400001928E-02 0. -1.
       -1    1    3    3    0  502 -0.52259557154E+03  0.45263727948E+03  0.72540953111E+02  0.69516100874E+03  0.50400001928E-02 0.  1.
</event>
<event>
 5   0  0.2190704E-03  0.1393790E+04  0.7818609E-02  0.8958326E-01
        2   -1    0    0  501    0  0.00000000000E+00  0.00000000000E+00  0.15748180898E+04  0.15748180898E+04  0.25500000920E-02 0. -1.
       -2   -1    0    0    0  501  0.00000000000E+00  0.00000000000E+00 -0.30839271219E+03  0.30839271220E+03  0.25500000920E-02 0.  1.
    10030    2    1    2    0    0  0.00000000000E+00  0.00000000000E+00  0.12664253776E+04  0.18832108020E+04  0.13937896856E+04 0.  0.
        5    1    3    3  502    0 -0.39057902479E+03 -0.15651940110E+03  0.13837851721E+04  0.14463518902E+04  0.46999998093E+01 0. -1.
       -5    1    3    3    0  502  0.39057902479E+03  0.15651940110E+03 -0.11735979449E+03  0.43685891188E+03  0.46999998093E+01 0.  1.
</event>
<event>
 5   0  0.2172901E-03  0.1381450E+04  0.7818609E-02  0.8967356E-01
       -2   -1    0    0    0  501  0.00000000000E+00  0.00000000000E+00  0.61455509267E+03  0.61455509268E+03  0.25500000920E-02 0. -1.
        2   -1    0    0  501    0  0.00000000000E+00  0.00000000000E+00 -0.77633583677E+03  0.77633583677E+03  0.25500000920E-02 0.  1.
    10030    2    1    2    0    0  0.00000000000E+00  0.00000000000E+00 -0.16178074409E+03  0.13908909294E+04  0.13814501686E+04 0.  0.
        2    1    3    3  502    0  0.61953779189E+03 -0.26004077315E+03 -0.24215004351E+03  0.71420229827E+03  0.25500000920E-02 0.  1.
       -2    1    3    3    0  502 -0.61953779189E+03  0.26004077315E+03  0.80369299416E+02  0.67668863118E+03  0.25500000920E-02 0. -1.
</event>
<event>
 5   0  0.1238683E-03  0.1366969E+04  0.7818609E-02  0.8978081E-01
       -1   -1    0    0    0  501  0.00000000000E+00  0.00000000000E+00  0.49979357078E+03  0.49979357080E+03  0.50400001928E-02 0. -1.
        1   -1    0    0  501    0  0.00000000000E+00  0.00000000000E+00 -0.93468783824E+03  0.93468783825E+03  0.50400001928E-02 0.  1.
    10030    2    1    2    0    0  0.00000000000E+00  0.00000000000E+00 -0.43489426746E+03  0.14344814091E+04  0.13669688691E+04 0.  0.
        2    1    3    3  502    0 -0.19356457611E+03  0.43255627057E+03 -0.73429499268E+03  0.87393438462E+03  0.25500000920E-02 0.  1.
       -2    1    3    3    0  502  0.19356457611E+03 -0.43255627057E+03  0.29940072522E+03  0.56054702444E+03  0.25500000920E-02 0. -1.
</event>
<event>
 5   0  0.1210275E-03  0.1417587E+04  0.7818609E-02  0.8941185E-01
        1   -1    0    0  501    0  0.00000000000E+00  0.00000000000E+00  0.35882655954E+03  0.35882655958E+03  0.50400001928E-02 0. -1.
       -1   -1    0    0    0  501  0.00000000000E+00  0.00000000000E+00 -0.14000872294E+04  0.14000872294E+04  0.50400001928E-02 0.  1.
    10030    2    1    2    0    0  0.00000000000E+00  0.00000000000E+00 -0.10412606698E+04  0.17589137890E+04  0.14175873640E+04 0.  0.
        1    1    3    3  502    0  0.60023433668E+03 -0.41709831719E+02 -0.98549659391E+03  0.11546534136E+04  0.50400001928E-02 0.  1.
       -1    1    3    3    0  502 -0.60023433668E+03  0.41709831719E+02 -0.55764075913E+02  0.60426037531E+03  0.50400001928E-02 0. -1.
</event>
<event>
 5   0  0.2190704E-03  0.1374574E+04  0.7818609E-02  0.8972431E-01
        2   -1    0    0  501    0  0.00000000000E+00  0.00000000000E+00  0.14031479756E+04  0.14031479756E+04  0.25500000920E-02 0.  1.
       -2   -1    0    0    0  501  0.00000000000E+00  0.00000000000E+00 -0.33664571253E+03  0.33664571254E+03  0.25500000920E-02 0. -1.
    10030    2    1    2    0    0  0.00000000000E+00  0.00000000000E+00  0.10665022631E+04  0.17397936881E+04  0.13745744797E+04 0.  0.
        5    1    3    3  502    0 -0.82913771478E+02 -0.22433338474E+03 -0.28225559761E+03  0.36998712597E+03  0.46999998093E+01 0. -1.
       -5    1    3    3    0  502  0.82913771478E+02  0.22433338474E+03  0.13487578607E+04  0.13698065622E+04  0.46999998093E+01 0.  1.
</event>
<event>
 5   0  0.2083966E-03  0.1487819E+04  0.7818609E-02  0.8892594E-01
        2   -1    0    0  501    0  0.00000000000E+00  0.00000000000E+00  0.11144935669E+04  0.11144935669E+04  0.25500000920E-02 0. -1.
       -2   -1    0    0    0  501  0.00000000000E+00  0.00000000000E+00 -0.49654974227E+03  0.49654974227E+03  0.25500000920E-02 0.  1.
    10030    2    1    2    0    0  0.00000000000E+00  0.00000000000E+00  0.61794382467E+03  0.16110433092E+04  0.14878192006E+04 0.  0.
        1    1    3    3  502    0 -0.43561743726E+03 -0.55356748616E+03  0.49994082372E+02  0.70618618061E+03  0.50400001928E-02 0.  1.
       -1    1    3    3    0  502  0.43561743726E+03  0.55356748616E+03  0.56794974229E+03  0.90485712860E+03  0.50400001928E-02 0. -1.
</event>
<event>
 5   0  0.1199720E-03  0.1381154E+04  0.7818609E-02  0.8967574E-01
        1   -1    0    0  501    0  0.00000000000E+00  0.00000000000E+00  0.46993918458E+03  0.46993918461E+03  0.50400001928E-02 0.  1.
       -1   -1    0    0    0  501  0.00000000000E+00  0.00000000000E+00 -0.10148052422E+04  0.10148052422E+04  0.50400001928E-02 0. -1.
    10030    2    1    2    0    0  0.00000000000E+00  0.00000000000E+00 -0.54486605762E+03  0.14847444268E+04  0.13811542246E+04 0.  0.
        5    1    3    3  502    0  0.59815083571E+03  0.24170055451E+03 -0.76437587026E+01  0.64520081940E+03  0.46999998093E+01 0.  1.
       -5    1    3    3    0  502 -0.59815083571E+03 -0.24170055451E+03 -0.53722229892E+03  0.83954360742E+03  0.46999998093E+01 0. -1.
</event>
<event>
 5   0  0.1175374E-03  0.1420023E+04  0.7818609E-02  0.8939451E-01
        1   -1    0    0  501    0  0.00000000000E+00  0.00000000000E+00  0.38981199376E+03  0.38981199379E+03  0.50400001928E-02 0.  1.
       -1   -1    0    0    0  501  0.00000000000E+00  0.00000000000E+00 -0.12932285608E+04  0.12932285608E+04  0.50400001928E-02 0. -1.
    10030    2    1    2    0    0  0.00000000000E+00  0.00000000000E+00 -0.90341656708E+03  0.16830405546E+04  0.14200225403E+04 0.  0.
        3    1    3    3  502    0 -0.46399915309E+03 -0.38423310829E+03 -0.63652168994E+01  0.60247059825E+03  0.10100000352E+00 0.  1.
       -3    1    3    3    0  502  0.46399915309E+03  0.38423310829E+03 -0.89705135018E+03  0.10805699564E+04  0.10100000352E+00 0. -1.
</event>
<event>
 5   0  0.2190704E-03  0.1358484E+04  0.7818609E-02  0.8984430E-01
       -2   -1    0    0    0  501  0.00000000000E+00  0.00000000000E+00  0.67399131667E+03  0.67399131668E+03  0.25500000920E-02 0. -1.
        2   -1    0    0  501    0  0.00000000000E+00  0.00000000000E+00 -0.68453389849E+03  0.68453389849E+03  0.25500000920E-02 0.  1.
    10030    2    1    2    0    0  0.00000000000E+00  0.00000000000E+00 -0.10542581812E+02  0.13585252152E+04  0.13584843077E+04 0.  0.
        5    1    3    3  502    0 -0.17214161632E+03 -0.37806526662E+03 -0.54267162945E+03  0.68343300278E+03  0.46999998093E+01 0.  1.
       -5    1    3    3    0  502  0.17214161632E+03  0.37806526662E+03  0.53212904763E+03  0.67509221239E+03  0.46999998093E+01 0. -1.
</event>
<event>
 5   0  0.1175374E-03  0.1368546E+04  0.7818609E-02  0.8976906E-01
        1   -1    0    0  501    0  0.00000000000E+00  0.00000000000E+00  0.86344555046E+03  0.86344555047E+03  0.50400001928E-02 0. -1.
       -1   -1    0    0    0  501  0.00000000000E+00  0.00000000000E+00 -0.54228067829E+03  0.54228067831E+03  0.50400001928E-02 0.  1.
    10030    2    1    2    0    0  0.00000000000E+00  0.00000000000E+00  0.32116487217E+03  0.14057262288E+04  0.13685464388E+04 0.  0.
        3    1    3    3  502    0  0.65023501297E+03 -0.91968613992E+02 -0.36906430961E+02  0.65774302953E+03  0.10100000352E+00 0. -1.
       -3    1    3    3    0  502 -0.65023501297E+03  0.91968613992E+02  0.35807130313E+03  0.74798319926E+03  0.10100000352E+00 0.  1.
</event>
<event>
 5   0  0.2236184E-03  0.1411166E+04  0.7818609E-02  0.8945775E-01
       -2   -1    0    0    0  501  0.00000000000E+00  0.00000000000E+00  0.24695129549E+03  0.24695129550E+03  0.25500000920E-02 0. -1.
        2   -1    0    0  501    0  0.00000000000E+00  0.00000000000E+00 -0.20159748950E+04  0.20159748950E+04  0.25500000920E-02 0.  1.
    10030    2    1    2    0    0  0.00000000000E+00  0.00000000000E+00 -0.17690235996E+04  0.22629261905E+04  0.14111663432E+04 0.  0.
        3    1    3    3  502    0  0.33626205003E+03  0.45683412060E+03 -0.15574028534E+04  0.16574900416E+04  0.10100000352E+00 0.  1.
       -3    1    3    3    0  502 -0.33626205003E+03 -0.45683412060E+03 -0.21162074613E+03  0.60543614893E+03  0.10100000352E+00 0. -1.
</event>
<event>
 5   0  0.1238683E-03  0.1391008E+04  0.7818609E-02  0.8960354E-01
       -1   -1    0    0    0  501  0.00000000000E+00  0.00000000000E+00  0.13133417234E+04  0.13133417234E+04  0.50400001928E-02 0. -1.
        1   -1    0    0  501    0  0.00000000000E+00  0.00000000000E+00 -0.36831657443E+03  0.36831657446E+03  0.50400001928E-02 0.  1.
    10030    2    1    2    0    0  0.00000000000E+00  0.00000000000E+00  0.94502514893E+03  0.16816582978E+04  0.13910075839E+04 0.  0.
        2    1    3    3  502    0 -0.49593690852E+03  0.36053423554E+02  0.10604056650E+04  0.11712017080E+04  0.25500000920E-02 0. -1.
       -2    1    3    3    0  502  0.49593690852E+03 -0.36053423554E+02 -0.11538051604E+03  0.51045658980E+03  0.25500000920E-02 0.  1.
</event>
<event>
 5   0  0.2083966E-03  0.1371470E+04  0.7818609E-02  0.8974733E-01
        2   -1    0    0  501    0  0.00000000000E+00  0.00000000000E+00  0.59765259312E+03  0.59765259312E+03  0.25500000920E-02 0.  1.
       -2   -1    0    0    0  501  0.00000000000E+00  0.00000000000E+00 -0.78679905764E+03  0.78679905765E+03  0.25500000920E-02 0. -1.
    10030    2    1    2    0    0  0.00000000000E+00  0.00000000000E+00 -0.18914646453E+03  0.13844516508E+04  0.13714700100E+04 0.  0.
        1    1    3    3  502    0 -0.53065196788E+02 -0.34219876131E+03 -0.69205111092E+03  0.77385440976E+03  0.50400001928E-02 0. -1.
       -1    1    3    3    0  502  0.53065196788E+02  0.34219876131E+03  0.50290464639E+03  0.61059724102E+03  0.50400001928E-02 0.  1.
</event>
<event>
 5   0  0.1238683E-03  0.1437494E+04  0.7818609E-02  0.8927117E-01
        1   -1    0    0  501    0  0.00000000000E+00  0.00000000000E+00  0.15817827370E+04  0.15817827370E+04  0.50400001928E-02 0. -1.
       -1   -1    0    0    0  501  0.00000000000E+00  0.00000000000E+00 -0.32659171119E+03  0.32659171123E+03  0.50400001928E-02 0.  1.
    10030    2    1    2    0    0  0.00000000000E+00  0.00000000000E+00  0.12551910258E+04  0.19083744483E+04  0.14374938342E+04 0.  0.
        2    1    3    3  502    0  0.24585624675E+03  0.40015057328E+03  0.13499102228E+04  0.14292737264E+04  0.25500000920E-02 0. -1.
       -2    1    3    3    0  502 -0.24585624675E+03 -0.40015057328E+03 -0.94719197002E+02  0.47910072182E+03  0.25500000920E-02 0.  1.
</event>
<event>
 5   0  0.2195980E-03  0.1364582E+04  0.7818609E-02  0.8979863E-01
       -2   -1    0    0    0  501  0.00000000000E+00  0.00000000000E+00  0.25418541502E+03  0.25418541503E+03  0.25500000920E-02 0.  1.
        2   -1    0    0  501    0  0.00000000000E+00  0.00000000000E+00 -0.18314227131E+04  0.18314227131E+04  0.25500000920E-02 0. -1.
    10030    2    1    2    0    0  0.00000000000E+00  0.00000000000E+00 -0.15772372980E+04  0.20856081281E+04  0.13645819029E+04 0.  0.
        4    1    3    3  502    0  0.44402125760E+03  0.43372938752E+03 -0.35566897754E+03  0.71538667396E+03  0.12699999809E+01 0.  1.
       -4    1    3    3    0  502 -0.44402125760E+03 -0.43372938752E+03 -0.12215683205E+04  0.13702214541E+04  0.12699999809E+01 0. -1.
</event>
<event>
 5   0  0.1225690E-03  0.1399605E+04  0.7818609E-02  0.8954105E-01
       -1   -1    0    0    0  501  0.00000000000E+00  0.00000000000E+00  0.37582784540E+03  0.37582784543E+03  0.50400001928E-02 0.  1.
        1   -1    0    0  501    0  0.00000000000E+00  0.00000000000E+00 -0.13030524800E+04  0.13030524800E+04  0.50400001928E-02 0. -1.
    10030    2    1    2    0    0  0.00000000000E+00  0.00000000000E+00 -0.92722463462E+03  0.16788803255E+04  0.13996048100E+04 0.  0.
        4    1    3    3  502    0  0.65673338854E+02 -0.35517178897E+03  0.25537269569E+03  0.44235372014E+03  0.12699999809E+01 0.  1.
       -4    1    3    3    0  502 -0.65673338854E+02  0.35517178897E+03 -0.11825973303E+04  0.12365266053E+04  0.12699999809E+01 0. -1.
</event>
<event>
 5   0  0.8293000E-04  0.1441939E+04  0.7818609E-02  0.8924008E-01
       -4   -1    0    0    0  501  0.00000000000E+00  0.00000000000E+00  0.72729202227E+03  0.72729313111E+03  0.12699999809E+01 0. -1.
        4   -1    0    0  501    0  0.00000000000E+00  0.00000000000E+00 -0.71469985233E+03  0.71470098070E+03  0.12699999809E+01 0.  1.
    10030    2    1    2    0    0  0.00000000000E+00  0.00000000000E+00  0.12592169942E+02  0.14419941118E+04  0.14419391304E+04 0.  0.
        4    1    3    3  502    0  0.54235263382E+03 -0.46297545670E+03 -0.10002282253E+03  0.72006862926E+03  0.12699999809E+01 0. -1.
       -4    1    3    3    0  502 -0.54235263382E+03  0.46297545670E+03  0.11261499247E+03  0.72192548255E+03  0.12699999809E+01 0.  1.
</event>
<event>
 5   0  0.1175374E-03  0.1386302E+04  0.7818609E-02  0.8963794E-01
        1   -1    0    0  501    0  0.00000000000E+00  0.00000000000E+00  0.11482121052E+04  0.11482121052E+04  0.50400001928E-02 0. -1.
       -1   -1    0    0    0  501  0.00000000000E+00  0.00000000000E+00 -0.41844024311E+03  0.41844024314E+03  0.50400001928E-02 0.  1.
    10030    2    1    2    0    0  0.00000000000E+00  0.00000000000E+00  0.72977186205E+03  0.15666523483E+04  0.13863017744E+04 0.  0.
        3    1    3    3  502    0 -0.28205975123E+03  0.60394015039E+03  0.57977258845E+03  0.88342383544E+03  0.10100000352E+00 0.  1.
       -3    1    3    3    0  502  0.28205975123E+03 -0.60394015039E+03  0.14999927361E+03  0.68322851287E+03  0.10100000352E+00 0. -1.
</event>
<event>
 5   0  0.1238683E-03  0.1388660E+04  0.7818609E-02  0.8962068E-01
       -1   -1    0    0    0  501  0.00000000000E+00  0.00000000000E+00  0.53548696128E+03  0.53548696131E+03  0.50400001928E-02 0.  1.
        1   -1    0    0  501    0  0.00000000000E+00  0.00000000000E+00 -0.90029073172E+03  0.90029073173E+03  0.50400001928E-02 0. -1.
    10030    2    1    2    0    0  0.00000000000E+00  0.00000000000E+00 -0.36480377044E+03  0.14357776930E+04  0.13886597110E+04 0.  0.
        2    1    3    3  502    0 -0.13424057707E+03  0.15704739100E+03  0.50296971294E+03  0.54374897489E+03  0.25500000920E-02 0.  1.
       -2    1    3    3    0  502  0.13424057707E+03 -0.15704739100E+03 -0.86777348338E+03  0.89202871815E+03  0.25500000920E-02 0. -1.
</event>
<event>
 5   0  0.1175374E-03  0.1445882E+04  0.7818609E-02  0.8921261E-01
        1   -1    0    0  501    0  0.00000000000E+00  0.00000000000E+00  0.73886016749E+03  0.73886016751E+03  0.50400001928E-02 0.  1.
       -1   -1    0    0    0  501  0.00000000000E+00  0.00000000000E+00 -0.70736437900E+03  0.70736437902E+03  0.50400001928E-02 0. -1.
    10030    2    1    2    0    0  0.00000000000E+00  0.00000000000E+00  0.31495788493E+02  0.14462245465E+04  0.14458815492E+04 0.  0.
        3    1    3    3  502    0 -0.20798579026E+02 -0.21907036488E+03 -0.67305103601E+03  0.70811165287E+03  0.10100000352E+00 0. -1.
       -3    1    3    3    0  502  0.20798579026E+02  0.21907036488E+03  0.70454682451E+03  0.73811289366E+03  0.10100000352E+00 0.  1.
</event>
<event>
 5   0  0.1199720E-03  0.1391947E+04  0.7818609E-02  0.8959669E-01
       -1   -1    0    0    0  501  0.00000000000E+00  0.00000000000E+00  0.46500259683E+03  0.46500259686E+03  0.50400001928E-02 0.  1.
        1   -1    0    0  501    0  0.00000000000E+00  0.00000000000E+00 -0.10416689514E+04  0.10416689514E+04  0.50400001928E-02 0. -1.
    10030    2    1    2    0    0  0.00000000000E+00  0.00000000000E+00 -0.57666635454E+03  0.15066715482E+04  0.13919465039E+04 0.  0.
        5    1    3    3  502    0 -0.25671176026E+03  0.56947395696E+03  0.43804473831E+02  0.62621277330E+03  0.46999998093E+01 0.  1.
       -5    1    3    3    0  502  0.25671176026E+03 -0.56947395696E+03 -0.62047082837E+03  0.88045877494E+03  0.46999998093E+01 0. -1.
</event>
<event>
 5   0  0.1199720E-03  0.1445268E+04  0.7818609E-02  0.8921688E-01
       -1   -1    0    0    0  501  0.00000000000E+00  0.00000000000E+00  0.28893697029E+03  0.28893697034E+03  0.50400001928E-02 0.  1.
        1   -1    0    0  501    0  0.00000000000E+00  0.00000000000E+00 -0.18073140700E+04  0.18073140700E+04  0.50400001928E-02 0. -1.
    10030    2    1    2    0    0  0.00000000000E+00  0.00000000000E+00 -0.15183770997E+04  0.20962510403E+04  0.14452679361E+04 0.  0.
        5    1    3    3  502    0 -0.10257642535E+03  0.53087377002E+03 -0.63848534521E+02  0.54447002497E+03  0.46999998093E+01 0.  1.
       -5    1    3    3    0  502  0.10257642535E+03 -0.53087377002E+03 -0.14545285652E+04  0.15517810154E+04  0.46999998093E+01 0. -1.
</event>
<event>
 5   0  0.1199720E-03  0.1405141E+04  0.7818609E-02  0.8950106E-01
       -1   -1    0    0    0  501  0.00000000000E+00  0.00000000000E+00  0.60554026893E+03  0.60554026896E+03  0.50400001928E-02 0.  1.
        1   -1    0    0  501    0  0.00000000000E+00  0.00000000000E+00 -0.81514835114E+03  0.81514835116E+03  0.50400001928E-02 0. -1.
    10030    2    1    2    0    0  0.00000000000E+00  0.00000000000E+00 -0.20960808221E+03  0.14206886201E+04  0.14051407784E+04 0.  0.
        5    1    3    3  502    0 -0.53186428824E+03  0.34848145488E+03 -0.40688094341E+03  0.75491266886E+03  0.46999998093E+01 0. -1.
       -5    1    3    3    0  502  0.53186428824E+03 -0.34848145488E+03  0.19727286121E+03  0.66577595125E+03  0.46999998093E+01 0.  1.
</event>
<event>
 5   0  0.2195980E-03  0.1125950E+04  0.7818609E-02  0.9180262E-01
       -2   -1    0    0    0  501  0.00000000000E+00  0.00000000000E+00  0.27521363793E+03  0.27521363794E+03  0.25500000920E-02 0. -1.
        2   -1    0    0  501    0  0.00000000000E+00  0.00000000000E+00 -0.11516174519E+04  0.11516174519E+04  0.25500000920E-02 0.  1.
    10030    2    1    2    0    0  0.00000000000E+00  0.00000000000E+00 -0.87640381397E+03  0.14268310898E+04  0.11259499606E+04 0.  0.
        4    1    3    3  502    0  0.55327807983E+03 -0.70946176415E+02 -0.34178269563E+03  0.65419188125E+03  0.12699999809E+01 0. -1.
       -4    1    3    3    0  502 -0.55327807983E+03  0.70946176415E+02 -0.53462111834E+03  0.77263920859E+03  0.12699999809E+01 0.  1.
</event>
<event>
 5   0  0.1225690E-03  0.1382009E+04  0.7818609E-02  0.8966945E-01
        1   -1    0    0  501    0  0.00000000000E+00  0.00000000000E+00  0.71085121649E+03  0.71085121651E+03  0.50400001928E-02 0.  1.
       -1   -1    0    0    0  501  0.00000000000E+00  0.00000000000E+00 -0.67171224597E+03  0.67171224599E+03  0.50400001928E-02 0. -1.
    10030    2    1    2    0    0  0.00000000000E+00  0.00000000000E+00  0.39138970522E+02  0.13825634625E+04  0.13820093592E+04 0.  0.
        4    1    3    3  502    0 -0.26458718733E+03  0.52191264002E+03 -0.34811926342E+03  0.68087283539E+03  0.12699999809E+01 0. -1.
       -4    1    3    3    0  502  0.26458718733E+03 -0.52191264002E+03  0.38725823394E+03  0.70169062711E+03  0.12699999809E+01 0.  1.
</event>
<event>
 5   0  0.2236184E-03  0.1371295E+04  0.7818609E-02  0.8974863E-01
       -2   -1    0    0    0  501  0.00000000000E+00  0.00000000000E+00  0.56753620431E+03  0.56753620432E+03  0.25500000920E-02 0. -1.
        2   -1    0    0  501    0  0.00000000000E+00  0.00000000000E+00 -0.82833971352E+03  0.82833971352E+03  0.25500000920E-02 0.  1.
    10030    2    1    2    0    0  0.00000000000E+00  0.00000000000E+00 -0.26080350921E+03  0.13958759178E+04  0.13712954122E+04 0.  0.
        3    1    3    3  502    0  0.16899172777E+02 -0.28229920086E+02 -0.82753568552E+03  0.82818949005E+03  0.10100000352E+00 0.  1.
       -3    1    3    3    0  502 -0.16899172777E+02  0.28229920086E+02  0.56673217631E+03  0.56768642779E+03  0.10100000352E+00 0. -1.
</event>
<event>
 5   0  0.2083966E-03  0.1468889E+04  0.7818609E-02  0.8905409E-01
        2   -1    0    0  501    0  0.00000000000E+00  0.00000000000E+00  0.19520494564E+04  0.19520494564E+04  0.25500000920E-02 0.  1.
       -2   -1    0    0    0  501  0.00000000000E+00  0.00000000000E+00 -0.27632928454E+03  0.27632928455E+03  0.25500000920E-02 0. -1.
    10030    2    1    2    0    0  0.00000000000E+00  0.00000000000E+00  0.16757201719E+04  0.22283787409E+04  0.14688885998E+04 0.  0.
        1    1    3    3  502    0 -0.17465258955E+03  0.71453219361E+02 -0.23892478122E+03  0.30445712457E+03  0.50400001928E-02 0. -1.
       -1    1    3    3    0  502  0.17465258955E+03 -0.71453219361E+02  0.19146449531E+04  0.19239216164E+04  0.50400001928E-02 0.  1.
</event>
<event>
 5   0  0.1225690E-03  0.1408992E+04  0.7818609E-02  0.8947335E-01
        1   -1    0    0  501    0  0.00000000000E+00  0.00000000000E+00  0.14717537997E+04  0.14717537997E+04  0.50400001928E-02 0. -1.
       -1   -1    0    0    0  501  0.00000000000E+00  0.00000000000E+00 -0.33722688067E+03  0.33722688070E+03  0.50400001928E-02 0.  1.
    10030    2    1    2    0    0  0.00000000000E+00  0.00000000000E+00  0.11345269190E+04  0.18089806804E+04  0.14089924670E+04 0.  0.
        4    1    3    3  502    0 -0.56235896068E+03  0.35033644899E+03  0.87467248528E+03  0.10972861056E+04  0.12699999809E+01 0. -1.
       -4    1    3    3    0  502  0.56235896068E+03 -0.35033644899E+03  0.25985443374E+03  0.71169457479E+03  0.12699999809E+01 0.  1.
</event>
<event>
 5   0  0.2083966E-03  0.1326500E+04  0.7818609E-02  0.9008810E-01
       -2   -1    0    0    0  501  0.00000000000E+00  0.00000000000E+00  0.13302066574E+04  0.13302066574E+04  0.25500000920E-02 0. -1.
        2   -1    0    0  501    0  0.00000000000E+00  0.00000000000E+00 -0.33070106844E+03  0.33070106845E+03  0.25500000920E-02 0.  1.
    10030    2    1    2    0    0  0.00000000000E+00  0.00000000000E+00  0.99950558895E+03  0.16609077258E+04  0.13265003021E+04 0.  0.
        1    1    3    3  502    0  0.18619729102E+03  0.18878310126E+03 -0.26144863135E+03  0.37237598924E+03  0.50400001928E-02 0.  1.
       -1    1    3    3    0  502 -0.18619729102E+03 -0.18878310126E+03  0.12609542203E+04  0.12885317366E+04  0.50400001928E-02 0. -1.
</event>
<event>
 5   0  0.2083966E-03  0.1271919E+04  0.7818609E-02  0.9052135E-01
       -2   -1    0    0    0  501  0.00000000000E+00  0.00000000000E+00  0.30824275048E+03  0.30824275049E+03  0.25500000920E-02 0.  1.
        2   -1    0    0  501    0  0.00000000000E+00  0.00000000000E+00 -0.13120968439E+04  0.13120968439E+04  0.25500000920E-02 0. -1.
    10030    2    1    2    0    0  0.00000000000E+00  0.00000000000E+00 -0.10038540934E+04  0.16203395944E+04  0.12719187711E+04 0.  0.
        1    1    3    3  502    0 -0.22999857567E+03 -0.25972980505E+03  0.17707509338E+03  0.38950546230E+03  0.50400001928E-02 0.  1.
       -1    1    3    3    0  502  0.22999857567E+03  0.25972980505E+03 -0.11809291868E+04  0.12308341321E+04  0.50400001928E-02 0. -1.
</event>
<event>
 5   0  0.1238683E-03  0.1662645E+04  0.7818609E-02  0.8782961E-01
       -1   -1    0    0    0  501  0.00000000000E+00  0.00000000000E+00  0.15261649304E+04  0.15261649304E+04  0.50400001928E-02 0. -1.
        1   -1    0    0  501    0  0.00000000000E+00  0.00000000000E+00 -0.45283242242E+03  0.45283242245E+03  0.50400001928E-02 0.  1.
    10030    2    1    2    0    0  0.00000000000E+00  0.00000000000E+00  0.10733325080E+04  0.19789973528E+04  0.16626448358E+04 0.  0.
        2    1    3    3  502    0 -0.59633737419E+03 -0.50336243650E+00  0.12260769806E+04  0.13634086987E+04  0.25500000920E-02 0. -1.
       -2    1    3    3    0  502  0.59633737419E+03  0.50336243650E+00 -0.15274447263E+03  0.61558865418E+03  0.25500000920E-02 0.  1.
</event>
<event>
 5   0  0.2083966E-03  0.1394591E+04  0.7818609E-02  0.8957743E-01
        2   -1    0    0  501    0  0.00000000000E+00  0.00000000000E+00  0.95269373776E+03  0.95269373776E+03  0.25500000920E-02 0.  1.
       -2   -1    0    0    0  501  0.00000000000E+00  0.00000000000E+00 -0.51036448608E+03  0.51036448609E+03  0.25500000920E-02 0. -1.
    10030    2    1    2    0    0  0.00000000000E+00  0.00000000000E+00  0.44232925168E+03  0.14630582238E+04  0.13945910510E+04 0.  0.
        1    1    3    3  502    0  0.11793011438E+03  0.57641856023E+03 -0.17144805788E+03  0.61282975208E+03  0.50400001928E-02 0. -1.
       -1    1    3    3    0  502 -0.11793011438E+03 -0.57641856023E+03  0.61377730956E+03  0.85022847177E+03  0.50400001928E-02 0.  1.
</event>
<event>
 5   0  0.1225690E-03  0.1240664E+04  0.7818609E-02  0.9077990E-01
        1   -1    0    0  501    0  0.00000000000E+00  0.00000000000E+00  0.52332090005E+03  0.52332090008E+03  0.50400001928E-02 0.  1.
       -1   -1    0    0    0  501  0.00000000000E+00  0.00000000000E+00 -0.73532646460E+03  0.73532646462E+03  0.50400001928E-02 0. -1.
    10030    2    1    2    0    0  0.00000000000E+00  0.00000000000E+00 -0.21200556455E+03  0.12586473647E+04  0.12406638663E+04 0.  0.
        4    1    3    3  502    0 -0.53501345093E+03 -0.19354020041E+03  0.14479076428E+03  0.58708021614E+03  0.12699999809E+01 0.  1.
       -4    1    3    3    0  502  0.53501345093E+03  0.19354020041E+03 -0.35679632884E+03  0.67156714856E+03  0.12699999809E+01 0. -1.
</event>
<event>
 5   0  0.8293000E-04  0.1364058E+04  0.7818609E-02  0.8980254E-01
        4   -1    0    0  501    0  0.00000000000E+00  0.00000000000E+00  0.58377367172E+03  0.58377505317E+03  0.12699999809E+01 0. -1.
       -4   -1    0    0    0  501  0.00000000000E+00  0.00000000000E+00 -0.79681926949E+03  0.79682028157E+03  0.12699999809E+01 0.  1.
    10030    2    1    2    0    0  0.00000000000E+00  0.00000000000E+00 -0.21304559776E+03  0.13805953347E+04  0.13640583021E+04 0.  0.
        5    1    3    3  502    0 -0.57722322236E+02 -0.57291652438E+03  0.26338921572E+03  0.63321495509E+03  0.46999998093E+01 0. -1.
       -5    1    3    3    0  502  0.57722322236E+02  0.57291652438E+03 -0.47643481348E+03  0.74738037965E+03  0.46999998093E+01 0.  1.
</event>
<event>
 5   0  0.1225690E-03  0.1407973E+04  0.7818609E-02  0.8948067E-01
        1   -1    0    0  501    0  0.00000000000E+00  0.00000000000E+00  0.11746378579E+04  0.11746378579E+04  0.50400001928E-02 0.  1.
       -1   -1    0    0    0  501  0.00000000000E+00  0.00000000000E+00 -0.42191495911E+03  0.42191495914E+03  0.50400001928E-02 0. -1.
    10030    2    1    2    0    0  0.00000000000E+00  0.00000000000E+00  0.75272289876E+03  0.15965528170E+04  0.14079734142E+04 0.  0.
        4    1    3    3  502    0  0.31004459086E+03  0.51589197868E+03  0.79040132653E+03  0.99348278892E+03  0.12699999809E+01 0.  1.
       -4    1    3    3    0  502 -0.31004459086E+03 -0.51589197868E+03 -0.37678427774E+02  0.60307002811E+03  0.12699999809E+01 0. -1.
</event>
<event>
 5   0  0.2083966E-03  0.1411397E+04  0.7818609E-02  0.8945610E-01
       -2   -1    0    0    0  501  0.00000000000E+00  0.00000000000E+00  0.50979712019E+03  0.50979712020E+03  0.25500000920E-02 0. -1.
        2   -1    0    0  501    0  0.00000000000E+00  0.00000000000E+00 -0.97687986111E+03  0.97687986111E+03  0.25500000920E-02 0.  1.
    10030    2    1    2    0    0  0.00000000000E+00  0.00000000000E+00 -0.46708274092E+03  0.14866769813E+04  0.14113972367E+04 0.  0.
        1    1    3    3  502    0 -0.27862171932E+03 -0.37291592112E+03 -0.79222143738E+03  0.91886405555E+03  0.50400001928E-02 0.  1.
       -1    1    3    3    0  502  0.27862171932E+03  0.37291592112E+03  0.32513869647E+03  0.56781292577E+03  0.50400001928E-02 0. -1.
</event>
<event>
 5   0  0.1210275E-03  0.1394575E+04  0.7818609E-02  0.8957755E-01
        1   -1    0    0  501    0  0.00000000000E+00  0.00000000000E+00  0.12086732393E+04  0.12086732393E+04  0.50400001928E-02 0.  1.
       -1   -1    0    0    0  501  0.00000000000E+00  0.00000000000E+00 -0.40226729184E+03  0.40226729187E+03  0.50400001928E-02 0. -1.
    10030    2    1    2    0    0  0.00000000000E+00  0.00000000000E+00  0.80640594744E+03  0.16109405312E+04  0.13945747893E+04 0.  0.
        1    1    3    3  502    0 -0.29223076187E+03  0.12644444925E+03  0.11197885071E+04  0.11641792463E+04  0.50400001928E-02 0.  1.
       -1    1    3    3    0  502  0.29223076187E+03 -0.12644444925E+03 -0.31338255964E+03  0.44676128485E+03  0.50400001928E-02 0. -1.
</event>
<event>
 5   0  0.1238683E-03  0.1435626E+04  0.7818609E-02  0.8928427E-01
        1   -1    0    0  501    0  0.00000000000E+00  0.00000000000E+00  0.12932017395E+04  0.12932017395E+04  0.50400001928E-02 0.  1.
       -1   -1    0    0    0  501  0.00000000000E+00  0.00000000000E+00 -0.39843397604E+03  0.39843397607E+03  0.50400001928E-02 0. -1.
    10030    2    1    2    0    0  0.00000000000E+00  0.00000000000E+00  0.89476776345E+03  0.16916357156E+04  0.14356260111E+04 0.  0.
        2    1    3    3  502    0  0.34331861774E+03  0.50987442354E+03  0.88418529646E+03  0.10768580406E+04  0.25500000920E-02 0. -1.
       -2    1    3    3    0  502 -0.34331861774E+03 -0.50987442354E+03  0.10582466991E+02  0.61477767500E+03  0.25500000920E-02 0.  1.
</event>
<event>
 5   0  0.2172901E-03  0.1401839E+04  0.7818609E-02  0.8952488E-01
        2   -1    0    0  501    0  0.00000000000E+00  0.00000000000E+00  0.49735351962E+03  0.49735351963E+03  0.25500000920E-02 0. -1.
       -2   -1    0    0    0  501  0.00000000000E+00  0.00000000000E+00 -0.98780502301E+03  0.98780502301E+03  0.25500000920E-02 0.  1.
    10030    2    1    2    0    0  0.00000000000E+00  0.00000000000E+00 -0.49045150339E+03  0.14851585426E+04  0.14018392274E+04 0.  0.
        2    1    3    3  502    0 -0.19842966372E+03 -0.62609165068E+03 -0.50456734482E+03  0.82822297237E+03  0.25500000920E-02 0.  1.
       -2    1    3    3    0  502  0.19842966372E+03  0.62609165068E+03  0.14115841435E+02  0.65693557027E+03  0.25500000920E-02 0. -1.
</event>
<event>
 5   0  0.2172901E-03  0.1415277E+04  0.7818609E-02  0.8942834E-01
        2   -1    0    0  501    0  0.00000000000E+00  0.00000000000E+00  0.88612597315E+03  0.88612597315E+03  0.25500000920E-02 0. -1.
       -2   -1    0    0    0  501  0.00000000000E+00  0.00000000000E+00 -0.56510266811E+03  0.56510266811E+03  0.25500000920E-02 0.  1.
    10030    2    1    2    0    0  0.00000000000E+00  0.00000000000E+00  0.32102330504E+03  0.14512286413E+04  0.14152768658E+04 0.  0.
        2    1    3    3  502    0 -0.46923736688E+02  0.51365555817E+03 -0.33626209916E+03  0.61572402003E+03  0.25500000920E-02 0.  1.
       -2    1    3    3    0  502  0.46923736688E+02 -0.51365555817E+03  0.65728540421E+03  0.83550462123E+03  0.25500000920E-02 0. -1.
</event>
<event>
 5   0  0.2190704E-03  0.1363695E+04  0.7818609E-02  0.8980525E-01
        2   -1    0    0  501    0  0.00000000000E+00  0.00000000000E+00  0.13617914621E+04  0.13617914621E+04  0.25500000920E-02 0.  1.
       -2   -1    0    0    0  501  0.00000000000E+00  0.00000000000E+00 -0.34140048840E+03  0.34140048841E+03  0.25500000920E-02 0. -1.
    10030    2    1    2    0    0  0.00000000000E+00  0.00000000000E+00  0.10203909737E+04  0.17031919505E+04  0.13636953769E+04 0.  0.
        5    1    3    3  502    0  0.10463914918E+03  0.10001187556E+03  0.13423607183E+04  0.13501504045E+04  0.46999998093E+01 0.  1.
       -5    1    3    3    0  502 -0.10463914918E+03 -0.10001187556E+03 -0.32196974458E+03  0.35304154602E+03  0.46999998093E+01 0. -1.
</event>
<event>
 5   0  0.2083966E-03  0.1378156E+04  0.7818609E-02  0.8969784E-01
       -2   -1    0    0    0  501  0.00000000000E+00  0.00000000000E+00  0.40790690968E+03  0.40790690969E+03  0.25500000920E-02 0. -1.
        2   -1    0    0  501    0  0.00000000000E+00  0.00000000000E+00 -0.11640604318E+04  0.11640604318E+04  0.25500000920E-02 0.  1.
    10030    2    1    2    0    0  0.00000000000E+00  0.00000000000E+00 -0.75615352211E+03  0.15719673415E+04  0.13781557146E+04 0.  0.
        1    1    3    3  502    0  0.26399592707E+03  0.51635127711E+03 -0.80259356907E+03  0.99018630975E+03  0.50400001928E-02 0.  1.
       -1    1    3    3    0  502 -0.26399592707E+03 -0.51635127711E+03  0.46440046962E+02  0.58178103172E+03  0.50400001928E-02 0. -1.
</event>
<event>
 5   0  0.1175374E-03  0.1408555E+04  0.7818609E-02  0.8947649E-01
        1   -1    0    0  501    0  0.00000000000E+00  0.00000000000E+00  0.49898488236E+03  0.49898488239E+03  0.50400001928E-02 0.  1.
       -1   -1    0    0    0  501  0.00000000000E+00  0.00000000000E+00 -0.99403234546E+03  0.99403234547E+03  0.50400001928E-02 0. -1.
    10030    2    1    2    0    0  0.00000000000E+00  0.00000000000E+00 -0.49504746309E+03  0.14930172279E+04  0.14085554487E+04 0.  0.
        3    1    3    3  502    0 -0.29105915749E+03  0.60586744604E+03 -0.47040938079E+03  0.82041196424E+03  0.10100000352E+00 0. -1.
       -3    1    3    3    0  502  0.29105915749E+03 -0.60586744604E+03 -0.24638082303E+02  0.67260526361E+03  0.10100000352E+00 0.  1.
</event>
<event>
 5   0  0.2195980E-03  0.1322043E+04  0.7818609E-02  0.9012265E-01
       -2   -1    0    0    0  501  0.00000000000E+00  0.00000000000E+00  0.18377477619E+03  0.18377477621E+03  0.25500000920E-02 0. -1.
        2   -1    0    0  501    0  0.00000000000E+00  0.00000000000E+00 -0.23776372087E+04  0.23776372087E+04  0.25500000920E-02 0.  1.
    10030    2    1    2    0    0  0.00000000000E+00  0.00000000000E+00 -0.21938624325E+04  0.25614119849E+04  0.13220434878E+04 0.  0.
        4    1    3    3  502    0 -0.83955494662E+02  0.65555587987E+03 -0.11203494043E+04  0.13007637900E+04  0.12699999809E+01 0. -1.
       -4    1    3    3    0  502  0.83955494662E+02 -0.65555587987E+03 -0.10735130282E+04  0.12606481949E+04  0.12699999809E+01 0.  1.
</event>
<event>
 5   0  0.2190704E-03  0.1388070E+04  0.7818609E-02  0.8962499E-01
        2   -1    0    0  501    0  0.00000000000E+00  0.00000000000E+00  0.10773575598E+04  0.10773575599E+04  0.25500000920E-02 0. -1.
       -2   -1    0    0    0  501  0.00000000000E+00  0.00000000000E+00 -0.44709836408E+03  0.44709836409E+03  0.25500000920E-02 0.  1.
    10030    2    1    2    0    0  0.00000000000E+00  0.00000000000E+00  0.63025919577E+03  0.15244559239E+04  0.13880703189E+04 0.  0.
        5    1    3    3  502    0  0.69855159186E+02 -0.66688516878E+03  0.51173617835E+03  0.84351145685E+03  0.46999998093E+01 0. -1.
       -5    1    3    3    0  502 -0.69855159186E+02  0.66688516878E+03  0.11852301742E+03  0.68094446709E+03  0.46999998093E+01 0.  1.
</event>
<event>
 5   0  0.2083966E-03  0.1145758E+04  0.7818609E-02  0.9161706E-01
       -2   -1    0    0    0  501  0.00000000000E+00  0.00000000000E+00  0.44598888407E+03  0.44598888408E+03  0.25500000920E-02 0.  1.
        2   -1    0    0  501    0  0.00000000000E+00  0.00000000000E+00 -0.73587095089E+03  0.73587095090E+03  0.25500000920E-02 0. -1.
    10030    2    1    2    0    0  0.00000000000E+00  0.00000000000E+00 -0.28988206682E+03  0.11818598350E+04  0.11457578526E+04 0.  0.
        1    1    3    3  502    0  0.30524659546E+03 -0.41512467634E+03  0.11332030149E+03  0.52758456356E+03  0.50400001928E-02 0.  1.
       -1    1    3    3    0  502 -0.30524659546E+03  0.41512467634E+03 -0.40320236831E+03  0.65427527142E+03  0.50400001928E-02 0. -1.
</event>
<event>
 5   0  0.1210275E-03  0.1385935E+04  0.7818609E-02  0.8964063E-01
        1   -1    0    0  501    0  0.00000000000E+00  0.00000000000E+00  0.10907255239E+04  0.10907255239E+04  0.50400001928E-02 0. -1.
       -1   -1    0    0    0  501  0.00000000000E+00  0.00000000000E+00 -0.44026103263E+03  0.44026103265E+03  0.50400001928E-02 0.  1.
    10030    2    1    2    0    0  0.00000000000E+00  0.00000000000E+00  0.65046449122E+03  0.15309865565E+04  0.13859349847E+04 0.  0.
        1    1    3    3  502    0  0.51530589746E+03 -0.25789290504E+03  0.75042584232E+03  0.94614368004E+03  0.50400001928E-02 0. -1.
       -1    1    3    3    0  502 -0.51530589746E+03  0.25789290504E+03 -0.99961351096E+02  0.58484287648E+03  0.50400001928E-02 0.  1.
</event>
<event>
 5   0  0.8293000E-04  0.1403017E+04  0.7818609E-02  0.8951638E-01
       -4   -1    0    0    0  501  0.00000000000E+00  0.00000000000E+00  0.48867329926E+03  0.48867494954E+03  0.12699999809E+01 0.  1.
        4   -1    0    0  501    0  0.00000000000E+00  0.00000000000E+00 -0.10070371365E+04  0.10070379373E+04  0.12699999809E+01 0. -1.
    10030    2    1    2    0    0  0.00000000000E+00  0.00000000000E+00 -0.51836383724E+03  0.14957128869E+04  0.14030167398E+04 0.  0.
        4    1    3    3  502    0  0.36537966638E+03  0.48455945249E+03 -0.63429925165E+03  0.87785950877E+03  0.12699999809E+01 0. -1.
       -4    1    3    3    0  502 -0.36537966638E+03 -0.48455945249E+03  0.11593541441E+03  0.61785337809E+03  0.12699999809E+01 0.  1.
</event>
<event>
 5   0  0.1238683E-03  0.1395692E+04  0.7818609E-02  0.8956943E-01
        1   -1    0    0  501    0  0.00000000000E+00  0.00000000000E+00  0.14807299154E+04  0.14807299154E+04  0.50400001928E-02 0.  1.
       -1   -1    0    0    0  501  0.00000000000E+00  0.00000000000E+00 -0.32888450501E+03  0.32888450505E+03  0.50400001928E-02 0. -1.
    10030    2    1    2    0    0  0.00000000000E+00  0.00000000000E+00  0.11518454104E+04  0.18096144205E+04  0.13956921227E+04 0.  0.
        2    1    3    3  502    0 -0.20820429942E+03  0.42910488804E+03 -0.84577122306E+02  0.48438964157E+03  0.25500000920E-02 0. -1.
       -2    1    3    3    0  502  0.20820429942E+03 -0.42910488804E+03  0.12364225327E+04  0.13252247789E+04  0.25500000920E-02 0.  1.
</event>
<event>
 5   0  0.2172901E-03  0.1398194E+04  0.7818609E-02  0.8955127E-01
       -2   -1    0    0    0  501  0.00000000000E+00  0.00000000000E+00  0.45277377227E+03  0.45277377228E+03  0.25500000920E-02 0.  1.
        2   -1    0    0  501    0  0.00000000000E+00  0.00000000000E+00 -0.10794278335E+04  0.10794278335E+04  0.25500000920E-02 0. -1.
    10030    2    1    2    0    0  0.00000000000E+00  0.00000000000E+00 -0.62665406126E+03  0.15322016058E+04  0.13981939953E+04 0.  0.
        2    1    3    3  502    0  0.16964200309E+03 -0.43900580389E+03  0.25316368759E+03  0.53441216096E+03  0.25500000920E-02 0.  1.
       -2    1    3    3    0  502 -0.16964200309E+03  0.43900580389E+03 -0.87981774885E+03  0.99778944485E+03  0.25500000920E-02 0. -1.
</event>
<event>
 5   0  0.2195980E-03  0.1406948E+04  0.7818609E-02  0.8948804E-01
       -2   -1    0    0    0  501  0.00000000000E+00  0.00000000000E+00  0.27180430126E+03  0.27180430127E+03  0.25500000920E-02 0. -1.
        2   -1    0    0  501    0  0.00000000000E+00  0.00000000000E+00 -0.18207065386E+04  0.18207065386E+04  0.25500000920E-02 0.  1.
    10030    2    1    2    0    0  0.00000000000E+00  0.00000000000E+00 -0.15489022373E+04  0.20925108399E+04  0.14069482841E+04 0.  0.
        4    1    3    3  502    0 -0.31274638200E+02  0.15892175543E+03 -0.17925952741E+04  0.17998982352E+04  0.12699999809E+01 0.  1.
       -4    1    3    3    0  502  0.31274638200E+02 -0.15892175543E+03  0.24369303678E+03  0.29261260468E+03  0.12699999809E+01 0. -1.
</event>
<event>
 5   0  0.2190704E-03  0.1425732E+04  0.7818609E-02  0.8935400E-01
        2   -1    0    0  501    0  0.00000000000E+00  0.00000000000E+00  0.55878833641E+03  0.55878833642E+03  0.25500000920E-02 0. -1.
       -2   -1    0    0    0  501  0.00000000000E+00  0.00000000000E+00 -0.90942865064E+03  0.90942865064E+03  0.25500000920E-02 0.  1.
    10030    2    1    2    0    0  0.00000000000E+00  0.00000000000E+00 -0.35064031422E+03  0.14682169871E+04  0.14257322649E+04 0.  0.
        5    1    3    3  502    0  0.34960580670E+03 -0.36151474525E+03  0.34494614826E+03  0.60985823460E+03  0.46999998093E+01 0. -1.
       -5    1    3    3    0  502 -0.34960580670E+03  0.36151474525E+03 -0.69558646249E+03  0.85835875245E+03  0.46999998093E+01 0.  1.
</event>
<event>
 5   0  0.1225690E-03  0.1413072E+04  0.7818609E-02  0.8944410E-01
        1   -1    0    0  501    0  0.00000000000E+00  0.00000000000E+00  0.94568266948E+03  0.94568266950E+03  0.50400001928E-02 0. -1.
       -1   -1    0    0    0  501  0.00000000000E+00  0.00000000000E+00 -0.52786570068E+03  0.52786570070E+03  0.50400001928E-02 0.  1.
    10030    2    1    2    0    0  0.00000000000E+00  0.00000000000E+00  0.41781696881E+03  0.14735483702E+04  0.14130724609E+04 0.  0.
        4    1    3    3  502    0  0.31207201436E+03  0.36903195809E+03 -0.32853024946E+03  0.58438623012E+03  0.12699999809E+01 0.  1.
       -4    1    3    3    0  502 -0.31207201436E+03 -0.36903195809E+03  0.74634721827E+03  0.88916214008E+03  0.12699999809E+01 0. -1.
</event>
<event>
 5   0  0.1225690E-03  0.1424794E+04  0.7818609E-02  0.8936065E-01
       -1   -1    0    0    0  501  0.00000000000E+00  0.00000000000E+00  0.72003038038E+03  0.72003038039E+03  0.50400001928E-02 0.  1.
        1   -1    0    0  501    0  0.00000000000E+00  0.00000000000E+00 -0.70484409203E+03  0.70484409204E+03  0.50400001928E-02 0. -1.
    10030    2    1    2    0    0  0.00000000000E+00  0.00000000000E+00  0.15186288349E+02  0.14248744724E+04  0.14247935425E+04 0.  0.
        4    1    3    3  502    0  0.24923860525E+03  0.21318698082E+03 -0.62485006351E+03  0.70569666707E+03  0.12699999809E+01 0. -1.
       -4    1    3    3    0  502 -0.24923860525E+03 -0.21318698082E+03  0.64003635186E+03  0.71917780537E+03  0.12699999809E+01 0.  1.
</event>
<event>
 5   0  0.2172901E-03  0.1404758E+04  0.7818609E-02  0.8950381E-01
       -2   -1    0    0    0  501  0.00000000000E+00  0.00000000000E+00  0.16704884661E+04  0.16704884661E+04  0.25500000920E-02 0. -1.
        2   -1    0    0  501    0  0.00000000000E+00  0.00000000000E+00 -0.29532466587E+03  0.29532466588E+03  0.25500000920E-02 0.  1.
    10030    2    1    2    0    0  0.00000000000E+00  0.00000000000E+00  0.13751638002E+04  0.19658131320E+04  0.14047582683E+04 0.  0.
        2    1    3    3  502    0 -0.54443617918E+03 -0.80717767500E+02  0.76940991436E+02  0.55573917206E+03  0.25500000920E-02 0.  1.
       -2    1    3    3    0  502  0.54443617918E+03  0.80717767500E+02  0.12982228088E+04  0.14100739599E+04  0.25500000920E-02 0. -1.
</event>
<event>
 5   0  0.2083966E-03  0.1393440E+04  0.7818609E-02  0.8958581E-01
        2   -1    0    0  501    0  0.00000000000E+00  0.00000000000E+00  0.12330910437E+04  0.12330910437E+04  0.25500000920E-02 0. -1.
       -2   -1    0    0    0  501  0.00000000000E+00  0.00000000000E+00 -0.39366003047E+03  0.39366003048E+03  0.25500000920E-02 0.  1.
    10030    2    1    2    0    0  0.00000000000E+00  0.00000000000E+00  0.83943101323E+03  0.16267510742E+04  0.13934398557E+04 0.  0.
        1    1    3    3  502    0  0.59559234151E+03 -0.55144181644E+02  0.83681445837E+03  0.10286056367E+04  0.50400001928E-02 0. -1.
       -1    1    3    3    0  502 -0.59559234151E+03  0.55144181644E+02  0.26165548588E+01  0.59814543751E+03  0.50400001928E-02 0.  1.
</event>
<event>
 5   0  0.2083966E-03  0.1461328E+04  0.7818609E-02  0.8910584E-01
        2   -1    0    0  501    0  0.00000000000E+00  0.00000000000E+00  0.12290373993E+04  0.12290373993E+04  0.25500000920E-02 0.  1.
       -2   -1    0    0    0  501  0.00000000000E+00  0.00000000000E+00 -0.43438064305E+03  0.43438064306E+03  0.25500000920E-02 0. -1.
    10030    2    1    2    0    0  0.00000000000E+00  0.00000000000E+00  0.79465675628E+03  0.16634180424E+04  0.14613282395E+04 0.  0.
        1    1    3    3  502    0 -0.72379084283E+03 -0.33356953550E+02  0.50461916624E+03  0.88296453693E+03  0.50400001928E-02 0.  1.
       -1    1    3    3    0  502  0.72379084283E+03  0.33356953550E+02  0.29003759004E+03  0.78045350546E+03  0.50400001928E-02 0. -1.
</event>
<event>
 5   0  0.1238683E-03  0.1353215E+04  0.7818609E-02  0.8988398E-01
       -1   -1    0    0    0  501  0.00000000000E+00  0.00000000000E+00  0.86797183286E+03  0.86797183287E+03  0.50400001928E-02 0. -1.
        1   -1    0    0  501    0  0.00000000000E+00  0.00000000000E+00 -0.52743404353E+03  0.52743404355E+03  0.50400001928E-02 0.  1.
    10030    2    1    2    0    0  0.00000000000E+00  0.00000000000E+00  0.34053778933E+03  0.13954058764E+04  0.13532152726E+04 0.  0.
        2    1    3    3  502    0  0.44918784335E+03 -0.28981568431E+03  0.59797171923E+03  0.80208043642E+03  0.25500000920E-02 0.  1.
       -2    1    3    3    0  502 -0.44918784335E+03  0.28981568431E+03 -0.25743392990E+03  0.59332544001E+03  0.25500000920E-02 0. -1.
</event>
<event>
 5   0  0.2190704E-03  0.1473160E+04  0.7818609E-02  0.8902500E-01
       -2   -1    0    0    0  501  0.00000000000E+00  0.00000000000E+00  0.41339225172E+03  0.41339225173E+03  0.25500000920E-02 0. -1.
        2   -1    0    0  501    0  0.00000000000E+00  0.00000000000E+00 -0.13124334344E+04  0.13124334344E+04  0.25500000920E-02 0.  1.
    10030    2    1    2    0    0  0.00000000000E+00  0.00000000000E+00 -0.89904118272E+03  0.17258256862E+04  0.14731596148E+04 0.  0.
        5    1    3    3  502    0  0.36519160528E+03  0.13068349913E+03 -0.11830829476E+04  0.12450503751E+04  0.46999998093E+01 0.  1.
       -5    1    3    3    0  502 -0.36519160528E+03 -0.13068349913E+03  0.28404176493E+03  0.48077531107E+03  0.46999998093E+01 0. -1.
</event>
<event>
 5   0  0.1225690E-03  0.1391348E+04  0.7818609E-02  0.8960105E-01
        1   -1    0    0  501    0  0.00000000000E+00  0.00000000000E+00  0.16765427805E+04  0.16765427805E+04  0.50400001928E-02 0. -1.
       -1   -1    0    0    0  501  0.00000000000E+00  0.00000000000E+00 -0.28866699384E+03  0.28866699388E+03  0.50400001928E-02 0.  1.
    10030    2    1    2    0    0  0.00000000000E+00  0.00000000000E+00  0.13878757867E+04  0.19652097744E+04  0.13913483598E+04 0.  0.
        4    1    3    3  502    0 -0.18522093626E+03  0.13781822312E+03  0.16208540481E+04  0.16372141326E+04  0.12699999809E+01 0. -1.
       -4    1    3    3    0  502  0.18522093626E+03 -0.13781822312E+03 -0.23297826142E+03  0.32799564181E+03  0.12699999809E+01 0.  1.
</event>
<event>
 5   0  0.1210275E-03  0.1349294E+04  0.7818609E-02  0.8991362E-01
       -1   -1    0    0    0  501  0.00000000000E+00  0.00000000000E+00  0.23832837467E+03  0.23832837472E+03  0.50400001928E-02 0. -1.
        1   -1    0    0  501    0  0.00000000000E+00  0.00000000000E+00 -0.19097550252E+04  0.19097550252E+04  0.50400001928E-02 0.  1.
    10030    2    1    2    0    0  0.00000000000E+00  0.00000000000E+00 -0.16714266505E+04  0.21480833999E+04  0.13492943507E+04 0.  0.
        1    1    3    3  502    0 -0.54904369887E+03  0.75200604648E+02 -0.22316428375E+03  0.59741644753E+03  0.50400001928E-02 0. -1.
       -1    1    3    3    0  502  0.54904369887E+03 -0.75200604648E+02 -0.14482623668E+04  0.15506669524E+04  0.50400001928E-02 0.  1.
</event>
<event>
 5   0  0.1210275E-03  0.1403952E+04  0.7818609E-02  0.8950963E-01
       -1   -1    0    0    0  501  0.00000000000E+00  0.00000000000E+00  0.30303810485E+03  0.30303810489E+03  0.50400001928E-02 0. -1.
        1   -1    0    0  501    0  0.00000000000E+00  0.00000000000E+00 -0.16261002939E+04  0.16261002939E+04  0.50400001928E-02 0.  1.
    10030    2    1    2    0    0  0.00000000000E+00  0.00000000000E+00 -0.13230621890E+04  0.19291383988E+04  0.14039520667E+04 0.  0.
        1    1    3    3  502    0 -0.94307460853E+02  0.13580234494E+03  0.27590191148E+03  0.32164893727E+03  0.50400001928E-02 0. -1.
       -1    1    3    3    0  502  0.94307460853E+02 -0.13580234494E+03 -0.15989641005E+04  0.16074894615E+04  0.50400001928E-02 0.  1.
</event>
<event>
 5   0  0.1238683E-03  0.1386610E+04  0.7818609E-02  0.8963568E-01
       -1   -1    0    0    0  501  0.00000000000E+00  0.00000000000E+00  0.49415716710E+03  0.49415716712E+03  0.50400001928E-02 0.  1.
        1   -1    0    0  501    0  0.00000000000E+00  0.00000000000E+00 -0.97271086486E+03  0.97271086487E+03  0.50400001928E-02 0. -1.
    10030    2    1    2    0    0  0.00000000000E+00  0.00000000000E+00 -0.47855369776E+03  0.14668680320E+04  0.13866103208E+04 0.  0.
        2    1    3    3  502    0 -0.12273703481E+03  0.41428347941E+03  0.33430208472E+03  0.54630858028E+03  0.25500000920E-02 0.  1.
       -2    1    3    3    0  502  0.12273703481E+03 -0.41428347941E+03 -0.81285578248E+03  0.92055945172E+03  0.25500000920E-02 0. -1.
</event>
<event>
 5   0  0.1210275E-03  0.1428844E+04  0.7818609E-02  0.8933200E-01
       -1   -1    0    0    0  501  0.00000000000E+00  0.00000000000E+00  0.11765693079E+04  0.11765693079E+04  0.50400001928E-02 0.  1.
        1   -1    0    0  501    0  0.00000000000E+00  0.00000000000E+00 -0.43380284289E+03  0.43380284292E+03  0.50400001928E-02 0. -1.
    10030    2    1    2    0    0  0.00000000000E+00  0.00000000000E+00  0.74276646500E+03  0.16103721508E+04  0.14288444431E+04 0.  0.
        1    1    3    3  502    0  0.27063131394E+03 -0.66104919697E+03  0.38615404883E+03  0.81199895219E+03  0.50400001928E-02 0. -1.
       -1    1    3    3    0  502 -0.27063131394E+03  0.66104919697E+03  0.35661241617E+03  0.79837319863E+03  0.50400001928E-02 0.  1.
</event>
<event>
 5   0  0.2083966E-03  0.1399183E+04  0.7818609E-02  0.8954410E-01
        2   -1    0    0  501    0  0.00000000000E+00  0.00000000000E+00  0.72418998999E+03  0.72418998999E+03  0.25500000920E-02 0.  1.
       -2   -1    0    0    0  501  0.00000000000E+00  0.00000000000E+00 -0.67582851897E+03  0.67582851898E+03  0.25500000920E-02 0. -1.
    10030    2    1    2    0    0  0.00000000000E+00  0.00000000000E+00  0.48361471012E+02  0.14000185090E+04  0.13991829736E+04 0.  0.
        1    1    3    3  502    0 -0.41455108251E+03  0.33015663207E+03  0.48115056255E+03  0.71579456940E+03  0.50400001928E-02 0.  1.
       -1    1    3    3    0  502  0.41455108251E+03 -0.33015663207E+03 -0.43278909154E+03  0.68422393958E+03  0.50400001928E-02 0. -1.
</event>
<event>
 5   0  0.1175374E-03  0.1412759E+04  0.7818609E-02  0.8944635E-01
        1   -1    0    0  501    0  0.00000000000E+00  0.00000000000E+00  0.12968396076E+04  0.12968396076E+04  0.50400001928E-02 0. -1.
       -1   -1    0    0    0  501  0.00000000000E+00  0.00000000000E+00 -0.38475976306E+03  0.38475976309E+03  0.50400001928E-02 0.  1.
    10030    2    1    2    0    0  0.00000000000E+00  0.00000000000E+00  0.91207984458E+03  0.16815993707E+04  0.14127585784E+04 0.  0.
        3    1    3    3  502    0 -0.48771748752E+03  0.50663898815E+03  0.53517688479E+03  0.88372264889E+03  0.10100000352E+00 0.  1.
       -3    1    3    3    0  502  0.48771748752E+03 -0.50663898815E+03  0.37690295979E+03  0.79787672184E+03  0.10100000352E+00 0. -1.
</event>
<event>
 5   0  0.2195980E-03  0.1391102E+04  0.7818609E-02  0.8960285E-01
        2   -1    0    0  501    0  0.00000000000E+00  0.00000000000E+00  0.43295031369E+03  0.43295031370E+03  0.25500000920E-02 0.  1.
       -2   -1    0    0    0  501  0.00000000000E+00  0.00000000000E+00 -0.11174287324E+04  0.11174287324E+04  0.25500000920E-02 0. -1.
    10030    2    1    2    0    0  0.00000000000E+00  0.00000000000E+00 -0.68447841868E+03  0.15503790461E+04  0.13911018945E+04 0.  0.
        4    1    3    3  502    0  0.38635356439E+03  0.16958098014E+03 -0.95850947760E+03  0.10472673093E+04  0.12699999809E+01 0. -1.
       -4    1    3    3    0  502 -0.38635356439E+03 -0.16958098014E+03  0.27403105892E+03  0.50311173679E+03  0.12699999809E+01 0.  1.
</event>
<event>
 5   0  0.2236184E-03  0.1484236E+04  0.7818609E-02  0.8895004E-01
       -2   -1    0    0    0  501  0.00000000000E+00  0.00000000000E+00  0.22261592242E+03  0.22261592243E+03  0.25500000920E-02 0.  1.
        2   -1    0    0  501    0  0.00000000000E+00  0.00000000000E+00 -0.24739423780E+04  0.24739423780E+04  0.25500000920E-02 0. -1.
    10030    2    1    2    0    0  0.00000000000E+00  0.00000000000E+00 -0.22513264555E+04  0.26965583004E+04  0.14842357825E+04 0.  0.
        3    1    3    3  502    0  0.17458791388E+03  0.68784507963E+03 -0.73125809690E+03  0.10189947045E+04  0.10100000352E+00 0.  1.
       -3    1    3    3    0  502 -0.17458791388E+03 -0.68784507963E+03 -0.15200683586E+04  0.16775635959E+04  0.10100000352E+00 0. -1.
</event>
<event>
 5   0  0.2172901E-03  0.1398522E+04  0.7818609E-02  0.8954889E-01
       -2   -1    0    0    0  501  0.00000000000E+00  0.00000000000E+00  0.40053560904E+03  0.40053560905E+03  0.25500000920E-02 0.  1.
        2   -1    0    0  501    0  0.00000000000E+00  0.00000000000E+00 -0.12207804306E+04  0.12207804306E+04  0.25500000920E-02 0. -1.
    10030    2    1    2    0    0  0.00000000000E+00  0.00000000000E+00 -0.82024482155E+03  0.16213160396E+04  0.13985221246E+04 0.  0.
        2    1    3    3  502    0 -0.23594197360E+03 -0.68404198970E+02  0.34886344827E+03  0.42667722565E+03  0.25500000920E-02 0.  1.
       -2    1    3    3    0  502  0.23594197360E+03  0.68404198970E+02 -0.11691082698E+04  0.11946388140E+04  0.25500000920E-02 0. -1.
</event>
<event>
 5   0  0.1199720E-03  0.1376262E+04  0.7818609E-02  0.8971183E-01
        1   -1    0    0  501    0  0.00000000000E+00  0.00000000000E+00  0.11518439279E+04  0.11518439279E+04  0.50400001928E-02 0.  1.
       -1   -1    0    0    0  501  0.00000000000E+00  0.00000000000E+00 -0.41110105590E+03  0.41110105594E+03  0.50400001928E-02 0. -1.
    10030    2    1    2    0    0  0.00000000000E+00  0.00000000000E+00  0.74074287197E+03  0.15629449838E+04  0.13762619736E+04 0.  0.
        5    1    3    3  502    0 -0.19895431359E+03 -0.26522728721E+03  0.10551322342E+04  0.11060083428E+04  0.46999998093E+01 0.  1.
       -5    1    3    3    0  502  0.19895431359E+03  0.26522728721E+03 -0.31438936224E+03  0.45693664097E+03  0.46999998093E+01 0. -1.
</event>
<event>
 5   0  0.1210275E-03  0.1417265E+04  0.7818609E-02  0.8941415E-01
        1   -1    0    0  501    0  0.00000000000E+00  0.00000000000E+00  0.15800001096E+04  0.15800001096E+04  0.50400001928E-02 0.  1.
       -1   -1    0    0    0  501  0.00000000000E+00  0.00000000000E+00 -0.31782260278E+03  0.31782260282E+03  0.50400001928E-02 0. -1.
    10030    2    1    2    0    0  0.00000000000E+00  0.00000000000E+00  0.12621775068E+04  0.18978227124E+04  0.14172646150E+04 0.  0.
        1    1    3    3  502    0 -0.52399794564E+03 -0.36165756346E+03  0.21448873654E+03  0.67184481718E+03  0.50400001928E-02 0. -1.
       -1    1    3    3    0  502  0.52399794564E+03  0.36165756346E+03  0.10476887703E+04  0.12259778952E+04  0.50400001928E-02 0.  1.
</event>
<event>
 5   0  0.2195980E-03  0.1413008E+04  0.7818609E-02  0.8944456E-01
        2   -1    0    0  501    0  0.00000000000E+00  0.00000000000E+00  0.90613153291E+03  0.90613153291E+03  0.25500000920E-02 0.  1.
       -2   -1    0    0    0  501  0.00000000000E+00  0.00000000000E+00 -0.55085593015E+03  0.55085593016E+03  0.25500000920E-02 0. -1.
    10030    2    1    2    0    0  0.00000000000E+00  0.00000000000E+00  0.35527560276E+03  0.14569874631E+04  0.14130080374E+04 0.  0.
        4    1    3    3  502    0 -0.31103375042E+03  0.23767433097E+03  0.78408923488E+03  0.87637242236E+03  0.12699999809E+01 0.  1.
       -4    1    3    3    0  502  0.31103375042E+03 -0.23767433097E+03 -0.42881363213E+03  0.58061504071E+03  0.12699999809E+01 0. -1.
</event>
<event>
 5   0  0.2195980E-03  0.1352360E+04  0.7818609E-02  0.8989044E-01
        2   -1    0    0  501    0  0.00000000000E+00  0.00000000000E+00  0.57624254014E+03  0.57624254015E+03  0.25500000920E-02 0.  1.
       -2   -1    0    0    0  501  0.00000000000E+00  0.00000000000E+00 -0.79344908338E+03  0.79344908338E+03  0.25500000920E-02 0. -1.
    10030    2    1    2    0    0  0.00000000000E+00  0.00000000000E+00 -0.21720654323E+03  0.13696916235E+04  0.13523595902E+04 0.  0.
        4    1    3    3  502    0 -0.77067421416E+02 -0.65577156793E+03  0.39010175141E+02  0.66143718025E+03  0.12699999809E+01 0.  1.
       -4    1    3    3    0  502  0.77067421416E+02  0.65577156793E+03 -0.25621671838E+03  0.70825444328E+03  0.12699999809E+01 0. -1.
</event>
<event>
 5   0  0.2190704E-03  0.1432980E+04  0.7818609E-02  0.8930286E-01
        2   -1    0    0  501    0  0.00000000000E+00  0.00000000000E+00  0.50599852025E+03  0.50599852026E+03  0.25500000920E-02 0. -1.
       -2   -1    0    0    0  501  0.00000000000E+00  0.00000000000E+00 -0.10145441682E+04  0.10145441682E+04  0.25500000920E-02 0.  1.
    10030    2    1    2    0    0  0.00000000000E+00  0.00000000000E+00 -0.50854564798E+03  0.15205426885E+04  0.14329798992E+04 0.  0.
        5    1    3    3  502    0 -0.26511621323E+03  0.29026978866E+03  0.38132186282E+03  0.54769664029E+03  0.46999998093E+01 0. -1.
       -5    1    3    3    0  502  0.26511621323E+03 -0.29026978866E+03 -0.88986751080E+03  0.97284604820E+03  0.46999998093E+01 0.  1.
</event>
<event>
 5   0  0.2236184E-03  0.1428108E+04  0.7818609E-02  0.8933720E-01
       -2   -1    0    0    0  501  0.00000000000E+00  0.00000000000E+00  0.89278485050E+03  0.89278485050E+03  0.25500000920E-02 0.  1.
        2   -1    0    0  501    0  0.00000000000E+00  0.00000000000E+00 -0.57110416191E+03  0.57110416192E+03  0.25500000920E-02 0. -1.
    10030    2    1    2    0    0  0.00000000000E+00  0.00000000000E+00  0.32168068859E+03  0.14638890124E+04  0.14281080405E+04 0.  0.
        3    1    3    3  502    0 -0.59007177720E+03 -0.10184677200E+03  0.55957963703E+03  0.81956503561E+03  0.10100000352E+00 0.  1.
       -3    1    3    3    0  502  0.59007177720E+03  0.10184677200E+03 -0.23789894845E+03  0.64432397680E+03  0.10100000352E+00 0. -1.
</event>
<event>
 5   0  0.2195980E-03  0.1409252E+04  0.7818609E-02  0.8947149E-01
       -2   -1    0    0    0  501  0.00000000000E+00  0.00000000000E+00  0.39971897818E+03  0.39971897818E+03  0.25500000920E-02 0.  1.
        2   -1    0    0  501    0  0.00000000000E+00  0.00000000000E+00 -0.12421163249E+04  0.12421163249E+04  0.25500000920E-02 0. -1.
    10030    2    1    2    0    0  0.00000000000E+00  0.00000000000E+00 -0.84239734676E+03  0.16418353031E+04  0.14092515293E+04 0.  0.
        4    1    3    3  502    0 -0.40144508655E+03  0.17928715030E+03  0.22030809690E+03  0.49177160373E+03  0.12699999809E+01 0.  1.
       -4    1    3    3    0  502  0.40144508655E+03 -0.17928715030E+03 -0.10627054437E+04  0.11500636994E+04  0.12699999809E+01 0. -1.
</event>
<event>
 5   0  0.1199720E-03  0.1368871E+04  0.7818609E-02  0.8976665E-01
        1   -1    0    0  501    0  0.00000000000E+00  0.00000000000E+00  0.52182208075E+03  0.52182208077E+03  0.50400001928E-02 0. -1.
       -1   -1    0    0    0  501  0.00000000000E+00  0.00000000000E+00 -0.89772319875E+03  0.89772319877E+03  0.50400001928E-02 0.  1.
    10030    2    1    2    0    0  0.00000000000E+00  0.00000000000E+00 -0.37590111801E+03  0.14195452795E+04  0.13688707573E+04 0.  0.
        5    1    3    3  502    0  0.11919762257E+03  0.60074659384E+03 -0.50475128071E+03  0.79366270456E+03  0.46999998093E+01 0.  1.
       -5    1    3    3    0  502 -0.11919762257E+03 -0.60074659384E+03  0.12885016270E+03  0.62588257498E+03  0.46999998093E+01 0. -1.
</event>
<event>
 5   0  0.1238683E-03  0.1396640E+04  0.7818609E-02  0.8956254E-01
        1   -1    0    0  501    0  0.00000000000E+00  0.00000000000E+00  0.71288413453E+03  0.71288413455E+03  0.50400001928E-02 0.  1.
       -1   -1    0    0    0  501  0.00000000000E+00  0.00000000000E+00 -0.68405356144E+03  0.68405356146E+03  0.50400001928E-02 0. -1.
    10030    2    1    2    0    0  0.00000000000E+00  0.00000000000E+00  0.28830573086E+02  0.13969376960E+04  0.13966401557E+04 0.  0.
        2    1    3    3  502    0 -0.16377975435E+03 -0.65335791576E+03 -0.16988073705E+03  0.69466527109E+03  0.25500000920E-02 0. -1.
       -2    1    3    3    0  502  0.16377975435E+03  0.65335791576E+03  0.19871131014E+03  0.70227242492E+03  0.25500000920E-02 0.  1.
</event>
<event>
 5   0  0.8293000E-04  0.1403744E+04  0.7818609E-02  0.8951113E-01
        3   -1    0    0  501    0  0.00000000000E+00  0.00000000000E+00  0.45286234259E+03  0.45286235386E+03  0.10100000352E+00 0. -1.
       -3   -1    0    0    0  501  0.00000000000E+00  0.00000000000E+00 -0.10878017587E+04  0.10878017634E+04  0.10100000352E+00 0.  1.
    10030    2    1    2    0    0  0.00000000000E+00  0.00000000000E+00 -0.63493941615E+03  0.15406641173E+04  0.14037442289E+04 0.  0.
        5    1    3    3  502    0 -0.19163408938E+02  0.70086009935E+03 -0.28224126998E+03  0.75581369370E+03  0.46999998093E+01 0.  1.
       -5    1    3    3    0  502  0.19163408938E+02 -0.70086009935E+03 -0.35269814616E+03  0.78485042359E+03  0.46999998093E+01 0. -1.
</event>
<event>
 5   0  0.2195980E-03  0.1403712E+04  0.7818609E-02  0.8951136E-01
        2   -1    0    0  501    0  0.00000000000E+00  0.00000000000E+00  0.14127846499E+04  0.14127846499E+04  0.25500000920E-02 0. -1.
       -2   -1    0    0    0  501  0.00000000000E+00  0.00000000000E+00 -0.34867416040E+03  0.34867416041E+03  0.25500000920E-02 0.  1.
    10030    2    1    2    0    0  0.00000000000E+00  0.00000000000E+00  0.10641104895E+04  0.17614588104E+04  0.14037115112E+04 0.  0.
        4    1    3    3  502    0  0.34632960457E+03  0.44749292893E+03  0.11015884462E+02  0.56596561649E+03  0.12699999809E+01 0.  1.
       -4    1    3    3    0  502 -0.34632960457E+03 -0.44749292893E+03  0.10530946051E+04  0.11954931939E+04  0.12699999809E+01 0. -1.
</event>
<event>
 5   0  0.2236184E-03  0.1411043E+04  0.7818609E-02  0.8945864E-01
        2   -1    0    0  501    0  0.00000000000E+00  0.00000000000E+00  0.92291221412E+03  0.92291221412E+03  0.25500000920E-02 0.  1.
       -2   -1    0    0    0  501  0.00000000000E+00  0.00000000000E+00 -0.53933652571E+03  0.53933652572E+03  0.25500000920E-02 0. -1.
    10030    2    1    2    0    0  0.00000000000E+00  0.00000000000E+00  0.38357568841E+03  0.14622487398E+04  0.14110425466E+04 0.  0.
        3    1    3    3  502    0 -0.34486103201E+03  0.61548380038E+03  0.19519611425E+03  0.73201842405E+03  0.10100000352E+00 0.  1.
       -3    1    3    3    0  502  0.34486103201E+03 -0.61548380038E+03  0.18837957416E+03  0.73023031579E+03  0.10100000352E+00 0. -1.
</event>
<event>
 5   0  0.1199720E-03  0.1375433E+04  0.7818609E-02  0.8971796E-01
       -1   -1    0    0    0  501  0.00000000000E+00  0.00000000000E+00  0.81855888808E+03  0.81855888809E+03  0.50400001928E-02 0. -1.
        1   -1    0    0  501    0  0.00000000000E+00  0.00000000000E+00 -0.57778889468E+03  0.57778889470E+03  0.50400001928E-02 0.  1.
    10030    2    1    2    0    0  0.00000000000E+00  0.00000000000E+00  0.24076999340E+03  0.13963477828E+04  0.13754333647E+04 0.  0.
        5    1    3    3  502    0  0.37448993144E+02  0.28079345473E+02  0.81692358490E+03  0.81827691541E+03  0.46999998093E+01 0. -1.
       -5    1    3    3    0  502 -0.37448993144E+02 -0.28079345473E+02 -0.57615359150E+03  0.57807086739E+03  0.46999998093E+01 0.  1.
</event>
<event>
 5   0  0.2172901E-03  0.1481759E+04  0.7818609E-02  0.8896675E-01
       -2   -1    0    0    0  501  0.00000000000E+00  0.00000000000E+00  0.69909513930E+03  0.69909513930E+03  0.25500000920E-02 0.  1.
        2   -1    0    0  501    0  0.00000000000E+00  0.00000000000E+00 -0.78516084568E+03  0.78516084569E+03  0.25500000920E-02 0. -1.
    10030    2    1    2    0    0  0.00000000000E+00  0.00000000000E+00 -0.86065706383E+02  0.14842559850E+04  0.14817585914E+04 0.  0.
        2    1    3    3  502    0  0.15753090604E+03 -0.67982032967E+03  0.20624489966E+03  0.72767343337E+03  0.25500000920E-02 0.  1.
       -2    1    3    3    0  502 -0.15753090604E+03  0.67982032967E+03 -0.29231060604E+03  0.75658255161E+03  0.25500000920E-02 0. -1.
</event>
<event>
 5   0  0.2195980E-03  0.1392959E+04  0.7818609E-02  0.8958931E-01
       -2   -1    0    0    0  501  0.00000000000E+00  0.00000000000E+00  0.59730271816E+03  0.59730271816E+03  0.25500000920E-02 0.  1.
        2   -1    0    0  501    0  0.00000000000E+00  0.00000000000E+00 -0.81212415057E+03  0.81212415057E+03  0.25500000920E-02 0. -1.
    10030    2    1    2    0    0  0.00000000000E+00  0.00000000000E+00 -0.21482143241E+03  0.14094268687E+04  0.13929593858E+04 0.  0.
        4    1    3    3  502    0 -0.35199491938E+03 -0.28681181226E+03 -0.64178386776E+03  0.78616129690E+03  0.12699999809E+01 0. -1.
       -4    1    3    3    0  502  0.35199491938E+03  0.28681181226E+03  0.42696243535E+03  0.62326557183E+03  0.12699999809E+01 0.  1.
</event>
<event>
 5   0  0.1210275E-03  0.1375427E+04  0.7818609E-02  0.8971800E-01
        1   -1    0    0  501    0  0.00000000000E+00  0.00000000000E+00  0.16780924805E+04  0.16780924805E+04  0.50400001928E-02 0.  1.
       -1   -1    0    0    0  501  0.00000000000E+00  0.00000000000E+00 -0.28183767707E+03  0.28183767711E+03  0.50400001928E-02 0. -1.
    10030    2    1    2    0    0  0.00000000000E+00  0.00000000000E+00  0.13962548035E+04  0.19599301577E+04  0.13754267507E+04 0.  0.
        1    1    3    3  502    0  0.50459718299E+03  0.38629959185E+03  0.32353867243E+03  0.71310796120E+03  0.50400001928E-02 0. -1.
       -1    1    3    3    0  502 -0.50459718299E+03 -0.38629959185E+03  0.10727161310E+04  0.12468221965E+04  0.50400001928E-02 0.  1.
</event>
<event>
 5   0  0.2172901E-03  0.1378760E+04  0.7818609E-02  0.8969338E-01
       -2   -1    0    0    0  501  0.00000000000E+00  0.00000000000E+00  0.20618942067E+03  0.20618942068E+03  0.25500000920E-02 0. -1.
        2   -1    0    0  501    0  0.00000000000E+00  0.00000000000E+00 -0.23048940937E+04  0.23048940937E+04  0.25500000920E-02 0.  1.
    10030    2    1    2    0    0  0.00000000000E+00  0.00000000000E+00 -0.20987046731E+04  0.25110835144E+04  0.13787599906E+04 0.  0.
        2    1    3    3  502    0  0.18854664024E+02  0.18972202799E+03  0.15721820507E+03  0.24711841346E+03  0.25500000920E-02 0. -1.
       -2    1    3    3    0  502 -0.18854664024E+02 -0.18972202799E+03 -0.22559228781E+04  0.22639651010E+04  0.25500000920E-02 0.  1.
</event>
<event>
 5   0  0.1199720E-03  0.1394300E+04  0.7818609E-02  0.8957955E-01
       -1   -1    0    0    0  501  0.00000000000E+00  0.00000000000E+00  0.68352634356E+03  0.68352634358E+03  0.50400001928E-02 0.  1.
        1   -1    0    0  501    0  0.00000000000E+00  0.00000000000E+00 -0.71104538663E+03  0.71104538665E+03  0.50400001928E-02 0. -1.
    10030    2    1    2    0    0  0.00000000000E+00  0.00000000000E+00 -0.27519043071E+02  0.13945717302E+04  0.13943001876E+04 0.  0.
        5    1    3    3  502    0 -0.89112693215E+02  0.39603040966E+03  0.55310918678E+03  0.68609986151E+03  0.46999998093E+01 0.  1.
       -5    1    3    3    0  502  0.89112693215E+02 -0.39603040966E+03 -0.58062822985E+03  0.70847186872E+03  0.46999998093E+01 0. -1.
</event>
<event>
 5   0  0.8293000E-04  0.1413789E+04  0.7818609E-02  0.8943897E-01
        3   -1    0    0  501    0  0.00000000000E+00  0.00000000000E+00  0.70331577457E+03  0.70331578182E+03  0.10100000352E+00 0.  1.
       -3   -1    0    0    0  501  0.00000000000E+00  0.00000000000E+00 -0.71049168571E+03  0.71049169289E+03  0.10100000352E+00 0. -1.
    10030    2    1    2    0    0  0.00000000000E+00  0.00000000000E+00 -0.71759111431E+01  0.14138074747E+04  0.14137892636E+04 0.  0.
        3    1    3    3  502    0  0.11108131602E+03 -0.51270314243E+02 -0.69982411823E+03  0.71043754866E+03  0.10100000352E+00 0. -1.
       -3    1    3    3    0  502 -0.11108131602E+03  0.51270314243E+02  0.69264820708E+03  0.70336992605E+03  0.10100000352E+00 0.  1.
</event>
<event>
 5   0  0.1175374E-03  0.1390641E+04  0.7818609E-02  0.8960621E-01
        1   -1    0    0  501    0  0.00000000000E+00  0.00000000000E+00  0.66336692982E+03  0.66336692984E+03  0.50400001928E-02 0.  1.
       -1   -1    0    0    0  501  0.00000000000E+00  0.00000000000E+00 -0.72881330937E+03  0.72881330939E+03  0.50400001928E-02 0. -1.
    10030    2    1    2    0    0  0.00000000000E+00  0.00000000000E+00 -0.65446379550E+02  0.13921802392E+04  0.13906410716E+04 0.  0.
        3    1    3    3  502    0 -0.31928079801E+03  0.61242383145E+03 -0.11323271915E+03  0.69987487181E+03  0.10100000352E+00 0. -1.
       -3    1    3    3    0  502  0.31928079801E+03 -0.61242383145E+03  0.47786339604E+02  0.69230536742E+03  0.10100000352E+00 0.  1.
</event>
<event>
 5   0  0.2190704E-03  0.1329256E+04  0.7818609E-02  0.9006681E-01
       -2   -1    0    0    0  501  0.00000000000E+00  0.00000000000E+00  0.30928156269E+03  0.30928156270E+03  0.25500000920E-02 0.  1.
        2   -1    0    0  501    0  0.00000000000E+00  0.00000000000E+00 -0.14282469263E+04  0.14282469263E+04  0.25500000920E-02 0. -1.
    10030    2    1    2    0    0  0.00000000000E+00  0.00000000000E+00 -0.11189653636E+04  0.17375284890E+04  0.13292560946E+04 0.  0.
        5    1    3    3  502    0  0.40547503684E+03 -0.10762533637E+03 -0.12332833204E+04  0.13026906988E+04  0.46999998093E+01 0. -1.
       -5    1    3    3    0  502 -0.40547503684E+03  0.10762533637E+03  0.11431795676E+03  0.43483779017E+03  0.46999998093E+01 0.  1.
</event>
<event>
 5   0  0.1199720E-03  0.1422602E+04  0.7818609E-02  0.8937619E-01
       -1   -1    0    0    0  501  0.00000000000E+00  0.00000000000E+00  0.36850900267E+03  0.36850900271E+03  0.50400001928E-02 0. -1.
        1   -1    0    0  501    0  0.00000000000E+00  0.00000000000E+00 -0.13729630353E+04  0.13729630353E+04  0.50400001928E-02 0.  1.
    10030    2    1    2    0    0  0.00000000000E+00  0.00000000000E+00 -0.10044540326E+04  0.17414720380E+04  0.14226021775E+04 0.  0.
        5    1    3    3  502    0 -0.34828628866E+03  0.55670299246E+03 -0.83681441562E+03  0.10637208360E+04  0.46999998093E+01 0.  1.
       -5    1    3    3    0  502  0.34828628866E+03 -0.55670299246E+03 -0.16763961700E+03  0.67775120204E+03  0.46999998093E+01 0. -1.
</event>
<event>
 5   0  0.2236184E-03  0.1335713E+04  0.7818609E-02  0.9001715E-01
        2   -1    0    0  501    0  0.00000000000E+00  0.00000000000E+00  0.79364380973E+03  0.79364380973E+03  0.25500000920E-02 0. -1.
       -2   -1    0    0    0  501  0.00000000000E+00  0.00000000000E+00 -0.56200524587E+03  0.56200524588E+03  0.25500000920E-02 0.  1.
    10030    2    1    2    0    0  0.00000000000E+00  0.00000000000E+00  0.23163856386E+03  0.13556490556E+04  0.13357125206E+04 0.  0.
        3    1    3    3  502    0  0.24166733539E+03 -0.22190009072E+03  0.70621410474E+03  0.77870477281E+03  0.10100000352E+00 0. -1.
       -3    1    3    3    0  502 -0.24166733539E+03  0.22190009072E+03 -0.47457554088E+03  0.57694428280E+03  0.10100000352E+00 0.  1.
</event>
<event>
 5   0  0.1210275E-03  0.1504529E+04  0.7818609E-02  0.8881447E-01
       -1   -1    0    0    0  501  0.00000000000E+00  0.00000000000E+00  0.60303176009E+03  0.60303176011E+03  0.50400001928E-02 0.  1.
        1   -1    0    0  501    0  0.00000000000E+00  0.00000000000E+00 -0.93842750517E+03  0.93842750518E+03  0.50400001928E-02 0. -1.
    10030    2    1    2    0    0  0.00000000000E+00  0.00000000000E+00 -0.33539574508E+03  0.15414592653E+04  0.15045286175E+04 0.  0.
        1    1    3    3  502    0  0.75127208874E+03 -0.17745175782E+02 -0.13254910018E+03  0.76308184788E+03  0.50400001928E-02 0. -1.
       -1    1    3    3    0  502 -0.75127208874E+03  0.17745175782E+02 -0.20284664489E+03  0.77837741742E+03  0.50400001928E-02 0.  1.
</event>
<event>
 5   0  0.1175374E-03  0.1404962E+04  0.7818609E-02  0.8950235E-01
       -1   -1    0    0    0  501  0.00000000000E+00  0.00000000000E+00  0.37425526060E+03  0.37425526063E+03  0.50400001928E-02 0. -1.
        1   -1    0    0  501    0  0.00000000000E+00  0.00000000000E+00 -0.13185634040E+04  0.13185634040E+04  0.50400001928E-02 0.  1.
    10030    2    1    2    0    0  0.00000000000E+00  0.00000000000E+00 -0.94430814337E+03  0.16928186646E+04  0.14049616228E+04 0.  0.
        3    1    3    3  502    0 -0.30578361272E+03 -0.24104974781E+03 -0.11766474350E+04  0.12393981585E+04  0.10100000352E+00 0.  1.
       -3    1    3    3    0  502  0.30578361272E+03  0.24104974781E+03  0.23233929165E+03  0.45342050612E+03  0.10100000352E+00 0. -1.
</event>
<event>
 5   0  0.2236184E-03  0.1403112E+04  0.7818609E-02  0.8951569E-01
       -2   -1    0    0    0  501  0.00000000000E+00  0.00000000000E+00  0.32532380829E+03  0.32532380830E+03  0.25500000920E-02 0.  1.
        2   -1    0    0  501    0  0.00000000000E+00  0.00000000000E+00 -0.15128962424E+04  0.15128962424E+04  0.25500000920E-02 0. -1.
    10030    2    1    2    0    0  0.00000000000E+00  0.00000000000E+00 -0.11875724341E+04  0.18382200507E+04  0.14031124932E+04 0.  0.
        3    1    3    3  502    0 -0.19164038809E+03  0.11493504158E+03  0.27745116234E+03  0.35625168044E+03  0.10100000352E+00 0.  1.
       -3    1    3    3    0  502  0.19164038809E+03 -0.11493504158E+03 -0.14650235964E+04  0.14819683702E+04  0.10100000352E+00 0. -1.
</event>
<event>
 5   0  0.2190704E-03  0.1416115E+04  0.7818609E-02  0.8942235E-01
        2   -1    0    0  501    0  0.00000000000E+00  0.00000000000E+00  0.11575862688E+04  0.11575862688E+04  0.25500000920E-02 0.  1.
       -2   -1    0    0    0  501  0.00000000000E+00  0.00000000000E+00 -0.43309582099E+03  0.43309582099E+03  0.25500000920E-02 0. -1.
    10030    2    1    2    0    0  0.00000000000E+00  0.00000000000E+00  0.72449044777E+03  0.15906820898E+04  0.14161154973E+04 0.  0.
        5    1    3    3  502    0 -0.29035538053E+03  0.71088603378E+02 -0.35871992088E+03  0.46697099286E+03  0.46999998093E+01 0. -1.
       -5    1    3    3    0  502  0.29035538053E+03 -0.71088603378E+02  0.10832103687E+04  0.11237110969E+04  0.46999998093E+01 0.  1.
</event>
<event>
 5   0  0.2190704E-03  0.1477699E+04  0.7818609E-02  0.8899420E-01
        2   -1    0    0  501    0  0.00000000000E+00  0.00000000000E+00  0.87577341887E+03  0.87577341887E+03  0.25500000920E-02 0. -1.
       -2   -1    0    0    0  501  0.00000000000E+00  0.00000000000E+00 -0.62333310626E+03  0.62333310626E+03  0.25500000920E-02 0.  1.
    10030    2    1    2    0    0  0.00000000000E+00  0.00000000000E+00  0.25244031261E+03  0.14991065251E+04  0.14776989755E+04 0.  0.
        5    1    3    3  502    0  0.59622667129E+02  0.41636408121E+03 -0.49000251839E+03  0.64578515668E+03  0.46999998093E+01 0.  1.
       -5    1    3    3    0  502 -0.59622667129E+02 -0.41636408121E+03  0.74244283100E+03  0.85332136845E+03  0.46999998093E+01 0. -1.
</event>
<event>
 5   0  0.1225690E-03  0.1416986E+04  0.7818609E-02  0.8941614E-01
        1   -1    0    0  501    0  0.00000000000E+00  0.00000000000E+00  0.63105065430E+03  0.63105065432E+03  0.50400001928E-02 0. -1.
       -1   -1    0    0    0  501  0.00000000000E+00  0.00000000000E+00 -0.79543857741E+03  0.79543857743E+03  0.50400001928E-02 0.  1.
    10030    2    1    2    0    0  0.00000000000E+00  0.00000000000E+00 -0.16438792311E+03  0.14264892318E+04  0.14169855818E+04 0.  0.
        4    1    3    3  502    0 -0.23519202687E+03  0.24238390012E+03  0.54479552190E+03  0.64099065370E+03  0.12699999809E+01 0. -1.
       -4    1    3    3    0  502  0.23519202687E+03 -0.24238390012E+03 -0.70918344501E+03  0.78549857805E+03  0.12699999809E+01 0.  1.
</event>
<event>
 5   0  0.1199720E-03  0.1387665E+04  0.7818609E-02  0.8962796E-01
       -1   -1    0    0    0  501  0.00000000000E+00  0.00000000000E+00  0.29747665224E+03  0.29747665229E+03  0.50400001928E-02 0.  1.
        1   -1    0    0  501    0  0.00000000000E+00  0.00000000000E+00 -0.16182901922E+04  0.16182901922E+04  0.50400001928E-02 0. -1.
    10030    2    1    2    0    0  0.00000000000E+00  0.00000000000E+00 -0.13208135399E+04  0.19157668445E+04  0.13876650155E+04 0.  0.
        5    1    3    3  502    0  0.83339130125E+02 -0.57121014309E+03 -0.12901331623E+03  0.59151750941E+03  0.46999998093E+01 0.  1.
       -5    1    3    3    0  502 -0.83339130125E+02  0.57121014309E+03 -0.11918002237E+04  0.13242493351E+04  0.46999998093E+01 0. -1.
</event>
<event>
 5   0  0.1225690E-03  0.1147455E+04  0.7818609E-02  0.9160135E-01
       -1   -1    0    0    0  501  0.00000000000E+00  0.00000000000E+00  0.11327990541E+04  0.11327990541E+04  0.50400001928E-02 0. -1.
        1   -1    0    0  501    0  0.00000000000E+00  0.00000000000E+00 -0.29057495399E+03  0.29057495403E+03  0.50400001928E-02 0.  1.
    10030    2    1    2    0    0  0.00000000000E+00  0.00000000000E+00  0.84222410014E+03  0.14233740082E+04  0.11474546319E+04 0.  0.
        4    1    3    3  502    0  0.61445401086E-02  0.57141400859E+03  0.35728607379E+03  0.67392055962E+03  0.12699999809E+01 0. -1.
       -4    1    3    3    0  502 -0.61445401086E-02 -0.57141400859E+03  0.48493802635E+03  0.74945344856E+03  0.12699999809E+01 0.  1.
</event>
<event>
 5   0  0.1210275E-03  0.1356178E+04  0.7818609E-02  0.8986164E-01
       -1   -1    0    0    0  501  0.00000000000E+00  0.00000000000E+00  0.61034302466E+03  0.61034302468E+03  0.50400001928E-02 0. -1.
        1   -1    0    0  501    0  0.00000000000E+00  0.00000000000E+00 -0.75335480002E+03  0.75335480004E+03  0.50400001928E-02 0.  1.
    10030    2    1    2    0    0  0.00000000000E+00  0.00000000000E+00 -0.14301177537E+03  0.13636978247E+04  0.13561782292E+04 0.  0.
        1    1    3    3  502    0  0.55561054090E+02 -0.59735854216E+03 -0.38929713095E+03  0.71517586286E+03  0.50400001928E-02 0.  1.
       -1    1    3    3    0  502 -0.55561054090E+02  0.59735854216E+03  0.24628535558E+03  0.64852196186E+03  0.50400001928E-02 0. -1.
</event>
<event>
 5   0  0.1225690E-03  0.1387979E+04  0.7818609E-02  0.8962567E-01
       -1   -1    0    0    0  501  0.00000000000E+00  0.00000000000E+00  0.94959044005E+03  0.94959044006E+03  0.50400001928E-02 0.  1.
        1   -1    0    0  501    0  0.00000000000E+00  0.00000000000E+00 -0.50718826652E+03  0.50718826655E+03  0.50400001928E-02 0. -1.
    10030    2    1    2    0    0  0.00000000000E+00  0.00000000000E+00  0.44240217353E+03  0.14567787066E+04  0.13879785722E+04 0.  0.
        4    1    3    3  502    0  0.60592669627E+03  0.12329317826E+03  0.55189206274E+03  0.82881531771E+03  0.12699999809E+01 0.  1.
       -4    1    3    3    0  502 -0.60592669627E+03 -0.12329317826E+03 -0.10948988921E+03  0.62796338890E+03  0.12699999809E+01 0. -1.
</event>
<event>
 5   0  0.2236184E-03  0.1394600E+04  0.7818609E-02  0.8957737E-01
        2   -1    0    0  501    0  0.00000000000E+00  0.00000000000E+00  0.17932678361E+04  0.17932678361E+04  0.25500000920E-02 0.  1.
       -2   -1    0    0    0  501  0.00000000000E+00  0.00000000000E+00 -0.27114028885E+03  0.27114028886E+03  0.25500000920E-02 0. -1.
    10030    2    1    2    0    0  0.00000000000E+00  0.00000000000E+00  0.15221275473E+04  0.20644081250E+04  0.13945998122E+04 0.  0.
        3    1    3    3  502    0 -0.28543569095E+03 -0.43731179665E+03  0.77062186478E+02  0.52787662568E+03  0.10100000352E+00 0. -1.
       -3    1    3    3    0  502  0.28543569095E+03  0.43731179665E+03  0.14450653608E+04  0.15365314993E+04  0.10100000352E+00 0.  1.
</event>
<event>
 5   0  0.2190704E-03  0.1492494E+04  0.7818609E-02  0.8889460E-01
        2   -1    0    0  501    0  0.00000000000E+00  0.00000000000E+00  0.13735671863E+04  0.13735671863E+04  0.25500000920E-02 0.  1.
       -2   -1    0    0    0  501  0.00000000000E+00  0.00000000000E+00 -0.40542938066E+03  0.40542938067E+03  0.25500000920E-02 0. -1.
    10030    2    1    2    0    0  0.00000000000E+00  0.00000000000E+00  0.96813780559E+03  0.17789965669E+04  0.14924938775E+04 0.  0.
        5    1    3    3  502    0 -0.61421509565E+03 -0.36322593372E+03  0.22382460969E+03  0.74787218731E+03  0.46999998093E+01 0. -1.
       -5    1    3    3    0  502  0.61421509565E+03  0.36322593372E+03  0.74431319591E+03  0.10311243796E+04  0.46999998093E+01 0.  1.
</event>
<event>
 5   0  0.2190704E-03  0.1363895E+04  0.7818609E-02  0.8980376E-01
        2   -1    0    0  501    0  0.00000000000E+00  0.00000000000E+00  0.90422901459E+03  0.90422901460E+03  0.25500000920E-02 0. -1.
       -2   -1    0    0    0  501  0.00000000000E+00  0.00000000000E+00 -0.51430790869E+03  0.51430790870E+03  0.25500000920E-02 0.  1.
    10030    2    1    2    0    0  0.00000000000E+00  0.00000000000E+00  0.38992110590E+03  0.14185369233E+04  0.13638946198E+04 0.  0.
        5    1    3    3  502    0  0.53483748660E+03 -0.42159592927E+03  0.15839853100E+03  0.69921845604E+03  0.46999998093E+01 0. -1.
       -5    1    3    3    0  502 -0.53483748660E+03  0.42159592927E+03  0.23152257490E+03  0.71931846725E+03  0.46999998093E+01 0.  1.
</event>
<event>
 5   0  0.1210275E-03  0.1358052E+04  0.7818609E-02  0.8984755E-01
       -1   -1    0    0    0  501  0.00000000000E+00  0.00000000000E+00  0.56938374957E+03  0.56938374960E+03  0.50400001928E-02 0.  1.
        1   -1    0    0  501    0  0.00000000000E+00  0.00000000000E+00 -0.80978115645E+03  0.80978115647E+03  0.50400001928E-02 0. -1.
    10030    2    1    2    0    0  0.00000000000E+00  0.00000000000E+00 -0.24039740688E+03  0.13791649061E+04  0.13580518859E+04 0.  0.
        1    1    3    3  502    0  0.21893862590E+03  0.36515233234E+02  0.53150114228E+03  0.57598693426E+03  0.50400001928E-02 0.  1.
       -1    1    3    3    0  502 -0.21893862590E+03 -0.36515233234E+02 -0.77189854916E+03  0.80317797180E+03  0.50400001928E-02 0. -1.
</event>
<event>
 5   0  0.2083966E-03  0.1437941E+04  0.7818609E-02  0.8926804E-01
        2   -1    0    0  501    0  0.00000000000E+00  0.00000000000E+00  0.16513587009E+04  0.16513587009E+04  0.25500000920E-02 0. -1.
       -2   -1    0    0    0  501  0.00000000000E+00  0.00000000000E+00 -0.31302610025E+03  0.31302610026E+03  0.25500000920E-02 0.  1.
    10030    2    1    2    0    0  0.00000000000E+00  0.00000000000E+00  0.13383326006E+04  0.19643848011E+04  0.14379407140E+04 0.  0.
        1    1    3    3  502    0 -0.52468600924E+02  0.41339605485E+03 -0.13122609615E+03  0.43688618722E+03  0.50400001928E-02 0.  1.
       -1    1    3    3    0  502  0.52468600924E+02 -0.41339605485E+03  0.14695586968E+04  0.15274986139E+04  0.50400001928E-02 0. -1.
</event>
<event>
 5   0  0.2083966E-03  0.1421092E+04  0.7818609E-02  0.8938691E-01
        2   -1    0    0  501    0  0.00000000000E+00  0.00000000000E+00  0.73071218446E+03  0.73071218446E+03  0.25500000920E-02 0. -1.
       -2   -1    0    0    0  501  0.00000000000E+00  0.00000000000E+00 -0.69093620198E+03  0.69093620199E+03  0.25500000920E-02 0.  1.
    10030    2    1    2    0    0  0.00000000000E+00  0.00000000000E+00  0.39775982474E+02  0.14216483864E+04  0.14210918358E+04 0.  0.
        1    1    3    3  502    0  0.70636466055E+03  0.15187009475E+01 -0.57097727514E+02  0.70867022700E+03  0.50400001928E-02 0.  1.
       -1    1    3    3    0  502 -0.70636466055E+03 -0.15187009475E+01  0.96873709988E+02  0.71297815944E+03  0.50400001928E-02 0. -1.
</event>
<event>
 5   0  0.1175374E-03  0.1401865E+04  0.7818609E-02  0.8952470E-01
       -1   -1    0    0    0  501  0.00000000000E+00  0.00000000000E+00  0.56422424739E+03  0.56422424741E+03  0.50400001928E-02 0.  1.
        1   -1    0    0  501    0  0.00000000000E+00  0.00000000000E+00 -0.87076460233E+03  0.87076460235E+03  0.50400001928E-02 0. -1.
    10030    2    1    2    0    0  0.00000000000E+00  0.00000000000E+00 -0.30654035494E+03  0.14349888498E+04  0.14018651896E+04 0.  0.
        3    1    3    3  502    0 -0.31334626490E+03  0.61285626607E+03 -0.28879101406E+03  0.74644420059E+03  0.10100000352E+00 0.  1.
       -3    1    3    3    0  502  0.31334626490E+03 -0.61285626607E+03 -0.17749340887E+02  0.68854464917E+03  0.10100000352E+00 0. -1.
</event>
<event>
 5   0  0.2195980E-03  0.1406430E+04  0.7818609E-02  0.8949177E-01
       -2   -1    0    0    0  501  0.00000000000E+00  0.00000000000E+00  0.74876451855E+03  0.74876451855E+03  0.25500000920E-02 0. -1.
        2   -1    0    0  501    0  0.00000000000E+00  0.00000000000E+00 -0.66043679670E+03  0.66043679671E+03  0.25500000920E-02 0.  1.
    10030    2    1    2    0    0  0.00000000000E+00  0.00000000000E+00  0.88327721843E+02  0.14092013153E+04  0.14064304322E+04 0.  0.
        4    1    3    3  502    0 -0.33670653251E+03  0.32883687009E+03 -0.47936439444E+03  0.67178628426E+03  0.12699999809E+01 0.  1.
       -4    1    3    3    0  502  0.33670653251E+03 -0.32883687009E+03  0.56769211628E+03  0.73741503100E+03  0.12699999809E+01 0. -1.
</event>
<event>
 5   0  0.1238683E-03  0.1387859E+04  0.7818609E-02  0.8962654E-01
       -1   -1    0    0    0  501  0.00000000000E+00  0.00000000000E+00  0.47772298587E+03  0.47772298589E+03  0.50400001928E-02 0.  1.
        1   -1    0    0  501    0  0.00000000000E+00  0.00000000000E+00 -0.10079858535E+04  0.10079858535E+04  0.50400001928E-02 0. -1.
    10030    2    1    2    0    0  0.00000000000E+00  0.00000000000E+00 -0.53026286761E+03  0.14857088394E+04  0.13878587992E+04 0.  0.
        2    1    3    3  502    0  0.34314995855E+03 -0.49528286938E+03  0.10334759321E+03  0.61134093580E+03  0.25500000920E-02 0. -1.
       -2    1    3    3    0  502 -0.34314995855E+03  0.49528286938E+03 -0.63361046082E+03  0.87436790358E+03  0.25500000920E-02 0.  1.
</event>
<event>
 5   0  0.2172901E-03  0.1093566E+04  0.7818609E-02  0.9211486E-01
       -2   -1    0    0    0  501  0.00000000000E+00  0.00000000000E+00  0.28766655445E+03  0.28766655446E+03  0.25500000920E-02 0.  1.
        2   -1    0    0  501    0  0.00000000000E+00  0.00000000000E+00 -0.10392988968E+04  0.10392988968E+04  0.25500000920E-02 0. -1.
    10030    2    1    2    0    0  0.00000000000E+00  0.00000000000E+00 -0.75163234235E+03  0.13269654513E+04  0.10935657871E+04 0.  0.
        2    1    3    3  502    0  0.31395139059E+03 -0.12393593148E+03  0.14616457499E+03  0.36781744623E+03  0.25500000920E-02 0.  1.
       -2    1    3    3    0  502 -0.31395139059E+03  0.12393593148E+03 -0.89779691734E+03  0.95914800503E+03  0.25500000920E-02 0. -1.
</event>
<event>
 5   0  0.1210275E-03  0.1399301E+04  0.7818609E-02  0.8954324E-01
        1   -1    0    0  501    0  0.00000000000E+00  0.00000000000E+00  0.13672121089E+04  0.13672121089E+04  0.50400001928E-02 0. -1.
       -1   -1    0    0    0  501  0.00000000000E+00  0.00000000000E+00 -0.35803595032E+03  0.35803595036E+03  0.50400001928E-02 0.  1.
    10030    2    1    2    0    0  0.00000000000E+00  0.00000000000E+00  0.10091761586E+04  0.17252480593E+04  0.13993013782E+04 0.  0.
        1    1    3    3  502    0 -0.40818266149E+03 -0.47089316986E+03  0.89672668113E+03  0.10920037561E+04  0.50400001928E-02 0. -1.
       -1    1    3    3    0  502  0.40818266149E+03  0.47089316986E+03  0.11244947746E+03  0.63324430322E+03  0.50400001928E-02 0.  1.
</event>
<event>
 5   0  0.2172901E-03  0.1287179E+04  0.7818609E-02  0.9039794E-01
        2   -1    0    0  501    0  0.00000000000E+00  0.00000000000E+00  0.45375895135E+03  0.45375895136E+03  0.25500000920E-02 0.  1.
       -2   -1    0    0    0  501  0.00000000000E+00  0.00000000000E+00 -0.91283640338E+03  0.91283640338E+03  0.25500000920E-02 0. -1.
    10030    2    1    2    0    0  0.00000000000E+00  0.00000000000E+00 -0.45907745202E+03  0.13665953547E+04  0.12871793801E+04 0.  0.
        2    1    3    3  502    0 -0.38935812909E+03 -0.36098867108E+03 -0.61570360380E+03  0.81302121810E+03  0.25500000920E-02 0. -1.
       -2    1    3    3    0  502  0.38935812909E+03  0.36098867108E+03  0.15662615178E+03  0.55357413664E+03  0.25500000920E-02 0.  1.
</event>
<event>
 5   0  0.2190704E-03  0.1290108E+04  0.7818609E-02  0.9037447E-01
        2   -1    0    0  501    0  0.00000000000E+00  0.00000000000E+00  0.10753976325E+04  0.10753976325E+04  0.25500000920E-02 0. -1.
       -2   -1    0    0    0  501  0.00000000000E+00  0.00000000000E+00 -0.38692141318E+03  0.38692141318E+03  0.25500000920E-02 0.  1.
    10030    2    1    2    0    0  0.00000000000E+00  0.00000000000E+00  0.68847621930E+03  0.14623190457E+04  0.12901075485E+04 0.  0.
        5    1    3    3  502    0 -0.49888840454E+03 -0.98957047850E+01 -0.11908566216E+03  0.51302149086E+03  0.46999998093E+01 0.  1.
       -5    1    3    3    0  502  0.49888840454E+03  0.98957047850E+01  0.80756188146E+03  0.94929755480E+03  0.46999998093E+01 0. -1.
</event>
<event>
 5   0  0.2190704E-03  0.1387654E+04  0.7818609E-02  0.8962804E-01
       -2   -1    0    0    0  501  0.00000000000E+00  0.00000000000E+00  0.25308579952E+03  0.25308579953E+03  0.25500000920E-02 0.  1.
        2   -1    0    0  501    0  0.00000000000E+00  0.00000000000E+00 -0.19021049837E+04  0.19021049837E+04  0.25500000920E-02 0. -1.
    10030    2    1    2    0    0  0.00000000000E+00  0.00000000000E+00 -0.16490191841E+04  0.21551907832E+04  0.13876537905E+04 0.  0.
        5    1    3    3  502    0  0.40524910419E+03  0.53590282843E+03 -0.10933157436E+04  0.12832692949E+04  0.46999998093E+01 0.  1.
       -5    1    3    3    0  502 -0.40524910419E+03 -0.53590282843E+03 -0.55570344055E+03  0.87192148832E+03  0.46999998093E+01 0. -1.
</event>
<event>
 5   0  0.2190704E-03  0.1405528E+04  0.7818609E-02  0.8949827E-01
        2   -1    0    0  501    0  0.00000000000E+00  0.00000000000E+00  0.50423939628E+03  0.50423939628E+03  0.25500000920E-02 0.  1.
       -2   -1    0    0    0  501  0.00000000000E+00  0.00000000000E+00 -0.97945014465E+03  0.97945014465E+03  0.25500000920E-02 0. -1.
    10030    2    1    2    0    0  0.00000000000E+00  0.00000000000E+00 -0.47521074837E+03  0.14836895409E+04  0.14055281564E+04 0.  0.
        5    1    3    3  502    0  0.51570759312E+03 -0.43628199895E+03 -0.33026757449E+02  0.67632030940E+03  0.46999998093E+01 0.  1.
       -5    1    3    3    0  502 -0.51570759312E+03  0.43628199895E+03 -0.44218399092E+03  0.80736923154E+03  0.46999998093E+01 0. -1.
</event>
<event>
 5   0  0.1210275E-03  0.1391728E+04  0.7818609E-02  0.8959828E-01
        1   -1    0    0  501    0  0.00000000000E+00  0.00000000000E+00  0.15766978908E+04  0.15766978908E+04  0.50400001928E-02 0.  1.
       -1   -1    0    0    0  501  0.00000000000E+00  0.00000000000E+00 -0.30711435041E+03  0.30711435045E+03  0.50400001928E-02 0. -1.
    10030    2    1    2    0    0  0.00000000000E+00  0.00000000000E+00  0.12695835404E+04  0.18838122412E+04  0.13917277730E+04 0.  0.
        1    1    3    3  502    0  0.27470417368E+03  0.12092841500E+03  0.14845763447E+04  0.15146131479E+04  0.50400001928E-02 0.  1.
       -1    1    3    3    0  502 -0.27470417368E+03 -0.12092841500E+03 -0.21499280431E+03  0.36919909334E+03  0.50400001928E-02 0. -1.
</event>
<event>
 5   0  0.1175374E-03  0.1393666E+04  0.7818609E-02  0.8958416E-01
        1   -1    0    0  501    0  0.00000000000E+00  0.00000000000E+00  0.80386336125E+03  0.80386336126E+03  0.50400001928E-02 0.  1.
       -1   -1    0    0    0  501  0.00000000000E+00  0.00000000000E+00 -0.60405344516E+03  0.60405344518E+03  0.50400001928E-02 0. -1.
    10030    2    1    2    0    0  0.00000000000E+00  0.00000000000E+00  0.19980991609E+03  0.14079168064E+04  0.13936662912E+04 0.  0.
        3    1    3    3  502    0  0.28238177103E+01 -0.13204981384E+03  0.79110226128E+03  0.80205232079E+03  0.10100000352E+00 0.  1.
       -3    1    3    3    0  502 -0.28238177103E+01  0.13204981384E+03 -0.59129234519E+03  0.60586448565E+03  0.10100000352E+00 0. -1.
</event>
<event>
 5   0  0.1175374E-03  0.1406317E+04  0.7818609E-02  0.8949259E-01
        1   -1    0    0  501    0  0.00000000000E+00  0.00000000000E+00  0.99271398418E+03  0.99271398420E+03  0.50400001928E-02 0. -1.
       -1   -1    0    0    0  501  0.00000000000E+00  0.00000000000E+00 -0.49806065342E+03  0.49806065344E+03  0.50400001928E-02 0.  1.
    10030    2    1    2    0    0  0.00000000000E+00  0.00000000000E+00  0.49465333076E+03  0.14907746376E+04  0.14063168571E+04 0.  0.
        3    1    3    3  502    0  0.24158779495E+03 -0.92148171490E+02  0.94048967747E+03  0.97538545807E+03  0.10100000352E+00 0. -1.
       -3    1    3    3    0  502 -0.24158779495E+03  0.92148171490E+02 -0.44583634670E+03  0.51538917957E+03  0.10100000352E+00 0.  1.
</event>
<event>
 5   0  0.2083966E-03  0.1387884E+04  0.7818609E-02  0.8962635E-01
       -2   -1    0    0    0  501  0.00000000000E+00  0.00000000000E+00  0.90401190325E+03  0.90401190325E+03  0.25500000920E-02 0. -1.
        2   -1    0    0  501    0  0.00000000000E+00  0.00000000000E+00 -0.53268743869E+03  0.53268743869E+03  0.25500000920E-02 0.  1.
    10030    2    1    2    0    0  0.00000000000E+00  0.00000000000E+00  0.37132446456E+03  0.14366993419E+04  0.13878844120E+04 0.  0.
        1    1    3    3  502    0 -0.23550099901E+03  0.32752064484E+03  0.77016823798E+03  0.86941912111E+03  0.50400001928E-02 0. -1.
       -1    1    3    3    0  502  0.23550099901E+03 -0.32752064484E+03 -0.39884377342E+03  0.56728022083E+03  0.50400001928E-02 0.  1.
</event>
<event>
 5   0  0.1199720E-03  0.1399205E+04  0.7818609E-02  0.8954394E-01
       -1   -1    0    0    0  501  0.00000000000E+00  0.00000000000E+00  0.61408597591E+03  0.61408597593E+03  0.50400001928E-02 0.  1.
        1   -1    0    0  501    0  0.00000000000E+00  0.00000000000E+00 -0.79702809502E+03  0.79702809504E+03  0.50400001928E-02 0. -1.
    10030    2    1    2    0    0  0.00000000000E+00  0.00000000000E+00 -0.18294211911E+03  0.14111140710E+04  0.13992051681E+04 0.  0.
        5    1    3    3  502    0  0.36536331503E+03  0.14778936049E+03  0.49145332816E+03  0.62998453219E+03  0.46999998093E+01 0.  1.
       -5    1    3    3    0  502 -0.36536331503E+03 -0.14778936049E+03 -0.67439544728E+03  0.78112953877E+03  0.46999998093E+01 0. -1.
</event>
<event>
 5   0  0.2083966E-03  0.1379126E+04  0.7818609E-02  0.8969068E-01
       -2   -1    0    0    0  501  0.00000000000E+00  0.00000000000E+00  0.10474823985E+04  0.10474823985E+04  0.25500000920E-02 0.  1.
        2   -1    0    0  501    0  0.00000000000E+00  0.00000000000E+00 -0.45394268930E+03  0.45394268931E+03  0.25500000920E-02 0. -1.
    10030    2    1    2    0    0  0.00000000000E+00  0.00000000000E+00  0.59353970916E+03  0.15014250878E+04  0.13791257767E+04 0.  0.
        1    1    3    3  502    0 -0.51019793950E+03  0.28310341146E+03  0.69684637434E+03  0.90886981934E+03  0.50400001928E-02 0.  1.
       -1    1    3    3    0  502  0.51019793950E+03 -0.28310341146E+03 -0.10330666517E+03  0.59255526844E+03  0.50400001928E-02 0. -1.
</event>
<event>
 5   0  0.2236184E-03  0.1115767E+04  0.7818609E-02  0.9189959E-01
        2   -1    0    0  501    0  0.00000000000E+00  0.00000000000E+00  0.16718006708E+04  0.16718006708E+04  0.25500000920E-02 0.  1.
       -2   -1    0    0    0  501  0.00000000000E+00  0.00000000000E+00 -0.18616703890E+03  0.18616703892E+03  0.25500000920E-02 0. -1.
    10030    2    1    2    0    0  0.00000000000E+00  0.00000000000E+00  0.14856336319E+04  0.18579677097E+04  0.11157673244E+04 0.  0.
        3    1    3    3  502    0  0.18805062011E+02  0.21562147654E+03 -0.11340310167E+03  0.24434918696E+03  0.10100000352E+00 0. -1.
       -3    1    3    3    0  502 -0.18805062011E+02 -0.21562147654E+03  0.15990367336E+04  0.16136185228E+04  0.10100000352E+00 0.  1.
</event>
<event>
 5   0  0.2172901E-03  0.1311896E+04  0.7818609E-02  0.9020184E-01
       -2   -1    0    0    0  501  0.00000000000E+00  0.00000000000E+00  0.16908519326E+04  0.16908519326E+04  0.25500000920E-02 0. -1.
        2   -1    0    0  501    0  0.00000000000E+00  0.00000000000E+00 -0.25446823384E+03  0.25446823385E+03  0.25500000920E-02 0.  1.
    10030    2    1    2    0    0  0.00000000000E+00  0.00000000000E+00  0.14363836988E+04  0.19453201665E+04  0.13118964974E+04 0.  0.
        2    1    3    3  502    0 -0.18525598489E+03  0.62677696460E+03  0.80073853119E+03  0.10336108255E+04  0.25500000920E-02 0. -1.
       -2    1    3    3    0  502  0.18525598489E+03 -0.62677696460E+03  0.63564516758E+03  0.91170934094E+03  0.25500000920E-02 0.  1.
</event>
<event>
 5   0  0.1238683E-03  0.1460279E+04  0.7818609E-02  0.8911305E-01
        1   -1    0    0  501    0  0.00000000000E+00  0.00000000000E+00  0.11088389062E+04  0.11088389062E+04  0.50400001928E-02 0.  1.
       -1   -1    0    0    0  501  0.00000000000E+00  0.00000000000E+00 -0.48077650738E+03  0.48077650740E+03  0.50400001928E-02 0. -1.
    10030    2    1    2    0    0  0.00000000000E+00  0.00000000000E+00  0.62806239878E+03  0.15896154136E+04  0.14602790097E+04 0.  0.
        2    1    3    3  502    0 -0.33105144084E+02 -0.71466723346E+03  0.47274783306E+03  0.85751718282E+03  0.25500000920E-02 0. -1.
       -2    1    3    3    0  502  0.33105144084E+02  0.71466723346E+03  0.15531456572E+03  0.73209823076E+03  0.25500000920E-02 0.  1.
</event>
<event>
 5   0  0.2190704E-03  0.1500531E+04  0.7818609E-02  0.8884100E-01
        2   -1    0    0  501    0  0.00000000000E+00  0.00000000000E+00  0.77412113308E+03  0.77412113309E+03  0.25500000920E-02 0.  1.
       -2   -1    0    0    0  501  0.00000000000E+00  0.00000000000E+00 -0.72714541842E+03  0.72714541842E+03  0.25500000920E-02 0. -1.
    10030    2    1    2    0    0  0.00000000000E+00  0.00000000000E+00  0.46975714663E+02  0.15012665515E+04  0.15005314195E+04 0.  0.
        5    1    3    3  502    0  0.21595003417E+03  0.71837805723E+03  0.10249032756E+02  0.75021902337E+03  0.46999998093E+01 0. -1.
       -5    1    3    3    0  502 -0.21595003417E+03 -0.71837805723E+03  0.36726681907E+02  0.75104752814E+03  0.46999998093E+01 0.  1.
</event>
<event>
 5   0  0.8293000E-04  0.1410251E+04  0.7818609E-02  0.8946431E-01
        3   -1    0    0  501    0  0.00000000000E+00  0.00000000000E+00  0.62212411463E+03  0.62212412283E+03  0.10100000352E+00 0. -1.
       -3   -1    0    0    0  501  0.00000000000E+00  0.00000000000E+00 -0.79920113639E+03  0.79920114277E+03  0.10100000352E+00 0.  1.
    10030    2    1    2    0    0  0.00000000000E+00  0.00000000000E+00 -0.17707702176E+03  0.14213252656E+04  0.14102514808E+04 0.  0.
        4    1    3    3  502    0  0.60308594457E+03 -0.31610462297E+03  0.96110127483E+02  0.68765802453E+03  0.12699999809E+01 0. -1.
       -4    1    3    3    0  502 -0.60308594457E+03  0.31610462297E+03 -0.27318714924E+03  0.73366724106E+03  0.12699999809E+01 0.  1.
</event>
<event>
 5   0  0.2190704E-03  0.1355961E+04  0.7818609E-02  0.8986328E-01
       -2   -1    0    0    0  501  0.00000000000E+00  0.00000000000E+00  0.21066121474E+03  0.21066121476E+03  0.25500000920E-02 0. -1.
        2   -1    0    0  501    0  0.00000000000E+00  0.00000000000E+00 -0.21819760293E+04  0.21819760293E+04  0.25500000920E-02 0.  1.
    10030    2    1    2    0    0  0.00000000000E+00  0.00000000000E+00 -0.19713148145E+04  0.23926372440E+04  0.13559612397E+04 0.  0.
        5    1    3    3  502    0 -0.17793477517E+03 -0.29834943770E+03  0.41661744741E+02  0.34990136062E+03  0.46999998093E+01 0. -1.
       -5    1    3    3    0  502  0.17793477517E+03  0.29834943770E+03 -0.20129765593E+04  0.20427358834E+04  0.46999998093E+01 0.  1.
</event>
<event>
 5   0  0.2083966E-03  0.1391109E+04  0.7818609E-02  0.8960279E-01
       -2   -1    0    0    0  501  0.00000000000E+00  0.00000000000E+00  0.43875366196E+03  0.43875366197E+03  0.25500000920E-02 0. -1.
        2   -1    0    0  501    0  0.00000000000E+00  0.00000000000E+00 -0.11026606600E+04  0.11026606600E+04  0.25500000920E-02 0.  1.
    10030    2    1    2    0    0  0.00000000000E+00  0.00000000000E+00 -0.66390699799E+03  0.15414143219E+04  0.13911094888E+04 0.  0.
        1    1    3    3  502    0  0.23889217465E+03 -0.41223566998E+03 -0.89344865954E+03  0.10125503573E+04  0.50400001928E-02 0.  1.
       -1    1    3    3    0  502 -0.23889217465E+03  0.41223566998E+03  0.22954166155E+03  0.52886396467E+03  0.50400001928E-02 0. -1.
</event>
<event>
 5   0  0.2195980E-03  0.1409044E+04  0.7818609E-02  0.8947298E-01
       -2   -1    0    0    0  501  0.00000000000E+00  0.00000000000E+00  0.11653419006E+04  0.11653419006E+04  0.25500000920E-02 0.  1.
        2   -1    0    0  501    0  0.00000000000E+00  0.00000000000E+00 -0.42592733514E+03  0.42592733514E+03  0.25500000920E-02 0. -1.
    10030    2    1    2    0    0  0.00000000000E+00  0.00000000000E+00  0.73941456543E+03  0.15912692357E+04  0.14090436051E+04 0.  0.
        4    1    3    3  502    0  0.74540607257E+02 -0.29734734730E+03  0.10860752152E+04  0.11285090753E+04  0.12699999809E+01 0.  1.
       -4    1    3    3    0  502 -0.74540607257E+02  0.29734734730E+03 -0.34666064976E+03  0.46276016041E+03  0.12699999809E+01 0. -1.
</event>
<event>
 5   0  0.1238683E-03  0.1407065E+04  0.7818609E-02  0.8948720E-01
       -1   -1    0    0    0  501  0.00000000000E+00  0.00000000000E+00  0.18658173947E+04  0.18658173948E+04  0.50400001928E-02 0. -1.
        1   -1    0    0  501    0  0.00000000000E+00  0.00000000000E+00 -0.26527675541E+03  0.26527675546E+03  0.50400001928E-02 0.  1.
    10030    2    1    2    0    0  0.00000000000E+00  0.00000000000E+00  0.16005406393E+04  0.21310941502E+04  0.14070650088E+04 0.  0.
        2    1    3    3  502    0 -0.41437788088E+03  0.49376589408E+03  0.37337679468E+03  0.74493222318E+03  0.25500000920E-02 0.  1.
       -2    1    3    3    0  502  0.41437788088E+03 -0.49376589408E+03  0.12271638447E+04  0.13861619270E+04  0.25500000920E-02 0. -1.
</event>
<event>
 5   0  0.1238683E-03  0.1406468E+04  0.7818609E-02  0.8949150E-01
       -1   -1    0    0    0  501  0.00000000000E+00  0.00000000000E+00  0.28710546257E+03  0.28710546261E+03  0.50400001928E-02 0.  1.
        1   -1    0    0  501    0  0.00000000000E+00  0.00000000000E+00 -0.17224971460E+04  0.17224971460E+04  0.50400001928E-02 0. -1.
    10030    2    1    2    0    0  0.00000000000E+00  0.00000000000E+00 -0.14353916834E+04  0.20096026086E+04  0.14064683998E+04 0.  0.
        2    1    3    3  502    0  0.17015134819E+03 -0.64951552807E+03 -0.10164421781E+04  0.12181857839E+04  0.25500000920E-02 0.  1.
       -2    1    3    3    0  502 -0.17015134819E+03  0.64951552807E+03 -0.41894950528E+03  0.79141682474E+03  0.25500000920E-02 0. -1.
</event>
<event>
 5   0  0.2190704E-03  0.1399928E+04  0.7818609E-02  0.8953871E-01
        2   -1    0    0  501    0  0.00000000000E+00  0.00000000000E+00  0.10694111915E+04  0.10694111915E+04  0.25500000920E-02 0. -1.
       -2   -1    0    0    0  501  0.00000000000E+00  0.00000000000E+00 -0.45814905724E+03  0.45814905725E+03  0.25500000920E-02 0.  1.
    10030    2    1    2    0    0  0.00000000000E+00  0.00000000000E+00  0.61126213423E+03  0.15275602487E+04  0.13999281827E+04 0.  0.
        5    1    3    3  502    0  0.30030655070E+03 -0.40971591645E+03 -0.21980628628E+03  0.55352330581E+03  0.46999998093E+01 0.  1.
       -5    1    3    3    0  502 -0.30030655070E+03  0.40971591645E+03  0.83106842051E+03  0.97403694291E+03  0.46999998093E+01 0. -1.
</event>
<event>
 5   0  0.2236184E-03  0.1408370E+04  0.7818609E-02  0.8947782E-01
        2   -1    0    0  501    0  0.00000000000E+00  0.00000000000E+00  0.77434294173E+03  0.77434294174E+03  0.25500000920E-02 0. -1.
       -2   -1    0    0    0  501  0.00000000000E+00  0.00000000000E+00 -0.64038321586E+03  0.64038321587E+03  0.25500000920E-02 0.  1.
    10030    2    1    2    0    0  0.00000000000E+00  0.00000000000E+00  0.13395972587E+03  0.14147261576E+04  0.14083695867E+04 0.  0.
        3    1    3    3  502    0  0.58169942498E+03 -0.38033258335E+03  0.18084542776E+03  0.71814495328E+03  0.10100000352E+00 0.  1.
       -3    1    3    3    0  502 -0.58169942498E+03  0.38033258335E+03 -0.46885701890E+02  0.69658120433E+03  0.10100000352E+00 0. -1.
</event>
<event>
 5   0  0.1238683E-03  0.1408864E+04  0.7818609E-02  0.8947427E-01
       -1   -1    0    0    0  501  0.00000000000E+00  0.00000000000E+00  0.39551135267E+03  0.39551135270E+03  0.50400001928E-02 0.  1.
        1   -1    0    0  501    0  0.00000000000E+00  0.00000000000E+00 -0.12546399505E+04  0.12546399505E+04  0.50400001928E-02 0. -1.
    10030    2    1    2    0    0  0.00000000000E+00  0.00000000000E+00 -0.85912859778E+03  0.16501513032E+04  0.14088638599E+04 0.  0.
        2    1    3    3  502    0 -0.41825383847E+03 -0.37975004501E+03 -0.92243954846E+03  0.10816843766E+04  0.25500000920E-02 0. -1.
       -2    1    3    3    0  502  0.41825383847E+03  0.37975004501E+03  0.63310950683E+02  0.56846692653E+03  0.25500000920E-02 0.  1.
</event>
<event>
 5   0  0.2195980E-03  0.1049715E+04  0.7818609E-02  0.9255639E-01
        2   -1    0    0  501    0  0.00000000000E+00  0.00000000000E+00  0.59538910838E+03  0.59538910839E+03  0.25500000920E-02 0. -1.
       -2   -1    0    0    0  501  0.00000000000E+00  0.00000000000E+00 -0.46268099334E+03  0.46268099335E+03  0.25500000920E-02 0.  1.
    10030    2    1    2    0    0  0.00000000000E+00  0.00000000000E+00  0.13270811504E+03  0.10580701017E+04  0.10497146738E+04 0.  0.
        4    1    3    3  502    0 -0.70570882961E+02 -0.51764031446E+03  0.11717228876E+03  0.53540891179E+03  0.12699999809E+01 0.  1.
       -4    1    3    3    0  502  0.70570882961E+02  0.51764031446E+03  0.15535826274E+02  0.52266118994E+03  0.12699999809E+01 0. -1.
</event>
<event>
 5   0  0.1238683E-03  0.1412885E+04  0.7818609E-02  0.8944544E-01
       -1   -1    0    0    0  501  0.00000000000E+00  0.00000000000E+00  0.72827746521E+03  0.72827746523E+03  0.50400001928E-02 0. -1.
        1   -1    0    0  501    0  0.00000000000E+00  0.00000000000E+00 -0.68526191644E+03  0.68526191646E+03  0.50400001928E-02 0.  1.
    10030    2    1    2    0    0  0.00000000000E+00  0.00000000000E+00  0.43015548773E+02  0.14135393817E+04  0.14128847250E+04 0.  0.
        2    1    3    3  502    0  0.10109062268E+03 -0.44543052921E+03 -0.51766042433E+03  0.69036221310E+03  0.25500000920E-02 0.  1.
       -2    1    3    3    0  502 -0.10109062268E+03  0.44543052921E+03  0.56067597310E+03  0.72317716859E+03  0.25500000920E-02 0. -1.
</event>
<event>
 5   0  0.1175374E-03  0.1392921E+04  0.7818609E-02  0.8958959E-01
        1   -1    0    0  501    0  0.00000000000E+00  0.00000000000E+00  0.57791617332E+03  0.57791617334E+03  0.50400001928E-02 0. -1.
       -1   -1    0    0    0  501  0.00000000000E+00  0.00000000000E+00 -0.83932074330E+03  0.83932074331E+03  0.50400001928E-02 0.  1.
    10030    2    1    2    0    0  0.00000000000E+00  0.00000000000E+00 -0.26140456998E+03  0.14172369167E+04  0.13929207187E+04 0.  0.
        3    1    3    3  502    0 -0.28629907819E+03  0.60983467475E+03  0.48992052661E+02  0.67547444372E+03  0.10100000352E+00 0.  1.
       -3    1    3    3    0  502  0.28629907819E+03 -0.60983467475E+03 -0.31039662264E+03  0.74176247293E+03  0.10100000352E+00 0. -1.
</event>
<event>
 5   0  0.2083966E-03  0.1409513E+04  0.7818609E-02  0.8946961E-01
        2   -1    0    0  501    0  0.00000000000E+00  0.00000000000E+00  0.58630918875E+03  0.58630918876E+03  0.25500000920E-02 0. -1.
       -2   -1    0    0    0  501  0.00000000000E+00  0.00000000000E+00 -0.84713314528E+03  0.84713314528E+03  0.25500000920E-02 0.  1.
    10030    2    1    2    0    0  0.00000000000E+00  0.00000000000E+00 -0.26082395653E+03  0.14334423340E+04  0.14095133163E+04 0.  0.
        1    1    3    3  502    0 -0.30183506064E+03 -0.62607561918E+03 -0.24904075160E+03  0.73830642740E+03  0.50400001928E-02 0.  1.
       -1    1    3    3    0  502  0.30183506064E+03  0.62607561918E+03 -0.11783204926E+02  0.69513590664E+03  0.50400001928E-02 0. -1.
</event>
<event>
 5   0  0.1238683E-03  0.1379809E+04  0.7818609E-02  0.8968565E-01
       -1   -1    0    0    0  501  0.00000000000E+00  0.00000000000E+00  0.38635976426E+03  0.38635976429E+03  0.50400001928E-02 0.  1.
        1   -1    0    0  501    0  0.00000000000E+00  0.00000000000E+00 -0.12319299040E+04  0.12319299040E+04  0.50400001928E-02 0. -1.
    10030    2    1    2    0    0  0.00000000000E+00  0.00000000000E+00 -0.84557013969E+03  0.16182896683E+04  0.13798088959E+04 0.  0.
        2    1    3    3  502    0  0.38679315983E+02 -0.22432037311E+03  0.34104772300E+03  0.41003569192E+03  0.25500000920E-02 0.  1.
       -2    1    3    3    0  502 -0.38679315983E+02  0.22432037311E+03 -0.11866178627E+04  0.12082539763E+04  0.25500000920E-02 0. -1.
</event>
<event>
 5   0  0.2083966E-03  0.1387677E+04  0.7818609E-02  0.8962787E-01
       -2   -1    0    0    0  501  0.00000000000E+00  0.00000000000E+00  0.35475603527E+03  0.35475603528E+03  0.25500000920E-02 0.  1.
        2   -1    0    0  501    0  0.00000000000E+00  0.00000000000E+00 -0.13570225663E+04  0.13570225663E+04  0.25500000920E-02 0. -1.
    10030    2    1    2    0    0  0.00000000000E+00  0.00000000000E+00 -0.10022665310E+04  0.17117786015E+04  0.13876771172E+04 0.  0.
        1    1    3    3  502    0  0.16378704502E+03  0.20475673298E+03 -0.12935535410E+04  0.13198607045E+04  0.50400001928E-02 0. -1.
       -1    1    3    3    0  502 -0.16378704502E+03 -0.20475673298E+03  0.29128701000E+03  0.39191789706E+03  0.50400001928E-02 0.  1.
</event>
<event>
 5   0  0.2236184E-03  0.1343137E+04  0.7818609E-02  0.8996039E-01
        2   -1    0    0  501    0  0.00000000000E+00  0.00000000000E+00  0.10327012062E+04  0.10327012062E+04  0.25500000920E-02 0.  1.
       -2   -1    0    0    0  501  0.00000000000E+00  0.00000000000E+00 -0.43672318509E+03  0.43672318509E+03  0.25500000920E-02 0. -1.
    10030    2    1    2    0    0  0.00000000000E+00  0.00000000000E+00  0.59597802115E+03  0.14694243913E+04  0.13431374614E+04 0.  0.
        3    1    3    3  502    0 -0.46618859708E+03 -0.15908275046E+03  0.79737873915E+03  0.93725769850E+03  0.10100000352E+00 0.  1.
       -3    1    3    3    0  502  0.46618859708E+03  0.15908275046E+03 -0.20140071801E+03  0.53216669283E+03  0.10100000352E+00 0. -1.
</event>
<event>
 5   0  0.1210275E-03  0.1391143E+04  0.7818609E-02  0.8960255E-01
       -1   -1    0    0    0  501  0.00000000000E+00  0.00000000000E+00  0.10153726212E+04  0.10153726212E+04  0.50400001928E-02 0. -1.
        1   -1    0    0  501    0  0.00000000000E+00  0.00000000000E+00 -0.47649451290E+03  0.47649451292E+03  0.50400001928E-02 0.  1.
    10030    2    1    2    0    0  0.00000000000E+00  0.00000000000E+00  0.53887810827E+03  0.14918671341E+04  0.13911426707E+04 0.  0.
        1    1    3    3  502    0 -0.51601795475E+03  0.47825257028E+02 -0.22811219398E+03  0.56621282033E+03  0.50400001928E-02 0.  1.
       -1    1    3    3    0  502  0.51601795475E+03 -0.47825257028E+02  0.76699030225E+03  0.92565431377E+03  0.50400001928E-02 0. -1.
</event>
<event>
 5   0  0.1210275E-03  0.1349583E+04  0.7818609E-02  0.8991143E-01
       -1   -1    0    0    0  501  0.00000000000E+00  0.00000000000E+00  0.59691737953E+03  0.59691737955E+03  0.50400001928E-02 0.  1.
        1   -1    0    0  501    0  0.00000000000E+00  0.00000000000E+00 -0.76282567143E+03  0.76282567145E+03  0.50400001928E-02 0. -1.
    10030    2    1    2    0    0  0.00000000000E+00  0.00000000000E+00 -0.16590829190E+03  0.13597430510E+04  0.13495834926E+04 0.  0.
        1    1    3    3  502    0 -0.22000456680E+03 -0.38668691461E+02 -0.72449443372E+03  0.75814870681E+03  0.50400001928E-02 0. -1.
       -1    1    3    3    0  502  0.22000456680E+03  0.38668691461E+02  0.55858614182E+03  0.60159434420E+03  0.50400001928E-02 0.  1.
</event>
<event>
 5   0  0.2083966E-03  0.1401263E+04  0.7818609E-02  0.8952905E-01
        2   -1    0    0  501    0  0.00000000000E+00  0.00000000000E+00  0.16916335613E+04  0.16916335613E+04  0.25500000920E-02 0. -1.
       -2   -1    0    0    0  501  0.00000000000E+00  0.00000000000E+00 -0.29018388148E+03  0.29018388149E+03  0.25500000920E-02 0.  1.
    10030    2    1    2    0    0  0.00000000000E+00  0.00000000000E+00  0.14014496798E+04  0.19818174428E+04  0.14012634197E+04 0.  0.
        1    1    3    3  502    0  0.30852753518E+03  0.16704729991E+03  0.15584423266E+04  0.15974468773E+04  0.50400001928E-02 0. -1.
       -1    1    3    3    0  502 -0.30852753518E+03 -0.16704729991E+03 -0.15699264687E+03  0.38437056543E+03  0.50400001928E-02 0.  1.
</event>
<event>
 5   0  0.1238683E-03  0.1409770E+04  0.7818609E-02  0.8946777E-01
        1   -1    0    0  501    0  0.00000000000E+00  0.00000000000E+00  0.16163016163E+04  0.16163016163E+04  0.50400001928E-02 0. -1.
       -1   -1    0    0    0  501  0.00000000000E+00  0.00000000000E+00 -0.30740731953E+03  0.30740731957E+03  0.50400001928E-02 0.  1.
    10030    2    1    2    0    0  0.00000000000E+00  0.00000000000E+00  0.13088942968E+04  0.19237089359E+04  0.14097701195E+04 0.  0.
        2    1    3    3  502    0 -0.10366154404E+03 -0.90498759273E+02  0.15977951589E+04  0.16037097964E+04  0.25500000920E-02 0. -1.
       -2    1    3    3    0  502  0.10366154404E+03  0.90498759273E+02 -0.28890086213E+03  0.31999913951E+03  0.25500000920E-02 0.  1.
</event>
<event>
 5   0  0.1210275E-03  0.1384098E+04  0.7818609E-02  0.8965410E-01
       -1   -1    0    0    0  501  0.00000000000E+00  0.00000000000E+00  0.93869434900E+03  0.93869434901E+03  0.50400001928E-02 0. -1.
        1   -1    0    0  501    0  0.00000000000E+00  0.00000000000E+00 -0.51021096865E+03  0.51021096868E+03  0.50400001928E-02 0.  1.
    10030    2    1    2    0    0  0.00000000000E+00  0.00000000000E+00  0.42848338035E+03  0.14489053177E+04  0.13840984836E+04 0.  0.
        1    1    3    3  502    0  0.33686120885E+03  0.54551576074E+03 -0.58473599236E+02  0.64380282780E+03  0.50400001928E-02 0.  1.
       -1    1    3    3    0  502 -0.33686120885E+03 -0.54551576074E+03  0.48695697958E+03  0.80510248989E+03  0.50400001928E-02 0. -1.
</event>
<event>
 5   0  0.2236184E-03  0.1422559E+04  0.7818609E-02  0.8937649E-01
       -2   -1    0    0    0  501  0.00000000000E+00  0.00000000000E+00  0.80523714907E+03  0.80523714908E+03  0.25500000920E-02 0. -1.
        2   -1    0    0  501    0  0.00000000000E+00  0.00000000000E+00 -0.62828543208E+03  0.62828543208E+03  0.25500000920E-02 0.  1.
    10030    2    1    2    0    0  0.00000000000E+00  0.00000000000E+00  0.17695171700E+03  0.14335225812E+04  0.14225593417E+04 0.  0.
        3    1    3    3  502    0 -0.36080537769E+03 -0.46483781372E+03 -0.31418342104E+03  0.66705767808E+03  0.10100000352E+00 0.  1.
       -3    1    3    3    0  502  0.36080537769E+03  0.46483781372E+03  0.49113513804E+03  0.76646490308E+03  0.10100000352E+00 0. -1.
</event>
<event>
 5   0  0.1225690E-03  0.1492226E+04  0.7818609E-02  0.8889639E-01
       -1   -1    0    0    0  501  0.00000000000E+00  0.00000000000E+00  0.90312793545E+03  0.90312793546E+03  0.50400001928E-02 0.  1.
        1   -1    0    0  501    0  0.00000000000E+00  0.00000000000E+00 -0.61639618939E+03  0.61639618941E+03  0.50400001928E-02 0. -1.
    10030    2    1    2    0    0  0.00000000000E+00  0.00000000000E+00  0.28673174606E+03  0.15195241249E+04  0.14922260123E+04 0.  0.
        4    1    3    3  502    0  0.30197423883E+03  0.66725086903E+03 -0.16143911805E+01  0.73240452094E+03  0.12699999809E+01 0. -1.
       -4    1    3    3    0  502 -0.30197423883E+03 -0.66725086903E+03  0.28834613724E+03  0.78711960393E+03  0.12699999809E+01 0.  1.
</event>
<event>
 5   0  0.1225690E-03  0.1385861E+04  0.7818609E-02  0.8964117E-01
       -1   -1    0    0    0  501  0.00000000000E+00  0.00000000000E+00  0.62103702829E+03  0.62103702831E+03  0.50400001928E-02 0. -1.
        1   -1    0    0  501    0  0.00000000000E+00  0.00000000000E+00 -0.77314663332E+03  0.77314663333E+03  0.50400001928E-02 0.  1.
    10030    2    1    2    0    0  0.00000000000E+00  0.00000000000E+00 -0.15210960502E+03  0.13941836616E+04  0.13858610141E+04 0.  0.
        4    1    3    3  502    0 -0.39606571112E+03  0.50782168090E+03  0.18121555017E+03  0.66902286631E+03  0.12699999809E+01 0.  1.
       -4    1    3    3    0  502  0.39606571112E+03 -0.50782168090E+03 -0.33332515519E+03  0.72516079534E+03  0.12699999809E+01 0. -1.
</event>
<event>
 5   0  0.1225690E-03  0.1404376E+04  0.7818609E-02  0.8950657E-01
       -1   -1    0    0    0  501  0.00000000000E+00  0.00000000000E+00  0.28993474326E+03  0.28993474331E+03  0.50400001928E-02 0.  1.
        1   -1    0    0  501    0  0.00000000000E+00  0.00000000000E+00 -0.17006179612E+04  0.17006179612E+04  0.50400001928E-02 0. -1.
    10030    2    1    2    0    0  0.00000000000E+00  0.00000000000E+00 -0.14106832179E+04  0.19905527045E+04  0.14043763484E+04 0.  0.
        4    1    3    3  502    0 -0.47573391340E+02 -0.58774707157E+03 -0.16495098113E+03  0.61230734667E+03  0.12699999809E+01 0.  1.
       -4    1    3    3    0  502  0.47573391340E+02  0.58774707157E+03 -0.12457322368E+04  0.13782453579E+04  0.12699999809E+01 0. -1.
</event>
<event>
 5   0  0.2172901E-03  0.1056820E+04  0.7818609E-02  0.9248331E-01
        2   -1    0    0  501    0  0.00000000000E+00  0.00000000000E+00  0.70373798897E+03  0.70373798897E+03  0.25500000920E-02 0. -1.
       -2   -1    0    0    0  501  0.00000000000E+00  0.00000000000E+00 -0.39676325446E+03  0.39676325447E+03  0.25500000920E-02 0.  1.
    10030    2    1    2    0    0  0.00000000000E+00  0.00000000000E+00  0.30697473450E+03  0.11005012434E+04  0.10568204669E+04 0.  0.
        2    1    3    3  502    0 -0.36480468438E+03  0.97200370121E+02  0.53848045851E+03  0.65764091562E+03  0.25500000920E-02 0. -1.
       -2    1    3    3    0  502  0.36480468438E+03 -0.97200370121E+02 -0.23150572401E+03  0.44286032782E+03  0.25500000920E-02 0.  1.
</event>
<event>
 5   0  0.2195980E-03  0.1368388E+04  0.7818609E-02  0.8977024E-01
       -2   -1    0    0    0  501  0.00000000000E+00  0.00000000000E+00  0.52811815187E+03  0.52811815187E+03  0.25500000920E-02 0. -1.
        2   -1    0    0  501    0  0.00000000000E+00  0.00000000000E+00 -0.88639566352E+03  0.88639566352E+03  0.25500000920E-02 0.  1.
    10030    2    1    2    0    0  0.00000000000E+00  0.00000000000E+00 -0.35827751165E+03  0.14145138154E+04  0.13683883069E+04 0.  0.
        4    1    3    3  502    0  0.29091434058E+03  0.21321010548E+03 -0.78014041369E+03  0.85948262380E+03  0.12699999809E+01 0.  1.
       -4    1    3    3    0  502 -0.29091434058E+03 -0.21321010548E+03  0.42186290204E+03  0.55503119160E+03  0.12699999809E+01 0. -1.
</event>
<event>
 5   0  0.2236184E-03  0.1254532E+04  0.7818609E-02  0.9066419E-01
        2   -1    0    0  501    0  0.00000000000E+00  0.00000000000E+00  0.22926285728E+04  0.22926285728E+04  0.25500000920E-02 0. -1.
       -2   -1    0    0    0  501  0.00000000000E+00  0.00000000000E+00 -0.17162085406E+03  0.17162085408E+03  0.25500000920E-02 0.  1.
    10030    2    1    2    0    0  0.00000000000E+00  0.00000000000E+00  0.21210077187E+04  0.24642494269E+04  0.12545323810E+04 0.  0.
        3    1    3    3  502    0  0.21260898439E+03  0.50406781320E+03  0.45770457038E+03  0.71328845813E+03  0.10100000352E+00 0.  1.
       -3    1    3    3    0  502 -0.21260898439E+03 -0.50406781320E+03  0.16633031483E+04  0.17509609687E+04  0.10100000352E+00 0. -1.
</event>
<event>
 5   0  0.1175374E-03  0.1406188E+04  0.7818609E-02  0.8949352E-01
       -1   -1    0    0    0  501  0.00000000000E+00  0.00000000000E+00  0.32774574107E+03  0.32774574111E+03  0.50400001928E-02 0. -1.
        1   -1    0    0  501    0  0.00000000000E+00  0.00000000000E+00 -0.15083069210E+04  0.15083069210E+04  0.50400001928E-02 0.  1.
    10030    2    1    2    0    0  0.00000000000E+00  0.00000000000E+00 -0.11805611800E+04  0.18360526621E+04  0.14061879954E+04 0.  0.
        3    1    3    3  502    0 -0.29951461328E+02 -0.53396819043E+03  0.56687710299E+01  0.53483760488E+03  0.10100000352E+00 0. -1.
       -3    1    3    3    0  502  0.29951461328E+02  0.53396819043E+03 -0.11862299510E+04  0.13012150573E+04  0.10100000352E+00 0.  1.
</event>
<event>
 5   0  0.2236184E-03  0.1371660E+04  0.7818609E-02  0.8974592E-01
        2   -1    0    0  501    0  0.00000000000E+00  0.00000000000E+00  0.51734254345E+03  0.51734254346E+03  0.25500000920E-02 0.  1.
       -2   -1    0    0    0  501  0.00000000000E+00  0.00000000000E+00 -0.90919012338E+03  0.90919012338E+03  0.25500000920E-02 0. -1.
    10030    2    1    2    0    0  0.00000000000E+00  0.00000000000E+00 -0.39184757992E+03  0.14265326668E+04  0.13716599155E+04 0.  0.
        3    1    3    3  502    0  0.14028114619E+03 -0.59048568381E+03  0.13624427614E+03  0.62202464239E+03  0.10100000352E+00 0.  1.
       -3    1    3    3    0  502 -0.14028114619E+03  0.59048568381E+03 -0.52809185606E+03  0.80450802445E+03  0.10100000352E+00 0. -1.
</event>
<event>
 5   0  0.2172901E-03  0.1409623E+04  0.7818609E-02  0.8946882E-01
        2   -1    0    0  501    0  0.00000000000E+00  0.00000000000E+00  0.25106406809E+04  0.25106406809E+04  0.25500000920E-02 0.  1.
       -2   -1    0    0    0  501  0.00000000000E+00  0.00000000000E+00 -0.19786158489E+03  0.19786158490E+03  0.25500000920E-02 0. -1.
    10030    2    1    2    0    0  0.00000000000E+00  0.00000000000E+00  0.23127790960E+04  0.27085022658E+04  0.14096231329E+04 0.  0.
        2    1    3    3  502    0 -0.54690306961E+03  0.18667972819E+03  0.19316770736E+04  0.20162660056E+04  0.25500000920E-02 0.  1.
       -2    1    3    3    0  502  0.54690306961E+03 -0.18667972819E+03  0.38110202234E+03  0.69223626018E+03  0.25500000920E-02 0. -1.
</event>
<event>
 5   0  0.1175374E-03  0.1461078E+04  0.7818609E-02  0.8910756E-01
       -1   -1    0    0    0  501  0.00000000000E+00  0.00000000000E+00  0.74461174501E+03  0.74461174502E+03  0.50400001928E-02 0.  1.
        1   -1    0    0  501    0  0.00000000000E+00  0.00000000000E+00 -0.71673192084E+03  0.71673192085E+03  0.50400001928E-02 0. -1.
    10030    2    1    2    0    0  0.00000000000E+00  0.00000000000E+00  0.27879824172E+02  0.14613436659E+04  0.14610776931E+04 0.  0.
        3    1    3    3  502    0 -0.28151994888E+03  0.75287160659E+02  0.68396137308E+03  0.74345464437E+03  0.10100000352E+00 0.  1.
       -3    1    3    3    0  502  0.28151994888E+03 -0.75287160659E+02 -0.65608154891E+03  0.71788902150E+03  0.10100000352E+00 0. -1.
</event>
<event>
 5   0  0.2190704E-03  0.1369928E+04  0.7818609E-02  0.8975878E-01
       -2   -1    0    0    0  501  0.00000000000E+00  0.00000000000E+00  0.98241750076E+03  0.98241750076E+03  0.25500000920E-02 0.  1.
        2   -1    0    0  501    0  0.00000000000E+00  0.00000000000E+00 -0.47757265697E+03  0.47757265698E+03  0.25500000920E-02 0. -1.
    10030    2    1    2    0    0  0.00000000000E+00  0.00000000000E+00  0.50484484379E+03  0.14599901577E+04  0.13699280800E+04 0.  0.
        5    1    3    3  502    0 -0.39602785744E+03 -0.24136232861E+03  0.78960280380E+03  0.91574478722E+03  0.46999998093E+01 0.  1.
       -5    1    3    3    0  502  0.39602785744E+03  0.24136232861E+03 -0.28475796002E+03  0.54424537052E+03  0.46999998093E+01 0. -1.
</event>
<event>
 5   0  0.1199720E-03  0.1405883E+04  0.7818609E-02  0.8949571E-01
        1   -1    0    0  501    0  0.00000000000E+00  0.00000000000E+00  0.19164570758E+04  0.19164570758E+04  0.50400001928E-02 0.  1.
       -1   -1    0    0    0  501  0.00000000000E+00  0.00000000000E+00 -0.25783349041E+03  0.25783349046E+03  0.50400001928E-02 0. -1.
    10030    2    1    2    0    0  0.00000000000E+00  0.00000000000E+00  0.16586235854E+04  0.21742905663E+04  0.14058830921E+04 0.  0.
        5    1    3    3  502    0  0.21926170971E+03  0.65728052216E+03  0.10123780433E+04  0.12267945120E+04  0.46999998093E+01 0.  1.
       -5    1    3    3    0  502 -0.21926170971E+03 -0.65728052216E+03  0.64624554207E+03  0.94749605424E+03  0.46999998093E+01 0. -1.
</event>
<event>
 5   0  0.2190704E-03  0.1385382E+04  0.7818609E-02  0.8964469E-01
       -2   -1    0    0    0  501  0.00000000000E+00  0.00000000000E+00  0.45224033502E+03  0.45224033502E+03  0.25500000920E-02 0. -1.
        2   -1    0    0  501    0  0.00000000000E+00  0.00000000000E+00 -0.10609856755E+04  0.10609856755E+04  0.25500000920E-02 0.  1.
    10030    2    1    2    0    0  0.00000000000E+00  0.00000000000E+00 -0.60874534051E+03  0.15132260106E+04  0.13853815610E+04 0.  0.
        5    1    3    3  502    0 -0.20420200812E+03  0.26999696295E+03  0.35571365354E+03  0.49107139342E+03  0.46999998093E+01 0. -1.
       -5    1    3    3    0  502  0.20420200812E+03 -0.26999696295E+03 -0.96445899405E+03  0.10221546171E+04  0.46999998093E+01 0.  1.
</event>
<event>
 5   0  0.2083966E-03  0.1391329E+04  0.7818609E-02  0.8960119E-01
        2   -1    0    0  501    0  0.00000000000E+00  0.00000000000E+00  0.76120679157E+03  0.76120679157E+03  0.25500000920E-02 0.  1.
       -2   -1    0    0    0  501  0.00000000000E+00  0.00000000000E+00 -0.63576598246E+03  0.63576598246E+03  0.25500000920E-02 0. -1.
    10030    2    1    2    0    0  0.00000000000E+00  0.00000000000E+00  0.12544080911E+03  0.13969727740E+04  0.13913294128E+04 0.  0.
        1    1    3    3  502    0  0.31422600561E+03  0.60099100942E+03  0.21833681553E+03  0.71245992241E+03  0.50400001928E-02 0. -1.
       -1    1    3    3    0  502 -0.31422600561E+03 -0.60099100942E+03 -0.92896006412E+02  0.68451285162E+03  0.50400001928E-02 0.  1.
</event>
<event>
 5   0  0.2195980E-03  0.1429871E+04  0.7818609E-02  0.8932476E-01
        2   -1    0    0  501    0  0.00000000000E+00  0.00000000000E+00  0.66990842089E+03  0.66990842089E+03  0.25500000920E-02 0. -1.
       -2   -1    0    0    0  501  0.00000000000E+00  0.00000000000E+00 -0.76298924727E+03  0.76298924728E+03  0.25500000920E-02 0.  1.
    10030    2    1    2    0    0  0.00000000000E+00  0.00000000000E+00 -0.93080826387E+02  0.14328976682E+04  0.14298712135E+04 0.  0.
        4    1    3    3  502    0 -0.21737316744E+03  0.35740201484E+03 -0.62754685074E+03  0.75419092868E+03  0.12699999809E+01 0.  1.
       -4    1    3    3    0  502  0.21737316744E+03 -0.35740201484E+03  0.53446602435E+03  0.67870673948E+03  0.12699999809E+01 0. -1.
</event>
<event>
 5   0  0.1175374E-03  0.1387529E+04  0.7818609E-02  0.8962895E-01
        1   -1    0    0  501    0  0.00000000000E+00  0.00000000000E+00  0.64791897506E+03  0.64791897508E+03  0.50400001928E-02 0.  1.
       -1   -1    0    0    0  501  0.00000000000E+00  0.00000000000E+00 -0.74285406596E+03  0.74285406598E+03  0.50400001928E-02 0. -1.
    10030    2    1    2    0    0  0.00000000000E+00  0.00000000000E+00 -0.94935090907E+02  0.13907730411E+04  0.13875290917E+04 0.  0.
        3    1    3    3  502    0 -0.62099345367E+03 -0.52516184769E+02 -0.35300542780E+03  0.71624273918E+03  0.10100000352E+00 0. -1.
       -3    1    3    3    0  502  0.62099345367E+03  0.52516184769E+02  0.25807033690E+03  0.67453030188E+03  0.10100000352E+00 0.  1.
</event>
<event>
 5   0  0.1225690E-03  0.1283362E+04  0.7818609E-02  0.9042864E-01
       -1   -1    0    0    0  501  0.00000000000E+00  0.00000000000E+00  0.29854207565E+03  0.29854207569E+03  0.50400001928E-02 0.  1.
        1   -1    0    0  501    0  0.00000000000E+00  0.00000000000E+00 -0.13792175144E+04  0.13792175144E+04  0.50400001928E-02 0. -1.
    10030    2    1    2    0    0  0.00000000000E+00  0.00000000000E+00 -0.10806754388E+04  0.16777595901E+04  0.12833619280E+04 0.  0.
        4    1    3    3  502    0  0.37022628249E+02  0.39704945088E+03 -0.11975600823E+04  0.12622086615E+04  0.12699999809E+01 0. -1.
       -4    1    3    3    0  502 -0.37022628249E+02 -0.39704945088E+03  0.11688464360E+03  0.41555092859E+03  0.12699999809E+01 0.  1.
</event>
<event>
 5   0  0.2083966E-03  0.1310282E+04  0.7818609E-02  0.9021451E-01
        2   -1    0    0  501    0  0.00000000000E+00  0.00000000000E+00  0.11125707547E+04  0.11125707547E+04  0.25500000920E-02 0.  1.
       -2   -1    0    0    0  501  0.00000000000E+00  0.00000000000E+00 -0.38578189514E+03  0.38578189514E+03  0.25500000920E-02 0. -1.
    10030    2    1    2    0    0  0.00000000000E+00  0.00000000000E+00  0.72678885960E+03  0.14983526499E+04  0.13102818845E+04 0.  0.
        1    1    3    3  502    0 -0.31058064600E+03  0.40893500087E+02  0.10213761589E+04  0.10683360305E+04  0.50400001928E-02 0.  1.
       -1    1    3    3    0  502  0.31058064600E+03 -0.40893500087E+02 -0.29458729931E+03  0.43001661940E+03  0.50400001928E-02 0. -1.
</event>
<event>
 5   0  0.1210275E-03  0.1368079E+04  0.7818609E-02  0.8977254E-01
       -1   -1    0    0    0  501  0.00000000000E+00  0.00000000000E+00  0.34736849485E+03  0.34736849489E+03  0.50400001928E-02 0. -1.
        1   -1    0    0  501    0  0.00000000000E+00  0.00000000000E+00 -0.13470133140E+04  0.13470133141E+04  0.50400001928E-02 0.  1.
    10030    2    1    2    0    0  0.00000000000E+00  0.00000000000E+00 -0.99964481919E+03  0.16943818089E+04  0.13680789268E+04 0.  0.
        1    1    3    3  502    0  0.56930230421E+03 -0.29393579175E+03 -0.20307896660E+03  0.67211935692E+03  0.50400001928E-02 0. -1.
       -1    1    3    3    0  502 -0.56930230421E+03  0.29393579175E+03 -0.79656585260E+03  0.10222624520E+04  0.50400001928E-02 0.  1.
</event>
<event>
 5   0  0.2195980E-03  0.1414927E+04  0.7818609E-02  0.8943084E-01
        2   -1    0    0  501    0  0.00000000000E+00  0.00000000000E+00  0.68216118901E+03  0.68216118902E+03  0.25500000920E-02 0.  1.
       -2   -1    0    0    0  501  0.00000000000E+00  0.00000000000E+00 -0.73370440347E+03  0.73370440347E+03  0.25500000920E-02 0. -1.
    10030    2    1    2    0    0  0.00000000000E+00  0.00000000000E+00 -0.51543214456E+02  0.14158655925E+04  0.14149270911E+04 0.  0.
        4    1    3    3  502    0 -0.24844819159E+03  0.60760463132E+03  0.23820853298E+03  0.69832285513E+03  0.12699999809E+01 0. -1.
       -4    1    3    3    0  502  0.24844819159E+03 -0.60760463132E+03 -0.28975174744E+03  0.71754273737E+03  0.12699999809E+01 0.  1.
</event>
<event>
 5   0  0.2190704E-03  0.1413855E+04  0.7818609E-02  0.8943850E-01
       -2   -1    0    0    0  501  0.00000000000E+00  0.00000000000E+00  0.65414808619E+03  0.65414808619E+03  0.25500000920E-02 0. -1.
        2   -1    0    0  501    0  0.00000000000E+00  0.00000000000E+00 -0.76396500019E+03  0.76396500020E+03  0.25500000920E-02 0.  1.
    10030    2    1    2    0    0  0.00000000000E+00  0.00000000000E+00 -0.10981691400E+03  0.14181130864E+04  0.14138546500E+04 0.  0.
        5    1    3    3  502    0 -0.61803989542E+03 -0.32818509588E+03 -0.15543699271E+03  0.71684134799E+03  0.46999998093E+01 0.  1.
       -5    1    3    3    0  502  0.61803989542E+03  0.32818509588E+03  0.45620078703E+02  0.70127173840E+03  0.46999998093E+01 0. -1.
</event>
<event>
 5   0  0.2190704E-03  0.1512007E+04  0.7818609E-02  0.8876507E-01
        2   -1    0    0  501    0  0.00000000000E+00  0.00000000000E+00  0.76693695765E+03  0.76693695766E+03  0.25500000920E-02 0.  1.
       -2   -1    0    0    0  501  0.00000000000E+00  0.00000000000E+00 -0.74522632284E+03  0.74522632284E+03  0.25500000920E-02 0. -1.
    10030    2    1    2    0    0  0.00000000000E+00  0.00000000000E+00  0.21710634813E+02  0.15121632805E+04  0.15120074190E+04 0.  0.
        5    1    3    3  502    0  0.64003239165E+03 -0.17778046377E+03 -0.35011424099E+03  0.75089907937E+03  0.46999998093E+01 0. -1.
       -5    1    3    3    0  502 -0.64003239165E+03  0.17778046377E+03  0.37182487581E+03  0.76126420113E+03  0.46999998093E+01 0.  1.
</event>
<event>
 5   0  0.1225690E-03  0.1456839E+04  0.7818609E-02  0.8913673E-01
        1   -1    0    0  501    0  0.00000000000E+00  0.00000000000E+00  0.13868125591E+04  0.13868125591E+04  0.50400001928E-02 0. -1.
       -1   -1    0    0    0  501  0.00000000000E+00  0.00000000000E+00 -0.38260058016E+03  0.38260058019E+03  0.50400001928E-02 0.  1.
    10030    2    1    2    0    0  0.00000000000E+00  0.00000000000E+00  0.10042119789E+04  0.17694131393E+04  0.14568394417E+04 0.  0.
        4    1    3    3  502    0 -0.78430999497E+02 -0.27522149256E+03  0.13156730535E+04  0.13464380744E+04  0.12699999809E+01 0. -1.
       -4    1    3    3    0  502  0.78430999497E+02  0.27522149256E+03 -0.31146107455E+03  0.42297506488E+03  0.12699999809E+01 0.  1.
</event>
<event>
 5   0  0.1225690E-03  0.1375602E+04  0.7818609E-02  0.8971671E-01
        1   -1    0    0  501    0  0.00000000000E+00  0.00000000000E+00  0.11633953132E+04  0.11633953132E+04  0.50400001928E-02 0. -1.
       -1   -1    0    0    0  501  0.00000000000E+00  0.00000000000E+00 -0.40662874453E+03  0.40662874456E+03  0.50400001928E-02 0.  1.
    10030    2    1    2    0    0  0.00000000000E+00  0.00000000000E+00  0.75676656864E+03  0.15700240577E+04  0.13756016511E+04 0.  0.
        4    1    3    3  502    0  0.92169456751E+00  0.66364375266E+03  0.58459745911E+03  0.88440922771E+03  0.12699999809E+01 0. -1.
       -4    1    3    3    0  502 -0.92169456751E+00 -0.66364375266E+03  0.17216910953E+03  0.68561483002E+03  0.12699999809E+01 0.  1.
</event>
<event>
 5   0  0.8293000E-04  0.1429712E+04  0.7818609E-02  0.8932588E-01
       -3   -1    0    0    0  501  0.00000000000E+00  0.00000000000E+00  0.47671084009E+03  0.47671085078E+03  0.10100000352E+00 0. -1.
        3   -1    0    0  501    0  0.00000000000E+00  0.00000000000E+00 -0.10719689703E+04  0.10719689750E+04  0.10100000352E+00 0.  1.
    10030    2    1    2    0    0  0.00000000000E+00  0.00000000000E+00 -0.59525813020E+03  0.15486798258E+04  0.14297121953E+04 0.  0.
        5    1    3    3  502    0 -0.13475222953E+03 -0.69630262064E+03 -0.39452436836E+03  0.81158306420E+03  0.46999998093E+01 0. -1.
       -5    1    3    3    0  502  0.13475222953E+03  0.69630262064E+03 -0.20073376184E+03  0.73709676163E+03  0.46999998093E+01 0.  1.
</event>
<event>
 5   0  0.1210275E-03  0.1236069E+04  0.7818609E-02  0.9081858E-01
       -1   -1    0    0    0  501  0.00000000000E+00  0.00000000000E+00  0.29799805436E+03  0.29799805440E+03  0.50400001928E-02 0. -1.
        1   -1    0    0  501    0  0.00000000000E+00  0.00000000000E+00 -0.12817762176E+04  0.12817762176E+04  0.50400001928E-02 0.  1.
    10030    2    1    2    0    0  0.00000000000E+00  0.00000000000E+00 -0.98377816319E+03  0.15797742720E+04  0.12360692845E+04 0.  0.
        1    1    3    3  502    0 -0.23788207740E+03 -0.10371002846E+03 -0.12087709079E+04  0.12363133747E+04  0.50400001928E-02 0.  1.
       -1    1    3    3    0  502  0.23788207740E+03  0.10371002846E+03  0.22499274468E+03  0.34346089724E+03  0.50400001928E-02 0. -1.
</event>
<event>
 5   0  0.2190704E-03  0.1406890E+04  0.7818609E-02  0.8948846E-01
        2   -1    0    0  501    0  0.00000000000E+00  0.00000000000E+00  0.15764447255E+04  0.15764447255E+04  0.25500000920E-02 0. -1.
       -2   -1    0    0    0  501  0.00000000000E+00  0.00000000000E+00 -0.31389307526E+03  0.31389307527E+03  0.25500000920E-02 0.  1.
    10030    2    1    2    0    0  0.00000000000E+00  0.00000000000E+00  0.12625516503E+04  0.18903378008E+04  0.14068903054E+04 0.  0.
        5    1    3    3  502    0 -0.43345062513E+01  0.70226160563E+03  0.68540324530E+03  0.98132046211E+03  0.46999998093E+01 0. -1.
       -5    1    3    3    0  502  0.43345062513E+01 -0.70226160563E+03  0.57714840497E+03  0.90901733869E+03  0.46999998093E+01 0.  1.
</event>
<event>
 5   0  0.2195980E-03  0.1398163E+04  0.7818609E-02  0.8955149E-01
       -2   -1    0    0    0  501  0.00000000000E+00  0.00000000000E+00  0.48670598391E+03  0.48670598392E+03  0.25500000920E-02 0.  1.
        2   -1    0    0  501    0  0.00000000000E+00  0.00000000000E+00 -0.10041273433E+04  0.10041273433E+04  0.25500000920E-02 0. -1.
    10030    2    1    2    0    0  0.00000000000E+00  0.00000000000E+00 -0.51742135937E+03  0.14908333272E+04  0.13981627753E+04 0.  0.
        4    1    3    3  502    0  0.37405954816E+03  0.38075215249E+03 -0.74009862473E+03  0.91249127910E+03  0.12699999809E+01 0.  1.
       -4    1    3    3    0  502 -0.37405954816E+03 -0.38075215249E+03  0.22267726536E+03  0.57834204810E+03  0.12699999809E+01 0. -1.
</event>
<event>
 5   0  0.2083966E-03  0.1403484E+04  0.7818609E-02  0.8951301E-01
       -2   -1    0    0    0  501  0.00000000000E+00  0.00000000000E+00  0.41963283411E+03  0.41963283412E+03  0.25500000920E-02 0.  1.
        2   -1    0    0  501    0  0.00000000000E+00  0.00000000000E+00 -0.11735057876E+04  0.11735057876E+04  0.25500000920E-02 0. -1.
    10030    2    1    2    0    0  0.00000000000E+00  0.00000000000E+00 -0.75387295349E+03  0.15931386217E+04  0.14034836080E+04 0.  0.
        1    1    3    3  502    0  0.40458185215E+03 -0.38934896109E+03 -0.85472100905E+03  0.10226568789E+04  0.50400001928E-02 0. -1.
       -1    1    3    3    0  502 -0.40458185215E+03  0.38934896109E+03  0.10084805556E+03  0.57048174285E+03  0.50400001928E-02 0.  1.
</event>
<event>
 5   0  0.2083966E-03  0.1378748E+04  0.7818609E-02  0.8969347E-01
       -2   -1    0    0    0  501  0.00000000000E+00  0.00000000000E+00  0.78567625249E+03  0.78567625249E+03  0.25500000920E-02 0. -1.
        2   -1    0    0  501    0  0.00000000000E+00  0.00000000000E+00 -0.60487560314E+03  0.60487560315E+03  0.25500000920E-02 0.  1.
    10030    2    1    2    0    0  0.00000000000E+00  0.00000000000E+00  0.18080064934E+03  0.13905518556E+04  0.13787478335E+04 0.  0.
        1    1    3    3  502    0 -0.89433813014E+02 -0.43317777936E+03 -0.44289410510E+03  0.62593656532E+03  0.50400001928E-02 0.  1.
       -1    1    3    3    0  502  0.89433813014E+02  0.43317777936E+03  0.62369475445E+03  0.76461529032E+03  0.50400001928E-02 0. -1.
</event>
<event>
 5   0  0.1238683E-03  0.1399209E+04  0.7818609E-02  0.8954391E-01
       -1   -1    0    0    0  501  0.00000000000E+00  0.00000000000E+00  0.37890240132E+03  0.37890240135E+03  0.50400001928E-02 0. -1.
        1   -1    0    0  501    0  0.00000000000E+00  0.00000000000E+00 -0.12917476764E+04  0.12917476764E+04  0.50400001928E-02 0.  1.
    10030    2    1    2    0    0  0.00000000000E+00  0.00000000000E+00 -0.91284527510E+03  0.16706500778E+04  0.13992087715E+04 0.  0.
        2    1    3    3  502    0  0.45361597342E+03 -0.15705439705E+03 -0.10640867065E+04  0.11673534400E+04  0.25500000920E-02 0.  1.
       -2    1    3    3    0  502 -0.45361597342E+03  0.15705439705E+03  0.15124143141E+03  0.50329663774E+03  0.25500000920E-02 0. -1.
</event>
<event>
 5   0  0.1199720E-03  0.1389927E+04  0.7818609E-02  0.8961143E-01
        1   -1    0    0  501    0  0.00000000000E+00  0.00000000000E+00  0.58952636484E+03  0.58952636487E+03  0.50400001928E-02 0. -1.
       -1   -1    0    0    0  501  0.00000000000E+00  0.00000000000E+00 -0.81925777768E+03  0.81925777769E+03  0.50400001928E-02 0.  1.
    10030    2    1    2    0    0  0.00000000000E+00  0.00000000000E+00 -0.22973141283E+03  0.14087841426E+04  0.13899267025E+04 0.  0.
        5    1    3    3  502    0  0.31940949675E+03  0.38855144808E+03  0.37117894771E+03  0.62513243049E+03  0.46999998093E+01 0. -1.
       -5    1    3    3    0  502 -0.31940949675E+03 -0.38855144808E+03 -0.60091036055E+03  0.78365171207E+03  0.46999998093E+01 0.  1.
</event>
<event>
 5   0  0.2190704E-03  0.1410481E+04  0.7818609E-02  0.8946267E-01
        2   -1    0    0  501    0  0.00000000000E+00  0.00000000000E+00  0.66730320192E+03  0.66730320192E+03  0.25500000920E-02 0.  1.
       -2   -1    0    0    0  501  0.00000000000E+00  0.00000000000E+00 -0.74533418908E+03  0.74533418908E+03  0.25500000920E-02 0. -1.
    10030    2    1    2    0    0  0.00000000000E+00  0.00000000000E+00 -0.78030987160E+02  0.14126373910E+04  0.14104806144E+04 0.  0.
        5    1    3    3  502    0 -0.28472078962E+03  0.37078005078E+03  0.48980517831E+03  0.67710780294E+03  0.46999998093E+01 0.  1.
       -5    1    3    3    0  502  0.28472078962E+03 -0.37078005078E+03 -0.56783616547E+03  0.73552958806E+03  0.46999998093E+01 0. -1.
</event>
<event>
 5   0  0.1225690E-03  0.1335690E+04  0.7818609E-02  0.9001732E-01
       -1   -1    0    0    0  501  0.00000000000E+00  0.00000000000E+00  0.17492073463E+04  0.17492073463E+04  0.50400001928E-02 0.  1.
        1   -1    0    0  501    0  0.00000000000E+00  0.00000000000E+00 -0.25498247413E+03  0.25498247418E+03  0.50400001928E-02 0. -1.
    10030    2    1    2    0    0  0.00000000000E+00  0.00000000000E+00  0.14942248721E+04  0.20041898204E+04  0.13356904087E+04 0.  0.
        4    1    3    3  502    0 -0.33382064747E+03  0.52396662352E+03  0.11147733339E+04  0.12762047038E+04  0.12699999809E+01 0.  1.
       -4    1    3    3    0  502  0.33382064747E+03 -0.52396662352E+03  0.37945153826E+03  0.72798511663E+03  0.12699999809E+01 0. -1.
</event>
<event>
 5   0  0.2172901E-03  0.1397724E+04  0.7818609E-02  0.8955468E-01
        2   -1    0    0  501    0  0.00000000000E+00  0.00000000000E+00  0.25618600027E+04  0.25618600027E+04  0.25500000920E-02 0. -1.
       -2   -1    0    0    0  501  0.00000000000E+00  0.00000000000E+00 -0.19064595618E+03  0.19064595620E+03  0.25500000920E-02 0.  1.
    10030    2    1    2    0    0  0.00000000000E+00  0.00000000000E+00  0.23712140465E+04  0.27525059589E+04  0.13977242215E+04 0.  0.
        2    1    3    3  502    0 -0.17046053879E+03 -0.49907053929E+03  0.20886445823E+04  0.21541969246E+04  0.25500000920E-02 0. -1.
       -2    1    3    3    0  502  0.17046053879E+03  0.49907053929E+03  0.28256946418E+03  0.59830903433E+03  0.25500000920E-02 0.  1.
</event>
<event>
 5   0  0.1210275E-03  0.1404737E+04  0.7818609E-02  0.8950397E-01
       -1   -1    0    0    0  501  0.00000000000E+00  0.00000000000E+00  0.56569512714E+03  0.56569512716E+03  0.50400001928E-02 0. -1.
        1   -1    0    0  501    0  0.00000000000E+00  0.00000000000E+00 -0.87206198743E+03  0.87206198745E+03  0.50400001928E-02 0.  1.
    10030    2    1    2    0    0  0.00000000000E+00  0.00000000000E+00 -0.30636686030E+03  0.14377571146E+04  0.14047365830E+04 0.  0.
        1    1    3    3  502    0  0.59908154734E+03 -0.13116731541E+03  0.19723516262E+03  0.64420903005E+03  0.50400001928E-02 0. -1.
       -1    1    3    3    0  502 -0.59908154734E+03  0.13116731541E+03 -0.50360202292E+03  0.79354808456E+03  0.50400001928E-02 0.  1.
</event>
<event>
 5   0  0.2236184E-03  0.1393807E+04  0.7818609E-02  0.8958314E-01
        2   -1    0    0  501    0  0.00000000000E+00  0.00000000000E+00  0.11006034357E+04  0.11006034357E+04  0.25500000920E-02 0.  1.
       -2   -1    0    0    0  501  0.00000000000E+00  0.00000000000E+00 -0.44127988093E+03  0.44127988093E+03  0.25500000920E-02 0. -1.
    10030    2    1    2    0    0  0.00000000000E+00  0.00000000000E+00  0.65932355477E+03  0.15418833166E+04  0.13938065189E+04 0.  0.
        3    1    3    3  502    0  0.28791379782E+03 -0.38354518947E+03 -0.22969814439E+03  0.53175418671E+03  0.10100000352E+00 0. -1.
       -3    1    3    3    0  502 -0.28791379782E+03  0.38354518947E+03  0.88902169916E+03  0.10101291299E+04  0.10100000352E+00 0.  1.
</event>
<event>
 5   0  0.2190704E-03  0.1252188E+04  0.7818609E-02  0.9068364E-01
       -2   -1    0    0    0  501  0.00000000000E+00  0.00000000000E+00  0.24291961704E+03  0.24291961705E+03  0.25500000920E-02 0. -1.
        2   -1    0    0  501    0  0.00000000000E+00  0.00000000000E+00 -0.16136770934E+04  0.16136770934E+04  0.25500000920E-02 0.  1.
    10030    2    1    2    0    0  0.00000000000E+00  0.00000000000E+00 -0.13707574764E+04  0.18565967105E+04  0.12521881992E+04 0.  0.
        5    1    3    3  502    0 -0.54979763085E+02  0.52989525617E+03 -0.19775902068E+03  0.56828028042E+03  0.46999998093E+01 0.  1.
       -5    1    3    3    0  502  0.54979763085E+02 -0.52989525617E+03 -0.11729984557E+04  0.12883164300E+04  0.46999998093E+01 0. -1.
</event>
<event>
 5   0  0.1210275E-03  0.1380362E+04  0.7818609E-02  0.8968157E-01
       -1   -1    0    0    0  501  0.00000000000E+00  0.00000000000E+00  0.17367351920E+04  0.17367351920E+04  0.50400001928E-02 0. -1.
        1   -1    0    0  501    0  0.00000000000E+00  0.00000000000E+00 -0.27427900161E+03  0.27427900166E+03  0.50400001928E-02 0.  1.
    10030    2    1    2    0    0  0.00000000000E+00  0.00000000000E+00  0.14624561904E+04  0.20110141936E+04  0.13803622634E+04 0.  0.
        1    1    3    3  502    0  0.17708398383E+03 -0.33294761271E+02  0.17018636044E+04  0.17113757642E+04  0.50400001928E-02 0. -1.
       -1    1    3    3    0  502 -0.17708398383E+03  0.33294761271E+02 -0.23940741403E+03  0.29963842940E+03  0.50400001928E-02 0.  1.
</event>
<event>
 5   0  0.1225690E-03  0.1367318E+04  0.7818609E-02  0.8977821E-01
       -1   -1    0    0    0  501  0.00000000000E+00  0.00000000000E+00  0.40517863481E+03  0.40517863484E+03  0.50400001928E-02 0.  1.
        1   -1    0    0  501    0  0.00000000000E+00  0.00000000000E+00 -0.11535391997E+04  0.11535391997E+04  0.50400001928E-02 0. -1.
    10030    2    1    2    0    0  0.00000000000E+00  0.00000000000E+00 -0.74836056488E+03  0.15587178345E+04  0.13673177219E+04 0.  0.
        4    1    3    3  502    0 -0.80021899952E+02  0.65531512648E+03 -0.57665602696E+03  0.87657013741E+03  0.12699999809E+01 0. -1.
       -4    1    3    3    0  502  0.80021899952E+02 -0.65531512648E+03 -0.17170453792E+03  0.68214769714E+03  0.12699999809E+01 0.  1.
</event>
<event>
 5   0  0.1199720E-03  0.1400685E+04  0.7818609E-02  0.8953323E-01
        1   -1    0    0  501    0  0.00000000000E+00  0.00000000000E+00  0.34388997463E+03  0.34388997467E+03  0.50400001928E-02 0.  1.
       -1   -1    0    0    0  501  0.00000000000E+00  0.00000000000E+00 -0.14262687620E+04  0.14262687620E+04  0.50400001928E-02 0. -1.
    10030    2    1    2    0    0  0.00000000000E+00  0.00000000000E+00 -0.10823787874E+04  0.17701587367E+04  0.14006848731E+04 0.  0.
        5    1    3    3  502    0  0.54475862237E+03  0.40917397154E+03 -0.74603163652E+03  0.10103319199E+04  0.46999998093E+01 0. -1.
       -5    1    3    3    0  502 -0.54475862237E+03 -0.40917397154E+03 -0.33634715084E+03  0.75982681679E+03  0.46999998093E+01 0.  1.
</event>
<event>
 5   0  0.1199720E-03  0.1405476E+04  0.7818609E-02  0.8949865E-01
        1   -1    0    0  501    0  0.00000000000E+00  0.00000000000E+00  0.62336553324E+03  0.62336553326E+03  0.50400001928E-02 0. -1.
       -1   -1    0    0    0  501  0.00000000000E+00  0.00000000000E+00 -0.79221640561E+03  0.79221640563E+03  0.50400001928E-02 0.  1.
    10030    2    1    2    0    0  0.00000000000E+00  0.00000000000E+00 -0.16885087238E+03  0.14155819389E+04  0.14054755809E+04 0.  0.
        5    1    3    3  502    0 -0.49780888418E+03  0.88982182143E+02 -0.57587546608E+03  0.76641121882E+03  0.46999998093E+01 0.  1.
       -5    1    3    3    0  502  0.49780888418E+03 -0.88982182143E+02  0.40702459370E+03  0.64917072006E+03  0.46999998093E+01 0. -1.
</event>
<event>
 5   0  0.2190704E-03  0.1408667E+04  0.7818609E-02  0.8947569E-01
        2   -1    0    0  501    0  0.00000000000E+00  0.00000000000E+00  0.11542592466E+04  0.11542592466E+04  0.25500000920E-02 0.  1.
       -2   -1    0    0    0  501  0.00000000000E+00  0.00000000000E+00 -0.42978720773E+03  0.42978720774E+03  0.25500000920E-02 0. -1.
    10030    2    1    2    0    0  0.00000000000E+00  0.00000000000E+00  0.72447203890E+03  0.15840464544E+04  0.14086672547E+04 0.  0.
        5    1    3    3  502    0  0.43833287351E+03  0.58706812700E+02  0.97864422999E+03  0.10739407883E+04  0.46999998093E+01 0.  1.
       -5    1    3    3    0  502 -0.43833287351E+03 -0.58706812700E+02 -0.25417219109E+03  0.51010566609E+03  0.46999998093E+01 0. -1.
</event>
<event>
 5   0  0.2190704E-03  0.1387719E+04  0.7818609E-02  0.8962757E-01
        2   -1    0    0  501    0  0.00000000000E+00  0.00000000000E+00  0.13111938215E+04  0.13111938216E+04  0.25500000920E-02 0. -1.
       -2   -1    0    0    0  501  0.00000000000E+00  0.00000000000E+00 -0.36717738148E+03  0.36717738149E+03  0.25500000920E-02 0.  1.
    10030    2    1    2    0    0  0.00000000000E+00  0.00000000000E+00  0.94401644007E+03  0.16783712030E+04  0.13877185796E+04 0.  0.
        5    1    3    3  502    0  0.62006009576E+03  0.29135663674E+03  0.60480197249E+03  0.91387675758E+03  0.46999998093E+01 0. -1.
       -5    1    3    3    0  502 -0.62006009576E+03 -0.29135663674E+03  0.33921446758E+03  0.76449444546E+03  0.46999998093E+01 0.  1.
</event>
<event>
 5   0  0.2236184E-03  0.1405457E+04  0.7818609E-02  0.8949878E-01
       -2   -1    0    0    0  501  0.00000000000E+00  0.00000000000E+00  0.50083282285E+03  0.50083282286E+03  0.25500000920E-02 0.  1.
        2   -1    0    0  501    0  0.00000000000E+00  0.00000000000E+00 -0.98601191717E+03  0.98601191717E+03  0.25500000920E-02 0. -1.
    10030    2    1    2    0    0  0.00000000000E+00  0.00000000000E+00 -0.48517909432E+03  0.14868447400E+04  0.14054566971E+04 0.  0.
        3    1    3    3  502    0  0.19082974493E+03  0.20464420862E+03  0.43935698443E+03  0.52089328432E+03  0.10100000352E+00 0.  1.
       -3    1    3    3    0  502 -0.19082974493E+03 -0.20464420862E+03 -0.92453607875E+03  0.96595145571E+03  0.10100000352E+00 0. -1.
</event>
<event>
 5   0  0.2190704E-03  0.1385020E+04  0.7818609E-02  0.8964734E-01
        2   -1    0    0  501    0  0.00000000000E+00  0.00000000000E+00  0.10283906181E+04  0.10283906181E+04  0.25500000920E-02 0.  1.
       -2   -1    0    0    0  501  0.00000000000E+00  0.00000000000E+00 -0.46633052014E+03  0.46633052015E+03  0.25500000920E-02 0. -1.
    10030    2    1    2    0    0  0.00000000000E+00  0.00000000000E+00  0.56206009792E+03  0.14947211382E+04  0.13850197570E+04 0.  0.
        5    1    3    3  502    0 -0.13857631601E+03 -0.56571908487E+03  0.68527340618E+03  0.89936822802E+03  0.46999998093E+01 0.  1.
       -5    1    3    3    0  502  0.13857631601E+03  0.56571908487E+03 -0.12321330826E+03  0.59535291020E+03  0.46999998093E+01 0. -1.
</event>
<event>
 5   0  0.1238683E-03  0.1393250E+04  0.7818609E-02  0.8958719E-01
       -1   -1    0    0    0  501  0.00000000000E+00  0.00000000000E+00  0.24632155240E+03  0.24632155245E+03  0.50400001928E-02 0.  1.
        1   -1    0    0  501    0  0.00000000000E+00  0.00000000000E+00 -0.19701338803E+04  0.19701338803E+04  0.50400001928E-02 0. -1.
    10030    2    1    2    0    0  0.00000000000E+00  0.00000000000E+00 -0.17238123279E+04  0.22164554327E+04  0.13932500650E+04 0.  0.
        2    1    3    3  502    0  0.20531731163E+03 -0.64288423130E+03 -0.58713915642E+03  0.89453212481E+03  0.25500000920E-02 0.  1.
       -2    1    3    3    0  502 -0.20531731163E+03  0.64288423130E+03 -0.11366731715E+04  0.13219233079E+04  0.25500000920E-02 0. -1.
</event>
<event>
 5   0  0.2236184E-03  0.1292779E+04  0.7818609E-02  0.9035311E-01
       -2   -1    0    0    0  501  0.00000000000E+00  0.00000000000E+00  0.66754010893E+03  0.66754010893E+03  0.25500000920E-02 0.  1.
        2   -1    0    0  501    0  0.00000000000E+00  0.00000000000E+00 -0.62590895799E+03  0.62590895800E+03  0.25500000920E-02 0. -1.
    10030    2    1    2    0    0  0.00000000000E+00  0.00000000000E+00  0.41631150938E+02  0.12934490669E+04  0.12927789200E+04 0.  0.
        3    1    3    3  502    0 -0.59558383127E+03  0.69170090351E+02 -0.22079401877E+03  0.63894804984E+03  0.10100000352E+00 0. -1.
       -3    1    3    3    0  502  0.59558383127E+03 -0.69170090351E+02  0.26242516971E+03  0.65450101709E+03  0.10100000352E+00 0.  1.
</event>
<event>
 5   0  0.2172901E-03  0.1404464E+04  0.7818609E-02  0.8950594E-01
       -2   -1    0    0    0  501  0.00000000000E+00  0.00000000000E+00  0.93615397515E+03  0.93615397515E+03  0.25500000920E-02 0. -1.
        2   -1    0    0  501    0  0.00000000000E+00  0.00000000000E+00 -0.52676130016E+03  0.52676130017E+03  0.25500000920E-02 0.  1.
    10030    2    1    2    0    0  0.00000000000E+00  0.00000000000E+00  0.40939267498E+03  0.14629152753E+04  0.14044638623E+04 0.  0.
        2    1    3    3  502    0 -0.41087166644E+03 -0.91150052016E+02 -0.38084309979E+03  0.56759609312E+03  0.25500000920E-02 0.  1.
       -2    1    3    3    0  502  0.41087166644E+03  0.91150052016E+02  0.79023577477E+03  0.89531918219E+03  0.25500000920E-02 0. -1.
</event>
<event>
 5   0  0.2236184E-03  0.1385534E+04  0.7818609E-02  0.8964357E-01
       -2   -1    0    0    0  501  0.00000000000E+00  0.00000000000E+00  0.46468814364E+03  0.46468814365E+03  0.25500000920E-02 0.  1.
        2   -1    0    0  501    0  0.00000000000E+00  0.00000000000E+00 -0.10327922832E+04  0.10327922832E+04  0.25500000920E-02 0. -1.
    10030    2    1    2    0    0  0.00000000000E+00  0.00000000000E+00 -0.56810413955E+03  0.14974804268E+04  0.13855343068E+04 0.  0.
        3    1    3    3  502    0 -0.54997405947E+03  0.40837437694E+03 -0.39577327743E+03  0.79112426025E+03  0.10100000352E+00 0. -1.
       -3    1    3    3    0  502  0.54997405947E+03 -0.40837437694E+03 -0.17233086212E+03  0.70635616659E+03  0.10100000352E+00 0.  1.
</event>
<event>
 5   0  0.1238683E-03  0.1385883E+04  0.7818609E-02  0.8964101E-01
       -1   -1    0    0    0  501  0.00000000000E+00  0.00000000000E+00  0.94185421316E+03  0.94185421317E+03  0.50400001928E-02 0.  1.
        1   -1    0    0  501    0  0.00000000000E+00  0.00000000000E+00 -0.50981130042E+03  0.50981130045E+03  0.50400001928E-02 0. -1.
    10030    2    1    2    0    0  0.00000000000E+00  0.00000000000E+00  0.43204291273E+03  0.14516655136E+04  0.13858829983E+04 0.  0.
        2    1    3    3  502    0 -0.60778170967E+03  0.16385445301E+03  0.51946325423E+03  0.81614273316E+03  0.25500000920E-02 0.  1.
       -2    1    3    3    0  502  0.60778170967E+03 -0.16385445301E+03 -0.87420341500E+02  0.63552278047E+03  0.25500000920E-02 0. -1.
</event>
<event>
 5   0  0.2172901E-03  0.1420662E+04  0.7818609E-02  0.8938997E-01
       -2   -1    0    0    0  501  0.00000000000E+00  0.00000000000E+00  0.82059405555E+03  0.82059405555E+03  0.25500000920E-02 0.  1.
        2   -1    0    0  501    0  0.00000000000E+00  0.00000000000E+00 -0.61488392481E+03  0.61488392481E+03  0.25500000920E-02 0. -1.
    10030    2    1    2    0    0  0.00000000000E+00  0.00000000000E+00  0.20571013074E+03  0.14354779804E+04  0.14206619493E+04 0.  0.
        2    1    3    3  502    0 -0.61013562027E+02 -0.98975635964E+01  0.81787152380E+03  0.82020390511E+03  0.25500000920E-02 0.  1.
       -2    1    3    3    0  502  0.61013562027E+02  0.98975635964E+01 -0.61216139306E+03  0.61527407525E+03  0.25500000920E-02 0. -1.
</event>
<event>
 5   0  0.1225690E-03  0.1385789E+04  0.7818609E-02  0.8964170E-01
       -1   -1    0    0    0  501  0.00000000000E+00  0.00000000000E+00  0.95330973335E+03  0.95330973336E+03  0.50400001928E-02 0.  1.
        1   -1    0    0  501    0  0.00000000000E+00  0.00000000000E+00 -0.50361680837E+03  0.50361680839E+03  0.50400001928E-02 0. -1.
    10030    2    1    2    0    0  0.00000000000E+00  0.00000000000E+00  0.44969292498E+03  0.14569265418E+04  0.13857890248E+04 0.  0.
        4    1    3    3  502    0  0.67985156186E+03  0.39525148070E+02  0.90453256701E+02  0.68698165044E+03  0.12699999809E+01 0.  1.
       -4    1    3    3    0  502 -0.67985156186E+03 -0.39525148070E+02  0.35923966828E+03  0.76994489131E+03  0.12699999809E+01 0. -1.
</event>
<event>
 5   0  0.1225690E-03  0.1413532E+04  0.7818609E-02  0.8944081E-01
        1   -1    0    0  501    0  0.00000000000E+00  0.00000000000E+00  0.11992556332E+04  0.11992556332E+04  0.50400001928E-02 0. -1.
       -1   -1    0    0    0  501  0.00000000000E+00  0.00000000000E+00 -0.41652375131E+03  0.41652375134E+03  0.50400001928E-02 0.  1.
    10030    2    1    2    0    0  0.00000000000E+00  0.00000000000E+00  0.78273188190E+03  0.16157793846E+04  0.14135323911E+04 0.  0.
        4    1    3    3  502    0  0.66445146532E+03  0.15517319248E+03  0.60196062183E+03  0.90990805720E+03  0.12699999809E+01 0. -1.
       -4    1    3    3    0  502 -0.66445146532E+03 -0.15517319248E+03  0.18077126008E+03  0.70587132737E+03  0.12699999809E+01 0.  1.
</event>
<event>
 5   0  0.2195980E-03  0.1412666E+04  0.7818609E-02  0.8944701E-01
       -2   -1    0    0    0  501  0.00000000000E+00  0.00000000000E+00  0.51440563435E+03  0.51440563436E+03  0.25500000920E-02 0.  1.
        2   -1    0    0  501    0  0.00000000000E+00  0.00000000000E+00 -0.96986906664E+03  0.96986906664E+03  0.25500000920E-02 0. -1.
    10030    2    1    2    0    0  0.00000000000E+00  0.00000000000E+00 -0.45546343229E+03  0.14842747010E+04  0.14126657247E+04 0.  0.
        4    1    3    3  502    0 -0.12281941184E+03 -0.69476579593E+03 -0.19256290903E+03  0.73134547647E+03  0.12699999809E+01 0.  1.
       -4    1    3    3    0  502  0.12281941184E+03  0.69476579593E+03 -0.26290052326E+03  0.75292922453E+03  0.12699999809E+01 0. -1.
</event>
<event>
 5   0  0.1175374E-03  0.1343344E+04  0.7818609E-02  0.8995882E-01
       -1   -1    0    0    0  501  0.00000000000E+00  0.00000000000E+00  0.53243567531E+03  0.53243567534E+03  0.50400001928E-02 0.  1.
        1   -1    0    0  501    0  0.00000000000E+00  0.00000000000E+00 -0.84731969514E+03  0.84731969516E+03  0.50400001928E-02 0. -1.
    10030    2    1    2    0    0  0.00000000000E+00  0.00000000000E+00 -0.31488401983E+03  0.13797553705E+04  0.13433439383E+04 0.  0.
        3    1    3    3  502    0  0.54451700653E+03 -0.13362605229E+03  0.22243211888E+03  0.60318384425E+03  0.10100000352E+00 0.  1.
       -3    1    3    3    0  502 -0.54451700653E+03  0.13362605229E+03 -0.53731613871E+03  0.77657152624E+03  0.10100000352E+00 0. -1.
</event>
<event>
 5   0  0.8293000E-04  0.1392015E+04  0.7818609E-02  0.8959619E-01
        4   -1    0    0  501    0  0.00000000000E+00  0.00000000000E+00  0.17537194038E+04  0.17537198636E+04  0.12699999809E+01 0. -1.
       -4   -1    0    0    0  501  0.00000000000E+00  0.00000000000E+00 -0.27622603844E+03  0.27622895795E+03  0.12699999809E+01 0.  1.
    10030    2    1    2    0    0  0.00000000000E+00  0.00000000000E+00  0.14774933654E+04  0.20299488216E+04  0.13920149330E+04 0.  0.
        1    1    3    3  502    0  0.77465356885E+02 -0.28745055517E+03  0.16561870016E+04  0.16827311394E+04  0.50400001928E-02 0. -1.
       -1    1    3    3    0  502 -0.77465356885E+02  0.28745055517E+03 -0.17869363623E+03  0.34721768221E+03  0.50400001928E-02 0.  1.
</event>
<event>
 5   0  0.2083966E-03  0.1384304E+04  0.7818609E-02  0.8965259E-01
        2   -1    0    0  501    0  0.00000000000E+00  0.00000000000E+00  0.23269066129E+04  0.23269066129E+04  0.25500000920E-02 0.  1.
       -2   -1    0    0    0  501  0.00000000000E+00  0.00000000000E+00 -0.20588458752E+03  0.20588458754E+03  0.25500000920E-02 0. -1.
    10030    2    1    2    0    0  0.00000000000E+00  0.00000000000E+00  0.21210220254E+04  0.25327912005E+04  0.13843037358E+04 0.  0.
        1    1    3    3  502    0  0.48633436007E+03 -0.24341101529E+03  0.18438579998E+04  0.19223897512E+04  0.50400001928E-02 0.  1.
       -1    1    3    3    0  502 -0.48633436007E+03  0.24341101529E+03  0.27716402564E+03  0.61040144928E+03  0.50400001928E-02 0. -1.
</event>
<event>
 5   0  0.2236184E-03  0.1373729E+04  0.7818609E-02  0.8973057E-01
        2   -1    0    0  501    0  0.00000000000E+00  0.00000000000E+00  0.72740596088E+03  0.72740596089E+03  0.25500000920E-02 0.  1.
       -2   -1    0    0    0  501  0.00000000000E+00  0.00000000000E+00 -0.64858276570E+03  0.64858276570E+03  0.25500000920E-02 0. -1.
    10030    2    1    2    0    0  0.00000000000E+00  0.00000000000E+00  0.78823195182E+02  0.13759887266E+04  0.13737291871E+04 0.  0.
        3    1    3    3  502    0 -0.55779413988E+03 -0.39935535600E+03  0.73584525486E+02  0.68995195155E+03  0.10100000352E+00 0. -1.
       -3    1    3    3    0  502  0.55779413988E+03  0.39935535600E+03  0.52386696956E+01  0.68603677504E+03  0.10100000352E+00 0.  1.
</event>
<event>
 5   0  0.2195980E-03  0.1370398E+04  0.7818609E-02  0.8975529E-01
        2   -1    0    0  501    0  0.00000000000E+00  0.00000000000E+00  0.12154565240E+04  0.12154565240E+04  0.25500000920E-02 0.  1.
       -2   -1    0    0    0  501  0.00000000000E+00  0.00000000000E+00 -0.38627264941E+03  0.38627264942E+03  0.25500000920E-02 0. -1.
    10030    2    1    2    0    0  0.00000000000E+00  0.00000000000E+00  0.82918387458E+03  0.16017291734E+04  0.13703979156E+04 0.  0.
        4    1    3    3  502    0 -0.79528789570E+02 -0.25000696715E+03  0.11544263969E+04  0.11838624205E+04  0.12699999809E+01 0.  1.
       -4    1    3    3    0  502  0.79528789570E+02  0.25000696715E+03 -0.32524252228E+03  0.41786675292E+03  0.12699999809E+01 0. -1.
</event>
<event>
 5   0  0.1210275E-03  0.1393472E+04  0.7818609E-02  0.8958557E-01
       -1   -1    0    0    0  501  0.00000000000E+00  0.00000000000E+00  0.35860375596E+03  0.35860375600E+03  0.50400001928E-02 0. -1.
        1   -1    0    0  501    0  0.00000000000E+00  0.00000000000E+00 -0.13536978211E+04  0.13536978211E+04  0.50400001928E-02 0.  1.
    10030    2    1    2    0    0  0.00000000000E+00  0.00000000000E+00 -0.99509406517E+03  0.17123015771E+04  0.13934720997E+04 0.  0.
        1    1    3    3  502    0  0.65610632882E+03  0.23392348787E+03 -0.51679692451E+03  0.86733775088E+03  0.50400001928E-02 0.  1.
       -1    1    3    3    0  502 -0.65610632882E+03 -0.23392348787E+03 -0.47829714065E+03  0.84496382625E+03  0.50400001928E-02 0. -1.
</event>
<event>
 5   0  0.2195980E-03  0.1397327E+04  0.7818609E-02  0.8955756E-01
        2   -1    0    0  501    0  0.00000000000E+00  0.00000000000E+00  0.88319404969E+03  0.88319404970E+03  0.25500000920E-02 0. -1.
       -2   -1    0    0    0  501  0.00000000000E+00  0.00000000000E+00 -0.55268776785E+03  0.55268776785E+03  0.25500000920E-02 0.  1.
    10030    2    1    2    0    0  0.00000000000E+00  0.00000000000E+00  0.33050628184E+03  0.14358818176E+04  0.13973268020E+04 0.  0.
        4    1    3    3  502    0  0.55358441508E+03  0.64099561562E+02 -0.26775768008E+03  0.61827198429E+03  0.12699999809E+01 0.  1.
       -4    1    3    3    0  502 -0.55358441508E+03 -0.64099561562E+02  0.59826396193E+03  0.81760983326E+03  0.12699999809E+01 0. -1.
</event>
<event>
 5   0  0.1175374E-03  0.1368321E+04  0.7818609E-02  0.8977074E-01
        1   -1    0    0  501    0  0.00000000000E+00  0.00000000000E+00  0.10294154575E+04  0.10294154575E+04  0.50400001928E-02 0.  1.
       -1   -1    0    0    0  501  0.00000000000E+00  0.00000000000E+00 -0.45470005794E+03  0.45470005797E+03  0.50400001928E-02 0. -1.
    10030    2    1    2    0    0  0.00000000000E+00  0.00000000000E+00  0.57471539952E+03  0.14841155154E+04  0.13683205300E+04 0.  0.
        3    1    3    3  502    0 -0.43872168382E+03 -0.46268828928E+03  0.55637566320E+03  0.84623345343E+03  0.10100000352E+00 0.  1.
       -3    1    3    3    0  502  0.43872168382E+03  0.46268828928E+03  0.18339736315E+02  0.63788206201E+03  0.10100000352E+00 0. -1.
</event>
<event>
 5   0  0.2236184E-03  0.1381784E+04  0.7818609E-02  0.8967111E-01
       -2   -1    0    0    0  501  0.00000000000E+00  0.00000000000E+00  0.57855460728E+03  0.57855460728E+03  0.25500000920E-02 0.  1.
        2   -1    0    0  501    0  0.00000000000E+00  0.00000000000E+00 -0.82504180292E+03  0.82504180292E+03  0.25500000920E-02 0. -1.
    10030    2    1    2    0    0  0.00000000000E+00  0.00000000000E+00 -0.24648719564E+03  0.14035964102E+04  0.13817839719E+04 0.  0.
        3    1    3    3  502    0  0.55902805611E+03  0.27615389770E+03  0.17904163941E+03  0.64871354354E+03  0.10100000352E+00 0.  1.
       -3    1    3    3    0  502 -0.55902805611E+03 -0.27615389770E+03 -0.42552883505E+03  0.75488286667E+03  0.10100000352E+00 0. -1.
</event>
<event>
 5   0  0.2236184E-03  0.1402203E+04  0.7818609E-02  0.8952225E-01
       -2   -1    0    0    0  501  0.00000000000E+00  0.00000000000E+00  0.27634972425E+03  0.27634972426E+03  0.25500000920E-02 0.  1.
        2   -1    0    0  501    0  0.00000000000E+00  0.00000000000E+00 -0.17787001918E+04  0.17787001918E+04  0.25500000920E-02 0. -1.
    10030    2    1    2    0    0  0.00000000000E+00  0.00000000000E+00 -0.15023504675E+04  0.20550499160E+04  0.14022029918E+04 0.  0.
        3    1    3    3  502    0 -0.40294655007E+03 -0.50319764142E+03 -0.11551285193E+04  0.13228362313E+04  0.10100000352E+00 0. -1.
       -3    1    3    3    0  502  0.40294655007E+03  0.50319764142E+03 -0.34722194818E+03  0.73221368469E+03  0.10100000352E+00 0.  1.
</event>
<event>
 5   0  0.1225690E-03  0.1388649E+04  0.7818609E-02  0.8962076E-01
        1   -1    0    0  501    0  0.00000000000E+00  0.00000000000E+00  0.12572268866E+04  0.12572268867E+04  0.50400001928E-02 0. -1.
       -1   -1    0    0    0  501  0.00000000000E+00  0.00000000000E+00 -0.38345225949E+03  0.38345225952E+03  0.50400001928E-02 0.  1.
    10030    2    1    2    0    0  0.00000000000E+00  0.00000000000E+00  0.87377462716E+03  0.16406791462E+04  0.13886489699E+04 0.  0.
        4    1    3    3  502    0 -0.60766562912E+03 -0.17742016100E+03  0.99903931548E+02  0.64087271652E+03  0.12699999809E+01 0.  1.
       -4    1    3    3    0  502  0.60766562912E+03  0.17742016100E+03  0.77387069561E+03  0.99980642965E+03  0.12699999809E+01 0. -1.
</event>
<event>
 5   0  0.1210275E-03  0.1398557E+04  0.7818609E-02  0.8954864E-01
        1   -1    0    0  501    0  0.00000000000E+00  0.00000000000E+00  0.14494557012E+04  0.14494557012E+04  0.50400001928E-02 0. -1.
       -1   -1    0    0    0  501  0.00000000000E+00  0.00000000000E+00 -0.33736117826E+03  0.33736117830E+03  0.50400001928E-02 0.  1.
    10030    2    1    2    0    0  0.00000000000E+00  0.00000000000E+00  0.11120945229E+04  0.17868168795E+04  0.13985565176E+04 0.  0.
        1    1    3    3  502    0  0.44880850791E+03  0.41740367806E+03  0.98616008070E+03  0.11611057713E+04  0.50400001928E-02 0. -1.
       -1    1    3    3    0  502 -0.44880850791E+03 -0.41740367806E+03  0.12593444225E+03  0.62571110826E+03  0.50400001928E-02 0.  1.
</event>
<event>
 5   0  0.2083966E-03  0.1391152E+04  0.7818609E-02  0.8960248E-01
       -2   -1    0    0    0  501  0.00000000000E+00  0.00000000000E+00  0.33139917696E+03  0.33139917697E+03  0.25500000920E-02 0. -1.
        2   -1    0    0  501    0  0.00000000000E+00  0.00000000000E+00 -0.14599484239E+04  0.14599484239E+04  0.25500000920E-02 0.  1.
    10030    2    1    2    0    0  0.00000000000E+00  0.00000000000E+00 -0.11285492469E+04  0.17913476008E+04  0.13911516180E+04 0.  0.
        1    1    3    3  502    0  0.52944970828E+03 -0.11925108216E+02  0.16416400432E+02  0.52983837161E+03  0.50400001928E-02 0. -1.
       -1    1    3    3    0  502 -0.52944970828E+03  0.11925108216E+02 -0.11449656473E+04  0.12615092292E+04  0.50400001928E-02 0.  1.
</event>
<event>
 5   0  0.1225690E-03  0.1543690E+04  0.7818609E-02  0.8855908E-01
       -1   -1    0    0    0  501  0.00000000000E+00  0.00000000000E+00  0.33454880724E+03  0.33454880728E+03  0.50400001928E-02 0. -1.
        1   -1    0    0  501    0  0.00000000000E+00  0.00000000000E+00 -0.17807419059E+04  0.17807419059E+04  0.50400001928E-02 0.  1.
    10030    2    1    2    0    0  0.00000000000E+00  0.00000000000E+00 -0.14461930987E+04  0.21152907132E+04  0.15436904880E+04 0.  0.
        4    1    3    3  502    0  0.59877669574E+03 -0.62362721698E+02 -0.61205377670E+02  0.60512011335E+03  0.12699999809E+01 0. -1.
       -4    1    3    3    0  502 -0.59877669574E+03  0.62362721698E+02 -0.13849877210E+04  0.15101705999E+04  0.12699999809E+01 0.  1.
</event>
<event>
 5   0  0.2190704E-03  0.1332694E+04  0.7818609E-02  0.9004033E-01
       -2   -1    0    0    0  501  0.00000000000E+00  0.00000000000E+00  0.43058395955E+03  0.43058395956E+03  0.25500000920E-02 0. -1.
        2   -1    0    0  501    0  0.00000000000E+00  0.00000000000E+00 -0.10312009594E+04  0.10312009594E+04  0.25500000920E-02 0.  1.
    10030    2    1    2    0    0  0.00000000000E+00  0.00000000000E+00 -0.60061699983E+03  0.14617849189E+04  0.13326944019E+04 0.  0.
        5    1    3    3  502    0  0.81006665145E+02 -0.53953469441E+01 -0.10257375288E+04  0.10289561495E+04  0.46999998093E+01 0.  1.
       -5    1    3    3    0  502 -0.81006665145E+02  0.53953469441E+01  0.42512052894E+03  0.43282876949E+03  0.46999998093E+01 0. -1.
</event>
<event>
 5   0  0.1238683E-03  0.1397740E+04  0.7818609E-02  0.8955456E-01
       -1   -1    0    0    0  501  0.00000000000E+00  0.00000000000E+00  0.45582607322E+03  0.45582607325E+03  0.50400001928E-02 0.  1.
        1   -1    0    0  501    0  0.00000000000E+00  0.00000000000E+00 -0.10715031561E+04  0.10715031561E+04  0.50400001928E-02 0. -1.
    10030    2    1    2    0    0  0.00000000000E+00  0.00000000000E+00 -0.61567708292E+03  0.15273292294E+04  0.13977397127E+04 0.  0.
        2    1    3    3  502    0  0.22084096730E+03  0.15051983158E+03 -0.10134575709E+04  0.10481045752E+04  0.25500000920E-02 0. -1.
       -2    1    3    3    0  502 -0.22084096730E+03 -0.15051983158E+03  0.39778048800E+03  0.47922465418E+03  0.25500000920E-02 0.  1.
</event>
<event>
 5   0  0.1199720E-03  0.1383529E+04  0.7818609E-02  0.8965828E-01
       -1   -1    0    0    0  501  0.00000000000E+00  0.00000000000E+00  0.44680753388E+03  0.44680753391E+03  0.50400001928E-02 0.  1.
        1   -1    0    0  501    0  0.00000000000E+00  0.00000000000E+00 -0.10710158857E+04  0.10710158857E+04  0.50400001928E-02 0. -1.
    10030    2    1    2    0    0  0.00000000000E+00  0.00000000000E+00 -0.62420835183E+03  0.15178234196E+04  0.13835287733E+04 0.  0.
        5    1    3    3  502    0 -0.39676751120E+03  0.51042343564E+03 -0.42129142866E+02  0.64788386017E+03  0.46999998093E+01 0.  1.
       -5    1    3    3    0  502  0.39676751120E+03 -0.51042343564E+03 -0.58207920896E+03  0.86993955945E+03  0.46999998093E+01 0. -1.
</event>
<event>
 5   0  0.1210275E-03  0.1406142E+04  0.7818609E-02  0.8949385E-01
        1   -1    0    0  501    0  0.00000000000E+00  0.00000000000E+00  0.73765965219E+03  0.73765965221E+03  0.50400001928E-02 0.  1.
       -1   -1    0    0    0  501  0.00000000000E+00  0.00000000000E+00 -0.67010375078E+03  0.67010375079E+03  0.50400001928E-02 0. -1.
    10030    2    1    2    0    0  0.00000000000E+00  0.00000000000E+00  0.67555901413E+02  0.14077634030E+04  0.14061415288E+04 0.  0.
        1    1    3    3  502    0 -0.50430027729E+02  0.68129101271E+03  0.20012575440E+03  0.71186441777E+03  0.50400001928E-02 0. -1.
       -1    1    3    3    0  502  0.50430027729E+02 -0.68129101271E+03 -0.13256985299E+03  0.69589898523E+03  0.50400001928E-02 0.  1.
</event>
<event>
 5   0  0.2190704E-03  0.1240500E+04  0.7818609E-02  0.9078127E-01
        2   -1    0    0  501    0  0.00000000000E+00  0.00000000000E+00  0.79281967912E+03  0.79281967912E+03  0.25500000920E-02 0.  1.
       -2   -1    0    0    0  501  0.00000000000E+00  0.00000000000E+00 -0.48524312276E+03  0.48524312277E+03  0.25500000920E-02 0. -1.
    10030    2    1    2    0    0  0.00000000000E+00  0.00000000000E+00  0.30757655636E+03  0.12780628019E+04  0.12405003779E+04 0.  0.
        5    1    3    3  502    0 -0.29764508037E+02 -0.56051529596E+03 -0.11806685394E+03  0.57360717825E+03  0.46999998093E+01 0. -1.
       -5    1    3    3    0  502  0.29764508037E+02  0.56051529596E+03  0.42564341030E+03  0.70445562364E+03  0.46999998093E+01 0.  1.
</event>
<event>
 5   0  0.1238683E-03  0.1428773E+04  0.7818609E-02  0.8933250E-01
       -1   -1    0    0    0  501  0.00000000000E+00  0.00000000000E+00  0.54633480223E+03  0.54633480226E+03  0.50400001928E-02 0. -1.
        1   -1    0    0  501    0  0.00000000000E+00  0.00000000000E+00 -0.93413126817E+03  0.93413126818E+03  0.50400001928E-02 0.  1.
    10030    2    1    2    0    0  0.00000000000E+00  0.00000000000E+00 -0.38779646593E+03  0.14804660704E+04  0.14287734903E+04 0.  0.
        2    1    3    3  502    0 -0.47881925767E+03 -0.47840107232E+02  0.35321235930E+03  0.59692171023E+03  0.25500000920E-02 0. -1.
       -2    1    3    3    0  502  0.47881925767E+03  0.47840107232E+02 -0.74100882523E+03  0.88354436021E+03  0.25500000920E-02 0.  1.
</event>
<event>
 5   0  0.1175374E-03  0.1414878E+04  0.7818609E-02  0.8943119E-01
        1   -1    0    0  501    0  0.00000000000E+00  0.00000000000E+00  0.14583287584E+04  0.14583287584E+04  0.50400001928E-02 0.  1.
       -1   -1    0    0    0  501  0.00000000000E+00  0.00000000000E+00 -0.34318054305E+03  0.34318054309E+03  0.50400001928E-02 0. -1.
    10030    2    1    2    0    0  0.00000000000E+00  0.00000000000E+00  0.11151482153E+04  0.18015093015E+04  0.14148781648E+04 0.  0.
        3    1    3    3  502    0 -0.89920324824E+02  0.38806784324E+03 -0.18680760955E+03  0.43997660047E+03  0.10100000352E+00 0. -1.
       -3    1    3    3    0  502  0.89920324824E+02 -0.38806784324E+03  0.13019558249E+04  0.13615327010E+04  0.10100000352E+00 0.  1.
</event>
<event>
 5   0  0.2236184E-03  0.1425349E+04  0.7818609E-02  0.8935671E-01
        2   -1    0    0  501    0  0.00000000000E+00  0.00000000000E+00  0.75577743688E+03  0.75577743688E+03  0.25500000920E-02 0. -1.
       -2   -1    0    0    0  501  0.00000000000E+00  0.00000000000E+00 -0.67202961236E+03  0.67202961237E+03  0.25500000920E-02 0.  1.
    10030    2    1    2    0    0  0.00000000000E+00  0.00000000000E+00  0.83747824519E+02  0.14278070492E+04  0.14253488246E+04 0.  0.
        3    1    3    3  502    0 -0.11214187748E+03  0.66556690930E+03 -0.18732124821E+03  0.70046011426E+03  0.10100000352E+00 0.  1.
       -3    1    3    3    0  502  0.11214187748E+03 -0.66556690930E+03  0.27106907273E+03  0.72734693499E+03  0.10100000352E+00 0. -1.
</event>
<event>
 5   0  0.2190704E-03  0.1366705E+04  0.7818609E-02  0.8978278E-01
       -2   -1    0    0    0  501  0.00000000000E+00  0.00000000000E+00  0.26528238336E+03  0.26528238337E+03  0.25500000920E-02 0. -1.
        2   -1    0    0  501    0  0.00000000000E+00  0.00000000000E+00 -0.17602787743E+04  0.17602787743E+04  0.25500000920E-02 0.  1.
    10030    2    1    2    0    0  0.00000000000E+00  0.00000000000E+00 -0.14949963909E+04  0.20255611576E+04  0.13667054527E+04 0.  0.
        5    1    3    3  502    0  0.54454579306E+03  0.11523498837E+03 -0.13350055448E+04  0.14463993632E+04  0.46999998093E+01 0.  1.
       -5    1    3    3    0  502 -0.54454579306E+03 -0.11523498837E+03 -0.15999084613E+03  0.57916179443E+03  0.46999998093E+01 0. -1.
</event>
<event>
 5   0  0.2083966E-03  0.1397454E+04  0.7818609E-02  0.8955663E-01
       -2   -1    0    0    0  501  0.00000000000E+00  0.00000000000E+00  0.25292838474E+03  0.25292838475E+03  0.25500000920E-02 0.  1.
        2   -1    0    0  501    0  0.00000000000E+00  0.00000000000E+00 -0.19302683495E+04  0.19302683495E+04  0.25500000920E-02 0. -1.
    10030    2    1    2    0    0  0.00000000000E+00  0.00000000000E+00 -0.16773399647E+04  0.21831967342E+04  0.13974543367E+04 0.  0.
        1    1    3    3  502    0 -0.65497028781E+03 -0.88190527400E+02 -0.11930533210E+04  0.13638694490E+04  0.50400001928E-02 0.  1.
       -1    1    3    3    0  502  0.65497028781E+03  0.88190527400E+02 -0.48428664372E+03  0.81932728525E+03  0.50400001928E-02 0. -1.
</event>
<event>
 5   0  0.1225690E-03  0.1402113E+04  0.7818609E-02  0.8952290E-01
       -1   -1    0    0    0  501  0.00000000000E+00  0.00000000000E+00  0.71075993198E+03  0.71075993199E+03  0.50400001928E-02 0.  1.
        1   -1    0    0  501    0  0.00000000000E+00  0.00000000000E+00 -0.69148576412E+03  0.69148576414E+03  0.50400001928E-02 0. -1.
    10030    2    1    2    0    0  0.00000000000E+00  0.00000000000E+00  0.19274167855E+02  0.14022456961E+04  0.14021132261E+04 0.  0.
        4    1    3    3  502    0 -0.59922733355E+03 -0.31064603966E+03 -0.17986538914E+03  0.69851809593E+03  0.12699999809E+01 0. -1.
       -4    1    3    3    0  502  0.59922733355E+03  0.31064603966E+03  0.19913955699E+03  0.70372760020E+03  0.12699999809E+01 0.  1.
</event>
<event>
 5   0  0.1175374E-03  0.1394834E+04  0.7818609E-02  0.8957567E-01
       -1   -1    0    0    0  501  0.00000000000E+00  0.00000000000E+00  0.65428014359E+03  0.65428014361E+03  0.50400001928E-02 0.  1.
        1   -1    0    0  501    0  0.00000000000E+00  0.00000000000E+00 -0.74339745023E+03  0.74339745025E+03  0.50400001928E-02 0. -1.
    10030    2    1    2    0    0  0.00000000000E+00  0.00000000000E+00 -0.89117306641E+02  0.13976775939E+04  0.13948335965E+04 0.  0.
        3    1    3    3  502    0  0.54284616440E+03  0.25607809143E+02 -0.48254535367E+03  0.72676526241E+03  0.10100000352E+00 0. -1.
       -3    1    3    3    0  502 -0.54284616440E+03 -0.25607809143E+02  0.39342804703E+03  0.67091233144E+03  0.10100000352E+00 0.  1.
</event>
<event>
 5   0  0.1210275E-03  0.1366465E+04  0.7818609E-02  0.8978457E-01
       -1   -1    0    0    0  501  0.00000000000E+00  0.00000000000E+00  0.51738799765E+03  0.51738799767E+03  0.50400001928E-02 0. -1.
        1   -1    0    0  501    0  0.00000000000E+00  0.00000000000E+00 -0.90223745885E+03  0.90223745887E+03  0.50400001928E-02 0.  1.
    10030    2    1    2    0    0  0.00000000000E+00  0.00000000000E+00 -0.38484946121E+03  0.14196254565E+04  0.13664652681E+04 0.  0.
        1    1    3    3  502    0 -0.60014205424E+03 -0.79026730282E+01 -0.53158158570E+03  0.80175552371E+03  0.50400001928E-02 0.  1.
       -1    1    3    3    0  502  0.60014205424E+03  0.79026730282E+01  0.14673212449E+03  0.61786993283E+03  0.50400001928E-02 0. -1.
</event>
<event>
 5   0  0.2172901E-03  0.1396222E+04  0.7818609E-02  0.8956558E-01
        2   -1    0    0  501    0  0.00000000000E+00  0.00000000000E+00  0.96892217880E+03  0.96892217880E+03  0.25500000920E-02 0.  1.
       -2   -1    0    0    0  501  0.00000000000E+00  0.00000000000E+00 -0.50299101832E+03  0.50299101832E+03  0.25500000920E-02 0. -1.
    10030    2    1    2    0    0  0.00000000000E+00  0.00000000000E+00  0.46593116048E+03  0.14719131971E+04  0.13962222651E+04 0.  0.
        2    1    3    3  502    0  0.44154220379E+03 -0.27467845325E+03  0.72399651274E+03  0.89139145210E+03  0.25500000920E-02 0.  1.
       -2    1    3    3    0  502 -0.44154220379E+03  0.27467845325E+03 -0.25806535226E+03  0.58052174503E+03  0.25500000920E-02 0. -1.
</event>
<event>
 5   0  0.1210275E-03  0.1426056E+04  0.7818609E-02  0.8935171E-01
        1   -1    0    0  501    0  0.00000000000E+00  0.00000000000E+00  0.18400967564E+04  0.18400967564E+04  0.50400001928E-02 0.  1.
       -1   -1    0    0    0  501  0.00000000000E+00  0.00000000000E+00 -0.27629453488E+03  0.27629453492E+03  0.50400001928E-02 0. -1.
    10030    2    1    2    0    0  0.00000000000E+00  0.00000000000E+00  0.15638022215E+04  0.21163912913E+04  0.14260556476E+04 0.  0.
        1    1    3    3  502    0 -0.21524542271E+03  0.26109042069E+03  0.17133476395E+04  0.17464417922E+04  0.50400001928E-02 0.  1.
       -1    1    3    3    0  502  0.21524542271E+03 -0.26109042069E+03 -0.14954541804E+03  0.36994949906E+03  0.50400001928E-02 0. -1.
</event>
<event>
 5   0  0.8293000E-04  0.1406332E+04  0.7818609E-02  0.8949248E-01
       -4   -1    0    0    0  501  0.00000000000E+00  0.00000000000E+00  0.47900207734E+03  0.47900376094E+03  0.12699999809E+01 0. -1.
        4   -1    0    0  501    0  0.00000000000E+00  0.00000000000E+00 -0.10322297823E+04  0.10322305636E+04  0.12699999809E+01 0.  1.
    10030    2    1    2    0    0  0.00000000000E+00  0.00000000000E+00 -0.55322770498E+03  0.15112343245E+04  0.14063315008E+04 0.  0.
        4    1    3    3  502    0  0.45660142082E+03 -0.60450934287E+02  0.29433937616E+03  0.54660447693E+03  0.12699999809E+01 0. -1.
       -4    1    3    3    0  502 -0.45660142082E+03  0.60450934287E+02 -0.84756708114E+03  0.96462984760E+03  0.12699999809E+01 0.  1.
</event>
<event>
 5   0  0.1225690E-03  0.1471297E+04  0.7818609E-02  0.8903768E-01
       -1   -1    0    0    0  501  0.00000000000E+00  0.00000000000E+00  0.54035099010E+03  0.54035099012E+03  0.50400001928E-02 0. -1.
        1   -1    0    0  501    0  0.00000000000E+00  0.00000000000E+00 -0.10015312346E+04  0.10015312346E+04  0.50400001928E-02 0.  1.
    10030    2    1    2    0    0  0.00000000000E+00  0.00000000000E+00 -0.46118024454E+03  0.15418822248E+04  0.14712965633E+04 0.  0.
        4    1    3    3  502    0  0.48932856152E+03 -0.25021349181E+03  0.28187673944E+03  0.61766118685E+03  0.12699999809E+01 0. -1.
       -4    1    3    3    0  502 -0.48932856152E+03  0.25021349181E+03 -0.74305698398E+03  0.92422103792E+03  0.12699999809E+01 0.  1.
</event>
<event>
 5   0  0.2083966E-03  0.1419309E+04  0.7818609E-02  0.8939959E-01
        2   -1    0    0  501    0  0.00000000000E+00  0.00000000000E+00  0.35638508233E+03  0.35638508234E+03  0.25500000920E-02 0. -1.
       -2   -1    0    0    0  501  0.00000000000E+00  0.00000000000E+00 -0.14131047044E+04  0.14131047044E+04  0.25500000920E-02 0.  1.
    10030    2    1    2    0    0  0.00000000000E+00  0.00000000000E+00 -0.10567196221E+04  0.17694897868E+04  0.14193088972E+04 0.  0.
        1    1    3    3  502    0 -0.56776959907E+03 -0.27947192257E+03 -0.12796347455E+03  0.64563265405E+03  0.50400001928E-02 0. -1.
       -1    1    3    3    0  502  0.56776959907E+03  0.27947192257E+03 -0.92875614756E+03  0.11238571327E+04  0.50400001928E-02 0.  1.
</event>
<event>
 5   0  0.2236184E-03  0.1390759E+04  0.7818609E-02  0.8960535E-01
       -2   -1    0    0    0  501  0.00000000000E+00  0.00000000000E+00  0.64135599179E+03  0.64135599180E+03  0.25500000920E-02 0.  1.
        2   -1    0    0  501    0  0.00000000000E+00  0.00000000000E+00 -0.75395340552E+03  0.75395340552E+03  0.25500000920E-02 0. -1.
    10030    2    1    2    0    0  0.00000000000E+00  0.00000000000E+00 -0.11259741373E+03  0.13953093973E+04  0.13907588348E+04 0.  0.
        3    1    3    3  502    0  0.37937479702E+03 -0.57337710484E+03  0.48282392349E+02  0.68921530786E+03  0.10100000352E+00 0. -1.
       -3    1    3    3    0  502 -0.37937479702E+03  0.57337710484E+03 -0.16087980607E+03  0.70609408946E+03  0.10100000352E+00 0.  1.
</event>
<event>
 5   0  0.1238683E-03  0.1169186E+04  0.7818609E-02  0.9140264E-01
       -1   -1    0    0    0  501  0.00000000000E+00  0.00000000000E+00  0.15837860521E+03  0.15837860529E+03  0.50400001928E-02 0. -1.
        1   -1    0    0  501    0  0.00000000000E+00  0.00000000000E+00 -0.21577990947E+04  0.21577990947E+04  0.50400001928E-02 0.  1.
    10030    2    1    2    0    0  0.00000000000E+00  0.00000000000E+00 -0.19994204895E+04  0.23161777000E+04  0.11691864027E+04 0.  0.
        2    1    3    3  502    0 -0.31214909766E+03  0.27407990884E+03 -0.18145617802E+04  0.18615024334E+04  0.25500000920E-02 0.  1.
       -2    1    3    3    0  502  0.31214909766E+03 -0.27407990884E+03 -0.18485870930E+03  0.45467526655E+03  0.25500000920E-02 0. -1.
</event>
<event>
 5   0  0.8293000E-04  0.1398214E+04  0.7818609E-02  0.8955112E-01
       -3   -1    0    0    0  501  0.00000000000E+00  0.00000000000E+00  0.42401565839E+03  0.42401567041E+03  0.10100000352E+00 0.  1.
        3   -1    0    0  501    0  0.00000000000E+00  0.00000000000E+00 -0.11526718917E+04  0.11526718961E+04  0.10100000352E+00 0. -1.
    10030    2    1    2    0    0  0.00000000000E+00  0.00000000000E+00 -0.72865623330E+03  0.15766875665E+04  0.13982144957E+04 0.  0.
        1    1    3    3  502    0 -0.51293281912E+03  0.12221334904E+03 -0.88195798251E+03  0.10275631672E+04  0.50400001928E-02 0.  1.
       -1    1    3    3    0  502  0.51293281912E+03 -0.12221334904E+03  0.15330174922E+03  0.54912439934E+03  0.50400001928E-02 0. -1.
</event>
<event>
 5   0  0.1199720E-03  0.1375444E+04  0.7818609E-02  0.8971788E-01
       -1   -1    0    0    0  501  0.00000000000E+00  0.00000000000E+00  0.46385831478E+03  0.46385831481E+03  0.50400001928E-02 0. -1.
        1   -1    0    0  501    0  0.00000000000E+00  0.00000000000E+00 -0.10196250364E+04  0.10196250364E+04  0.50400001928E-02 0.  1.
    10030    2    1    2    0    0  0.00000000000E+00  0.00000000000E+00 -0.55576672159E+03  0.14834833512E+04  0.13754440027E+04 0.  0.
        5    1    3    3  502    0  0.27892637760E+03 -0.38138407880E+03 -0.81681864316E+03  0.94364639855E+03  0.46999998093E+01 0.  1.
       -5    1    3    3    0  502 -0.27892637760E+03  0.38138407880E+03  0.26105192157E+03  0.53983695264E+03  0.46999998093E+01 0. -1.
</event>
<event>
 5   0  0.2190704E-03  0.1382046E+04  0.7818609E-02  0.8966918E-01
        2   -1    0    0  501    0  0.00000000000E+00  0.00000000000E+00  0.80097137836E+03  0.80097137836E+03  0.25500000920E-02 0.  1.
       -2   -1    0    0    0  501  0.00000000000E+00  0.00000000000E+00 -0.59616720998E+03  0.59616720998E+03  0.25500000920E-02 0. -1.
    10030    2    1    2    0    0  0.00000000000E+00  0.00000000000E+00  0.20480416838E+03  0.13971385883E+04  0.13820461236E+04 0.  0.
        5    1    3    3  502    0  0.40088404242E+02 -0.68176692711E+03  0.20880143640E+03  0.71416619417E+03  0.46999998093E+01 0.  1.
       -5    1    3    3    0  502 -0.40088404242E+02  0.68176692711E+03 -0.39972680192E+01  0.68297239417E+03  0.46999998093E+01 0. -1.
</event>
<event>
 5   0  0.2083966E-03  0.1387236E+04  0.7818609E-02  0.8963110E-01
       -2   -1    0    0    0  501  0.00000000000E+00  0.00000000000E+00  0.49343801745E+03  0.49343801746E+03  0.25500000920E-02 0.  1.
        2   -1    0    0  501    0  0.00000000000E+00  0.00000000000E+00 -0.97500840218E+03  0.97500840218E+03  0.25500000920E-02 0. -1.
    10030    2    1    2    0    0  0.00000000000E+00  0.00000000000E+00 -0.48157038473E+03  0.14684464196E+04  0.13872364081E+04 0.  0.
        1    1    3    3  502    0  0.55382174780E+03  0.10659895444E+03  0.18661416193E+03  0.59405951796E+03  0.50400001928E-02 0.  1.
       -1    1    3    3    0  502 -0.55382174780E+03 -0.10659895444E+03 -0.66818454665E+03  0.87438690168E+03  0.50400001928E-02 0. -1.
</event>
<event>
 5   0  0.1199720E-03  0.1408770E+04  0.7818609E-02  0.8947495E-01
       -1   -1    0    0    0  501  0.00000000000E+00  0.00000000000E+00  0.98436189703E+03  0.98436189704E+03  0.50400001928E-02 0. -1.
        1   -1    0    0  501    0  0.00000000000E+00  0.00000000000E+00 -0.50404056874E+03  0.50404056877E+03  0.50400001928E-02 0.  1.
    10030    2    1    2    0    0  0.00000000000E+00  0.00000000000E+00  0.48032132829E+03  0.14884024658E+04  0.14087701451E+04 0.  0.
        5    1    3    3  502    0  0.46899921408E+03 -0.20069720498E+03 -0.27298550483E+03  0.57860418832E+03  0.46999998093E+01 0.  1.
       -5    1    3    3    0  502 -0.46899921408E+03  0.20069720498E+03  0.75330683312E+03  0.90979827749E+03  0.46999998093E+01 0. -1.
</event>
<event>
 5   0  0.1225690E-03  0.1407604E+04  0.7818609E-02  0.8948333E-01
       -1   -1    0    0    0  501  0.00000000000E+00  0.00000000000E+00  0.53676431666E+03  0.53676431668E+03  0.50400001928E-02 0. -1.
        1   -1    0    0  501    0  0.00000000000E+00  0.00000000000E+00 -0.92282098423E+03  0.92282098424E+03  0.50400001928E-02 0.  1.
    10030    2    1    2    0    0  0.00000000000E+00  0.00000000000E+00 -0.38605666757E+03  0.14595853009E+04  0.14076041702E+04 0.  0.
        4    1    3    3  502    0  0.23349076116E+03  0.32733699526E+03 -0.79200019772E+03  0.88821921286E+03  0.12699999809E+01 0.  1.
       -4    1    3    3    0  502 -0.23349076116E+03 -0.32733699526E+03  0.40594353015E+03  0.57136608806E+03  0.12699999809E+01 0. -1.
</event>
<event>
 5   0  0.2195980E-03  0.1142769E+04  0.7818609E-02  0.9164481E-01
        2   -1    0    0  501    0  0.00000000000E+00  0.00000000000E+00  0.11000530935E+04  0.11000530935E+04  0.25500000920E-02 0.  1.
       -2   -1    0    0    0  501  0.00000000000E+00  0.00000000000E+00 -0.29678569204E+03  0.29678569205E+03  0.25500000920E-02 0. -1.
    10030    2    1    2    0    0  0.00000000000E+00  0.00000000000E+00  0.80326740143E+03  0.13968387855E+04  0.11427686006E+04 0.  0.
        4    1    3    3  502    0  0.32975542557E+03 -0.45293453745E+03  0.53878567259E+03  0.77729013231E+03  0.12699999809E+01 0.  1.
       -4    1    3    3    0  502 -0.32975542557E+03  0.45293453745E+03  0.26448172884E+03  0.61954865321E+03  0.12699999809E+01 0. -1.
</event>
<event>
 5   0  0.2083966E-03  0.1373855E+04  0.7818609E-02  0.8972964E-01
        2   -1    0    0  501    0  0.00000000000E+00  0.00000000000E+00  0.16570965440E+04  0.16570965440E+04  0.25500000920E-02 0. -1.
       -2   -1    0    0    0  501  0.00000000000E+00  0.00000000000E+00 -0.28475692156E+03  0.28475692157E+03  0.25500000920E-02 0.  1.
    10030    2    1    2    0    0  0.00000000000E+00  0.00000000000E+00  0.13723396225E+04  0.19418534656E+04  0.13738554664E+04 0.  0.
        1    1    3    3  502    0  0.16542445631E+02  0.66333597584E+03  0.43498615302E+03  0.79341113093E+03  0.50400001928E-02 0.  1.
       -1    1    3    3    0  502 -0.16542445631E+02 -0.66333597584E+03  0.93735346945E+03  0.11484423347E+04  0.50400001928E-02 0. -1.
</event>
<event>
 5   0  0.2190704E-03  0.1357117E+04  0.7818609E-02  0.8985458E-01
        2   -1    0    0  501    0  0.00000000000E+00  0.00000000000E+00  0.50574212849E+03  0.50574212850E+03  0.25500000920E-02 0.  1.
       -2   -1    0    0    0  501  0.00000000000E+00  0.00000000000E+00 -0.91042779329E+03  0.91042779330E+03  0.25500000920E-02 0. -1.
    10030    2    1    2    0    0  0.00000000000E+00  0.00000000000E+00 -0.40468566480E+03  0.14161699218E+04  0.13571170768E+04 0.  0.
        5    1    3    3  502    0  0.30528867429E+03 -0.28016905781E+03 -0.76305410393E+03  0.86831418918E+03  0.46999998093E+01 0.  1.
       -5    1    3    3    0  502 -0.30528867429E+03  0.28016905781E+03  0.35836843912E+03  0.54785573262E+03  0.46999998093E+01 0. -1.
</event>
<event>
 5   0  0.2190704E-03  0.1282398E+04  0.7818609E-02  0.9043641E-01
       -2   -1    0    0    0  501  0.00000000000E+00  0.00000000000E+00  0.29228460657E+03  0.29228460658E+03  0.25500000920E-02 0.  1.
        2   -1    0    0  501    0  0.00000000000E+00  0.00000000000E+00 -0.14066291047E+04  0.14066291047E+04  0.25500000920E-02 0. -1.
    10030    2    1    2    0    0  0.00000000000E+00  0.00000000000E+00 -0.11143444981E+04  0.16989137113E+04  0.12823978080E+04 0.  0.
        5    1    3    3  502    0  0.10783203374E+03  0.61307641031E+03 -0.35355208337E+03  0.71589915354E+03  0.46999998093E+01 0. -1.
       -5    1    3    3    0  502 -0.10783203374E+03 -0.61307641031E+03 -0.76079241474E+03  0.98301455773E+03  0.46999998093E+01 0.  1.
</event>
<event>
 5   0  0.2190704E-03  0.1299955E+04  0.7818609E-02  0.9029601E-01
        2   -1    0    0  501    0  0.00000000000E+00  0.00000000000E+00  0.13471974141E+04  0.13471974141E+04  0.25500000920E-02 0. -1.
       -2   -1    0    0    0  501  0.00000000000E+00  0.00000000000E+00 -0.31359225578E+03  0.31359225579E+03  0.25500000920E-02 0.  1.
    10030    2    1    2    0    0  0.00000000000E+00  0.00000000000E+00  0.10336051583E+04  0.16607896699E+04  0.12999548855E+04 0.  0.
        5    1    3    3  502    0  0.26521487880E+03 -0.24300144487E+03 -0.17481271947E+03  0.39996276206E+03  0.46999998093E+01 0.  1.
       -5    1    3    3    0  502 -0.26521487880E+03  0.24300144487E+03  0.12084178778E+04  0.12608269078E+04  0.46999998093E+01 0. -1.
</event>
<event>
 5   0  0.1199720E-03  0.1424936E+04  0.7818609E-02  0.8935964E-01
       -1   -1    0    0    0  501  0.00000000000E+00  0.00000000000E+00  0.93873794009E+03  0.93873794011E+03  0.50400001928E-02 0. -1.
        1   -1    0    0  501    0  0.00000000000E+00  0.00000000000E+00 -0.54073728583E+03  0.54073728585E+03  0.50400001928E-02 0.  1.
    10030    2    1    2    0    0  0.00000000000E+00  0.00000000000E+00  0.39800065427E+03  0.14794752260E+04  0.14249359366E+04 0.  0.
        5    1    3    3  502    0  0.27443929337E+03 -0.63971777326E+03  0.41426038392E+02  0.69734780549E+03  0.46999998093E+01 0.  1.
       -5    1    3    3    0  502 -0.27443929337E+03  0.63971777326E+03  0.35657461588E+03  0.78212742047E+03  0.46999998093E+01 0. -1.
</event>
<event>
 5   0  0.2083966E-03  0.1400329E+04  0.7818609E-02  0.8953581E-01
       -2   -1    0    0    0  501  0.00000000000E+00  0.00000000000E+00  0.55447422783E+03  0.55447422784E+03  0.25500000920E-02 0. -1.
        2   -1    0    0  501    0  0.00000000000E+00  0.00000000000E+00 -0.88413507812E+03  0.88413507812E+03  0.25500000920E-02 0.  1.
    10030    2    1    2    0    0  0.00000000000E+00  0.00000000000E+00 -0.32966085029E+03  0.14386093060E+04  0.14003286968E+04 0.  0.
        1    1    3    3  502    0  0.47731461733E+03 -0.40669915223E+03 -0.48478718466E+03  0.79262352904E+03  0.50400001928E-02 0.  1.
       -1    1    3    3    0  502 -0.47731461733E+03  0.40669915223E+03  0.15512633438E+03  0.64598577692E+03  0.50400001928E-02 0. -1.
</event>
<event>
 5   0  0.1238683E-03  0.1402421E+04  0.7818609E-02  0.8952068E-01
       -1   -1    0    0    0  501  0.00000000000E+00  0.00000000000E+00  0.50701677390E+03  0.50701677393E+03  0.50400001928E-02 0.  1.
        1   -1    0    0  501    0  0.00000000000E+00  0.00000000000E+00 -0.96978317625E+03  0.96978317626E+03  0.50400001928E-02 0. -1.
    10030    2    1    2    0    0  0.00000000000E+00  0.00000000000E+00 -0.46276640234E+03  0.14767999502E+04  0.14024212455E+04 0.  0.
        2    1    3    3  502    0  0.50685236076E+01 -0.48101567819E+03  0.30586594827E+03  0.57004890221E+03  0.25500000920E-02 0.  1.
       -2    1    3    3    0  502 -0.50685236076E+01  0.48101567819E+03 -0.76863235061E+03  0.90675104798E+03  0.25500000920E-02 0. -1.
</event>
<event>
 5   0  0.1238683E-03  0.1417678E+04  0.7818609E-02  0.8941121E-01
        1   -1    0    0  501    0  0.00000000000E+00  0.00000000000E+00  0.16278765851E+04  0.16278765851E+04  0.50400001928E-02 0.  1.
       -1   -1    0    0    0  501  0.00000000000E+00  0.00000000000E+00 -0.30865508172E+03  0.30865508176E+03  0.50400001928E-02 0. -1.
    10030    2    1    2    0    0  0.00000000000E+00  0.00000000000E+00  0.13192215034E+04  0.19365316669E+04  0.14176775098E+04 0.  0.
        2    1    3    3  502    0  0.15342661765E+03 -0.24001197044E+03  0.15462489612E+04  0.15722694817E+04  0.25500000920E-02 0.  1.
       -2    1    3    3    0  502 -0.15342661765E+03  0.24001197044E+03 -0.22702745782E+03  0.36426218520E+03  0.25500000920E-02 0. -1.
</event>
<event>
 5   0  0.1175374E-03  0.1414393E+04  0.7818609E-02  0.8943465E-01
       -1   -1    0    0    0  501  0.00000000000E+00  0.00000000000E+00  0.74757485673E+03  0.74757485675E+03  0.50400001928E-02 0.  1.
        1   -1    0    0  501    0  0.00000000000E+00  0.00000000000E+00 -0.66899923629E+03  0.66899923631E+03  0.50400001928E-02 0. -1.
    10030    2    1    2    0    0  0.00000000000E+00  0.00000000000E+00  0.78575620444E+02  0.14165740931E+04  0.14143931678E+04 0.  0.
        3    1    3    3  502    0  0.16786308355E+02  0.50788390199E+02  0.74554587831E+03  0.74746231182E+03  0.10100000352E+00 0.  1.
       -3    1    3    3    0  502 -0.16786308355E+02 -0.50788390199E+02 -0.66697025786E+03  0.66911178124E+03  0.10100000352E+00 0. -1.
</event>
<event>
 5   0  0.2083966E-03  0.1399909E+04  0.7818609E-02  0.8953884E-01
       -2   -1    0    0    0  501  0.00000000000E+00  0.00000000000E+00  0.26150942315E+03  0.26150942316E+03  0.25500000920E-02 0. -1.
        2   -1    0    0  501    0  0.00000000000E+00  0.00000000000E+00 -0.18734950030E+04  0.18734950030E+04  0.25500000920E-02 0.  1.
    10030    2    1    2    0    0  0.00000000000E+00  0.00000000000E+00 -0.16119855799E+04  0.21350044262E+04  0.13999094221E+04 0.  0.
        1    1    3    3  502    0  0.35119230898E+03 -0.58761255302E+03 -0.10286370110E+04  0.12356045690E+04  0.50400001928E-02 0.  1.
       -1    1    3    3    0  502 -0.35119230898E+03  0.58761255302E+03 -0.58334856884E+03  0.89939985721E+03  0.50400001928E-02 0. -1.
</event>
<event>
 5   0  0.1225690E-03  0.1389986E+04  0.7818609E-02  0.8961099E-01
        1   -1    0    0  501    0  0.00000000000E+00  0.00000000000E+00  0.12989158204E+04  0.12989158204E+04  0.50400001928E-02 0.  1.
       -1   -1    0    0    0  501  0.00000000000E+00  0.00000000000E+00 -0.37186041403E+03  0.37186041407E+03  0.50400001928E-02 0. -1.
    10030    2    1    2    0    0  0.00000000000E+00  0.00000000000E+00  0.92705540640E+03  0.16707762345E+04  0.13899861507E+04 0.  0.
        4    1    3    3  502    0 -0.57795752258E+03  0.26610920671E+03  0.79958497630E+03  0.10218545665E+04  0.12699999809E+01 0.  1.
       -4    1    3    3    0  502  0.57795752258E+03 -0.26610920671E+03  0.12747043010E+03  0.64892166804E+03  0.12699999809E+01 0. -1.
</event>
<event>
 5   0  0.1225690E-03  0.1388324E+04  0.7818609E-02  0.8962314E-01
        1   -1    0    0  501    0  0.00000000000E+00  0.00000000000E+00  0.16077176223E+04  0.16077176223E+04  0.50400001928E-02 0.  1.
       -1   -1    0    0    0  501  0.00000000000E+00  0.00000000000E+00 -0.29971748412E+03  0.29971748416E+03  0.50400001928E-02 0. -1.
    10030    2    1    2    0    0  0.00000000000E+00  0.00000000000E+00  0.13080001382E+04  0.19074351065E+04  0.13883242863E+04 0.  0.
        4    1    3    3  502    0  0.34360401274E+03 -0.12227080958E+03  0.14654756869E+04  0.15101769665E+04  0.12699999809E+01 0.  1.
       -4    1    3    3    0  502 -0.34360401274E+03  0.12227080958E+03 -0.15747554868E+03  0.39725813998E+03  0.12699999809E+01 0. -1.
</event>
<event>
 5   0  0.1199720E-03  0.1431611E+04  0.7818609E-02  0.8931249E-01
        1   -1    0    0  501    0  0.00000000000E+00  0.00000000000E+00  0.84272900780E+03  0.84272900782E+03  0.50400001928E-02 0.  1.
       -1   -1    0    0    0  501  0.00000000000E+00  0.00000000000E+00 -0.60799830883E+03  0.60799830885E+03  0.50400001928E-02 0. -1.
    10030    2    1    2    0    0  0.00000000000E+00  0.00000000000E+00  0.23473069898E+03  0.14507273167E+04  0.14316114160E+04 0.  0.
        5    1    3    3  502    0  0.68312584251E+03  0.12885924747E+03  0.29020096357E+03  0.75332882038E+03  0.46999998093E+01 0.  1.
       -5    1    3    3    0  502 -0.68312584251E+03 -0.12885924747E+03 -0.55470264595E+02  0.69739849628E+03  0.46999998093E+01 0. -1.
</event>
<event>
 5   0  0.2172901E-03  0.1363197E+04  0.7818609E-02  0.8980898E-01
       -2   -1    0    0    0  501  0.00000000000E+00  0.00000000000E+00  0.25661128003E+03  0.25661128004E+03  0.25500000920E-02 0.  1.
        2   -1    0    0  501    0  0.00000000000E+00  0.00000000000E+00 -0.18104285727E+04  0.18104285727E+04  0.25500000920E-02 0. -1.
    10030    2    1    2    0    0  0.00000000000E+00  0.00000000000E+00 -0.15538172927E+04  0.20670398527E+04  0.13631968214E+04 0.  0.
        2    1    3    3  502    0 -0.16759509754E+03 -0.64417118536E+03 -0.99940866779E+03  0.12007757151E+04  0.25500000920E-02 0.  1.
       -2    1    3    3    0  502  0.16759509754E+03  0.64417118536E+03 -0.55440862487E+03  0.86626413761E+03  0.25500000920E-02 0. -1.
</event>
<event>
 5   0  0.2195980E-03  0.1398518E+04  0.7818609E-02  0.8954892E-01
        2   -1    0    0  501    0  0.00000000000E+00  0.00000000000E+00  0.15166821878E+04  0.15166821878E+04  0.25500000920E-02 0.  1.
       -2   -1    0    0    0  501  0.00000000000E+00  0.00000000000E+00 -0.32239018078E+03  0.32239018079E+03  0.25500000920E-02 0. -1.
    10030    2    1    2    0    0  0.00000000000E+00  0.00000000000E+00  0.11942920070E+04  0.18390723686E+04  0.13985184228E+04 0.  0.
        4    1    3    3  502    0 -0.53606773510E+03 -0.44098686033E+03  0.48615529714E+03  0.84745891548E+03  0.12699999809E+01 0. -1.
       -4    1    3    3    0  502  0.53606773510E+03  0.44098686033E+03  0.70813670990E+03  0.99161345312E+03  0.12699999809E+01 0.  1.
</event>
<event>
 5   0  0.2190704E-03  0.1396231E+04  0.7818609E-02  0.8956551E-01
        2   -1    0    0  501    0  0.00000000000E+00  0.00000000000E+00  0.11775126279E+04  0.11775126279E+04  0.25500000920E-02 0. -1.
       -2   -1    0    0    0  501  0.00000000000E+00  0.00000000000E+00 -0.41389393352E+03  0.41389393352E+03  0.25500000920E-02 0.  1.
    10030    2    1    2    0    0  0.00000000000E+00  0.00000000000E+00  0.76361869438E+03  0.15914065614E+04  0.13962311174E+04 0.  0.
        5    1    3    3  502    0  0.19183840755E+03  0.18254673249E+03 -0.35440678355E+03  0.44243817916E+03  0.46999998093E+01 0.  1.
       -5    1    3    3    0  502 -0.19183840755E+03 -0.18254673249E+03  0.11180254779E+04  0.11489683823E+04  0.46999998093E+01 0. -1.
</event>
<event>
 5   0  0.2236184E-03  0.1399303E+04  0.7818609E-02  0.8954323E-01
       -2   -1    0    0    0  501  0.00000000000E+00  0.00000000000E+00  0.18686024728E+03  0.18686024730E+03  0.25500000920E-02 0.  1.
        2   -1    0    0  501    0  0.00000000000E+00  0.00000000000E+00 -0.26196691011E+04  0.26196691011E+04  0.25500000920E-02 0. -1.
    10030    2    1    2    0    0  0.00000000000E+00  0.00000000000E+00 -0.24328088539E+04  0.28065293484E+04  0.13993027064E+04 0.  0.
        3    1    3    3  502    0  0.47088529841E+03 -0.25399031356E+03 -0.31214638326E+03  0.61941861323E+03  0.10100000352E+00 0.  1.
       -3    1    3    3    0  502 -0.47088529841E+03  0.25399031356E+03 -0.21206624706E+04  0.21871107352E+04  0.10100000352E+00 0. -1.
</event>
<event>
 5   0  0.2190704E-03  0.1410518E+04  0.7818609E-02  0.8946240E-01
        2   -1    0    0  501    0  0.00000000000E+00  0.00000000000E+00  0.67027590501E+03  0.67027590502E+03  0.25500000920E-02 0.  1.
       -2   -1    0    0    0  501  0.00000000000E+00  0.00000000000E+00 -0.74206829476E+03  0.74206829476E+03  0.25500000920E-02 0. -1.
    10030    2    1    2    0    0  0.00000000000E+00  0.00000000000E+00 -0.71792389748E+02  0.14123441998E+04  0.14105183414E+04 0.  0.
        5    1    3    3  502    0  0.49984743502E+03 -0.31367999376E+03 -0.42256418618E+03  0.72582723717E+03  0.46999998093E+01 0. -1.
       -5    1    3    3    0  502 -0.49984743502E+03  0.31367999376E+03  0.35077179643E+03  0.68651696261E+03  0.46999998093E+01 0.  1.
</event>
<event>
 5   0  0.2172901E-03  0.1399224E+04  0.7818609E-02  0.8954381E-01
        2   -1    0    0  501    0  0.00000000000E+00  0.00000000000E+00  0.13360711368E+04  0.13360711368E+04  0.25500000920E-02 0. -1.
       -2   -1    0    0    0  501  0.00000000000E+00  0.00000000000E+00 -0.36634038774E+03  0.36634038775E+03  0.25500000920E-02 0.  1.
    10030    2    1    2    0    0  0.00000000000E+00  0.00000000000E+00  0.96973074909E+03  0.17024115246E+04  0.13992238110E+04 0.  0.
        2    1    3    3  502    0  0.98597348223E+01  0.53721732744E+03 -0.60280677427E+02  0.54067867662E+03  0.25500000920E-02 0.  1.
       -2    1    3    3    0  502 -0.98597348223E+01 -0.53721732744E+03  0.10300114265E+04  0.11617328480E+04  0.25500000920E-02 0. -1.
</event>
<event>
 5   0  0.1210275E-03  0.1399628E+04  0.7818609E-02  0.8954088E-01
        1   -1    0    0  501    0  0.00000000000E+00  0.00000000000E+00  0.10129933028E+04  0.10129933029E+04  0.50400001928E-02 0. -1.
       -1   -1    0    0    0  501  0.00000000000E+00  0.00000000000E+00 -0.48345787313E+03  0.48345787316E+03  0.50400001928E-02 0.  1.
    10030    2    1    2    0    0  0.00000000000E+00  0.00000000000E+00  0.52953542971E+03  0.14964511760E+04  0.13996279330E+04 0.  0.
        1    1    3    3  502    0 -0.14969321447E+03  0.48690344879E+03  0.77781330306E+03  0.92977231694E+03  0.50400001928E-02 0. -1.
       -1    1    3    3    0  502  0.14969321447E+03 -0.48690344879E+03 -0.24827787335E+03  0.56667885908E+03  0.50400001928E-02 0.  1.
</event>
<event>
 5   0  0.1225690E-03  0.1368364E+04  0.7818609E-02  0.8977042E-01
        1   -1    0    0  501    0  0.00000000000E+00  0.00000000000E+00  0.13072984993E+04  0.13072984993E+04  0.50400001928E-02 0.  1.
       -1   -1    0    0    0  501  0.00000000000E+00  0.00000000000E+00 -0.35807074348E+03  0.35807074351E+03  0.50400001928E-02 0. -1.
    10030    2    1    2    0    0  0.00000000000E+00  0.00000000000E+00  0.94922775580E+03  0.16653692428E+04  0.13683644918E+04 0.  0.
        4    1    3    3  502    0 -0.23845630165E+03 -0.34699129502E+03  0.11309636492E+04  0.12067910985E+04  0.12699999809E+01 0.  1.
       -4    1    3    3    0  502  0.23845630165E+03  0.34699129502E+03 -0.18173589339E+03  0.45857814434E+03  0.12699999809E+01 0. -1.
</event>
<event>
 5   0  0.2195980E-03  0.1390503E+04  0.7818609E-02  0.8960722E-01
       -2   -1    0    0    0  501  0.00000000000E+00  0.00000000000E+00  0.11987926270E+04  0.11987926270E+04  0.25500000920E-02 0.  1.
        2   -1    0    0  501    0  0.00000000000E+00  0.00000000000E+00 -0.40321797017E+03  0.40321797018E+03  0.25500000920E-02 0. -1.
    10030    2    1    2    0    0  0.00000000000E+00  0.00000000000E+00  0.79557465680E+03  0.16020105971E+04  0.13905031172E+04 0.  0.
        4    1    3    3  502    0  0.16533261129E+03 -0.21469563321E+03 -0.33987176524E+03  0.43467633589E+03  0.12699999809E+01 0. -1.
       -4    1    3    3    0  502 -0.16533261129E+03  0.21469563321E+03  0.11354464220E+04  0.11673342613E+04  0.12699999809E+01 0.  1.
</event>
<event>
 5   0  0.2195980E-03  0.1495732E+04  0.7818609E-02  0.8887296E-01
        2   -1    0    0  501    0  0.00000000000E+00  0.00000000000E+00  0.18683938699E+04  0.18683938699E+04  0.25500000920E-02 0.  1.
       -2   -1    0    0    0  501  0.00000000000E+00  0.00000000000E+00 -0.29934991195E+03  0.29934991196E+03  0.25500000920E-02 0. -1.
    10030    2    1    2    0    0  0.00000000000E+00  0.00000000000E+00  0.15690439580E+04  0.21677437819E+04  0.14957319820E+04 0.  0.
        4    1    3    3  502    0 -0.33939186140E+03  0.37338623135E+03 -0.15475905641E+02  0.50482197843E+03  0.12699999809E+01 0. -1.
       -4    1    3    3    0  502  0.33939186140E+03 -0.37338623135E+03  0.15845198636E+04  0.16629218035E+04  0.12699999809E+01 0.  1.
</event>
<event>
 5   0  0.1238683E-03  0.1392356E+04  0.7818609E-02  0.8959371E-01
        1   -1    0    0  501    0  0.00000000000E+00  0.00000000000E+00  0.68755026131E+03  0.68755026132E+03  0.50400001928E-02 0. -1.
       -1   -1    0    0    0  501  0.00000000000E+00  0.00000000000E+00 -0.70491372860E+03  0.70491372861E+03  0.50400001928E-02 0.  1.
    10030    2    1    2    0    0  0.00000000000E+00  0.00000000000E+00 -0.17363467290E+02  0.13924639899E+04  0.13923557280E+04 0.  0.
        2    1    3    3  502    0 -0.49151148110E+03  0.45685556791E+03 -0.19406894008E+03  0.69854369905E+03  0.25500000920E-02 0.  1.
       -2    1    3    3    0  502  0.49151148110E+03 -0.45685556791E+03  0.17670547279E+03  0.69392029088E+03  0.25500000920E-02 0. -1.
</event>
<event>
 5   0  0.8293000E-04  0.1399677E+04  0.7818609E-02  0.8954052E-01
        4   -1    0    0  501    0  0.00000000000E+00  0.00000000000E+00  0.40869975939E+03  0.40870173259E+03  0.12699999809E+01 0. -1.
       -4   -1    0    0    0  501  0.00000000000E+00  0.00000000000E+00 -0.11983659815E+04  0.11983666545E+04  0.12699999809E+01 0.  1.
    10030    2    1    2    0    0  0.00000000000E+00  0.00000000000E+00 -0.78966622211E+03  0.16070683870E+04  0.13996771264E+04 0.  0.
        5    1    3    3  502    0 -0.42410711429E+03 -0.27125347470E+03  0.16330856020E+03  0.52927976322E+03  0.46999998093E+01 0. -1.
       -5    1    3    3    0  502  0.42410711429E+03  0.27125347470E+03 -0.95297478231E+03  0.10777886238E+04  0.46999998093E+01 0.  1.
</event>
<event>
 5   0  0.2172901E-03  0.1407173E+04  0.7818609E-02  0.8948643E-01
       -2   -1    0    0    0  501  0.00000000000E+00  0.00000000000E+00  0.36634284749E+03  0.36634284749E+03  0.25500000920E-02 0. -1.
        2   -1    0    0  501    0  0.00000000000E+00  0.00000000000E+00 -0.13512855122E+04  0.13512855122E+04  0.25500000920E-02 0.  1.
    10030    2    1    2    0    0  0.00000000000E+00  0.00000000000E+00 -0.98494266474E+03  0.17176283597E+04  0.14071727432E+04 0.  0.
        2    1    3    3  502    0  0.50788546288E+03 -0.22342402682E+03  0.35605853857E+02  0.55599794604E+03  0.25500000920E-02 0.  1.
       -2    1    3    3    0  502 -0.50788546288E+03  0.22342402682E+03 -0.10205485186E+04  0.11616304137E+04  0.25500000920E-02 0. -1.
</event>
<event>
 5   0  0.2236184E-03  0.1410890E+04  0.7818609E-02  0.8945973E-01
       -2   -1    0    0    0  501  0.00000000000E+00  0.00000000000E+00  0.39412743114E+03  0.39412743115E+03  0.25500000920E-02 0.  1.
        2   -1    0    0  501    0  0.00000000000E+00  0.00000000000E+00 -0.12626693759E+04  0.12626693759E+04  0.25500000920E-02 0. -1.
    10030    2    1    2    0    0  0.00000000000E+00  0.00000000000E+00 -0.86854194473E+03  0.16567968070E+04  0.14108899851E+04 0.  0.
        3    1    3    3  502    0  0.47825543297E+03  0.83944510380E+02 -0.10352029939E+04  0.11434247631E+04  0.10100000352E+00 0. -1.
       -3    1    3    3    0  502 -0.47825543297E+03 -0.83944510380E+02  0.16666104919E+03  0.51337204395E+03  0.10100000352E+00 0.  1.
</event>
<event>
 5   0  0.2172901E-03  0.1421385E+04  0.7818609E-02  0.8938483E-01
        2   -1    0    0  501    0  0.00000000000E+00  0.00000000000E+00  0.78621016544E+03  0.78621016545E+03  0.25500000920E-02 0. -1.
       -2   -1    0    0    0  501  0.00000000000E+00  0.00000000000E+00 -0.64242832135E+03  0.64242832136E+03  0.25500000920E-02 0.  1.
    10030    2    1    2    0    0  0.00000000000E+00  0.00000000000E+00  0.14378184409E+03  0.14286384868E+04  0.14213847851E+04 0.  0.
        2    1    3    3  502    0  0.78741629459E+01  0.65499397887E+03  0.34898708605E+03  0.74220691255E+03  0.25500000920E-02 0.  1.
       -2    1    3    3    0  502 -0.78741629459E+01 -0.65499397887E+03 -0.20520524196E+03  0.68643157426E+03  0.25500000920E-02 0. -1.
</event>
<event>
 5   0  0.2083966E-03  0.1395290E+04  0.7818609E-02  0.8957235E-01
        2   -1    0    0  501    0  0.00000000000E+00  0.00000000000E+00  0.58856243947E+03  0.58856243948E+03  0.25500000920E-02 0.  1.
       -2   -1    0    0    0  501  0.00000000000E+00  0.00000000000E+00 -0.82694464013E+03  0.82694464013E+03  0.25500000920E-02 0. -1.
    10030    2    1    2    0    0  0.00000000000E+00  0.00000000000E+00 -0.23838220065E+03  0.14155070796E+04  0.13952900124E+04 0.  0.
        1    1    3    3  502    0  0.52015483886E+03 -0.32813237805E+03  0.21493905622E+03  0.65148347011E+03  0.50400001928E-02 0.  1.
       -1    1    3    3    0  502 -0.52015483886E+03  0.32813237805E+03 -0.45332125688E+03  0.76402360950E+03  0.50400001928E-02 0. -1.
</event>
<event>
 5   0  0.1175374E-03  0.1376682E+04  0.7818609E-02  0.8970872E-01
        1   -1    0    0  501    0  0.00000000000E+00  0.00000000000E+00  0.10435422128E+04  0.10435422128E+04  0.50400001928E-02 0.  1.
       -1   -1    0    0    0  501  0.00000000000E+00  0.00000000000E+00 -0.45404344664E+03  0.45404344666E+03  0.50400001928E-02 0. -1.
    10030    2    1    2    0    0  0.00000000000E+00  0.00000000000E+00  0.58949876613E+03  0.14975856594E+04  0.13766822481E+04 0.  0.
        3    1    3    3  502    0 -0.26481746545E+03  0.60200428950E+02 -0.39330240657E+03  0.47795310949E+03  0.10100000352E+00 0. -1.
       -3    1    3    3    0  502  0.26481746545E+03 -0.60200428950E+02  0.98280117271E+03  0.10196325500E+04  0.10100000352E+00 0.  1.
</event>
<event>
 5   0  0.2190704E-03  0.1443654E+04  0.7818609E-02  0.8922812E-01
        2   -1    0    0  501    0  0.00000000000E+00  0.00000000000E+00  0.18941562967E+04  0.18941562967E+04  0.25500000920E-02 0. -1.
       -2   -1    0    0    0  501  0.00000000000E+00  0.00000000000E+00 -0.27507473162E+03  0.27507473163E+03  0.25500000920E-02 0.  1.
    10030    2    1    2    0    0  0.00000000000E+00  0.00000000000E+00  0.16190815651E+04  0.21692310283E+04  0.14436544392E+04 0.  0.
        5    1    3    3  502    0 -0.34808208823E+03  0.34621800788E+03  0.16046182966E+04  0.16780494680E+04  0.46999998093E+01 0. -1.
       -5    1    3    3    0  502  0.34808208823E+03 -0.34621800788E+03  0.14463268483E+02  0.49118156038E+03  0.46999998093E+01 0.  1.
</event>
<event>
 5   0  0.2195980E-03  0.1409531E+04  0.7818609E-02  0.8946948E-01
        2   -1    0    0  501    0  0.00000000000E+00  0.00000000000E+00  0.10225515336E+04  0.10225515336E+04  0.25500000920E-02 0.  1.
       -2   -1    0    0    0  501  0.00000000000E+00  0.00000000000E+00 -0.48574011548E+03  0.48574011549E+03  0.25500000920E-02 0. -1.
    10030    2    1    2    0    0  0.00000000000E+00  0.00000000000E+00  0.53681141808E+03  0.15082916490E+04  0.14095308439E+04 0.  0.
        4    1    3    3  502    0  0.78822121935E+02 -0.70004753981E+03  0.24665406675E+03  0.74640426476E+03  0.12699999809E+01 0. -1.
       -4    1    3    3    0  502 -0.78822121935E+02  0.70004753981E+03  0.29015735133E+03  0.76188738429E+03  0.12699999809E+01 0.  1.
</event>
<event>
 5   0  0.2172901E-03  0.1357567E+04  0.7818609E-02  0.8985120E-01
        2   -1    0    0  501    0  0.00000000000E+00  0.00000000000E+00  0.11916337718E+04  0.11916337718E+04  0.25500000920E-02 0. -1.
       -2   -1    0    0    0  501  0.00000000000E+00  0.00000000000E+00 -0.38665142794E+03  0.38665142795E+03  0.25500000920E-02 0.  1.
    10030    2    1    2    0    0  0.00000000000E+00  0.00000000000E+00  0.80498234381E+03  0.15782851997E+04  0.13575667931E+04 0.  0.
        2    1    3    3  502    0 -0.11115221425E+03 -0.63547122631E+03  0.15705542037E+03  0.66396151943E+03  0.25500000920E-02 0.  1.
       -2    1    3    3    0  502  0.11115221425E+03  0.63547122631E+03  0.64792692344E+03  0.91432368028E+03  0.25500000920E-02 0. -1.
</event>
<event>
 5   0  0.1175374E-03  0.1392033E+04  0.7818609E-02  0.8959605E-01
        1   -1    0    0  501    0  0.00000000000E+00  0.00000000000E+00  0.11545704204E+04  0.11545704204E+04  0.50400001928E-02 0.  1.
       -1   -1    0    0    0  501  0.00000000000E+00  0.00000000000E+00 -0.41958398333E+03  0.41958398336E+03  0.50400001928E-02 0. -1.
    10030    2    1    2    0    0  0.00000000000E+00  0.00000000000E+00  0.73498643706E+03  0.15741544038E+04  0.13920334135E+04 0.  0.
        3    1    3    3  502    0 -0.25983858585E+03 -0.63654221020E+03  0.24498101190E+03  0.72987518279E+03  0.10100000352E+00 0. -1.
       -3    1    3    3    0  502  0.25983858585E+03  0.63654221020E+03  0.49000542516E+03  0.84427922096E+03  0.10100000352E+00 0.  1.
</event>
<event>
 5   0  0.1199720E-03  0.1405200E+04  0.7818609E-02  0.8950063E-01
        1   -1    0    0  501    0  0.00000000000E+00  0.00000000000E+00  0.63316349761E+03  0.63316349763E+03  0.50400001928E-02 0. -1.
       -1   -1    0    0    0  501  0.00000000000E+00  0.00000000000E+00 -0.77965169828E+03  0.77965169830E+03  0.50400001928E-02 0.  1.
    10030    2    1    2    0    0  0.00000000000E+00  0.00000000000E+00 -0.14648820067E+03  0.14128151959E+04  0.14052003362E+04 0.  0.
        5    1    3    3  502    0 -0.23545576346E+03 -0.49769971130E+03  0.36556169919E+03  0.66090987668E+03  0.46999998093E+01 0. -1.
       -5    1    3    3    0  502  0.23545576346E+03  0.49769971130E+03 -0.51204989986E+03  0.75190531925E+03  0.46999998093E+01 0.  1.
</event>
<event>
 5   0  0.2083966E-03  0.1405495E+04  0.7818609E-02  0.8949850E-01
        2   -1    0    0  501    0  0.00000000000E+00  0.00000000000E+00  0.70984612955E+03  0.70984612956E+03  0.25500000920E-02 0. -1.
       -2   -1    0    0    0  501  0.00000000000E+00  0.00000000000E+00 -0.69572018915E+03  0.69572018915E+03  0.25500000920E-02 0.  1.
    10030    2    1    2    0    0  0.00000000000E+00  0.00000000000E+00  0.14125940406E+02  0.14055663187E+04  0.14054953341E+04 0.  0.
        1    1    3    3  502    0  0.41347329672E+03 -0.44267420914E+03  0.36335846958E+03  0.70636392884E+03  0.50400001928E-02 0. -1.
       -1    1    3    3    0  502 -0.41347329672E+03  0.44267420914E+03 -0.34923252917E+03  0.69920238986E+03  0.50400001928E-02 0.  1.
</event>
<event>
 5   0  0.2190704E-03  0.1358628E+04  0.7818609E-02  0.8984322E-01
        2   -1    0    0  501    0  0.00000000000E+00  0.00000000000E+00  0.16188413459E+04  0.16188413459E+04  0.25500000920E-02 0. -1.
       -2   -1    0    0    0  501  0.00000000000E+00  0.00000000000E+00 -0.28506053364E+03  0.28506053365E+03  0.25500000920E-02 0.  1.
    10030    2    1    2    0    0  0.00000000000E+00  0.00000000000E+00  0.13337808123E+04  0.19039018796E+04  0.13586283936E+04 0.  0.
        5    1    3    3  502    0 -0.34297605429E+02 -0.21576578991E+03 -0.23446120636E+03  0.32050795485E+03  0.46999998093E+01 0.  1.
       -5    1    3    3    0  502  0.34297605429E+02  0.21576578991E+03  0.15682420186E+04  0.15833939247E+04  0.46999998093E+01 0. -1.
</event>
<event>
 5   0  0.2190704E-03  0.1404442E+04  0.7818609E-02  0.8950610E-01
       -2   -1    0    0    0  501  0.00000000000E+00  0.00000000000E+00  0.39688082646E+03  0.39688082646E+03  0.25500000920E-02 0.  1.
        2   -1    0    0  501    0  0.00000000000E+00  0.00000000000E+00 -0.12424743302E+04  0.12424743302E+04  0.25500000920E-02 0. -1.
    10030    2    1    2    0    0  0.00000000000E+00  0.00000000000E+00 -0.84559350375E+03  0.16393551567E+04  0.14044418664E+04 0.  0.
        5    1    3    3  502    0 -0.31055684913E+02 -0.23259893027E+03 -0.11953331434E+04  0.12181585002E+04  0.46999998093E+01 0. -1.
       -5    1    3    3    0  502  0.31055684913E+02  0.23259893027E+03  0.34973963961E+03  0.42119665650E+03  0.46999998093E+01 0.  1.
</event>
<event>
 5   0  0.1225690E-03  0.1286698E+04  0.7818609E-02  0.9040181E-01
        1   -1    0    0  501    0  0.00000000000E+00  0.00000000000E+00  0.59282947784E+03  0.59282947786E+03  0.50400001928E-02 0. -1.
       -1   -1    0    0    0  501  0.00000000000E+00  0.00000000000E+00 -0.69817376237E+03  0.69817376239E+03  0.50400001928E-02 0.  1.
    10030    2    1    2    0    0  0.00000000000E+00  0.00000000000E+00 -0.10534428453E+03  0.12910032402E+04  0.12866980796E+04 0.  0.
        4    1    3    3  502    0  0.49883417733E+03 -0.14232039459E+03  0.32913458180E+03  0.61434665868E+03  0.12699999809E+01 0. -1.
       -4    1    3    3    0  502 -0.49883417733E+03  0.14232039459E+03 -0.43447886633E+03  0.67665658157E+03  0.12699999809E+01 0.  1.
</event>
<event>
 5   0  0.1225690E-03  0.1407001E+04  0.7818609E-02  0.8948766E-01
        1   -1    0    0  501    0  0.00000000000E+00  0.00000000000E+00  0.55721247771E+03  0.55721247773E+03  0.50400001928E-02 0. -1.
       -1   -1    0    0    0  501  0.00000000000E+00  0.00000000000E+00 -0.88819467463E+03  0.88819467465E+03  0.50400001928E-02 0.  1.
    10030    2    1    2    0    0  0.00000000000E+00  0.00000000000E+00 -0.33098219692E+03  0.14454071524E+04  0.14070012869E+04 0.  0.
        4    1    3    3  502    0  0.37920087971E+03  0.58307296202E+03 -0.57043659286E+02  0.69787031616E+03  0.12699999809E+01 0. -1.
       -4    1    3    3    0  502 -0.37920087971E+03 -0.58307296202E+03 -0.27393853764E+03  0.74753683622E+03  0.12699999809E+01 0.  1.
</event>
<event>
 5   0  0.1238683E-03  0.1407756E+04  0.7818609E-02  0.8948223E-01
        1   -1    0    0  501    0  0.00000000000E+00  0.00000000000E+00  0.80045800891E+03  0.80045800893E+03  0.50400001928E-02 0. -1.
       -1   -1    0    0    0  501  0.00000000000E+00  0.00000000000E+00 -0.61895121503E+03  0.61895121505E+03  0.50400001928E-02 0.  1.
    10030    2    1    2    0    0  0.00000000000E+00  0.00000000000E+00  0.18150679388E+03  0.14194092240E+04  0.14077563102E+04 0.  0.
        2    1    3    3  502    0 -0.58351144946E+03 -0.37296270878E+03 -0.36216199243E+02  0.69346838925E+03  0.25500000920E-02 0.  1.
       -2    1    3    3    0  502  0.58351144946E+03  0.37296270878E+03  0.21772299312E+03  0.72594083473E+03  0.25500000920E-02 0. -1.
</event>
<event>
 5   0  0.2083966E-03  0.1384295E+04  0.7818609E-02  0.8965266E-01
       -2   -1    0    0    0  501  0.00000000000E+00  0.00000000000E+00  0.21509922390E+03  0.21509922391E+03  0.25500000920E-02 0.  1.
        2   -1    0    0  501    0  0.00000000000E+00  0.00000000000E+00 -0.22271967399E+04  0.22271967399E+04  0.25500000920E-02 0. -1.
    10030    2    1    2    0    0  0.00000000000E+00  0.00000000000E+00 -0.20120975160E+04  0.24422959638E+04  0.13842951856E+04 0.  0.
        1    1    3    3  502    0  0.25193379072E+03  0.19671289315E+03  0.77088829990E+02  0.32879976425E+03  0.50400001928E-02 0.  1.
       -1    1    3    3    0  502 -0.25193379072E+03 -0.19671289315E+03 -0.20891863460E+04  0.21134961995E+04  0.50400001928E-02 0. -1.
</event>
<event>
 5   0  0.2190704E-03  0.1345782E+04  0.7818609E-02  0.8994027E-01
        2   -1    0    0  501    0  0.00000000000E+00  0.00000000000E+00  0.64816324499E+03  0.64816324500E+03  0.25500000920E-02 0. -1.
       -2   -1    0    0    0  501  0.00000000000E+00  0.00000000000E+00 -0.69856215472E+03  0.69856215472E+03  0.25500000920E-02 0.  1.
    10030    2    1    2    0    0  0.00000000000E+00  0.00000000000E+00 -0.50398909724E+02  0.13467253997E+04  0.13457820225E+04 0.  0.
        5    1    3    3  502    0 -0.40575188442E+03 -0.43807577801E+03 -0.33560271325E+03  0.68497901437E+03  0.46999998093E+01 0.  1.
       -5    1    3    3    0  502  0.40575188442E+03  0.43807577801E+03  0.28520380352E+03  0.66174638535E+03  0.46999998093E+01 0. -1.
</event>
<event>
 5   0  0.2236184E-03  0.1383483E+04  0.7818609E-02  0.8965862E-01
       -2   -1    0    0    0  501  0.00000000000E+00  0.00000000000E+00  0.35311863540E+03  0.35311863541E+03  0.25500000920E-02 0.  1.
        2   -1    0    0  501    0  0.00000000000E+00  0.00000000000E+00 -0.13550874786E+04  0.13550874786E+04  0.25500000920E-02 0. -1.
    10030    2    1    2    0    0  0.00000000000E+00  0.00000000000E+00 -0.10019688432E+04  0.17082061140E+04  0.13834834893E+04 0.  0.
        3    1    3    3  502    0  0.18165230865E+03  0.48639594754E+03  0.63386551608E+02  0.52306447418E+03  0.10100000352E+00 0.  1.
       -3    1    3    3    0  502 -0.18165230865E+03 -0.48639594754E+03 -0.10653553948E+04  0.11851416398E+04  0.10100000352E+00 0. -1.
</event>
<event>
 5   0  0.1225690E-03  0.1194044E+04  0.7818609E-02  0.9118086E-01
        1   -1    0    0  501    0  0.00000000000E+00  0.00000000000E+00  0.71809071965E+03  0.71809071966E+03  0.50400001928E-02 0.  1.
       -1   -1    0    0    0  501  0.00000000000E+00  0.00000000000E+00 -0.49636526022E+03  0.49636526024E+03  0.50400001928E-02 0. -1.
    10030    2    1    2    0    0  0.00000000000E+00  0.00000000000E+00  0.22172545943E+03  0.12144559799E+04  0.11940440309E+04 0.  0.
        4    1    3    3  502    0  0.16149659316E+03  0.28307743486E+03  0.61963352866E+03  0.70011520942E+03  0.12699999809E+01 0.  1.
       -4    1    3    3    0  502 -0.16149659316E+03 -0.28307743486E+03 -0.39790806923E+03  0.51434077048E+03  0.12699999809E+01 0. -1.
</event>
<event>
 5   0  0.2083966E-03  0.1386015E+04  0.7818609E-02  0.8964004E-01
        2   -1    0    0  501    0  0.00000000000E+00  0.00000000000E+00  0.13417491803E+04  0.13417491803E+04  0.25500000920E-02 0. -1.
       -2   -1    0    0    0  501  0.00000000000E+00  0.00000000000E+00 -0.35793549790E+03  0.35793549791E+03  0.25500000920E-02 0.  1.
    10030    2    1    2    0    0  0.00000000000E+00  0.00000000000E+00  0.98381368244E+03  0.16996846782E+04  0.13860153837E+04 0.  0.
        1    1    3    3  502    0  0.41194988042E+03  0.36794988974E+03 -0.21344354746E+02  0.55276161846E+03  0.50400001928E-02 0.  1.
       -1    1    3    3    0  502 -0.41194988042E+03 -0.36794988974E+03  0.10051580372E+04  0.11469230598E+04  0.50400001928E-02 0. -1.
</event>
<event>
 5   0  0.1225690E-03  0.1382198E+04  0.7818609E-02  0.8966806E-01
        1   -1    0    0  501    0  0.00000000000E+00  0.00000000000E+00  0.18479346148E+04  0.18479346148E+04  0.50400001928E-02 0.  1.
       -1   -1    0    0    0  501  0.00000000000E+00  0.00000000000E+00 -0.25846026684E+03  0.25846026689E+03  0.50400001928E-02 0. -1.
    10030    2    1    2    0    0  0.00000000000E+00  0.00000000000E+00  0.15894743480E+04  0.21063948817E+04  0.13821977770E+04 0.  0.
        4    1    3    3  502    0 -0.37307259398E+03 -0.48526128122E+03  0.30575611784E+03  0.68421494278E+03  0.12699999809E+01 0. -1.
       -4    1    3    3    0  502  0.37307259398E+03  0.48526128122E+03  0.12837182301E+04  0.14221799389E+04  0.12699999809E+01 0.  1.
</event>
<event>
 5   0  0.2236184E-03  0.1397922E+04  0.7818609E-02  0.8955324E-01
       -2   -1    0    0    0  501  0.00000000000E+00  0.00000000000E+00  0.25851704644E+03  0.25851704646E+03  0.25500000920E-02 0.  1.
        2   -1    0    0  501    0  0.00000000000E+00  0.00000000000E+00 -0.18898048814E+04  0.18898048814E+04  0.25500000920E-02 0. -1.
    10030    2    1    2    0    0  0.00000000000E+00  0.00000000000E+00 -0.16312878350E+04  0.21483219279E+04  0.13979224246E+04 0.  0.
        3    1    3    3  502    0 -0.60064084859E+03 -0.52786242402E+01 -0.13649265262E+04  0.14912483781E+04  0.10100000352E+00 0. -1.
       -3    1    3    3    0  502  0.60064084859E+03  0.52786242402E+01 -0.26636130874E+03  0.65707354981E+03  0.10100000352E+00 0.  1.
</event>
<event>
 5   0  0.2195980E-03  0.1397667E+04  0.7818609E-02  0.8955509E-01
       -2   -1    0    0    0  501  0.00000000000E+00  0.00000000000E+00  0.22389968378E+03  0.22389968379E+03  0.25500000920E-02 0.  1.
        2   -1    0    0  501    0  0.00000000000E+00  0.00000000000E+00 -0.21811933667E+04  0.21811933667E+04  0.25500000920E-02 0. -1.
    10030    2    1    2    0    0  0.00000000000E+00  0.00000000000E+00 -0.19572936829E+04  0.24050930505E+04  0.13976673497E+04 0.  0.
        4    1    3    3  502    0  0.29909361377E+03  0.44158335427E+03 -0.20159206935E+03  0.57016999561E+03  0.12699999809E+01 0.  1.
       -4    1    3    3    0  502 -0.29909361377E+03 -0.44158335427E+03 -0.17557016135E+04  0.18349230549E+04  0.12699999809E+01 0. -1.
</event>
<event>
 5   0  0.1210275E-03  0.1383785E+04  0.7818609E-02  0.8965640E-01
       -1   -1    0    0    0  501  0.00000000000E+00  0.00000000000E+00  0.81484819721E+03  0.81484819723E+03  0.50400001928E-02 0.  1.
        1   -1    0    0  501    0  0.00000000000E+00  0.00000000000E+00 -0.58749014113E+03  0.58749014116E+03  0.50400001928E-02 0. -1.
    10030    2    1    2    0    0  0.00000000000E+00  0.00000000000E+00  0.22735805608E+03  0.14023383384E+04  0.13837850735E+04 0.  0.
        1    1    3    3  502    0 -0.32123704078E+03  0.58755307459E+03 -0.62733760071E+02  0.67256774864E+03  0.50400001928E-02 0. -1.
       -1    1    3    3    0  502  0.32123704078E+03 -0.58755307459E+03  0.29009181615E+03  0.72977058974E+03  0.50400001928E-02 0.  1.
</event>
<event>
 5   0  0.2083966E-03  0.1373431E+04  0.7818609E-02  0.8973278E-01
        2   -1    0    0  501    0  0.00000000000E+00  0.00000000000E+00  0.92411141942E+03  0.92411141943E+03  0.25500000920E-02 0. -1.
       -2   -1    0    0    0  501  0.00000000000E+00  0.00000000000E+00 -0.51030462729E+03  0.51030462729E+03  0.25500000920E-02 0.  1.
    10030    2    1    2    0    0  0.00000000000E+00  0.00000000000E+00  0.41380679214E+03  0.14344160467E+04  0.13734312265E+04 0.  0.
        1    1    3    3  502    0 -0.13347854055E+03  0.46848918604E+03 -0.29861334532E+03  0.57137428035E+03  0.50400001928E-02 0.  1.
       -1    1    3    3    0  502  0.13347854055E+03 -0.46848918604E+03  0.71242013745E+03  0.86304176637E+03  0.50400001928E-02 0. -1.
</event>
<event>
 5   0  0.1199720E-03  0.1369939E+04  0.7818609E-02  0.8975871E-01
       -1   -1    0    0    0  501  0.00000000000E+00  0.00000000000E+00  0.10990148227E+04  0.10990148227E+04  0.50400001928E-02 0. -1.
        1   -1    0    0  501    0  0.00000000000E+00  0.00000000000E+00 -0.42691233333E+03  0.42691233336E+03  0.50400001928E-02 0.  1.
    10030    2    1    2    0    0  0.00000000000E+00  0.00000000000E+00  0.67210248938E+03  0.15259271561E+04  0.13699386590E+04 0.  0.
        5    1    3    3  502    0 -0.48471160642E+03  0.36301001508E+03  0.69255650230E+03  0.91998815825E+03  0.46999998093E+01 0. -1.
       -5    1    3    3    0  502  0.48471160642E+03 -0.36301001508E+03 -0.20454012927E+02  0.60593899783E+03  0.46999998093E+01 0.  1.
</event>
<event>
 5   0  0.1199720E-03  0.1360384E+04  0.7818609E-02  0.8983005E-01
        1   -1    0    0  501    0  0.00000000000E+00  0.00000000000E+00  0.14499331415E+04  0.14499331415E+04  0.50400001928E-02 0.  1.
       -1   -1    0    0    0  501  0.00000000000E+00  0.00000000000E+00 -0.31909119548E+03  0.31909119552E+03  0.50400001928E-02 0. -1.
    10030    2    1    2    0    0  0.00000000000E+00  0.00000000000E+00  0.11308419460E+04  0.17690243370E+04  0.13603836217E+04 0.  0.
        5    1    3    3  502    0  0.38966874271E+03 -0.17129826681E+03  0.12553050378E+04  0.13255178811E+04  0.46999998093E+01 0.  1.
       -5    1    3    3    0  502 -0.38966874271E+03  0.17129826681E+03 -0.12446309175E+03  0.44350645594E+03  0.46999998093E+01 0. -1.
</event>
<event>
 5   0  0.1225690E-03  0.1244142E+04  0.7818609E-02  0.9075073E-01
       -1   -1    0    0    0  501  0.00000000000E+00  0.00000000000E+00  0.89586407252E+03  0.89586407254E+03  0.50400001928E-02 0.  1.
        1   -1    0    0  501    0  0.00000000000E+00  0.00000000000E+00 -0.43195454181E+03  0.43195454184E+03  0.50400001928E-02 0. -1.
    10030    2    1    2    0    0  0.00000000000E+00  0.00000000000E+00  0.46390953071E+03  0.13278186144E+04  0.12441423632E+04 0.  0.
        4    1    3    3  502    0 -0.16208678764E+03  0.19941163523E+03 -0.37265674926E+03  0.45267183772E+03  0.12699999809E+01 0. -1.
       -4    1    3    3    0  502  0.16208678764E+03 -0.19941163523E+03  0.83656627998E+03  0.87514677665E+03  0.12699999809E+01 0.  1.
</event>
<event>
 5   0  0.1175374E-03  0.1408658E+04  0.7818609E-02  0.8947575E-01
       -1   -1    0    0    0  501  0.00000000000E+00  0.00000000000E+00  0.58139237509E+03  0.58139237511E+03  0.50400001928E-02 0.  1.
        1   -1    0    0  501    0  0.00000000000E+00  0.00000000000E+00 -0.85326119813E+03  0.85326119815E+03  0.50400001928E-02 0. -1.
    10030    2    1    2    0    0  0.00000000000E+00  0.00000000000E+00 -0.27186882305E+03  0.14346535733E+04  0.14086583043E+04 0.  0.
        3    1    3    3  502    0 -0.20407682967E+03 -0.46999253933E+03  0.35624255269E+03  0.62405857576E+03  0.10100000352E+00 0.  1.
       -3    1    3    3    0  502  0.20407682967E+03  0.46999253933E+03 -0.62811137574E+03  0.81059499750E+03  0.10100000352E+00 0. -1.
</event>
<event>
 5   0  0.1175374E-03  0.1354997E+04  0.7818609E-02  0.8987054E-01
        1   -1    0    0  501    0  0.00000000000E+00  0.00000000000E+00  0.14775630421E+04  0.14775630421E+04  0.50400001928E-02 0.  1.
       -1   -1    0    0    0  501  0.00000000000E+00  0.00000000000E+00 -0.31064949799E+03  0.31064949804E+03  0.50400001928E-02 0. -1.
    10030    2    1    2    0    0  0.00000000000E+00  0.00000000000E+00  0.11669135441E+04  0.17882125402E+04  0.13549969998E+04 0.  0.
        3    1    3    3  502    0 -0.35838585767E+03 -0.74284978148E+02  0.13358638962E+04  0.13850960401E+04  0.10100000352E+00 0.  1.
       -3    1    3    3    0  502  0.35838585767E+03  0.74284978148E+02 -0.16895035207E+03  0.40311650006E+03  0.10100000352E+00 0. -1.
</event>
<event>
 5   0  0.1225690E-03  0.1326924E+04  0.7818609E-02  0.9008483E-01
       -1   -1    0    0    0  501  0.00000000000E+00  0.00000000000E+00  0.43143163925E+03  0.43143163928E+03  0.50400001928E-02 0. -1.
        1   -1    0    0  501    0  0.00000000000E+00  0.00000000000E+00 -0.10202810845E+04  0.10202810845E+04  0.50400001928E-02 0.  1.
    10030    2    1    2    0    0  0.00000000000E+00  0.00000000000E+00 -0.58884944527E+03  0.14517127238E+04  0.13269235710E+04 0.  0.
        4    1    3    3  502    0  0.23206191206E+03 -0.61774528533E+03 -0.21927768376E+03  0.69537492338E+03  0.12699999809E+01 0. -1.
       -4    1    3    3    0  502 -0.23206191206E+03  0.61774528533E+03 -0.36957176151E+03  0.75633780044E+03  0.12699999809E+01 0.  1.
</event>
<event>
 5   0  0.1175374E-03  0.1402449E+04  0.7818609E-02  0.8952047E-01
        1   -1    0    0  501    0  0.00000000000E+00  0.00000000000E+00  0.98795549929E+03  0.98795549930E+03  0.50400001928E-02 0. -1.
       -1   -1    0    0    0  501  0.00000000000E+00  0.00000000000E+00 -0.49771081738E+03  0.49771081740E+03  0.50400001928E-02 0.  1.
    10030    2    1    2    0    0  0.00000000000E+00  0.00000000000E+00  0.49024468191E+03  0.14856663167E+04  0.14024494845E+04 0.  0.
        3    1    3    3  502    0  0.49651811659E+02  0.29814190143E+03 -0.42516435799E+03  0.52164991834E+03  0.10100000352E+00 0.  1.
       -3    1    3    3    0  502 -0.49651811659E+02 -0.29814190143E+03  0.91540903990E+03  0.96401639837E+03  0.10100000352E+00 0. -1.
</event>
<event>
 5   0  0.1210275E-03  0.1450206E+04  0.7818609E-02  0.8918258E-01
       -1   -1    0    0    0  501  0.00000000000E+00  0.00000000000E+00  0.44809346177E+03  0.44809346180E+03  0.50400001928E-02 0. -1.
        1   -1    0    0  501    0  0.00000000000E+00  0.00000000000E+00 -0.11733582499E+04  0.11733582499E+04  0.50400001928E-02 0.  1.
    10030    2    1    2    0    0  0.00000000000E+00  0.00000000000E+00 -0.72526478816E+03  0.16214517117E+04  0.14502057235E+04 0.  0.
        1    1    3    3  502    0  0.34784478892E+03 -0.30704324815E+03  0.26039483823E+03  0.53204983339E+03  0.50400001928E-02 0. -1.
       -1    1    3    3    0  502 -0.34784478892E+03  0.30704324815E+03 -0.98565962639E+03  0.10894018783E+04  0.50400001928E-02 0.  1.
</event>
<event>
 5   0  0.1199720E-03  0.1115774E+04  0.7818609E-02  0.9189952E-01
        1   -1    0    0  501    0  0.00000000000E+00  0.00000000000E+00  0.41345559313E+03  0.41345559316E+03  0.50400001928E-02 0. -1.
       -1   -1    0    0    0  501  0.00000000000E+00  0.00000000000E+00 -0.75277270850E+03  0.75277270852E+03  0.50400001928E-02 0.  1.
    10030    2    1    2    0    0  0.00000000000E+00  0.00000000000E+00 -0.33931711538E+03  0.11662283017E+04  0.11157743261E+04 0.  0.
        5    1    3    3  502    0 -0.29239676030E+03  0.38824717706E+03  0.11655636261E+03  0.49983918573E+03  0.46999998093E+01 0. -1.
       -5    1    3    3    0  502  0.29239676030E+03 -0.38824717706E+03 -0.45587347798E+03  0.66638911595E+03  0.46999998093E+01 0.  1.
</event>
<event>
 5   0  0.2236184E-03  0.8753394E+03  0.7818609E-02  0.9456944E-01
        2   -1    0    0  501    0  0.00000000000E+00  0.00000000000E+00  0.39771263485E+03  0.39771263486E+03  0.25500000920E-02 0. -1.
       -2   -1    0    0    0  501  0.00000000000E+00  0.00000000000E+00 -0.48164115655E+03  0.48164115656E+03  0.25500000920E-02 0.  1.
    10030    2    1    2    0    0  0.00000000000E+00  0.00000000000E+00 -0.83928521706E+02  0.87935379142E+03  0.87533941630E+03 0.  0.
        3    1    3    3  502    0 -0.88587276106E+02 -0.28316631617E+03 -0.36519113139E+03  0.47052676943E+03  0.10100000352E+00 0.  1.
       -3    1    3    3    0  502  0.88587276106E+02  0.28316631617E+03  0.28126260968E+03  0.40882702199E+03  0.10100000352E+00 0. -1.
</event>
<event>
 5   0  0.2172901E-03  0.1398707E+04  0.7818609E-02  0.8954755E-01
        2   -1    0    0  501    0  0.00000000000E+00  0.00000000000E+00  0.90905852205E+03  0.90905852206E+03  0.25500000920E-02 0. -1.
       -2   -1    0    0    0  501  0.00000000000E+00  0.00000000000E+00 -0.53802426829E+03  0.53802426830E+03  0.25500000920E-02 0.  1.
    10030    2    1    2    0    0  0.00000000000E+00  0.00000000000E+00  0.37103425376E+03  0.14470827904E+04  0.13987073263E+04 0.  0.
        2    1    3    3  502    0  0.75040494818E+02  0.54882521210E+03 -0.25616180101E+03  0.61029423855E+03  0.25500000920E-02 0.  1.
       -2    1    3    3    0  502 -0.75040494818E+02 -0.54882521210E+03  0.62719605478E+03  0.83678855181E+03  0.25500000920E-02 0. -1.
</event>
<event>
 5   0  0.1199720E-03  0.1416389E+04  0.7818609E-02  0.8942040E-01
        1   -1    0    0  501    0  0.00000000000E+00  0.00000000000E+00  0.11903680620E+04  0.11903680620E+04  0.50400001928E-02 0. -1.
       -1   -1    0    0    0  501  0.00000000000E+00  0.00000000000E+00 -0.42133123682E+03  0.42133123685E+03  0.50400001928E-02 0.  1.
    10030    2    1    2    0    0  0.00000000000E+00  0.00000000000E+00  0.76903682518E+03  0.16116992989E+04  0.14163887148E+04 0.  0.
        5    1    3    3  502    0 -0.63186156703E+03 -0.21081661777E+02  0.74761816834E+03  0.97910596565E+03  0.46999998093E+01 0. -1.
       -5    1    3    3    0  502  0.63186156703E+03  0.21081661777E+02  0.21418656845E+02  0.63259333320E+03  0.46999998093E+01 0.  1.
</event>
<event>
 5   0  0.2236184E-03  0.1392547E+04  0.7818609E-02  0.8959231E-01
        2   -1    0    0  501    0  0.00000000000E+00  0.00000000000E+00  0.23013348389E+04  0.23013348389E+04  0.25500000920E-02 0.  1.
       -2   -1    0    0    0  501  0.00000000000E+00  0.00000000000E+00 -0.21065882270E+03  0.21065882271E+03  0.25500000920E-02 0. -1.
    10030    2    1    2    0    0  0.00000000000E+00  0.00000000000E+00  0.20906760162E+04  0.25119936616E+04  0.13925465706E+04 0.  0.
        3    1    3    3  502    0  0.67798986384E+03 -0.13920056859E+03  0.90855851981E+03  0.11421583287E+04  0.10100000352E+00 0.  1.
       -3    1    3    3    0  502 -0.67798986384E+03  0.13920056859E+03  0.11821174964E+04  0.13698353329E+04  0.10100000352E+00 0. -1.
</event>
<event>
 5   0  0.2083966E-03  0.1486196E+04  0.7818609E-02  0.8893684E-01
       -2   -1    0    0    0  501  0.00000000000E+00  0.00000000000E+00  0.56151393141E+03  0.56151393141E+03  0.25500000920E-02 0.  1.
        2   -1    0    0  501    0  0.00000000000E+00  0.00000000000E+00 -0.98340368026E+03  0.98340368027E+03  0.25500000920E-02 0. -1.
    10030    2    1    2    0    0  0.00000000000E+00  0.00000000000E+00 -0.42188974886E+03  0.15449176117E+04  0.14861963083E+04 0.  0.
        1    1    3    3  502    0 -0.44533904946E+03  0.36145977038E+03  0.28017857467E+03  0.63834165484E+03  0.50400001928E-02 0.  1.
       -1    1    3    3    0  502  0.44533904946E+03 -0.36145977038E+03 -0.70206832353E+03  0.90657595683E+03  0.50400001928E-02 0. -1.
</event>
<event>
 5   0  0.2195980E-03  0.1397935E+04  0.7818609E-02  0.8955315E-01
        2   -1    0    0  501    0  0.00000000000E+00  0.00000000000E+00  0.67919097146E+03  0.67919097146E+03  0.25500000920E-02 0.  1.
       -2   -1    0    0    0  501  0.00000000000E+00  0.00000000000E+00 -0.71931984005E+03  0.71931984005E+03  0.25500000920E-02 0. -1.
    10030    2    1    2    0    0  0.00000000000E+00  0.00000000000E+00 -0.40128868588E+02  0.13985108115E+04  0.13979349641E+04 0.  0.
        4    1    3    3  502    0 -0.46703983642E+03 -0.95118177415E+02 -0.53152864144E+03  0.71393135948E+03  0.12699999809E+01 0. -1.
       -4    1    3    3    0  502  0.46703983642E+03  0.95118177415E+02  0.49139977286E+03  0.68457945203E+03  0.12699999809E+01 0.  1.
</event>
<event>
 5   0  0.2172901E-03  0.1360380E+04  0.7818609E-02  0.8983008E-01
       -2   -1    0    0    0  501  0.00000000000E+00  0.00000000000E+00  0.50781670905E+03  0.50781670906E+03  0.25500000920E-02 0.  1.
        2   -1    0    0  501    0  0.00000000000E+00  0.00000000000E+00 -0.91107311427E+03  0.91107311427E+03  0.25500000920E-02 0. -1.
    10030    2    1    2    0    0  0.00000000000E+00  0.00000000000E+00 -0.40325640522E+03  0.14188898233E+04  0.13603795803E+04 0.  0.
        2    1    3    3  502    0  0.30242879352E+02 -0.60497713288E+03 -0.52436561634E+03  0.80116868553E+03  0.25500000920E-02 0. -1.
       -2    1    3    3    0  502 -0.30242879352E+02  0.60497713288E+03  0.12110921112E+03  0.61772113780E+03  0.25500000920E-02 0.  1.
</event>
<event>
 5   0  0.1199720E-03  0.1345360E+04  0.7818609E-02  0.8994348E-01
        1   -1    0    0  501    0  0.00000000000E+00  0.00000000000E+00  0.62182165038E+03  0.62182165041E+03  0.50400001928E-02 0.  1.
       -1   -1    0    0    0  501  0.00000000000E+00  0.00000000000E+00 -0.72769748704E+03  0.72769748706E+03  0.50400001928E-02 0. -1.
    10030    2    1    2    0    0  0.00000000000E+00  0.00000000000E+00 -0.10587583666E+03  0.13495191375E+04  0.13453595094E+04 0.  0.
        5    1    3    3  502    0 -0.12193653140E+03 -0.32523320080E+03  0.52489070105E+03  0.62942631867E+03  0.46999998093E+01 0.  1.
       -5    1    3    3    0  502  0.12193653140E+03  0.32523320080E+03 -0.63076653770E+03  0.72009281879E+03  0.46999998093E+01 0. -1.
</event>
<event>
 5   0  0.2172901E-03  0.1404663E+04  0.7818609E-02  0.8950450E-01
       -2   -1    0    0    0  501  0.00000000000E+00  0.00000000000E+00  0.34990551699E+03  0.34990551700E+03  0.25500000920E-02 0.  1.
        2   -1    0    0  501    0  0.00000000000E+00  0.00000000000E+00 -0.14097226374E+04  0.14097226374E+04  0.25500000920E-02 0. -1.
    10030    2    1    2    0    0  0.00000000000E+00  0.00000000000E+00 -0.10598171204E+04  0.17596281544E+04  0.14046632739E+04 0.  0.
        2    1    3    3  502    0 -0.69442944864E+03 -0.41494497711E+02 -0.65081678849E+03  0.95263662782E+03  0.25500000920E-02 0. -1.
       -2    1    3    3    0  502  0.69442944864E+03  0.41494497711E+02 -0.40900033194E+03  0.80699152661E+03  0.25500000920E-02 0.  1.
</event>
<event>
 5   0  0.1199720E-03  0.1387364E+04  0.7818609E-02  0.8963016E-01
        1   -1    0    0  501    0  0.00000000000E+00  0.00000000000E+00  0.12713566837E+04  0.12713566838E+04  0.50400001928E-02 0. -1.
       -1   -1    0    0    0  501  0.00000000000E+00  0.00000000000E+00 -0.37848924853E+03  0.37848924857E+03  0.50400001928E-02 0.  1.
    10030    2    1    2    0    0  0.00000000000E+00  0.00000000000E+00  0.89286743521E+03  0.16498459323E+04  0.13873641712E+04 0.  0.
        5    1    3    3  502    0 -0.29812711618E+03  0.64026030601E+02  0.11873636183E+04  0.12259011224E+04  0.46999998093E+01 0. -1.
       -5    1    3    3    0  502  0.29812711618E+03 -0.64026030601E+02 -0.29449618306E+03  0.42394480989E+03  0.46999998093E+01 0.  1.
</event>
<event>
 5   0  0.1238683E-03  0.1465501E+04  0.7818609E-02  0.8907724E-01
       -1   -1    0    0    0  501  0.00000000000E+00  0.00000000000E+00  0.57671558087E+03  0.57671558089E+03  0.50400001928E-02 0.  1.
        1   -1    0    0  501    0  0.00000000000E+00  0.00000000000E+00 -0.93100206968E+03  0.93100206970E+03  0.50400001928E-02 0. -1.
    10030    2    1    2    0    0  0.00000000000E+00  0.00000000000E+00 -0.35428648882E+03  0.15077176506E+04  0.14655011422E+04 0.  0.
        2    1    3    3  502    0  0.72867708653E+03  0.52162469964E+02 -0.23563324268E+03  0.76760292128E+03  0.25500000920E-02 0. -1.
       -2    1    3    3    0  502 -0.72867708653E+03 -0.52162469964E+02 -0.11865324614E+03  0.74011472930E+03  0.25500000920E-02 0.  1.
</event>
<event>
 5   0  0.1238683E-03  0.1040761E+04  0.7818609E-02  0.9264935E-01
       -1   -1    0    0    0  501  0.00000000000E+00  0.00000000000E+00  0.38654191444E+03  0.38654191448E+03  0.50400001928E-02 0. -1.
        1   -1    0    0  501    0  0.00000000000E+00  0.00000000000E+00 -0.70055979347E+03  0.70055979349E+03  0.50400001928E-02 0.  1.
    10030    2    1    2    0    0  0.00000000000E+00  0.00000000000E+00 -0.31401787902E+03  0.10871017080E+04  0.10407607290E+04 0.  0.
        2    1    3    3  502    0  0.45928350429E+03  0.24114169677E+03 -0.20014000649E+03  0.55600960193E+03  0.25500000920E-02 0. -1.
       -2    1    3    3    0  502 -0.45928350429E+03 -0.24114169677E+03 -0.11387787253E+03  0.53109210603E+03  0.25500000920E-02 0.  1.
</event>
<event>
 5   0  0.1225690E-03  0.1420333E+04  0.7818609E-02  0.8939231E-01
        1   -1    0    0  501    0  0.00000000000E+00  0.00000000000E+00  0.33424059052E+03  0.33424059056E+03  0.50400001928E-02 0.  1.
       -1   -1    0    0    0  501  0.00000000000E+00  0.00000000000E+00 -0.15089018433E+04  0.15089018433E+04  0.50400001928E-02 0. -1.
    10030    2    1    2    0    0  0.00000000000E+00  0.00000000000E+00 -0.11746612528E+04  0.18431424339E+04  0.14203326979E+04 0.  0.
        4    1    3    3  502    0 -0.37946275597E+03  0.12059264201E+03 -0.13504304373E+04  0.14079057310E+04  0.12699999809E+01 0. -1.
       -4    1    3    3    0  502  0.37946275597E+03 -0.12059264201E+03  0.17576918446E+03  0.43523670293E+03  0.12699999809E+01 0.  1.
</event>
<event>
 5   0  0.2083966E-03  0.1369567E+04  0.7818609E-02  0.8976147E-01
       -2   -1    0    0    0  501  0.00000000000E+00  0.00000000000E+00  0.26230128067E+03  0.26230128069E+03  0.25500000920E-02 0.  1.
        2   -1    0    0  501    0  0.00000000000E+00  0.00000000000E+00 -0.17877464271E+04  0.17877464271E+04  0.25500000920E-02 0. -1.
    10030    2    1    2    0    0  0.00000000000E+00  0.00000000000E+00 -0.15254451464E+04  0.20500477078E+04  0.13695666137E+04 0.  0.
        1    1    3    3  502    0  0.55790336697E+03  0.22040607721E+03 -0.12571238586E+04  0.13929089711E+04  0.50400001928E-02 0. -1.
       -1    1    3    3    0  502 -0.55790336697E+03 -0.22040607721E+03 -0.26832128777E+03  0.65713873668E+03  0.50400001928E-02 0.  1.
</event>
<event>
 5   0  0.2195980E-03  0.1401110E+04  0.7818609E-02  0.8953016E-01
       -2   -1    0    0    0  501  0.00000000000E+00  0.00000000000E+00  0.26047559921E+03  0.26047559922E+03  0.25500000920E-02 0.  1.
        2   -1    0    0  501    0  0.00000000000E+00  0.00000000000E+00 -0.18841582500E+04  0.18841582500E+04  0.25500000920E-02 0. -1.
    10030    2    1    2    0    0  0.00000000000E+00  0.00000000000E+00 -0.16236826508E+04  0.21446338493E+04  0.14011099160E+04 0.  0.
        4    1    3    3  502    0 -0.39428311729E+03 -0.35688644837E+01 -0.16981808930E+04  0.17433564958E+04  0.12699999809E+01 0. -1.
       -4    1    3    3    0  502  0.39428311729E+03  0.35688644837E+01  0.74498242169E+02  0.40127735341E+03  0.12699999809E+01 0.  1.
</event>
<event>
 5   0  0.1175374E-03  0.1426277E+04  0.7818609E-02  0.8935014E-01
       -1   -1    0    0    0  501  0.00000000000E+00  0.00000000000E+00  0.12012172888E+04  0.12012172888E+04  0.50400001928E-02 0. -1.
        1   -1    0    0  501    0  0.00000000000E+00  0.00000000000E+00 -0.42337613510E+03  0.42337613513E+03  0.50400001928E-02 0.  1.
    10030    2    1    2    0    0  0.00000000000E+00  0.00000000000E+00  0.77784115372E+03  0.16245934240E+04  0.14262772987E+04 0.  0.
        3    1    3    3  502    0  0.12360383520E+03 -0.17551881698E+03 -0.38569837723E+03  0.44141591679E+03  0.10100000352E+00 0.  1.
       -3    1    3    3    0  502 -0.12360383520E+03  0.17551881698E+03  0.11635395309E+04  0.11831775072E+04  0.10100000352E+00 0. -1.
</event>
<event>
 5   0  0.2236184E-03  0.1342949E+04  0.7818609E-02  0.8996183E-01
        2   -1    0    0  501    0  0.00000000000E+00  0.00000000000E+00  0.13603134482E+04  0.13603134482E+04  0.25500000920E-02 0.  1.
       -2   -1    0    0    0  501  0.00000000000E+00  0.00000000000E+00 -0.33145148858E+03  0.33145148859E+03  0.25500000920E-02 0. -1.
    10030    2    1    2    0    0  0.00000000000E+00  0.00000000000E+00  0.10288619596E+04  0.16917649368E+04  0.13429488707E+04 0.  0.
        3    1    3    3  502    0  0.59761839902E+03 -0.34239599100E+02  0.13117665231E+03  0.61280292534E+03  0.10100000352E+00 0. -1.
       -3    1    3    3    0  502 -0.59761839902E+03  0.34239599100E+02  0.89768530729E+03  0.10789620114E+04  0.10100000352E+00 0.  1.
</event>
<event>
 5   0  0.1175374E-03  0.1419788E+04  0.7818609E-02  0.8939618E-01
        1   -1    0    0  501    0  0.00000000000E+00  0.00000000000E+00  0.86152031615E+03  0.86152031616E+03  0.50400001928E-02 0.  1.
       -1   -1    0    0    0  501  0.00000000000E+00  0.00000000000E+00 -0.58495366378E+03  0.58495366380E+03  0.50400001928E-02 0. -1.
    10030    2    1    2    0    0  0.00000000000E+00  0.00000000000E+00  0.27656665237E+03  0.14464739800E+04  0.14197879636E+04 0.  0.
        3    1    3    3  502    0 -0.25417341422E+03  0.62066418740E+03 -0.98729164503E+02  0.67792006619E+03  0.10100000352E+00 0. -1.
       -3    1    3    3    0  502  0.25417341422E+03 -0.62066418740E+03  0.37529581688E+03  0.76855391378E+03  0.10100000352E+00 0.  1.
</event>
<event>
 5   0  0.1238683E-03  0.1375692E+04  0.7818609E-02  0.8971604E-01
        1   -1    0    0  501    0  0.00000000000E+00  0.00000000000E+00  0.78607978082E+03  0.78607978084E+03  0.50400001928E-02 0.  1.
       -1   -1    0    0    0  501  0.00000000000E+00  0.00000000000E+00 -0.60188854978E+03  0.60188854980E+03  0.50400001928E-02 0. -1.
    10030    2    1    2    0    0  0.00000000000E+00  0.00000000000E+00  0.18419123105E+03  0.13879683306E+04  0.13756924356E+04 0.  0.
        2    1    3    3  502    0  0.35471206912E+03  0.37006816550E+03 -0.37064876293E+03  0.63257537461E+03  0.25500000920E-02 0. -1.
       -2    1    3    3    0  502 -0.35471206912E+03 -0.37006816550E+03  0.55483999397E+03  0.75539295603E+03  0.25500000920E-02 0.  1.
</event>
<event>
 5   0  0.2172901E-03  0.1382201E+04  0.7818609E-02  0.8966804E-01
        2   -1    0    0  501    0  0.00000000000E+00  0.00000000000E+00  0.16939936284E+04  0.16939936284E+04  0.25500000920E-02 0.  1.
       -2   -1    0    0    0  501  0.00000000000E+00  0.00000000000E+00 -0.28194896137E+03  0.28194896138E+03  0.25500000920E-02 0. -1.
    10030    2    1    2    0    0  0.00000000000E+00  0.00000000000E+00  0.14120446670E+04  0.19759425898E+04  0.13822007728E+04 0.  0.
        2    1    3    3  502    0 -0.65583499910E+00 -0.61777786711E+03  0.11488864911E+04  0.13044501112E+04  0.25500000920E-02 0.  1.
       -2    1    3    3    0  502  0.65583499910E+00  0.61777786711E+03  0.26315817591E+03  0.67149247856E+03  0.25500000920E-02 0. -1.
</event>
<event>
 5   0  0.1199720E-03  0.1113690E+04  0.7818609E-02  0.9191950E-01
       -1   -1    0    0    0  501  0.00000000000E+00  0.00000000000E+00  0.72911158659E+03  0.72911158661E+03  0.50400001928E-02 0. -1.
        1   -1    0    0  501    0  0.00000000000E+00  0.00000000000E+00 -0.42527996955E+03  0.42527996958E+03  0.50400001928E-02 0.  1.
    10030    2    1    2    0    0  0.00000000000E+00  0.00000000000E+00  0.30383161704E+03  0.11543915562E+04  0.11136903580E+04 0.  0.
        5    1    3    3  502    0  0.31528957343E+02 -0.29697235206E+03  0.63905704550E+03  0.70540956220E+03  0.46999998093E+01 0. -1.
       -5    1    3    3    0  502 -0.31528957343E+02  0.29697235206E+03 -0.33522542846E+03  0.44898199399E+03  0.46999998093E+01 0.  1.
</event>
<event>
 5   0  0.1210275E-03  0.1383898E+04  0.7818609E-02  0.8965557E-01
       -1   -1    0    0    0  501  0.00000000000E+00  0.00000000000E+00  0.19033109388E+03  0.19033109395E+03  0.50400001928E-02 0. -1.
        1   -1    0    0  501    0  0.00000000000E+00  0.00000000000E+00 -0.25155832163E+04  0.25155832163E+04  0.50400001928E-02 0.  1.
    10030    2    1    2    0    0  0.00000000000E+00  0.00000000000E+00 -0.23252521224E+04  0.27059143102E+04  0.13838984145E+04 0.  0.
        1    1    3    3  502    0 -0.54239172428E+03 -0.20868728794E+03 -0.42827562006E+03  0.72191354987E+03  0.50400001928E-02 0. -1.
       -1    1    3    3    0  502  0.54239172428E+03  0.20868728794E+03 -0.18969765023E+04  0.19840007604E+04  0.50400001928E-02 0.  1.
</event>
<event>
 5   0  0.2195980E-03  0.1386847E+04  0.7818609E-02  0.8963395E-01
        2   -1    0    0  501    0  0.00000000000E+00  0.00000000000E+00  0.25839838663E+04  0.25839838663E+04  0.25500000920E-02 0.  1.
       -2   -1    0    0    0  501  0.00000000000E+00  0.00000000000E+00 -0.18608321633E+03  0.18608321635E+03  0.25500000920E-02 0. -1.
    10030    2    1    2    0    0  0.00000000000E+00  0.00000000000E+00  0.23979006500E+04  0.27700670826E+04  0.13868468247E+04 0.  0.
        4    1    3    3  502    0  0.36051001629E+03 -0.56807067090E+03  0.15341461512E+04  0.16751948499E+04  0.12699999809E+01 0.  1.
       -4    1    3    3    0  502 -0.36051001629E+03  0.56807067090E+03  0.86375449873E+03  0.10948722327E+04  0.12699999809E+01 0. -1.
</event>
<event>
 5   0  0.1210275E-03  0.1241473E+04  0.7818609E-02  0.9077310E-01
       -1   -1    0    0    0  501  0.00000000000E+00  0.00000000000E+00  0.46223034062E+03  0.46223034065E+03  0.50400001928E-02 0. -1.
        1   -1    0    0  501    0  0.00000000000E+00  0.00000000000E+00 -0.83359713041E+03  0.83359713042E+03  0.50400001928E-02 0.  1.
    10030    2    1    2    0    0  0.00000000000E+00  0.00000000000E+00 -0.37136678979E+03  0.12958274711E+04  0.12414731339E+04 0.  0.
        1    1    3    3  502    0  0.31734084326E+03  0.42317046162E+03 -0.52476873147E+03  0.74509104943E+03  0.50400001928E-02 0.  1.
       -1    1    3    3    0  502 -0.31734084326E+03 -0.42317046162E+03  0.15340194168E+03  0.55073642164E+03  0.50400001928E-02 0. -1.
</event>
<event>
 5   0  0.2195980E-03  0.1360373E+04  0.7818609E-02  0.8983013E-01
        2   -1    0    0  501    0  0.00000000000E+00  0.00000000000E+00  0.16197497618E+04  0.16197497619E+04  0.25500000920E-02 0.  1.
       -2   -1    0    0    0  501  0.00000000000E+00  0.00000000000E+00 -0.28563285248E+03  0.28563285249E+03  0.25500000920E-02 0. -1.
    10030    2    1    2    0    0  0.00000000000E+00  0.00000000000E+00  0.13341169094E+04  0.19053826143E+04  0.13603731029E+04 0.  0.
        4    1    3    3  502    0 -0.57400232193E+03  0.91917492145E+02  0.11617110509E+04  0.12990387483E+04  0.12699999809E+01 0.  1.
       -4    1    3    3    0  502  0.57400232193E+03 -0.91917492145E+02  0.17240585848E+03  0.60634386604E+03  0.12699999809E+01 0. -1.
</event>
<event>
 5   0  0.2190704E-03  0.1410580E+04  0.7818609E-02  0.8946196E-01
       -2   -1    0    0    0  501  0.00000000000E+00  0.00000000000E+00  0.32166767489E+03  0.32166767490E+03  0.25500000920E-02 0. -1.
        2   -1    0    0  501    0  0.00000000000E+00  0.00000000000E+00 -0.15464223555E+04  0.15464223555E+04  0.25500000920E-02 0.  1.
    10030    2    1    2    0    0  0.00000000000E+00  0.00000000000E+00 -0.12247546806E+04  0.18680900304E+04  0.14105801409E+04 0.  0.
        5    1    3    3  502    0  0.55851051217E+03 -0.14485105884E+03 -0.75249163300E+02  0.58189376008E+03  0.46999998093E+01 0. -1.
       -5    1    3    3    0  502 -0.55851051217E+03  0.14485105884E+03 -0.11495055173E+04  0.12861962703E+04  0.46999998093E+01 0.  1.
</event>
<event>
 5   0  0.1225690E-03  0.1378718E+04  0.7818609E-02  0.8969369E-01
       -1   -1    0    0    0  501  0.00000000000E+00  0.00000000000E+00  0.25682722767E+03  0.25682722772E+03  0.50400001928E-02 0. -1.
        1   -1    0    0  501    0  0.00000000000E+00  0.00000000000E+00 -0.18503322223E+04  0.18503322223E+04  0.50400001928E-02 0.  1.
    10030    2    1    2    0    0  0.00000000000E+00  0.00000000000E+00 -0.15935049946E+04  0.21071594500E+04  0.13787178028E+04 0.  0.
        4    1    3    3  502    0 -0.96058823787E+02  0.41885972663E+03 -0.16205632562E+04  0.16765731861E+04  0.12699999809E+01 0.  1.
       -4    1    3    3    0  502  0.96058823787E+02 -0.41885972663E+03  0.27058261586E+02  0.43058626388E+03  0.12699999809E+01 0. -1.
</event>
<event>
 5   0  0.2190704E-03  0.1436317E+04  0.7818609E-02  0.8927942E-01
        2   -1    0    0  501    0  0.00000000000E+00  0.00000000000E+00  0.74759053128E+03  0.74759053129E+03  0.25500000920E-02 0.  1.
       -2   -1    0    0    0  501  0.00000000000E+00  0.00000000000E+00 -0.68988491867E+03  0.68988491867E+03  0.25500000920E-02 0. -1.
    10030    2    1    2    0    0  0.00000000000E+00  0.00000000000E+00  0.57705612616E+02  0.14374754500E+04  0.14363167240E+04 0.  0.
        5    1    3    3  502    0 -0.55118146652E+03 -0.44366738547E+03  0.15178342931E+03  0.72367261754E+03  0.46999998093E+01 0. -1.
       -5    1    3    3    0  502  0.55118146652E+03  0.44366738547E+03 -0.94077816697E+02  0.71380283241E+03  0.46999998093E+01 0.  1.
</event>
<event>
 5   0  0.8293000E-04  0.1324896E+04  0.7818609E-02  0.9010052E-01
       -4   -1    0    0    0  501  0.00000000000E+00  0.00000000000E+00  0.10134227520E+04  0.10134235478E+04  0.12699999809E+01 0.  1.
        4   -1    0    0  501    0  0.00000000000E+00  0.00000000000E+00 -0.43302297600E+03  0.43302483837E+03  0.12699999809E+01 0. -1.
    10030    2    1    2    0    0  0.00000000000E+00  0.00000000000E+00  0.58039977601E+03  0.14464483861E+04  0.13248958577E+04 0.  0.
        3    1    3    3  502    0  0.19453377131E+02  0.15269855420E+03  0.99362767151E+03  0.10054806026E+04  0.10100000352E+00 0.  1.
       -3    1    3    3    0  502 -0.19453377131E+02 -0.15269855420E+03 -0.41322789550E+03  0.44096778358E+03  0.10100000352E+00 0. -1.
</event>
<event>
 5   0  0.2172901E-03  0.1404883E+04  0.7818609E-02  0.8950291E-01
        2   -1    0    0  501    0  0.00000000000E+00  0.00000000000E+00  0.10389856733E+04  0.10389856733E+04  0.25500000920E-02 0.  1.
       -2   -1    0    0    0  501  0.00000000000E+00  0.00000000000E+00 -0.47490972050E+03  0.47490972051E+03  0.25500000920E-02 0. -1.
    10030    2    1    2    0    0  0.00000000000E+00  0.00000000000E+00  0.56407595276E+03  0.15138953938E+04  0.14048834766E+04 0.  0.
        2    1    3    3  502    0  0.57970382712E+03  0.22238162082E+03  0.63603126495E+03  0.88884525226E+03  0.25500000920E-02 0. -1.
       -2    1    3    3    0  502 -0.57970382712E+03 -0.22238162082E+03 -0.71955312189E+02  0.62505014152E+03  0.25500000920E-02 0.  1.
</event>
<event>
 5   0  0.1175374E-03  0.1394020E+04  0.7818609E-02  0.8958158E-01
       -1   -1    0    0    0  501  0.00000000000E+00  0.00000000000E+00  0.92211139035E+03  0.92211139036E+03  0.50400001928E-02 0.  1.
        1   -1    0    0  501    0  0.00000000000E+00  0.00000000000E+00 -0.52685941012E+03  0.52685941015E+03  0.50400001928E-02 0. -1.
    10030    2    1    2    0    0  0.00000000000E+00  0.00000000000E+00  0.39525198023E+03  0.14489708005E+04  0.13940201766E+04 0.  0.
        3    1    3    3  502    0 -0.14227989996E+03  0.59653571987E+03 -0.14667844164E+03  0.63056562740E+03  0.10100000352E+00 0.  1.
       -3    1    3    3    0  502  0.14227989996E+03 -0.59653571987E+03  0.54193042187E+03  0.81840517311E+03  0.10100000352E+00 0. -1.
</event>
</LesHouchesEvents>
