<LesHouchesEvents version="3.0">
<header>
<!--
#*********************************************************************
#                                                                    *
#                        MadGraph5_aMC@NLO                           *
#                                                                    *
#                           Going Beyond                             *
#                                                                    *
#                   http://madgraph.hep.uiuc.edu                     *
#                   http://madgraph.phys.ucl.ac.be                   *
#                   http://amcatnlo.cern.ch                          *
#                                                                    *
#                     The MadGraph5_aMC@NLO team                     *
#                                                                    *
#....................................................................*
#                                                                    *
# This file contains all the information necessary to reproduce      *
# the events generated:                                              *
#                                                                    *
# 1. software version                                                *
# 2. proc_card          : code generation info including model       *
# 3. param_card         : model primary parameters in the LH format  *
# 4. run_card           : running parameters (collider and cuts)     *
# 5. pythia_card        : present only if pythia has been run        *
# 6. pgs_card           : present only if pgs has been run           *
# 7. delphes_cards      : present only if delphes has been run       *
#                                                                    *
#                                                                    *
#*********************************************************************
-->
<MGVersion>
#5.2.2.3
</MGVersion>
<MG5ProcCard>
#************************************************************
#*                     MadGraph5_aMC@NLO                    *
#*                                                          *
#*                *                       *                 *
#*                  *        * *        *                   *
#*                    * * * * 5 * * * *                     *
#*                  *        * *        *                   *
#*                *                       *                 *
#*                                                          *
#*                                                          *
#*         VERSION 2.2.3                 2015-02-10         *
#*                                                          *
#*    The MadGraph5_aMC@NLO Development Team - Find us at   *
#*    https://server06.fynu.ucl.ac.be/projects/madgraph     *
#*                                                          *
#************************************************************
#*                                                          *
#*               Command File for MadGraph5_aMC@NLO         *
#*                                                          *
#*     run as ./bin/mg5_aMC  filename                       *
#*                                                          *
#************************************************************
set group_subprocesses Auto
set ignore_six_quark_processes False
set loop_optimized_output True
set gauge unitary
set complex_mass_scheme False
import model sm
define p = g u c d s u~ c~ d~ s~
define j = g u c d s u~ c~ d~ s~
define l+ = e+ mu+
define l- = e- mu-
define vl = ve vm vt
define vl~ = ve~ vm~ vt~
import model Zprime_UFO
generate p p > zph, zph > j j
add process p p > zph, zph > b b~
output Dijet_signal
</MG5ProcCard>
<MGProcCard>
#*********************************************************************
#                        MadGraph/MadEvent                           *
#                   http://madgraph.hep.uiuc.edu                     *
#                                                                    *
#                          proc_card.dat                             *
#*********************************************************************
#                                                                    *
#            This Files is generated by MADGRAPH 5                   *
#                                                                    *
# WARNING: This Files is generated for MADEVENT (compatibility issue)*
#          This files is NOT a valid MG4 proc_card.dat               *
#          Running this in MG4 will NEVER reproduce the result of MG5*
#                                                                    *
#*********************************************************************
#*********************************************************************
# Process(es) requested : mg2 input                                  *
#*********************************************************************
# Begin PROCESS # This is TAG. Do not modify this line
p p > zph , zph > j j           #Process
# Be carefull the coupling are here in MG5 convention
          
end_coup           # End the couplings input

done               # this tells MG there are no more procs
# End PROCESS  # This is TAG. Do not modify this line
#*********************************************************************
# Model information                                                  *
#*********************************************************************
# Begin MODEL  # This is TAG. Do not modify this line
Zprime_UFO
# End   MODEL  # This is TAG. Do not modify this line
#*********************************************************************
# Start multiparticle definitions                                    *
#*********************************************************************
# Begin MULTIPARTICLES # This is TAG. Do not modify this line

# End  MULTIPARTICLES # This is TAG. Do not modify this line
</MGProcCard>
<MGRunCard>
#*********************************************************************
#                       MadGraph5_aMC@NLO                            *
#                                                                    *
#                     run_card.dat MadEvent                          *
#                                                                    *
#  This file is used to set the parameters of the run.               *
#                                                                    *
#  Some notation/conventions:                                        *
#                                                                    *
#   Lines starting with a '# ' are info or comments                  *
#                                                                    *
#   mind the format:   value    = variable     ! comment             *
#*********************************************************************
#
#*******************                                                 
# Running parameters
#*******************                                                 
#                                                                    
#*********************************************************************
# Tag name for the run (one word)                                    *
#*********************************************************************
  tag_1     = run_tag ! name of the run 
#*********************************************************************
# Run to generate the grid pack                                      *
#*********************************************************************
  .false.     = gridpack  !True = setting up the grid pack
#*********************************************************************
# Number of events and rnd seed                                      *
# Warning: Do not generate more than 1M events in a single run       *
# If you want to run Pythia, avoid more than 50k events in a run.    *
#*********************************************************************
  2000 = nevents ! Number of unweighted events requested 
 1335 = iseed   ! rnd seed (0=assigned automatically=default))
#*********************************************************************
# Collider type and energy                                           *
# lpp: 0=No PDF, 1=proton, -1=antiproton, 2=photon from proton,      *
#                                         3=photon from electron     *
#*********************************************************************
        1     = lpp1    ! beam 1 type 
        1     = lpp2    ! beam 2 type
     4000     = ebeam1  ! beam 1 total energy in GeV
     4000     = ebeam2  ! beam 2 total energy in GeV
#*********************************************************************
# Beam polarization from -100 (left-handed) to 100 (right-handed)    *
#*********************************************************************
        0     = polbeam1 ! beam polarization for beam 1
        0     = polbeam2 ! beam polarization for beam 2
#*********************************************************************
# PDF CHOICE: this automatically fixes also alpha_s and its evol.    *
#*********************************************************************
 'nn23lo1'    = pdlabel     ! PDF set                                     
 230000    = lhaid     ! if pdlabel=lhapdf, this is the lhapdf number
#*********************************************************************
# Renormalization and factorization scales                           *
#*********************************************************************
 F        = fixed_ren_scale  ! if .true. use fixed ren scale
 F        = fixed_fac_scale  ! if .true. use fixed fac scale
 91.1880  = scale            ! fixed ren scale
 91.1880  = dsqrt_q2fact1    ! fixed fact scale for pdf1
 91.1880  = dsqrt_q2fact2    ! fixed fact scale for pdf2
 1        = scalefact        ! scale factor for event-by-event scales
#*********************************************************************
# Matching - Warning! ickkw > 1 is still beta
#*********************************************************************
 0        = ickkw            ! 0 no matching, 1 MLM, 2 CKKW matching
 1        = highestmult      ! for ickkw=2, highest mult group
 1        = ktscheme         ! for ickkw=1, 1 Durham kT, 2 Pythia pTE
 1        = alpsfact         ! scale factor for QCD emission vx
 F        = chcluster        ! cluster only according to channel diag
 T        = pdfwgt           ! for ickkw=1, perform pdf reweighting
 5        = asrwgtflavor     ! highest quark flavor for a_s reweight
 T        = clusinfo         ! include clustering tag in output
 3.0      = lhe_version       ! Change the way clustering information pass to shower.        
#*********************************************************************
#**********************************************************
#
#**********************************************************
# Automatic ptj and mjj cuts if xqcut > 0
# (turn off for VBF and single top processes)
#**********************************************************
   T  = auto_ptj_mjj  ! Automatic setting of ptj and mjj
#**********************************************************
#                                                                    
#**********************************
# BW cutoff (M+/-bwcutoff*Gamma)
#**********************************
  15  = bwcutoff      ! (M+/-bwcutoff*Gamma)
#**********************************************************
# Apply pt/E/eta/dr/mij cuts on decay products or not
# (note that etmiss/ptll/ptheavy/ht/sorted cuts always apply)
#**********************************************************
   T  = cut_decays    ! Cut decay products 
#*************************************************************
# Number of helicities to sum per event (0 = all helicities)
# 0 gives more stable result, but longer run time (needed for
# long decay chains e.g.).
# Use >=2 if most helicities contribute, e.g. pure QCD.
#*************************************************************
   0  = nhel          ! Number of helicities used per event
#*******************                                                 
# Standard Cuts
#*******************                                                 
#                                                                    
#*********************************************************************
# Minimum and maximum pt's (for max, -1 means no cut)                *
#*********************************************************************
 20  = ptj       ! minimum pt for the jets 
  0  = ptb       ! minimum pt for the b 
 10  = pta       ! minimum pt for the photons 
 10  = ptl       ! minimum pt for the charged leptons 
  0  = misset    ! minimum missing Et (sum of neutrino's momenta)
  0  = ptheavy   ! minimum pt for one heavy final state
 1.0 = ptonium   ! minimum pt for the quarkonium states
 -1  = ptjmax    ! maximum pt for the jets
 -1  = ptbmax    ! maximum pt for the b
 -1  = ptamax    ! maximum pt for the photons
 -1  = ptlmax    ! maximum pt for the charged leptons
 -1  = missetmax ! maximum missing Et (sum of neutrino's momenta)
#*********************************************************************
# Minimum and maximum E's (in the center of mass frame)              *
#*********************************************************************
  0  = ej     ! minimum E for the jets 
  0  = eb     ! minimum E for the b 
  0  = ea     ! minimum E for the photons 
  0  = el     ! minimum E for the charged leptons 
 -1   = ejmax ! maximum E for the jets
 -1   = ebmax ! maximum E for the b
 -1   = eamax ! maximum E for the photons
 -1   = elmax ! maximum E for the charged leptons
#*********************************************************************
# Maximum and minimum absolute rapidity (for max, -1 means no cut)   *
#*********************************************************************
   5  = etaj    ! max rap for the jets 
  -1  = etab    ! max rap for the b
 2.5  = etaa    ! max rap for the photons 
 2.5  = etal    ! max rap for the charged leptons 
 0.6  = etaonium ! max rap for the quarkonium states
   0  = etajmin ! min rap for the jets
   0  = etabmin ! min rap for the b
   0  = etaamin ! min rap for the photons
   0  = etalmin ! main rap for the charged leptons
#*********************************************************************
# Minimum and maximum DeltaR distance                                *
#*********************************************************************
 0.4 = drjj    ! min distance between jets 
 0   = drbb    ! min distance between b's 
 0.4 = drll    ! min distance between leptons 
 0.4 = draa    ! min distance between gammas 
 0   = drbj    ! min distance between b and jet 
 0.4 = draj    ! min distance between gamma and jet 
 0.4 = drjl    ! min distance between jet and lepton 
 0   = drab    ! min distance between gamma and b 
 0   = drbl    ! min distance between b and lepton 
 0.4 = dral    ! min distance between gamma and lepton 
 -1  = drjjmax ! max distance between jets
 -1  = drbbmax ! max distance between b's
 -1  = drllmax ! max distance between leptons
 -1  = draamax ! max distance between gammas
 -1  = drbjmax ! max distance between b and jet
 -1  = drajmax ! max distance between gamma and jet
 -1  = drjlmax ! max distance between jet and lepton
 -1  = drabmax ! max distance between gamma and b
 -1  = drblmax ! max distance between b and lepton
 -1  = dralmax ! maxdistance between gamma and lepton
#*********************************************************************
# Minimum and maximum invariant mass for pairs                       *
# WARNING: for four lepton final state mmll cut require to have      *
#          different lepton masses for each flavor!                  *           
#*********************************************************************
 0   = mmjj    ! min invariant mass of a jet pair 
 0   = mmbb    ! min invariant mass of a b pair 
 0   = mmaa    ! min invariant mass of gamma gamma pair
 0   = mmll    ! min invariant mass of l+l- (same flavour) lepton pair
 -1  = mmjjmax ! max invariant mass of a jet pair
 -1  = mmbbmax ! max invariant mass of a b pair
 -1  = mmaamax ! max invariant mass of gamma gamma pair
 -1  = mmllmax ! max invariant mass of l+l- (same flavour) lepton pair
#*********************************************************************
# Minimum and maximum invariant mass for all letpons                 *
#*********************************************************************
 0   = mmnl    ! min invariant mass for all letpons (l+- and vl) 
 -1  = mmnlmax ! max invariant mass for all letpons (l+- and vl) 
#*********************************************************************
# Minimum and maximum pt for 4-momenta sum of leptons                *
#*********************************************************************
 0   = ptllmin  ! Minimum pt for 4-momenta sum of leptons(l and vl)
 -1  = ptllmax  ! Maximum pt for 4-momenta sum of leptons(l and vl)
#*********************************************************************
# Inclusive cuts                                                     *
#*********************************************************************
 0  = xptj ! minimum pt for at least one jet  
 0  = xptb ! minimum pt for at least one b 
 0  = xpta ! minimum pt for at least one photon 
 0  = xptl ! minimum pt for at least one charged lepton 
#*********************************************************************
# Control the pt's of the jets sorted by pt                          *
#*********************************************************************
 0   = ptj1min ! minimum pt for the leading jet in pt
 0   = ptj2min ! minimum pt for the second jet in pt
 0   = ptj3min ! minimum pt for the third jet in pt
 0   = ptj4min ! minimum pt for the fourth jet in pt
 -1  = ptj1max ! maximum pt for the leading jet in pt 
 -1  = ptj2max ! maximum pt for the second jet in pt
 -1  = ptj3max ! maximum pt for the third jet in pt
 -1  = ptj4max ! maximum pt for the fourth jet in pt
 0   = cutuse  ! reject event if fails any (0) / all (1) jet pt cuts
#*********************************************************************
# Control the pt's of leptons sorted by pt                           *
#*********************************************************************
 0   = ptl1min ! minimum pt for the leading lepton in pt
 0   = ptl2min ! minimum pt for the second lepton in pt
 0   = ptl3min ! minimum pt for the third lepton in pt
 0   = ptl4min ! minimum pt for the fourth lepton in pt
 -1  = ptl1max ! maximum pt for the leading lepton in pt 
 -1  = ptl2max ! maximum pt for the second lepton in pt
 -1  = ptl3max ! maximum pt for the third lepton in pt
 -1  = ptl4max ! maximum pt for the fourth lepton in pt
#*********************************************************************
# Control the Ht(k)=Sum of k leading jets                            *
#*********************************************************************
 0   = htjmin ! minimum jet HT=Sum(jet pt)
 -1  = htjmax ! maximum jet HT=Sum(jet pt)
 0   = ihtmin  !inclusive Ht for all partons (including b)
 -1  = ihtmax  !inclusive Ht for all partons (including b)
 0   = ht2min ! minimum Ht for the two leading jets
 0   = ht3min ! minimum Ht for the three leading jets
 0   = ht4min ! minimum Ht for the four leading jets
 -1  = ht2max ! maximum Ht for the two leading jets
 -1  = ht3max ! maximum Ht for the three leading jets
 -1  = ht4max ! maximum Ht for the four leading jets
#***********************************************************************
# Photon-isolation cuts, according to hep-ph/9801442                   *
# When ptgmin=0, all the other parameters are ignored                  *
# When ptgmin>0, pta and draj are not going to be used                 *
#***********************************************************************
   0 = ptgmin ! Min photon transverse momentum
 0.4 = R0gamma ! Radius of isolation code
 1.0 = xn ! n parameter of eq.(3.4) in hep-ph/9801442
 1.0 = epsgamma ! epsilon_gamma parameter of eq.(3.4) in hep-ph/9801442
 .true. = isoEM ! isolate photons from EM energy (photons and leptons)
#*********************************************************************
# WBF cuts                                                           *
#*********************************************************************
 0   = xetamin ! minimum rapidity for two jets in the WBF case  
 0   = deltaeta ! minimum rapidity for two jets in the WBF case 
#*********************************************************************
# KT DURHAM CUT                                                      *
#*********************************************************************
 -1    =  ktdurham        
 0.4  =  dparameter 
#*********************************************************************
# maximal pdg code for quark to be considered as a light jet         *
# (otherwise b cuts are applied)                                     *
#*********************************************************************
 4 = maxjetflavor    ! Maximum jet pdg code
#*********************************************************************
# Jet measure cuts                                                   *
#*********************************************************************
 0   = xqcut   ! minimum kt jet measure between partons
#*********************************************************************
#
#*********************************************************************
# Store info for systematics studies                                 *
# WARNING: If use_syst is T, matched Pythia output is                *
#          meaningful ONLY if plotted taking matchscale              *
#          reweighting into account!                                 *
#*********************************************************************
   F  = use_syst      ! Enable systematics studies
#
#**************************************
# Parameter of the systematics study
#  will be used by SysCalc (if installed)
#**************************************                                  
#
0.5 1 2 = sys_scalefact  # factorization/renormalization scale factor
0.5 1 2 = sys_alpsfact  # \alpha_s emission scale factors
30 50 = sys_matchscale # variation of merging scale
# PDF sets and number of members (0 or none for all members).
CT10nlo.LHgrid = sys_pdf # matching scales
# MSTW2008nlo68cl.LHgrid 1  = sys_pdf
</MGRunCard>
<slha>
######################################################################
## PARAM_CARD AUTOMATICALY GENERATED BY MG5 FOLLOWING UFO MODEL   ####
######################################################################
##                                                                  ##
##  Width set on Auto will be computed following the information    ##
##        present in the decay.py files of the model.               ##
##        See  arXiv:1402.1178 for more details.                    ##
##                                                                  ##
######################################################################

###################################
## INFORMATION FOR CKMBLOCK
###################################
Block ckmblock 
    1 2.277360e-01 # cabi 

###################################
## INFORMATION FOR FRBLOCK
###################################
Block frblock 
    1 6.000000e-01 # gz 

###################################
## INFORMATION FOR MASS
###################################
Block mass 
    1 5.040000e-03 # MD 
    2 2.550000e-03 # MU 
    3 1.010000e-01 # MS 
    4 1.270000e+00 # MC 
    5 4.700000e+00 # MB 
    6 1.720000e+02 # MT 
   11 5.110000e-04 # Me 
   13 1.056600e-01 # MM 
   15 1.777000e+00 # MTA 
   23 9.118760e+01 # MZ 
   25 1.200000e+02 # MH 
  10030 2.600000e+03 # MZph 
  10031 3.000000e+02 # MZpl 
## Dependent parameters, given by model restrictions.
## Those values should be edited following the 
## analytical expression. MG5 ignores those values 
## but they are important for interfacing the output of MG5
## to external program such as Pythia.
  12 0.000000 # ve : 0.0 
  14 0.000000 # vm : 0.0 
  16 0.000000 # vt : 0.0 
  21 0.000000 # g : 0.0 
  22 0.000000 # a : 0.0 
  24 79.824360 # w+ : cmath.sqrt(MZ__exp__2/2. + cmath.sqrt(MZ__exp__4/4. - (aEW*cmath.pi*MZ__exp__2)/(Gf*sqrt__2))) 

###################################
## INFORMATION FOR SMINPUTS
###################################
Block sminputs 
    1 1.279000e+02 # aEWM1 
    2 1.166370e-05 # Gf 
    3 1.184000e-01 # aS 

###################################
## INFORMATION FOR YUKAWA
###################################
Block yukawa 
    1 5.040000e-03 # ymdo 
    2 2.550000e-03 # ymup 
    3 1.010000e-01 # yms 
    4 1.270000e+00 # ymc 
    5 4.700000e+00 # ymb 
    6 1.720000e+02 # ymt 
   11 5.110000e-04 # yme 
   13 1.056600e-01 # ymm 
   15 1.777000e+00 # ymtau 

###################################
## INFORMATION FOR DECAY
###################################
DECAY   6 1.508336e+00 # WT 
DECAY  23 2.495200e+00 # WZ 
DECAY  24 2.085000e+00 # WW 
DECAY  25 5.753088e-03 # WH 
## Dependent parameters, given by model restrictions.
## Those values should be edited following the 
## analytical expression. MG5 ignores those values 
## but they are important for interfacing the output of MG5
## to external program such as Pythia.
DECAY  1 0.000000 # d : 0.0 
DECAY  2 0.000000 # u : 0.0 
DECAY  3 0.000000 # s : 0.0 
DECAY  4 0.000000 # c : 0.0 
DECAY  5 0.000000 # b : 0.0 
DECAY  11 0.000000 # e- : 0.0 
DECAY  12 0.000000 # ve : 0.0 
DECAY  13 0.000000 # mu- : 0.0 
DECAY  14 0.000000 # vm : 0.0 
DECAY  15 0.000000 # ta- : 0.0 
DECAY  16 0.000000 # vt : 0.0 
DECAY  21 0.000000 # g : 0.0 
DECAY  22 0.000000 # a : 0.0 
DECAY  10030 0.308725 # zph : (gz__exp__2*MZph*(5 + cmath.sqrt(1 - (4*MT__exp__2)/MZph__exp__2)))/(144.*cmath.pi) 
DECAY  10031 0.132629 # zpl : (5*gz__exp__2*MZpl)/(144.*cmath.pi) 
#===========================================================
# QUANTUM NUMBERS OF NEW STATE(S) (NON SM PDG CODE)
#===========================================================

Block QNUMBERS 10030  # zph 
        1 0  # 3 times electric charge
        2 3  # number of spin states (2S+1)
        3 1  # colour rep (1: singlet, 3: triplet, 8: octet)
        4 0  # Particle/Antiparticle distinction (0=own anti)
Block QNUMBERS 10031  # zpl 
        1 0  # 3 times electric charge
        2 3  # number of spin states (2S+1)
        3 1  # colour rep (1: singlet, 3: triplet, 8: octet)
        4 0  # Particle/Antiparticle distinction (0=own anti)
</slha>
## END BANNER##
<MGGenerationInfo>
#  Number of Events        :         3961
#  Integrated weight (pb)  :  0.16577E-02
#  Max wgt                 :  0.61731E-06
#  Average wgt             :  0.41851E-06
</MGGenerationInfo>
</header>
<init>
     2212     2212  0.40000000000E+04  0.40000000000E+04 0 0  247000  247000 2   1
  0.16588797671E-02  0.40469781421E-05  0.61731400000E-06   0
</init>
<event>
 5   0  0.5940748E-06  0.2626442E+04  0.7818609E-02  0.8359275E-01
       -2   -1    0    0    0  501  0.00000000000E+00  0.00000000000E+00  0.12780201165E+04  0.12780201165E+04  0.25500000920E-02 0. -1.
        2   -1    0    0  501    0  0.00000000000E+00  0.00000000000E+00 -0.13493911021E+04  0.13493911021E+04  0.25500000920E-02 0.  1.
    10030    2    1    2    0    0  0.00000000000E+00  0.00000000000E+00 -0.71370985584E+02  0.26274112186E+04  0.26264416792E+04 0.  0.
        1    1    3    3  502    0 -0.45146864008E+03  0.11073857488E+04  0.50712133568E+03  0.12989608072E+04  0.50400001928E-02 0. -1.
       -1    1    3    3    0  502  0.45146864008E+03 -0.11073857488E+04 -0.57849232126E+03  0.13284504113E+04  0.50400001928E-02 0.  1.
</event>
<event>
 5   0  0.5940748E-06  0.2586719E+04  0.7818609E-02  0.8372727E-01
        2   -1    0    0  501    0  0.00000000000E+00  0.00000000000E+00  0.22264015322E+04  0.22264015322E+04  0.25500000920E-02 0.  1.
       -2   -1    0    0    0  501  0.00000000000E+00  0.00000000000E+00 -0.75133722554E+03  0.75133722554E+03  0.25500000920E-02 0. -1.
    10030    2    1    2    0    0  0.00000000000E+00  0.00000000000E+00  0.14750643067E+04  0.29777387578E+04  0.25867186551E+04 0.  0.
        1    1    3    3  502    0  0.41776386386E+03  0.56456222066E+03 -0.51269887946E+03  0.86955004915E+03  0.50400001928E-02 0. -1.
       -1    1    3    3    0  502 -0.41776386386E+03 -0.56456222066E+03  0.19877631862E+04  0.21081887086E+04  0.50400001928E-02 0.  1.
</event>
<event>
 5   0  0.6173140E-06  0.2586107E+04  0.7818609E-02  0.8372936E-01
       -2   -1    0    0    0  501  0.00000000000E+00  0.00000000000E+00  0.15074930430E+04  0.15074930430E+04  0.25500000920E-02 0. -1.
        2   -1    0    0  501    0  0.00000000000E+00  0.00000000000E+00 -0.11091179949E+04  0.11091179949E+04  0.25500000920E-02 0.  1.
    10030    2    1    2    0    0  0.00000000000E+00  0.00000000000E+00  0.39837504811E+03  0.26166110379E+04  0.25861072376E+04 0.  0.
        3    1    3    3  502    0  0.14304919460E+03 -0.10094427709E+04  0.10038986856E+04  0.14308215685E+04  0.10100000352E+00 0. -1.
       -3    1    3    3    0  502 -0.14304919460E+03  0.10094427709E+04 -0.60552363754E+03  0.11857894693E+04  0.10100000352E+00 0.  1.
</event>
<event>
 5   0  0.5940748E-06  0.2589330E+04  0.7818609E-02  0.8371835E-01
        2   -1    0    0  501    0  0.00000000000E+00  0.00000000000E+00  0.70390799492E+03  0.70390799492E+03  0.25500000920E-02 0. -1.
       -2   -1    0    0    0  501  0.00000000000E+00  0.00000000000E+00 -0.23812166279E+04  0.23812166279E+04  0.25500000920E-02 0.  1.
    10030    2    1    2    0    0  0.00000000000E+00  0.00000000000E+00 -0.16773086330E+04  0.30851246228E+04  0.25893299689E+04 0.  0.
        1    1    3    3  502    0 -0.98608418457E+03 -0.14230749890E+02 -0.18380697108E+04  0.20859206109E+04  0.50400001928E-02 0.  1.
       -1    1    3    3    0  502  0.98608418457E+03  0.14230749890E+02  0.16076107778E+03  0.99920401193E+03  0.50400001928E-02 0. -1.
</event>
<event>
 5   0  0.6173140E-06  0.2604736E+04  0.7818609E-02  0.8366594E-01
        2   -1    0    0  501    0  0.00000000000E+00  0.00000000000E+00  0.14327386077E+04  0.14327386077E+04  0.25500000920E-02 0. -1.
       -2   -1    0    0    0  501  0.00000000000E+00  0.00000000000E+00 -0.11838600878E+04  0.11838600878E+04  0.25500000920E-02 0.  1.
    10030    2    1    2    0    0  0.00000000000E+00  0.00000000000E+00  0.24887851987E+03  0.26165986954E+04  0.26047357285E+04 0.  0.
        3    1    3    3  502    0 -0.86789702717E+03 -0.10768845104E+02  0.10998407854E+04  0.14010749378E+04  0.10100000352E+00 0. -1.
       -3    1    3    3    0  502  0.86789702717E+03  0.10768845104E+02 -0.85096226557E+03  0.12155237577E+04  0.10100000352E+00 0.  1.
</event>
<event>
 5   0  0.2440590E-06  0.2606612E+04  0.7818609E-02  0.8365959E-01
       -1   -1    0    0    0  501  0.00000000000E+00  0.00000000000E+00  0.10929013683E+04  0.10929013684E+04  0.50400001928E-02 0.  1.
        1   -1    0    0  501    0  0.00000000000E+00  0.00000000000E+00 -0.15542172344E+04  0.15542172344E+04  0.50400001928E-02 0. -1.
    10030    2    1    2    0    0  0.00000000000E+00  0.00000000000E+00 -0.46131586605E+03  0.26471186028E+04  0.26066117027E+04 0.  0.
        1    1    3    3  502    0 -0.58478980949E+03 -0.54029502441E+03  0.81722406783E+03  0.11409439126E+04  0.50400001928E-02 0.  1.
       -1    1    3    3    0  502  0.58478980949E+03  0.54029502441E+03 -0.12785399339E+04  0.15061746901E+04  0.50400001928E-02 0. -1.
</event>
<event>
 5   0  0.2333979E-06  0.2634339E+04  0.7818609E-02  0.8356630E-01
       -1   -1    0    0    0  501  0.00000000000E+00  0.00000000000E+00  0.98203079205E+03  0.98203079206E+03  0.50400001928E-02 0.  1.
        1   -1    0    0  501    0  0.00000000000E+00  0.00000000000E+00 -0.17666819244E+04  0.17666819244E+04  0.50400001928E-02 0. -1.
    10030    2    1    2    0    0  0.00000000000E+00  0.00000000000E+00 -0.78465113232E+03  0.27487127164E+04  0.26343394235E+04 0.  0.
        3    1    3    3  502    0  0.12182720920E+04  0.50074408646E+03 -0.39010991006E+03  0.13737238741E+04  0.10100000352E+00 0. -1.
       -3    1    3    3    0  502 -0.12182720920E+04 -0.50074408646E+03 -0.39454122226E+03  0.13749888423E+04  0.10100000352E+00 0.  1.
</event>
<event>
 5   0  0.5940748E-06  0.2583939E+04  0.7818609E-02  0.8373677E-01
        2   -1    0    0  501    0  0.00000000000E+00  0.00000000000E+00  0.17354242333E+04  0.17354242333E+04  0.25500000920E-02 0. -1.
       -2   -1    0    0    0  501  0.00000000000E+00  0.00000000000E+00 -0.96183096191E+03  0.96183096191E+03  0.25500000920E-02 0.  1.
    10030    2    1    2    0    0  0.00000000000E+00  0.00000000000E+00  0.77359327143E+03  0.26972551953E+04  0.25839386678E+04 0.  0.
        1    1    3    3  502    0  0.48924948590E+03  0.81576798703E+03 -0.52581033615E+03  0.10868849883E+04  0.50400001928E-02 0.  1.
       -1    1    3    3    0  502 -0.48924948590E+03 -0.81576798703E+03  0.12994036076E+04  0.16103702070E+04  0.50400001928E-02 0. -1.
</event>
<event>
 5   0  0.2503292E-06  0.2599334E+04  0.7818609E-02  0.8368427E-01
       -1   -1    0    0    0  501  0.00000000000E+00  0.00000000000E+00  0.11506453933E+04  0.11506453933E+04  0.50400001928E-02 0. -1.
        1   -1    0    0  501    0  0.00000000000E+00  0.00000000000E+00 -0.14679890222E+04  0.14679890222E+04  0.50400001928E-02 0.  1.
    10030    2    1    2    0    0  0.00000000000E+00  0.00000000000E+00 -0.31734362884E+03  0.26186344155E+04  0.25993343808E+04 0.  0.
        2    1    3    3  502    0 -0.12945715166E+04  0.80629173721E+02 -0.24124582956E+03  0.13193240791E+04  0.25500000920E-02 0. -1.
       -2    1    3    3    0  502  0.12945715166E+04 -0.80629173721E+02 -0.76097799276E+02  0.12993103364E+04  0.25500000920E-02 0.  1.
</event>
<event>
 5   0  0.5940748E-06  0.2590255E+04  0.7818609E-02  0.8371519E-01
        2   -1    0    0  501    0  0.00000000000E+00  0.00000000000E+00  0.15844887651E+04  0.15844887651E+04  0.25500000920E-02 0. -1.
       -2   -1    0    0    0  501  0.00000000000E+00  0.00000000000E+00 -0.10586100903E+04  0.10586100903E+04  0.25500000920E-02 0.  1.
    10030    2    1    2    0    0  0.00000000000E+00  0.00000000000E+00  0.52587867473E+03  0.26430988554E+04  0.25902554273E+04 0.  0.
        1    1    3    3  502    0  0.86958856859E+03 -0.46756104806E+03  0.11182265173E+04  0.14917198653E+04  0.50400001928E-02 0. -1.
       -1    1    3    3    0  502 -0.86958856859E+03  0.46756104806E+03 -0.59234784261E+03  0.11513789901E+04  0.50400001928E-02 0.  1.
</event>
<event>
 5   0  0.2072125E-06  0.2600777E+04  0.7818609E-02  0.8367937E-01
       -4   -1    0    0    0  501  0.00000000000E+00  0.00000000000E+00  0.16972458538E+04  0.16972463290E+04  0.12699999809E+01 0. -1.
        4   -1    0    0  501    0  0.00000000000E+00  0.00000000000E+00 -0.99632471660E+03  0.99632552603E+03  0.12699999809E+01 0.  1.
    10030    2    1    2    0    0  0.00000000000E+00  0.00000000000E+00  0.70092113721E+03  0.26935718550E+04  0.26007765951E+04 0.  0.
        1    1    3    3  502    0  0.10444126230E+04 -0.59628812255E+03 -0.16181108090E+03  0.12134826238E+04  0.50400001928E-02 0.  1.
       -1    1    3    3    0  502 -0.10444126230E+04  0.59628812255E+03  0.86273221812E+03  0.14800892312E+04  0.50400001928E-02 0. -1.
</event>
<event>
 5   0  0.6161834E-06  0.2596383E+04  0.7818609E-02  0.8369431E-01
       -2   -1    0    0    0  501  0.00000000000E+00  0.00000000000E+00  0.10825953874E+04  0.10825953874E+04  0.25500000920E-02 0. -1.
        2   -1    0    0  501    0  0.00000000000E+00  0.00000000000E+00 -0.15567226018E+04  0.15567226018E+04  0.25500000920E-02 0.  1.
    10030    2    1    2    0    0  0.00000000000E+00  0.00000000000E+00 -0.47412721439E+03  0.26393179893E+04  0.25963826438E+04 0.  0.
        5    1    3    3  502    0  0.12179913996E+04  0.44846621758E+03 -0.26305238450E+03  0.13243276199E+04  0.46999998093E+01 0.  1.
       -5    1    3    3    0  502 -0.12179913996E+04 -0.44846621758E+03 -0.21107482989E+03  0.13149903694E+04  0.46999998093E+01 0. -1.
</event>
<event>
 5   0  0.2456600E-06  0.2597922E+04  0.7818609E-02  0.8368908E-01
       -1   -1    0    0    0  501  0.00000000000E+00  0.00000000000E+00  0.33269364041E+04  0.33269364041E+04  0.50400001928E-02 0.  1.
        1   -1    0    0  501    0  0.00000000000E+00  0.00000000000E+00 -0.50716301416E+03  0.50716301418E+03  0.50400001928E-02 0. -1.
    10030    2    1    2    0    0  0.00000000000E+00  0.00000000000E+00  0.28197733899E+04  0.38340994183E+04  0.25979215497E+04 0.  0.
        5    1    3    3  502    0  0.46199955795E+02  0.98358950587E+03  0.26601660837E+04  0.28365627853E+04  0.46999998093E+01 0.  1.
       -5    1    3    3    0  502 -0.46199955795E+02 -0.98358950587E+03  0.15960730624E+03  0.99753663300E+03  0.46999998093E+01 0. -1.
</event>
<event>
 5   0  0.2440590E-06  0.2610992E+04  0.7818609E-02  0.8364477E-01
       -1   -1    0    0    0  501  0.00000000000E+00  0.00000000000E+00  0.86612369873E+03  0.86612369874E+03  0.50400001928E-02 0.  1.
        1   -1    0    0  501    0  0.00000000000E+00  0.00000000000E+00 -0.19677559886E+04  0.19677559886E+04  0.50400001928E-02 0. -1.
    10030    2    1    2    0    0  0.00000000000E+00  0.00000000000E+00 -0.11016322899E+04  0.28338796874E+04  0.26109922214E+04 0.  0.
        1    1    3    3  502    0 -0.11487455742E+04 -0.49950027924E+02 -0.12218216945E+04  0.16777841496E+04  0.50400001928E-02 0. -1.
       -1    1    3    3    0  502  0.11487455742E+04  0.49950027924E+02  0.12018940460E+03  0.11560955378E+04  0.50400001928E-02 0.  1.
</event>
<event>
 5   0  0.2333979E-06  0.2605262E+04  0.7818609E-02  0.8366416E-01
        1   -1    0    0  501    0  0.00000000000E+00  0.00000000000E+00  0.17285658438E+04  0.17285658438E+04  0.50400001928E-02 0.  1.
       -1   -1    0    0    0  501  0.00000000000E+00  0.00000000000E+00 -0.98165061471E+03  0.98165061472E+03  0.50400001928E-02 0. -1.
    10030    2    1    2    0    0  0.00000000000E+00  0.00000000000E+00  0.74691522912E+03  0.27102164586E+04  0.26052621543E+04 0.  0.
        3    1    3    3  502    0  0.84374193728E+03  0.67121716420E+03 -0.38702935279E+03  0.11455237529E+04  0.10100000352E+00 0. -1.
       -3    1    3    3    0  502 -0.84374193728E+03 -0.67121716420E+03  0.11339445819E+04  0.15646927057E+04  0.10100000352E+00 0.  1.
</event>
<event>
 5   0  0.2333979E-06  0.2611281E+04  0.7818609E-02  0.8364379E-01
        1   -1    0    0  501    0  0.00000000000E+00  0.00000000000E+00  0.15651658257E+04  0.15651658258E+04  0.50400001928E-02 0. -1.
       -1   -1    0    0    0  501  0.00000000000E+00  0.00000000000E+00 -0.10891476771E+04  0.10891476771E+04  0.50400001928E-02 0.  1.
    10030    2    1    2    0    0  0.00000000000E+00  0.00000000000E+00  0.47601814862E+03  0.26543135029E+04  0.26112806999E+04 0.  0.
        3    1    3    3  502    0  0.10954510087E+04  0.49153407591E+03 -0.28335483805E+03  0.12336566114E+04  0.10100000352E+00 0.  1.
       -3    1    3    3    0  502 -0.10954510087E+04 -0.49153407591E+03  0.75937298667E+03  0.14206568915E+04  0.10100000352E+00 0. -1.
</event>
<event>
 5   0  0.5940748E-06  0.2596549E+04  0.7818609E-02  0.8369374E-01
        2   -1    0    0  501    0  0.00000000000E+00  0.00000000000E+00  0.22355430489E+04  0.22355430489E+04  0.25500000920E-02 0. -1.
       -2   -1    0    0    0  501  0.00000000000E+00  0.00000000000E+00 -0.75396295654E+03  0.75396295655E+03  0.25500000920E-02 0.  1.
    10030    2    1    2    0    0  0.00000000000E+00  0.00000000000E+00  0.14815800924E+04  0.29895060055E+04  0.25965489763E+04 0.  0.
        1    1    3    3  502    0  0.60397925960E+01 -0.25508311301E+03  0.22063910049E+04  0.22210954820E+04  0.50400001928E-02 0. -1.
       -1    1    3    3    0  502 -0.60397925960E+01  0.25508311301E+03 -0.72481091252E+03  0.76841052347E+03  0.50400001928E-02 0.  1.
</event>
<event>
 5   0  0.2471488E-06  0.2576775E+04  0.7818609E-02  0.8376133E-01
       -1   -1    0    0    0  501  0.00000000000E+00  0.00000000000E+00  0.19180596023E+04  0.19180596023E+04  0.50400001928E-02 0.  1.
        1   -1    0    0  501    0  0.00000000000E+00  0.00000000000E+00 -0.86542781889E+03  0.86542781891E+03  0.50400001928E-02 0. -1.
    10030    2    1    2    0    0  0.00000000000E+00  0.00000000000E+00  0.10526317834E+04  0.27834874212E+04  0.25767748354E+04 0.  0.
        4    1    3    3  502    0  0.24417865978E+03 -0.12186063148E+04  0.15949209953E+03  0.12530219116E+04  0.12699999809E+01 0. -1.
       -4    1    3    3    0  502 -0.24417865978E+03  0.12186063148E+04  0.89313968384E+03  0.15304655096E+04  0.12699999809E+01 0.  1.
</event>
<event>
 5   0  0.2440590E-06  0.2587496E+04  0.7818609E-02  0.8372461E-01
        1   -1    0    0  501    0  0.00000000000E+00  0.00000000000E+00  0.96548545278E+03  0.96548545280E+03  0.50400001928E-02 0.  1.
       -1   -1    0    0    0  501  0.00000000000E+00  0.00000000000E+00 -0.17336185830E+04  0.17336185830E+04  0.50400001928E-02 0. -1.
    10030    2    1    2    0    0  0.00000000000E+00  0.00000000000E+00 -0.76813313017E+03  0.26991040358E+04  0.25874957179E+04 0.  0.
        1    1    3    3  502    0 -0.38820262720E+03  0.42066346078E+03 -0.15943374854E+04  0.16939808276E+04  0.50400001928E-02 0. -1.
       -1    1    3    3    0  502  0.38820262720E+03 -0.42066346078E+03  0.82620435520E+03  0.10051232082E+04  0.50400001928E-02 0.  1.
</event>
<event>
 5   0  0.6158063E-06  0.2605901E+04  0.7818609E-02  0.8366200E-01
        2   -1    0    0  501    0  0.00000000000E+00  0.00000000000E+00  0.71148242691E+03  0.71148242691E+03  0.25500000920E-02 0.  1.
       -2   -1    0    0    0  501  0.00000000000E+00  0.00000000000E+00 -0.23861158484E+04  0.23861158484E+04  0.25500000920E-02 0. -1.
    10030    2    1    2    0    0  0.00000000000E+00  0.00000000000E+00 -0.16746334215E+04  0.30975982753E+04  0.26059006080E+04 0.  0.
        2    1    3    3  502    0  0.90393605897E+03 -0.10779838672E+03 -0.19453856737E+04  0.21478469010E+04  0.25500000920E-02 0. -1.
       -2    1    3    3    0  502 -0.90393605897E+03  0.10779838672E+03  0.27075225218E+03  0.94975137429E+03  0.25500000920E-02 0.  1.
</event>
<event>
 5   0  0.2333979E-06  0.2598408E+04  0.7818609E-02  0.8368742E-01
       -1   -1    0    0    0  501  0.00000000000E+00  0.00000000000E+00  0.11177521742E+04  0.11177521742E+04  0.50400001928E-02 0. -1.
        1   -1    0    0  501    0  0.00000000000E+00  0.00000000000E+00 -0.15101125820E+04  0.15101125820E+04  0.50400001928E-02 0.  1.
    10030    2    1    2    0    0  0.00000000000E+00  0.00000000000E+00 -0.39236040777E+03  0.26278647562E+04  0.25984084528E+04 0.  0.
        3    1    3    3  502    0  0.11871730500E+04 -0.14237806052E+03 -0.71015424869E+03  0.13906726538E+04  0.10100000352E+00 0. -1.
       -3    1    3    3    0  502 -0.11871730500E+04  0.14237806052E+03  0.31779384091E+03  0.12371921024E+04  0.10100000352E+00 0.  1.
</event>
<event>
 5   0  0.6173140E-06  0.2596041E+04  0.7818609E-02  0.8369547E-01
        2   -1    0    0  501    0  0.00000000000E+00  0.00000000000E+00  0.16007934911E+04  0.16007934911E+04  0.25500000920E-02 0. -1.
       -2   -1    0    0    0  501  0.00000000000E+00  0.00000000000E+00 -0.10525140464E+04  0.10525140464E+04  0.25500000920E-02 0.  1.
    10030    2    1    2    0    0  0.00000000000E+00  0.00000000000E+00  0.54827944475E+03  0.26533075375E+04  0.25960413207E+04 0.  0.
        3    1    3    3  502    0 -0.47858752444E+03  0.11603324865E+04 -0.63975157276E+02  0.12567857132E+04  0.10100000352E+00 0. -1.
       -3    1    3    3    0  502  0.47858752444E+03 -0.11603324865E+04  0.61225460203E+03  0.13965218243E+04  0.10100000352E+00 0.  1.
</event>
<event>
 5   0  0.2440590E-06  0.2697666E+04  0.7818609E-02  0.8335763E-01
       -1   -1    0    0    0  501  0.00000000000E+00  0.00000000000E+00  0.11130609816E+04  0.11130609816E+04  0.50400001928E-02 0.  1.
        1   -1    0    0  501    0  0.00000000000E+00  0.00000000000E+00 -0.16345466797E+04  0.16345466797E+04  0.50400001928E-02 0. -1.
    10030    2    1    2    0    0  0.00000000000E+00  0.00000000000E+00 -0.52148569807E+03  0.27476076613E+04  0.26976657553E+04 0.  0.
        1    1    3    3  502    0 -0.43408627762E+03  0.12073046667E+04  0.16329957410E+03  0.12933221585E+04  0.50400001928E-02 0.  1.
       -1    1    3    3    0  502  0.43408627762E+03 -0.12073046667E+04 -0.68478527217E+03  0.14542855028E+04  0.50400001928E-02 0. -1.
</event>
<event>
 5   0  0.6158063E-06  0.2604215E+04  0.7818609E-02  0.8366771E-01
       -2   -1    0    0    0  501  0.00000000000E+00  0.00000000000E+00  0.89175581925E+03  0.89175581925E+03  0.25500000920E-02 0.  1.
        2   -1    0    0  501    0  0.00000000000E+00  0.00000000000E+00 -0.19012877408E+04  0.19012877408E+04  0.25500000920E-02 0. -1.
    10030    2    1    2    0    0  0.00000000000E+00  0.00000000000E+00 -0.10095319216E+04  0.27930435601E+04  0.26042153574E+04 0.  0.
        2    1    3    3  502    0  0.30329003247E+03  0.65195238659E+03  0.65951502002E+03  0.97569811921E+03  0.25500000920E-02 0.  1.
       -2    1    3    3    0  502 -0.30329003247E+03 -0.65195238659E+03 -0.16690469416E+04  0.18173454409E+04  0.25500000920E-02 0. -1.
</event>
<event>
 5   0  0.2503292E-06  0.2604060E+04  0.7818609E-02  0.8366823E-01
        1   -1    0    0  501    0  0.00000000000E+00  0.00000000000E+00  0.19722655553E+04  0.19722655553E+04  0.50400001928E-02 0.  1.
       -1   -1    0    0    0  501  0.00000000000E+00  0.00000000000E+00 -0.85956097819E+03  0.85956097821E+03  0.50400001928E-02 0. -1.
    10030    2    1    2    0    0  0.00000000000E+00  0.00000000000E+00  0.11127045771E+04  0.28318265335E+04  0.26040602988E+04 0.  0.
        2    1    3    3  502    0 -0.61423351164E+03 -0.10601887089E+04  0.77373774096E+02  0.12277090886E+04  0.25500000920E-02 0. -1.
       -2    1    3    3    0  502  0.61423351164E+03  0.10601887089E+04  0.10353308030E+04  0.16041174449E+04  0.25500000920E-02 0.  1.
</event>
<event>
 5   0  0.6173140E-06  0.2607646E+04  0.7818609E-02  0.8365609E-01
       -2   -1    0    0    0  501  0.00000000000E+00  0.00000000000E+00  0.68825133315E+03  0.68825133315E+03  0.25500000920E-02 0. -1.
        2   -1    0    0  501    0  0.00000000000E+00  0.00000000000E+00 -0.24699617672E+04  0.24699617672E+04  0.25500000920E-02 0.  1.
    10030    2    1    2    0    0  0.00000000000E+00  0.00000000000E+00 -0.17817104340E+04  0.31582131003E+04  0.26076460489E+04 0.  0.
        3    1    3    3  502    0 -0.98272387418E+03 -0.82238248269E+03 -0.11822719425E+04  0.17435097123E+04  0.10100000352E+00 0. -1.
       -3    1    3    3    0  502  0.98272387418E+03  0.82238248269E+03 -0.59943849152E+03  0.14147033880E+04  0.10100000352E+00 0.  1.
</event>
<event>
 5   0  0.6161834E-06  0.2595743E+04  0.7818609E-02  0.8369649E-01
       -2   -1    0    0    0  501  0.00000000000E+00  0.00000000000E+00  0.96424890550E+03  0.96424890550E+03  0.25500000920E-02 0. -1.
        2   -1    0    0  501    0  0.00000000000E+00  0.00000000000E+00 -0.17469242715E+04  0.17469242715E+04  0.25500000920E-02 0.  1.
    10030    2    1    2    0    0  0.00000000000E+00  0.00000000000E+00 -0.78267536596E+03  0.27111731770E+04  0.25957425271E+04 0.  0.
        5    1    3    3  502    0  0.31853246560E+03  0.23886836533E+03  0.89887849360E+03  0.98312037099E+03  0.46999998093E+01 0. -1.
       -5    1    3    3    0  502 -0.31853246560E+03 -0.23886836533E+03 -0.16815538596E+04  0.17280528060E+04  0.46999998093E+01 0.  1.
</event>
<event>
 5   0  0.2503292E-06  0.2604474E+04  0.7818609E-02  0.8366683E-01
       -1   -1    0    0    0  501  0.00000000000E+00  0.00000000000E+00  0.90178303059E+03  0.90178303060E+03  0.50400001928E-02 0.  1.
        1   -1    0    0  501    0  0.00000000000E+00  0.00000000000E+00 -0.18805207826E+04  0.18805207826E+04  0.50400001928E-02 0. -1.
    10030    2    1    2    0    0  0.00000000000E+00  0.00000000000E+00 -0.97873775204E+03  0.27823038132E+04  0.26044744042E+04 0.  0.
        2    1    3    3  502    0  0.33688818376E+03  0.12478553740E+04 -0.31983525162E+03  0.13315146529E+04  0.25500000920E-02 0.  1.
       -2    1    3    3    0  502 -0.33688818376E+03 -0.12478553740E+04 -0.65890250043E+03  0.14507891603E+04  0.25500000920E-02 0. -1.
</event>
<event>
 5   0  0.6173140E-06  0.2603631E+04  0.7818609E-02  0.8366969E-01
       -2   -1    0    0    0  501  0.00000000000E+00  0.00000000000E+00  0.13290585919E+04  0.13290585919E+04  0.25500000920E-02 0.  1.
        2   -1    0    0  501    0  0.00000000000E+00  0.00000000000E+00 -0.12751303749E+04  0.12751303749E+04  0.25500000920E-02 0. -1.
    10030    2    1    2    0    0  0.00000000000E+00  0.00000000000E+00  0.53928216996E+02  0.26041889668E+04  0.26036305272E+04 0.  0.
        3    1    3    3  502    0  0.57688530906E+03  0.58705915557E+03 -0.98185911243E+03  0.12812035119E+04  0.10100000352E+00 0. -1.
       -3    1    3    3    0  502 -0.57688530906E+03 -0.58705915557E+03  0.10357873294E+04  0.13229854549E+04  0.10100000352E+00 0.  1.
</event>
<event>
 5   0  0.5940748E-06  0.2608634E+04  0.7818609E-02  0.8365274E-01
       -2   -1    0    0    0  501  0.00000000000E+00  0.00000000000E+00  0.13452856901E+04  0.13452856901E+04  0.25500000920E-02 0.  1.
        2   -1    0    0  501    0  0.00000000000E+00  0.00000000000E+00 -0.12645956403E+04  0.12645956403E+04  0.25500000920E-02 0. -1.
    10030    2    1    2    0    0  0.00000000000E+00  0.00000000000E+00  0.80690049801E+02  0.26098813304E+04  0.26086336796E+04 0.  0.
        1    1    3    3  502    0 -0.22603459327E+03  0.94183933545E+03  0.91431273540E+03  0.13319612417E+04  0.50400001928E-02 0.  1.
       -1    1    3    3    0  502  0.22603459327E+03 -0.94183933545E+03 -0.83362268560E+03  0.12779200887E+04  0.50400001928E-02 0. -1.
</event>
<event>
 5   0  0.2456600E-06  0.2514521E+04  0.7818609E-02  0.8397830E-01
        1   -1    0    0  501    0  0.00000000000E+00  0.00000000000E+00  0.95193211439E+03  0.95193211440E+03  0.50400001928E-02 0.  1.
       -1   -1    0    0    0  501  0.00000000000E+00  0.00000000000E+00 -0.16605219679E+04  0.16605219679E+04  0.50400001928E-02 0. -1.
    10030    2    1    2    0    0  0.00000000000E+00  0.00000000000E+00 -0.70858985352E+03  0.26124540823E+04  0.25145211774E+04 0.  0.
        5    1    3    3  502    0  0.58487314453E+03 -0.38109839676E+03 -0.14406626366E+04  0.16008883489E+04  0.46999998093E+01 0. -1.
       -5    1    3    3    0  502 -0.58487314453E+03  0.38109839676E+03  0.73207278310E+03  0.10115657334E+04  0.46999998093E+01 0.  1.
</event>
<event>
 5   0  0.6173140E-06  0.2600385E+04  0.7818609E-02  0.8368070E-01
       -2   -1    0    0    0  501  0.00000000000E+00  0.00000000000E+00  0.23972456131E+04  0.23972456131E+04  0.25500000920E-02 0.  1.
        2   -1    0    0  501    0  0.00000000000E+00  0.00000000000E+00 -0.70518479169E+03  0.70518479169E+03  0.25500000920E-02 0. -1.
    10030    2    1    2    0    0  0.00000000000E+00  0.00000000000E+00  0.16920608214E+04  0.31024304048E+04  0.26003854701E+04 0.  0.
        3    1    3    3  502    0 -0.70884853944E+01  0.10751200427E+04  0.17183300820E+04  0.20269661156E+04  0.10100000352E+00 0.  1.
       -3    1    3    3    0  502  0.70884853944E+01 -0.10751200427E+04 -0.26269260642E+02  0.10754642891E+04  0.10100000352E+00 0. -1.
</event>
<event>
 5   0  0.2471488E-06  0.2621299E+04  0.7818609E-02  0.8361002E-01
        1   -1    0    0  501    0  0.00000000000E+00  0.00000000000E+00  0.13832169046E+04  0.13832169046E+04  0.50400001928E-02 0. -1.
       -1   -1    0    0    0  501  0.00000000000E+00  0.00000000000E+00 -0.12418889272E+04  0.12418889273E+04  0.50400001928E-02 0.  1.
    10030    2    1    2    0    0  0.00000000000E+00  0.00000000000E+00  0.14132797733E+03  0.26251058318E+04  0.26212987299E+04 0.  0.
        4    1    3    3  502    0  0.99967720628E+03  0.61179891204E+03 -0.51682908076E+03  0.12809240169E+04  0.12699999809E+01 0.  1.
       -4    1    3    3    0  502 -0.99967720628E+03 -0.61179891204E+03  0.65815705809E+03  0.13441818149E+04  0.12699999809E+01 0. -1.
</event>
<event>
 5   0  0.2440590E-06  0.2541587E+04  0.7818609E-02  0.8388318E-01
        1   -1    0    0  501    0  0.00000000000E+00  0.00000000000E+00  0.11153607543E+04  0.11153607543E+04  0.50400001928E-02 0.  1.
       -1   -1    0    0    0  501  0.00000000000E+00  0.00000000000E+00 -0.14478872467E+04  0.14478872467E+04  0.50400001928E-02 0. -1.
    10030    2    1    2    0    0  0.00000000000E+00  0.00000000000E+00 -0.33252649241E+03  0.25632480010E+04  0.25415873871E+04 0.  0.
        1    1    3    3  502    0 -0.11370627327E+04  0.56713167156E+03 -0.14695272155E+03  0.12791188738E+04  0.50400001928E-02 0. -1.
       -1    1    3    3    0  502  0.11370627327E+04 -0.56713167156E+03 -0.18557377086E+03  0.12841291272E+04  0.50400001928E-02 0.  1.
</event>
<event>
 5   0  0.2333979E-06  0.2487790E+04  0.7818609E-02  0.8407348E-01
       -1   -1    0    0    0  501  0.00000000000E+00  0.00000000000E+00  0.17524508478E+04  0.17524508478E+04  0.50400001928E-02 0. -1.
        1   -1    0    0  501    0  0.00000000000E+00  0.00000000000E+00 -0.88292030086E+03  0.88292030088E+03  0.50400001928E-02 0.  1.
    10030    2    1    2    0    0  0.00000000000E+00  0.00000000000E+00  0.86953054690E+03  0.26353711486E+04  0.24877897257E+04 0.  0.
        3    1    3    3  502    0 -0.25716327905E+03 -0.10309050135E+04 -0.25042575098E+03  0.10916094383E+04  0.10100000352E+00 0.  1.
       -3    1    3    3    0  502  0.25716327905E+03  0.10309050135E+04  0.11199562979E+04  0.15437617103E+04  0.10100000352E+00 0. -1.
</event>
<event>
 5   0  0.5942229E-06  0.2597959E+04  0.7818609E-02  0.8368895E-01
       -2   -1    0    0    0  501  0.00000000000E+00  0.00000000000E+00  0.88951817763E+03  0.88951817763E+03  0.25500000920E-02 0. -1.
        2   -1    0    0  501    0  0.00000000000E+00  0.00000000000E+00 -0.18969239319E+04  0.18969239319E+04  0.25500000920E-02 0.  1.
    10030    2    1    2    0    0  0.00000000000E+00  0.00000000000E+00 -0.10074057543E+04  0.27864421096E+04  0.25979594447E+04 0.  0.
        4    1    3    3  502    0 -0.83847012064E+03  0.12730820560E+03 -0.15590112377E+04  0.17747555253E+04  0.12699999809E+01 0.  1.
       -4    1    3    3    0  502  0.83847012064E+03 -0.12730820560E+03  0.55160548345E+03  0.10116865842E+04  0.12699999809E+01 0. -1.
</event>
<event>
 5   0  0.5942229E-06  0.2599929E+04  0.7818609E-02  0.8368225E-01
        2   -1    0    0  501    0  0.00000000000E+00  0.00000000000E+00  0.72825095269E+03  0.72825095270E+03  0.25500000920E-02 0. -1.
       -2   -1    0    0    0  501  0.00000000000E+00  0.00000000000E+00 -0.23205015540E+04  0.23205015540E+04  0.25500000920E-02 0.  1.
    10030    2    1    2    0    0  0.00000000000E+00  0.00000000000E+00 -0.15922506013E+04  0.30487525067E+04  0.25999288201E+04 0.  0.
        4    1    3    3  502    0 -0.54781423451E+03  0.11580215654E+04 -0.10551449298E+04  0.16596526195E+04  0.12699999809E+01 0.  1.
       -4    1    3    3    0  502  0.54781423451E+03 -0.11580215654E+04 -0.53710567148E+03  0.13890998872E+04  0.12699999809E+01 0. -1.
</event>
<event>
 5   0  0.2503292E-06  0.2579426E+04  0.7818609E-02  0.8375224E-01
        1   -1    0    0  501    0  0.00000000000E+00  0.00000000000E+00  0.18815917912E+04  0.18815917912E+04  0.50400001928E-02 0.  1.
       -1   -1    0    0    0  501  0.00000000000E+00  0.00000000000E+00 -0.88401704929E+03  0.88401704931E+03  0.50400001928E-02 0. -1.
    10030    2    1    2    0    0  0.00000000000E+00  0.00000000000E+00  0.99757474191E+03  0.27656088405E+04  0.25794256905E+04 0.  0.
        2    1    3    3  502    0 -0.12335226092E+04  0.32441438841E+03  0.29384525907E+03  0.13088803456E+04  0.25500000920E-02 0. -1.
       -2    1    3    3    0  502  0.12335226092E+04 -0.32441438841E+03  0.70372948284E+03  0.14567284949E+04  0.25500000920E-02 0.  1.
</event>
<event>
 5   0  0.2333979E-06  0.2599619E+04  0.7818609E-02  0.8368331E-01
       -1   -1    0    0    0  501  0.00000000000E+00  0.00000000000E+00  0.66689885457E+03  0.66689885459E+03  0.50400001928E-02 0. -1.
        1   -1    0    0  501    0  0.00000000000E+00  0.00000000000E+00 -0.25333744028E+04  0.25333744028E+04  0.50400001928E-02 0.  1.
    10030    2    1    2    0    0  0.00000000000E+00  0.00000000000E+00 -0.18664755482E+04  0.32002732574E+04  0.25996188086E+04 0.  0.
        3    1    3    3  502    0 -0.12510891976E+03 -0.50099114583E+03  0.53520996030E+03  0.74370295266E+03  0.10100000352E+00 0. -1.
       -3    1    3    3    0  502  0.12510891976E+03  0.50099114583E+03 -0.24016855085E+04  0.24565703047E+04  0.10100000352E+00 0.  1.
</event>
<event>
 5   0  0.2456600E-06  0.2606269E+04  0.7818609E-02  0.8366075E-01
       -1   -1    0    0    0  501  0.00000000000E+00  0.00000000000E+00  0.12078866368E+04  0.12078866368E+04  0.50400001928E-02 0.  1.
        1   -1    0    0  501    0  0.00000000000E+00  0.00000000000E+00 -0.14058932236E+04  0.14058932236E+04  0.50400001928E-02 0. -1.
    10030    2    1    2    0    0  0.00000000000E+00  0.00000000000E+00 -0.19800658678E+03  0.26137798604E+04  0.26062690863E+04 0.  0.
        5    1    3    3  502    0 -0.97368074789E+03 -0.29664503417E+03  0.71702769783E+03  0.12450715982E+04  0.46999998093E+01 0. -1.
       -5    1    3    3    0  502  0.97368074789E+03  0.29664503417E+03 -0.91503428461E+03  0.13687082622E+04  0.46999998093E+01 0.  1.
</event>
<event>
 5   0  0.6158063E-06  0.2597396E+04  0.7818609E-02  0.8369086E-01
        2   -1    0    0  501    0  0.00000000000E+00  0.00000000000E+00  0.13532157812E+04  0.13532157812E+04  0.25500000920E-02 0. -1.
       -2   -1    0    0    0  501  0.00000000000E+00  0.00000000000E+00 -0.12463765364E+04  0.12463765364E+04  0.25500000920E-02 0.  1.
    10030    2    1    2    0    0  0.00000000000E+00  0.00000000000E+00  0.10683924478E+03  0.25995923176E+04  0.25973959255E+04 0.  0.
        2    1    3    3  502    0  0.10212659592E+04 -0.79999708126E+03 -0.69381633627E+01  0.12973155467E+04  0.25500000920E-02 0. -1.
       -2    1    3    3    0  502 -0.10212659592E+04  0.79999708126E+03  0.11377740814E+03  0.13022767709E+04  0.25500000920E-02 0.  1.
</event>
<event>
 5   0  0.6173140E-06  0.2637438E+04  0.7818609E-02  0.8355595E-01
        2   -1    0    0  501    0  0.00000000000E+00  0.00000000000E+00  0.20636481449E+04  0.20636481449E+04  0.25500000920E-02 0. -1.
       -2   -1    0    0    0  501  0.00000000000E+00  0.00000000000E+00 -0.84269171227E+03  0.84269171227E+03  0.25500000920E-02 0.  1.
    10030    2    1    2    0    0  0.00000000000E+00  0.00000000000E+00  0.12209564326E+04  0.29063398571E+04  0.26374375357E+04 0.  0.
        3    1    3    3  502    0  0.12403714492E+04  0.30236638850E+03  0.97441141694E+03  0.16060586492E+04  0.10100000352E+00 0. -1.
       -3    1    3    3    0  502 -0.12403714492E+04 -0.30236638850E+03  0.24654501564E+03  0.13002812080E+04  0.10100000352E+00 0.  1.
</event>
<event>
 5   0  0.5940748E-06  0.2583507E+04  0.7818609E-02  0.8373825E-01
       -2   -1    0    0    0  501  0.00000000000E+00  0.00000000000E+00  0.11816804322E+04  0.11816804322E+04  0.25500000920E-02 0. -1.
        2   -1    0    0  501    0  0.00000000000E+00  0.00000000000E+00 -0.14120803602E+04  0.14120803602E+04  0.25500000920E-02 0.  1.
    10030    2    1    2    0    0  0.00000000000E+00  0.00000000000E+00 -0.23039992799E+03  0.25937607924E+04  0.25835074843E+04 0.  0.
        1    1    3    3  502    0  0.51156299407E+03 -0.48199851028E+03 -0.12032948299E+04  0.13935342509E+04  0.50400001928E-02 0.  1.
       -1    1    3    3    0  502 -0.51156299407E+03  0.48199851028E+03  0.97289490186E+03  0.12002265415E+04  0.50400001928E-02 0. -1.
</event>
<event>
 5   0  0.6158063E-06  0.2602887E+04  0.7818609E-02  0.8367221E-01
       -2   -1    0    0    0  501  0.00000000000E+00  0.00000000000E+00  0.66800485946E+03  0.66800485946E+03  0.25500000920E-02 0. -1.
        2   -1    0    0  501    0  0.00000000000E+00  0.00000000000E+00 -0.25355437400E+04  0.25355437400E+04  0.25500000920E-02 0.  1.
    10030    2    1    2    0    0  0.00000000000E+00  0.00000000000E+00 -0.18675388805E+04  0.32035485994E+04  0.26028872735E+04 0.  0.
        2    1    3    3  502    0  0.67650557202E+02  0.98206340502E+03 -0.19815351939E+04  0.22125792311E+04  0.25500000920E-02 0.  1.
       -2    1    3    3    0  502 -0.67650557202E+02 -0.98206340502E+03  0.11399631341E+03  0.99096936827E+03  0.25500000920E-02 0. -1.
</event>
<event>
 5   0  0.6173140E-06  0.2613053E+04  0.7818609E-02  0.8363781E-01
       -2   -1    0    0    0  501  0.00000000000E+00  0.00000000000E+00  0.93998904064E+03  0.93998904064E+03  0.25500000920E-02 0.  1.
        2   -1    0    0  501    0  0.00000000000E+00  0.00000000000E+00 -0.18159906159E+04  0.18159906159E+04  0.25500000920E-02 0. -1.
    10030    2    1    2    0    0  0.00000000000E+00  0.00000000000E+00 -0.87600157525E+03  0.27559796565E+04  0.26130528329E+04 0.  0.
        3    1    3    3  502    0  0.37869476420E+03  0.14594409815E+03 -0.17478234741E+04  0.17943233574E+04  0.10100000352E+00 0. -1.
       -3    1    3    3    0  502 -0.37869476420E+03 -0.14594409815E+03  0.87182189881E+03  0.96165629913E+03  0.10100000352E+00 0.  1.
</event>
<event>
 5   0  0.2333979E-06  0.2585340E+04  0.7818609E-02  0.8373198E-01
        1   -1    0    0  501    0  0.00000000000E+00  0.00000000000E+00  0.11771265551E+04  0.11771265551E+04  0.50400001928E-02 0. -1.
       -1   -1    0    0    0  501  0.00000000000E+00  0.00000000000E+00 -0.14195546036E+04  0.14195546036E+04  0.50400001928E-02 0.  1.
    10030    2    1    2    0    0  0.00000000000E+00  0.00000000000E+00 -0.24242804849E+03  0.25966811587E+04  0.25853397613E+04 0.  0.
        3    1    3    3  502    0 -0.71627655816E+03 -0.91710952509E+03 -0.68658069395E+03  0.13511236244E+04  0.10100000352E+00 0.  1.
       -3    1    3    3    0  502  0.71627655816E+03  0.91710952509E+03  0.44415264546E+03  0.12455575344E+04  0.10100000352E+00 0. -1.
</event>
<event>
 5   0  0.6161834E-06  0.2596900E+04  0.7818609E-02  0.8369255E-01
        2   -1    0    0  501    0  0.00000000000E+00  0.00000000000E+00  0.12395068606E+04  0.12395068606E+04  0.25500000920E-02 0.  1.
       -2   -1    0    0    0  501  0.00000000000E+00  0.00000000000E+00 -0.13601964918E+04  0.13601964918E+04  0.25500000920E-02 0. -1.
    10030    2    1    2    0    0  0.00000000000E+00  0.00000000000E+00 -0.12068963118E+03  0.25997033524E+04  0.25969003703E+04 0.  0.
        5    1    3    3  502    0 -0.11407892359E+04  0.85501911855E+02  0.55451689943E+03  0.12713070988E+04  0.46999998093E+01 0.  1.
       -5    1    3    3    0  502  0.11407892359E+04 -0.85501911855E+02 -0.67520653061E+03  0.13283962536E+04  0.46999998093E+01 0. -1.
</event>
<event>
 5   0  0.2456600E-06  0.2613366E+04  0.7818609E-02  0.8363675E-01
       -1   -1    0    0    0  501  0.00000000000E+00  0.00000000000E+00  0.14896666599E+04  0.14896666599E+04  0.50400001928E-02 0.  1.
        1   -1    0    0  501    0  0.00000000000E+00  0.00000000000E+00 -0.11461764597E+04  0.11461764598E+04  0.50400001928E-02 0. -1.
    10030    2    1    2    0    0  0.00000000000E+00  0.00000000000E+00  0.34349020014E+03  0.26358431196E+04  0.26133663030E+04 0.  0.
        5    1    3    3  502    0  0.11161182273E+04  0.24741133207E+03 -0.46652186853E+03  0.12347457262E+04  0.46999998093E+01 0. -1.
       -5    1    3    3    0  502 -0.11161182273E+04 -0.24741133207E+03  0.81001206867E+03  0.14010973934E+04  0.46999998093E+01 0.  1.
</event>
<event>
 5   0  0.2333979E-06  0.2538886E+04  0.7818609E-02  0.8389262E-01
       -1   -1    0    0    0  501  0.00000000000E+00  0.00000000000E+00  0.14712478175E+04  0.14712478175E+04  0.50400001928E-02 0.  1.
        1   -1    0    0  501    0  0.00000000000E+00  0.00000000000E+00 -0.10953185975E+04  0.10953185975E+04  0.50400001928E-02 0. -1.
    10030    2    1    2    0    0  0.00000000000E+00  0.00000000000E+00  0.37592921998E+03  0.25665664150E+04  0.25388856579E+04 0.  0.
        3    1    3    3  502    0 -0.18970373187E+03 -0.95712104232E+03  0.10088629891E+04  0.14035215483E+04  0.10100000352E+00 0.  1.
       -3    1    3    3    0  502  0.18970373187E+03  0.95712104232E+03 -0.63293376914E+03  0.11630448667E+04  0.10100000352E+00 0. -1.
</event>
<event>
 5   0  0.6173140E-06  0.2604711E+04  0.7818609E-02  0.8366603E-01
        2   -1    0    0  501    0  0.00000000000E+00  0.00000000000E+00  0.16157931933E+04  0.16157931933E+04  0.25500000920E-02 0.  1.
       -2   -1    0    0    0  501  0.00000000000E+00  0.00000000000E+00 -0.10497195960E+04  0.10497195960E+04  0.25500000920E-02 0. -1.
    10030    2    1    2    0    0  0.00000000000E+00  0.00000000000E+00  0.56607359735E+03  0.26655127893E+04  0.26047109461E+04 0.  0.
        3    1    3    3  502    0  0.62889680735E+03  0.74887438074E+03 -0.59716060360E+03  0.11458293194E+04  0.10100000352E+00 0. -1.
       -3    1    3    3    0  502 -0.62889680735E+03 -0.74887438074E+03  0.11632342010E+04  0.15196834700E+04  0.10100000352E+00 0.  1.
</event>
<event>
 5   0  0.2440590E-06  0.2611789E+04  0.7818609E-02  0.8364208E-01
        1   -1    0    0  501    0  0.00000000000E+00  0.00000000000E+00  0.12387153695E+04  0.12387153695E+04  0.50400001928E-02 0.  1.
       -1   -1    0    0    0  501  0.00000000000E+00  0.00000000000E+00 -0.13767165476E+04  0.13767165476E+04  0.50400001928E-02 0. -1.
    10030    2    1    2    0    0  0.00000000000E+00  0.00000000000E+00 -0.13800117808E+03  0.26154319171E+04  0.26117886185E+04 0.  0.
        1    1    3    3  502    0 -0.51655046437E+03  0.56844979690E+03 -0.11265990031E+04  0.13635192949E+04  0.50400001928E-02 0. -1.
       -1    1    3    3    0  502  0.51655046437E+03 -0.56844979690E+03  0.98859782500E+03  0.12519126221E+04  0.50400001928E-02 0.  1.
</event>
<event>
 5   0  0.2333979E-06  0.2556468E+04  0.7818609E-02  0.8383140E-01
       -1   -1    0    0    0  501  0.00000000000E+00  0.00000000000E+00  0.80794159098E+03  0.80794159100E+03  0.50400001928E-02 0. -1.
        1   -1    0    0  501    0  0.00000000000E+00  0.00000000000E+00 -0.20222768805E+04  0.20222768805E+04  0.50400001928E-02 0.  1.
    10030    2    1    2    0    0  0.00000000000E+00  0.00000000000E+00 -0.12143352895E+04  0.28302184715E+04  0.25564675631E+04 0.  0.
        3    1    3    3  502    0  0.46427028975E+03 -0.76849493440E+03  0.40006392127E+03  0.98294583648E+03  0.10100000352E+00 0. -1.
       -3    1    3    3    0  502 -0.46427028975E+03  0.76849493440E+03 -0.16143992108E+04  0.18472726351E+04  0.10100000352E+00 0.  1.
</event>
<event>
 5   0  0.2503292E-06  0.2524859E+04  0.7818609E-02  0.8394183E-01
        1   -1    0    0  501    0  0.00000000000E+00  0.00000000000E+00  0.12401561048E+04  0.12401561049E+04  0.50400001928E-02 0. -1.
       -1   -1    0    0    0  501  0.00000000000E+00  0.00000000000E+00 -0.12851026385E+04  0.12851026385E+04  0.50400001928E-02 0.  1.
    10030    2    1    2    0    0  0.00000000000E+00  0.00000000000E+00 -0.44946533646E+02  0.25252587434E+04  0.25248587149E+04 0.  0.
        2    1    3    3  502    0 -0.54344674943E+03  0.89155037706E+03  0.68723865067E+03  0.12499973629E+04  0.25500000920E-02 0. -1.
       -2    1    3    3    0  502  0.54344674943E+03 -0.89155037706E+03 -0.73218518432E+03  0.12752613804E+04  0.25500000920E-02 0.  1.
</event>
<event>
 5   0  0.2456600E-06  0.2593584E+04  0.7818609E-02  0.8370384E-01
       -1   -1    0    0    0  501  0.00000000000E+00  0.00000000000E+00  0.13907852866E+04  0.13907852866E+04  0.50400001928E-02 0.  1.
        1   -1    0    0  501    0  0.00000000000E+00  0.00000000000E+00 -0.12091511363E+04  0.12091511363E+04  0.50400001928E-02 0. -1.
    10030    2    1    2    0    0  0.00000000000E+00  0.00000000000E+00  0.18163415026E+03  0.25999364229E+04  0.25935840913E+04 0.  0.
        5    1    3    3  502    0  0.93115701140E+03  0.84133628146E+03 -0.23670535673E+03  0.12770871679E+04  0.46999998093E+01 0.  1.
       -5    1    3    3    0  502 -0.93115701140E+03 -0.84133628146E+03  0.41833950699E+03  0.13228492550E+04  0.46999998093E+01 0. -1.
</event>
<event>
 5   0  0.5942229E-06  0.2709732E+04  0.7818609E-02  0.8331854E-01
       -2   -1    0    0    0  501  0.00000000000E+00  0.00000000000E+00  0.97518575743E+03  0.97518575744E+03  0.25500000920E-02 0. -1.
        2   -1    0    0  501    0  0.00000000000E+00  0.00000000000E+00 -0.18823711733E+04  0.18823711733E+04  0.25500000920E-02 0.  1.
    10030    2    1    2    0    0  0.00000000000E+00  0.00000000000E+00 -0.90718541592E+03  0.28575569308E+04  0.27097317642E+04 0.  0.
        4    1    3    3  502    0  0.77519901527E+03 -0.28284422221E+03  0.67961098786E+03  0.10690215503E+04  0.12699999809E+01 0. -1.
       -4    1    3    3    0  502 -0.77519901527E+03  0.28284422221E+03 -0.15867964038E+04  0.17885353805E+04  0.12699999809E+01 0.  1.
</event>
<event>
 5   0  0.5940748E-06  0.2602529E+04  0.7818609E-02  0.8367343E-01
       -2   -1    0    0    0  501  0.00000000000E+00  0.00000000000E+00  0.13200465549E+04  0.13200465549E+04  0.25500000920E-02 0.  1.
        2   -1    0    0  501    0  0.00000000000E+00  0.00000000000E+00 -0.12827497024E+04  0.12827497024E+04  0.25500000920E-02 0. -1.
    10030    2    1    2    0    0  0.00000000000E+00  0.00000000000E+00  0.37296852434E+02  0.26027962573E+04  0.26025290203E+04 0.  0.
        1    1    3    3  502    0 -0.10565922375E+04  0.62455556489E+03  0.45093408029E+03  0.13075925798E+04  0.50400001928E-02 0. -1.
       -1    1    3    3    0  502  0.10565922375E+04 -0.62455556489E+03 -0.41363722786E+03  0.12952036775E+04  0.50400001928E-02 0.  1.
</event>
<event>
 5   0  0.2471488E-06  0.2599934E+04  0.7818609E-02  0.8368223E-01
        1   -1    0    0  501    0  0.00000000000E+00  0.00000000000E+00  0.27331581673E+04  0.27331581673E+04  0.50400001928E-02 0.  1.
       -1   -1    0    0    0  501  0.00000000000E+00  0.00000000000E+00 -0.61830112400E+03  0.61830112402E+03  0.50400001928E-02 0. -1.
    10030    2    1    2    0    0  0.00000000000E+00  0.00000000000E+00  0.21148570433E+04  0.33514592913E+04  0.25999344353E+04 0.  0.
        4    1    3    3  502    0  0.85756881624E+03 -0.46932819150E+03 -0.47119587136E+02  0.97873136984E+03  0.12699999809E+01 0. -1.
       -4    1    3    3    0  502 -0.85756881624E+03  0.46932819150E+03  0.21619766304E+04  0.23727279214E+04  0.12699999809E+01 0.  1.
</event>
<event>
 5   0  0.6158063E-06  0.2604791E+04  0.7818609E-02  0.8366576E-01
        2   -1    0    0  501    0  0.00000000000E+00  0.00000000000E+00  0.15668705261E+04  0.15668705261E+04  0.25500000920E-02 0. -1.
       -2   -1    0    0    0  501  0.00000000000E+00  0.00000000000E+00 -0.10825618793E+04  0.10825618793E+04  0.25500000920E-02 0.  1.
    10030    2    1    2    0    0  0.00000000000E+00  0.00000000000E+00  0.48430864685E+03  0.26494324054E+04  0.26047912019E+04 0.  0.
        2    1    3    3  502    0  0.86359049436E+03 -0.48933736369E+03  0.10998102844E+04  0.14814932532E+04  0.25500000920E-02 0. -1.
       -2    1    3    3    0  502 -0.86359049436E+03  0.48933736369E+03 -0.61550163759E+03  0.11679391522E+04  0.25500000920E-02 0.  1.
</event>
<event>
 5   0  0.2456600E-06  0.2602668E+04  0.7818609E-02  0.8367295E-01
       -1   -1    0    0    0  501  0.00000000000E+00  0.00000000000E+00  0.13110137771E+04  0.13110137771E+04  0.50400001928E-02 0.  1.
        1   -1    0    0  501    0  0.00000000000E+00  0.00000000000E+00 -0.12917257797E+04  0.12917257797E+04  0.50400001928E-02 0. -1.
    10030    2    1    2    0    0  0.00000000000E+00  0.00000000000E+00  0.19287997462E+02  0.26027395568E+04  0.26026680875E+04 0.  0.
        5    1    3    3  502    0  0.37321293119E+03  0.61533251834E+01 -0.12370347095E+04  0.12921310762E+04  0.46999998093E+01 0. -1.
       -5    1    3    3    0  502 -0.37321293119E+03 -0.61533251834E+01  0.12563227070E+04  0.13106084806E+04  0.46999998093E+01 0.  1.
</event>
<event>
 5   0  0.6158063E-06  0.2588735E+04  0.7818609E-02  0.8372038E-01
        2   -1    0    0  501    0  0.00000000000E+00  0.00000000000E+00  0.19227503199E+04  0.19227503199E+04  0.25500000920E-02 0.  1.
       -2   -1    0    0    0  501  0.00000000000E+00  0.00000000000E+00 -0.87134934759E+03  0.87134934759E+03  0.25500000920E-02 0. -1.
    10030    2    1    2    0    0  0.00000000000E+00  0.00000000000E+00  0.10514009723E+04  0.27940996675E+04  0.25887350091E+04 0.  0.
        2    1    3    3  502    0 -0.13435393359E+03 -0.53678682816E+03 -0.73725235036E+03  0.92180914862E+03  0.25500000920E-02 0. -1.
       -2    1    3    3    0  502  0.13435393359E+03  0.53678682816E+03  0.17886533227E+04  0.18722905189E+04  0.25500000920E-02 0.  1.
</event>
<event>
 5   0  0.2471488E-06  0.2603068E+04  0.7818609E-02  0.8367160E-01
       -1   -1    0    0    0  501  0.00000000000E+00  0.00000000000E+00  0.11517377702E+04  0.11517377702E+04  0.50400001928E-02 0.  1.
        1   -1    0    0  501    0  0.00000000000E+00  0.00000000000E+00 -0.14708125447E+04  0.14708125447E+04  0.50400001928E-02 0. -1.
    10030    2    1    2    0    0  0.00000000000E+00  0.00000000000E+00 -0.31907477449E+03  0.26225503150E+04  0.26030676985E+04 0.  0.
        4    1    3    3  502    0 -0.91437445383E+03 -0.25831883216E+03  0.73660263864E+03  0.12022455328E+04  0.12699999809E+01 0. -1.
       -4    1    3    3    0  502  0.91437445383E+03  0.25831883216E+03 -0.10556774131E+04  0.14203047822E+04  0.12699999809E+01 0.  1.
</event>
<event>
 5   0  0.2471488E-06  0.2567218E+04  0.7818609E-02  0.8379423E-01
        1   -1    0    0  501    0  0.00000000000E+00  0.00000000000E+00  0.10529488094E+04  0.10529488094E+04  0.50400001928E-02 0. -1.
       -1   -1    0    0    0  501  0.00000000000E+00  0.00000000000E+00 -0.15647973775E+04  0.15647973775E+04  0.50400001928E-02 0.  1.
    10030    2    1    2    0    0  0.00000000000E+00  0.00000000000E+00 -0.51184856811E+03  0.26177461869E+04  0.25672175877E+04 0.  0.
        4    1    3    3  502    0  0.35837981079E+03 -0.57868004423E+03 -0.13656193348E+04  0.15258520449E+04  0.12699999809E+01 0.  1.
       -4    1    3    3    0  502 -0.35837981079E+03  0.57868004423E+03  0.85377076673E+03  0.10918941420E+04  0.12699999809E+01 0. -1.
</event>
<event>
 5   0  0.2503292E-06  0.2603076E+04  0.7818609E-02  0.8367157E-01
       -1   -1    0    0    0  501  0.00000000000E+00  0.00000000000E+00  0.10493162920E+04  0.10493162920E+04  0.50400001928E-02 0. -1.
        1   -1    0    0  501    0  0.00000000000E+00  0.00000000000E+00 -0.16143852704E+04  0.16143852705E+04  0.50400001928E-02 0.  1.
    10030    2    1    2    0    0  0.00000000000E+00  0.00000000000E+00 -0.56506897847E+03  0.26637015624E+04  0.26030756930E+04 0.  0.
        2    1    3    3  502    0  0.34595495859E+03  0.31322771897E+03  0.96075426626E+03  0.10681035518E+04  0.25500000920E-02 0. -1.
       -2    1    3    3    0  502 -0.34595495859E+03 -0.31322771897E+03 -0.15258232447E+04  0.15955980106E+04  0.25500000920E-02 0.  1.
</event>
<event>
 5   0  0.6158063E-06  0.2601163E+04  0.7818609E-02  0.8367806E-01
       -2   -1    0    0    0  501  0.00000000000E+00  0.00000000000E+00  0.11771714151E+04  0.11771714151E+04  0.25500000920E-02 0. -1.
        2   -1    0    0  501    0  0.00000000000E+00  0.00000000000E+00 -0.14369293541E+04  0.14369293541E+04  0.25500000920E-02 0.  1.
    10030    2    1    2    0    0  0.00000000000E+00  0.00000000000E+00 -0.25975793905E+03  0.26141007692E+04  0.26011629408E+04 0.  0.
        2    1    3    3  502    0 -0.97974475393E+03 -0.72791135141E+02  0.72660043394E+03  0.12219437478E+04  0.25500000920E-02 0. -1.
       -2    1    3    3    0  502  0.97974475393E+03  0.72791135141E+02 -0.98635837299E+03  0.13921570214E+04  0.25500000920E-02 0.  1.
</event>
<event>
 5   0  0.2456600E-06  0.2601967E+04  0.7818609E-02  0.8367533E-01
       -1   -1    0    0    0  501  0.00000000000E+00  0.00000000000E+00  0.98936502706E+03  0.98936502708E+03  0.50400001928E-02 0.  1.
        1   -1    0    0  501    0  0.00000000000E+00  0.00000000000E+00 -0.17107514781E+04  0.17107514781E+04  0.50400001928E-02 0. -1.
    10030    2    1    2    0    0  0.00000000000E+00  0.00000000000E+00 -0.72138645101E+03  0.27001165052E+04  0.26019667042E+04 0.  0.
        5    1    3    3  502    0 -0.45144904283E+03 -0.97967643005E+03  0.39404022636E+03  0.11484171437E+04  0.46999998093E+01 0.  1.
       -5    1    3    3    0  502  0.45144904283E+03  0.97967643005E+03 -0.11154266774E+04  0.15516993615E+04  0.46999998093E+01 0. -1.
</event>
<event>
 5   0  0.6161834E-06  0.2596855E+04  0.7818609E-02  0.8369270E-01
       -2   -1    0    0    0  501  0.00000000000E+00  0.00000000000E+00  0.84126355460E+03  0.84126355461E+03  0.25500000920E-02 0. -1.
        2   -1    0    0  501    0  0.00000000000E+00  0.00000000000E+00 -0.20040259319E+04  0.20040259319E+04  0.25500000920E-02 0.  1.
    10030    2    1    2    0    0  0.00000000000E+00  0.00000000000E+00 -0.11627623773E+04  0.28452894865E+04  0.25968550048E+04 0.  0.
        5    1    3    3  502    0  0.87219674544E+03  0.22831350082E+02  0.47219490525E+03  0.99208797586E+03  0.46999998093E+01 0. -1.
       -5    1    3    3    0  502 -0.87219674544E+03 -0.22831350082E+02 -0.16349572825E+04  0.18532015106E+04  0.46999998093E+01 0.  1.
</event>
<event>
 5   0  0.6161834E-06  0.2608740E+04  0.7818609E-02  0.8365238E-01
        2   -1    0    0  501    0  0.00000000000E+00  0.00000000000E+00  0.10546732268E+04  0.10546732268E+04  0.25500000920E-02 0.  1.
       -2   -1    0    0    0  501  0.00000000000E+00  0.00000000000E+00 -0.16131834476E+04  0.16131834476E+04  0.25500000920E-02 0. -1.
    10030    2    1    2    0    0  0.00000000000E+00  0.00000000000E+00 -0.55851022081E+03  0.26678566743E+04  0.26087402262E+04 0.  0.
        5    1    3    3  502    0 -0.47989237591E+03  0.11263315266E+04  0.18087400855E+03  0.12376012675E+04  0.46999998093E+01 0. -1.
       -5    1    3    3    0  502  0.47989237591E+03 -0.11263315266E+04 -0.73938422936E+03  0.14302554069E+04  0.46999998093E+01 0.  1.
</event>
<event>
 5   0  0.5942229E-06  0.2575848E+04  0.7818609E-02  0.8376451E-01
       -2   -1    0    0    0  501  0.00000000000E+00  0.00000000000E+00  0.12651336164E+04  0.12651336164E+04  0.25500000920E-02 0.  1.
        2   -1    0    0  501    0  0.00000000000E+00  0.00000000000E+00 -0.13111254359E+04  0.13111254359E+04  0.25500000920E-02 0. -1.
    10030    2    1    2    0    0  0.00000000000E+00  0.00000000000E+00 -0.45991819480E+02  0.25762590523E+04  0.25758484927E+04 0.  0.
        4    1    3    3  502    0  0.88080719157E+03  0.32136520202E+03  0.86012294038E+03  0.12723639366E+04  0.12699999809E+01 0.  1.
       -4    1    3    3    0  502 -0.88080719157E+03 -0.32136520202E+03 -0.90611475986E+03  0.13038951157E+04  0.12699999809E+01 0. -1.
</event>
<event>
 5   0  0.2471488E-06  0.2439483E+04  0.7818609E-02  0.8424868E-01
       -1   -1    0    0    0  501  0.00000000000E+00  0.00000000000E+00  0.93641370641E+03  0.93641370642E+03  0.50400001928E-02 0. -1.
        1   -1    0    0  501    0  0.00000000000E+00  0.00000000000E+00 -0.15887946671E+04  0.15887946672E+04  0.50400001928E-02 0.  1.
    10030    2    1    2    0    0  0.00000000000E+00  0.00000000000E+00 -0.65238096073E+03  0.25252083736E+04  0.24394828165E+04 0.  0.
        4    1    3    3  502    0  0.55044622326E+03  0.10159947374E+04  0.78086221475E+02  0.11581603611E+04  0.12699999809E+01 0. -1.
       -4    1    3    3    0  502 -0.55044622326E+03 -0.10159947374E+04 -0.73046718221E+03  0.13670480125E+04  0.12699999809E+01 0.  1.
</event>
<event>
 5   0  0.2503292E-06  0.2610161E+04  0.7818609E-02  0.8364758E-01
        1   -1    0    0  501    0  0.00000000000E+00  0.00000000000E+00  0.15301475129E+04  0.15301475129E+04  0.50400001928E-02 0. -1.
       -1   -1    0    0    0  501  0.00000000000E+00  0.00000000000E+00 -0.11131186230E+04  0.11131186230E+04  0.50400001928E-02 0.  1.
    10030    2    1    2    0    0  0.00000000000E+00  0.00000000000E+00  0.41702888987E+03  0.26432661359E+04  0.26101614452E+04 0.  0.
        2    1    3    3  502    0  0.33760236328E+03 -0.62341512026E+03  0.13181368305E+04  0.14966985240E+04  0.25500000920E-02 0. -1.
       -2    1    3    3    0  502 -0.33760236328E+03  0.62341512026E+03 -0.90110794063E+03  0.11465676118E+04  0.25500000920E-02 0.  1.
</event>
<event>
 5   0  0.6158063E-06  0.2582578E+04  0.7818609E-02  0.8374143E-01
        2   -1    0    0  501    0  0.00000000000E+00  0.00000000000E+00  0.92025768654E+03  0.92025768655E+03  0.25500000920E-02 0.  1.
       -2   -1    0    0    0  501  0.00000000000E+00  0.00000000000E+00 -0.18119138040E+04  0.18119138040E+04  0.25500000920E-02 0. -1.
    10030    2    1    2    0    0  0.00000000000E+00  0.00000000000E+00 -0.89165611747E+03  0.27321714906E+04  0.25825782509E+04 0.  0.
        2    1    3    3  502    0 -0.87405796981E+03  0.58605734291E+03 -0.12374967364E+04  0.16244502813E+04  0.25500000920E-02 0. -1.
       -2    1    3    3    0  502  0.87405796981E+03 -0.58605734291E+03  0.34584061892E+03  0.11077212093E+04  0.25500000920E-02 0.  1.
</event>
<event>
 5   0  0.2503292E-06  0.2602779E+04  0.7818609E-02  0.8367258E-01
       -1   -1    0    0    0  501  0.00000000000E+00  0.00000000000E+00  0.83636336597E+03  0.83636336598E+03  0.50400001928E-02 0.  1.
        1   -1    0    0  501    0  0.00000000000E+00  0.00000000000E+00 -0.20249749435E+04  0.20249749435E+04  0.50400001928E-02 0. -1.
    10030    2    1    2    0    0  0.00000000000E+00  0.00000000000E+00 -0.11886115775E+04  0.28613383095E+04  0.26027791760E+04 0.  0.
        2    1    3    3  502    0 -0.47707106096E+03  0.85506484178E+03 -0.15367176510E+04  0.18221508773E+04  0.25500000920E-02 0. -1.
       -2    1    3    3    0  502  0.47707106096E+03 -0.85506484178E+03  0.34810607343E+03  0.10391874322E+04  0.25500000920E-02 0.  1.
</event>
<event>
 5   0  0.6173140E-06  0.2592288E+04  0.7818609E-02  0.8370826E-01
        2   -1    0    0  501    0  0.00000000000E+00  0.00000000000E+00  0.21702263044E+04  0.21702263044E+04  0.25500000920E-02 0.  1.
       -2   -1    0    0    0  501  0.00000000000E+00  0.00000000000E+00 -0.77410758913E+03  0.77410758913E+03  0.25500000920E-02 0. -1.
    10030    2    1    2    0    0  0.00000000000E+00  0.00000000000E+00  0.13961187153E+04  0.29443338936E+04  0.25922875245E+04 0.  0.
        3    1    3    3  502    0  0.91927037040E+03 -0.64172913766E+03  0.14368693522E+04  0.18224894638E+04  0.10100000352E+00 0.  1.
       -3    1    3    3    0  502 -0.91927037040E+03  0.64172913766E+03 -0.40750636939E+02  0.11218444298E+04  0.10100000352E+00 0. -1.
</event>
<event>
 5   0  0.6161834E-06  0.2614171E+04  0.7818609E-02  0.8363404E-01
        2   -1    0    0  501    0  0.00000000000E+00  0.00000000000E+00  0.20133543203E+04  0.20133543203E+04  0.25500000920E-02 0. -1.
       -2   -1    0    0    0  501  0.00000000000E+00  0.00000000000E+00 -0.84857013540E+03  0.84857013540E+03  0.25500000920E-02 0.  1.
    10030    2    1    2    0    0  0.00000000000E+00  0.00000000000E+00  0.11647841849E+04  0.28619244557E+04  0.26141708806E+04 0.  0.
        5    1    3    3  502    0 -0.14686124378E+03  0.78710027605E+03 -0.54864976077E+03  0.97063572955E+03  0.46999998093E+01 0.  1.
       -5    1    3    3    0  502  0.14686124378E+03 -0.78710027605E+03  0.17134339457E+04  0.18912887262E+04  0.46999998093E+01 0. -1.
</event>
<event>
 5   0  0.2456600E-06  0.2594476E+04  0.7818609E-02  0.8370080E-01
       -1   -1    0    0    0  501  0.00000000000E+00  0.00000000000E+00  0.13362465868E+04  0.13362465868E+04  0.50400001928E-02 0. -1.
        1   -1    0    0  501    0  0.00000000000E+00  0.00000000000E+00 -0.12593682264E+04  0.12593682264E+04  0.50400001928E-02 0.  1.
    10030    2    1    2    0    0  0.00000000000E+00  0.00000000000E+00  0.76878360375E+02  0.25956148133E+04  0.25944760505E+04 0.  0.
        5    1    3    3  502    0  0.41087496889E+03  0.45316494200E+03  0.11828939467E+04  0.13317045032E+04  0.46999998093E+01 0. -1.
       -5    1    3    3    0  502 -0.41087496889E+03 -0.45316494200E+03 -0.11060155863E+04  0.12639103101E+04  0.46999998093E+01 0.  1.
</event>
<event>
 5   0  0.2333979E-06  0.2706266E+04  0.7818609E-02  0.8332975E-01
        1   -1    0    0  501    0  0.00000000000E+00  0.00000000000E+00  0.20653919814E+04  0.20653919814E+04  0.50400001928E-02 0.  1.
       -1   -1    0    0    0  501  0.00000000000E+00  0.00000000000E+00 -0.88649960890E+03  0.88649960892E+03  0.50400001928E-02 0. -1.
    10030    2    1    2    0    0  0.00000000000E+00  0.00000000000E+00  0.11788923725E+04  0.29518915903E+04  0.27062661981E+04 0.  0.
        3    1    3    3  502    0 -0.57644726634E+03  0.10878457052E+04  0.12018964574E+04  0.17205391114E+04  0.10100000352E+00 0. -1.
       -3    1    3    3    0  502  0.57644726634E+03 -0.10878457052E+04 -0.23004084925E+02  0.12313524789E+04  0.10100000352E+00 0.  1.
</event>
<event>
 5   0  0.6173140E-06  0.2630514E+04  0.7818609E-02  0.8357910E-01
        2   -1    0    0  501    0  0.00000000000E+00  0.00000000000E+00  0.16744745805E+04  0.16744745805E+04  0.25500000920E-02 0.  1.
       -2   -1    0    0    0  501  0.00000000000E+00  0.00000000000E+00 -0.10331005954E+04  0.10331005954E+04  0.25500000920E-02 0. -1.
    10030    2    1    2    0    0  0.00000000000E+00  0.00000000000E+00  0.64137398513E+03  0.27075751759E+04  0.26305137796E+04 0.  0.
        3    1    3    3  502    0  0.65446722713E+03  0.34999163339E+02 -0.85304732741E+03  0.10757518514E+04  0.10100000352E+00 0. -1.
       -3    1    3    3    0  502 -0.65446722713E+03 -0.34999163339E+02  0.14944213125E+04  0.16318233245E+04  0.10100000352E+00 0.  1.
</event>
<event>
 5   0  0.5940748E-06  0.2600835E+04  0.7818609E-02  0.8367918E-01
       -2   -1    0    0    0  501  0.00000000000E+00  0.00000000000E+00  0.94589058244E+03  0.94589058245E+03  0.25500000920E-02 0. -1.
        2   -1    0    0  501    0  0.00000000000E+00  0.00000000000E+00 -0.17878238401E+04  0.17878238401E+04  0.25500000920E-02 0.  1.
    10030    2    1    2    0    0  0.00000000000E+00  0.00000000000E+00 -0.84193325763E+03  0.27337144225E+04  0.26008350454E+04 0.  0.
        1    1    3    3  502    0  0.38322830402E+03 -0.11517756139E+04 -0.91131466641E+03  0.15178752976E+04  0.50400001928E-02 0.  1.
       -1    1    3    3    0  502 -0.38322830402E+03  0.11517756139E+04  0.69381408780E+02  0.12158391249E+04  0.50400001928E-02 0. -1.
</event>
<event>
 5   0  0.5940748E-06  0.2557696E+04  0.7818609E-02  0.8382714E-01
        2   -1    0    0  501    0  0.00000000000E+00  0.00000000000E+00  0.16951102456E+04  0.16951102456E+04  0.25500000920E-02 0. -1.
       -2   -1    0    0    0  501  0.00000000000E+00  0.00000000000E+00 -0.96480606405E+03  0.96480606405E+03  0.25500000920E-02 0.  1.
    10030    2    1    2    0    0  0.00000000000E+00  0.00000000000E+00  0.73030418151E+03  0.26599163096E+04  0.25576963418E+04 0.  0.
        1    1    3    3  502    0 -0.79230718287E+03  0.91026433433E+03  0.80529328438E+03  0.14508029171E+04  0.50400001928E-02 0. -1.
       -1    1    3    3    0  502  0.79230718287E+03 -0.91026433433E+03 -0.74989102872E+02  0.12091133925E+04  0.50400001928E-02 0.  1.
</event>
<event>
 5   0  0.6158063E-06  0.2593205E+04  0.7818609E-02  0.8370513E-01
       -2   -1    0    0    0  501  0.00000000000E+00  0.00000000000E+00  0.11334510129E+04  0.11334510129E+04  0.25500000920E-02 0. -1.
        2   -1    0    0  501    0  0.00000000000E+00  0.00000000000E+00 -0.14832379603E+04  0.14832379603E+04  0.25500000920E-02 0.  1.
    10030    2    1    2    0    0  0.00000000000E+00  0.00000000000E+00 -0.34978694746E+03  0.26166889732E+04  0.25932046340E+04 0.  0.
        2    1    3    3  502    0  0.92117967251E+02 -0.58138053154E+03  0.99085613610E+03  0.11525124402E+04  0.25500000920E-02 0. -1.
       -2    1    3    3    0  502 -0.92117967251E+02  0.58138053154E+03 -0.13406430836E+04  0.14641765330E+04  0.25500000920E-02 0.  1.
</event>
<event>
 5   0  0.2440590E-06  0.2598360E+04  0.7818609E-02  0.8368759E-01
       -1   -1    0    0    0  501  0.00000000000E+00  0.00000000000E+00  0.18803678192E+04  0.18803678193E+04  0.50400001928E-02 0. -1.
        1   -1    0    0  501    0  0.00000000000E+00  0.00000000000E+00 -0.89762671127E+03  0.89762671129E+03  0.50400001928E-02 0.  1.
    10030    2    1    2    0    0  0.00000000000E+00  0.00000000000E+00  0.98274110798E+03  0.27779945305E+04  0.25983597762E+04 0.  0.
        1    1    3    3  502    0  0.59423337394E+03 -0.36884629589E+03 -0.67917605479E+03  0.97490563960E+03  0.50400001928E-02 0.  1.
       -1    1    3    3    0  502 -0.59423337394E+03  0.36884629589E+03  0.16619171628E+04  0.18030888909E+04  0.50400001928E-02 0. -1.
</event>
<event>
 5   0  0.5940748E-06  0.2599307E+04  0.7818609E-02  0.8368437E-01
       -2   -1    0    0    0  501  0.00000000000E+00  0.00000000000E+00  0.92107297735E+03  0.92107297735E+03  0.25500000920E-02 0.  1.
        2   -1    0    0  501    0  0.00000000000E+00  0.00000000000E+00 -0.18338385041E+04  0.18338385041E+04  0.25500000920E-02 0. -1.
    10030    2    1    2    0    0  0.00000000000E+00  0.00000000000E+00 -0.91276552677E+03  0.27549114815E+04  0.25993069007E+04 0.  0.
        1    1    3    3  502    0 -0.11574018694E+04 -0.92094935915E+02  0.16256188304E+03  0.11723851459E+04  0.50400001928E-02 0.  1.
       -1    1    3    3    0  502  0.11574018694E+04  0.92094935915E+02 -0.10753274098E+04  0.15825263356E+04  0.50400001928E-02 0. -1.
</event>
<event>
 5   0  0.5942229E-06  0.2599800E+04  0.7818609E-02  0.8368269E-01
        2   -1    0    0  501    0  0.00000000000E+00  0.00000000000E+00  0.15656428017E+04  0.15656428017E+04  0.25500000920E-02 0. -1.
       -2   -1    0    0    0  501  0.00000000000E+00  0.00000000000E+00 -0.10792624175E+04  0.10792624175E+04  0.25500000920E-02 0.  1.
    10030    2    1    2    0    0  0.00000000000E+00  0.00000000000E+00  0.48638038418E+03  0.26449052192E+04  0.25997995577E+04 0.  0.
        4    1    3    3  502    0  0.37875101813E+03 -0.99628745004E+03  0.10002082808E+04  0.14616631742E+04  0.12699999809E+01 0.  1.
       -4    1    3    3    0  502 -0.37875101813E+03  0.99628745004E+03 -0.51382789659E+03  0.11832420450E+04  0.12699999809E+01 0. -1.
</event>
<event>
 5   0  0.6173140E-06  0.2596173E+04  0.7818609E-02  0.8369502E-01
        2   -1    0    0  501    0  0.00000000000E+00  0.00000000000E+00  0.10531480665E+04  0.10531480665E+04  0.25500000920E-02 0.  1.
       -2   -1    0    0    0  501  0.00000000000E+00  0.00000000000E+00 -0.15999916644E+04  0.15999916644E+04  0.25500000920E-02 0. -1.
    10030    2    1    2    0    0  0.00000000000E+00  0.00000000000E+00 -0.54684359795E+03  0.26531397309E+04  0.25961726659E+04 0.  0.
        3    1    3    3  502    0 -0.22581611816E+03  0.99771309906E+03  0.54324009073E+03  0.11582461542E+04  0.10100000352E+00 0.  1.
       -3    1    3    3    0  502  0.22581611816E+03 -0.99771309906E+03 -0.10900836887E+04  0.14948935767E+04  0.10100000352E+00 0. -1.
</event>
<event>
 5   0  0.2456600E-06  0.2651492E+04  0.7818609E-02  0.8350918E-01
       -1   -1    0    0    0  501  0.00000000000E+00  0.00000000000E+00  0.96503620601E+03  0.96503620602E+03  0.50400001928E-02 0.  1.
        1   -1    0    0  501    0  0.00000000000E+00  0.00000000000E+00 -0.18212813997E+04  0.18212813997E+04  0.50400001928E-02 0. -1.
    10030    2    1    2    0    0  0.00000000000E+00  0.00000000000E+00 -0.85624519368E+03  0.27863176057E+04  0.26514920268E+04 0.  0.
        5    1    3    3  502    0 -0.10748347468E+02  0.10140610651E+03 -0.18171452444E+04  0.18200103446E+04  0.46999998093E+01 0. -1.
       -5    1    3    3    0  502  0.10748347468E+02 -0.10140610651E+03  0.96090005069E+03  0.96630726109E+03  0.46999998093E+01 0.  1.
</event>
<event>
 5   0  0.2503292E-06  0.2596694E+04  0.7818609E-02  0.8369325E-01
       -1   -1    0    0    0  501  0.00000000000E+00  0.00000000000E+00  0.70102071746E+03  0.70102071748E+03  0.50400001928E-02 0. -1.
        1   -1    0    0  501    0  0.00000000000E+00  0.00000000000E+00 -0.24046435978E+04  0.24046435979E+04  0.50400001928E-02 0.  1.
    10030    2    1    2    0    0  0.00000000000E+00  0.00000000000E+00 -0.17036228804E+04  0.31056643153E+04  0.25966940368E+04 0.  0.
        2    1    3    3  502    0  0.42279497597E+03 -0.69679315784E+03  0.35694209182E+03  0.88976623527E+03  0.25500000920E-02 0.  1.
       -2    1    3    3    0  502 -0.42279497597E+03  0.69679315784E+03 -0.20605649722E+04  0.22158980801E+04  0.25500000920E-02 0. -1.
</event>
<event>
 5   0  0.5940748E-06  0.2599919E+04  0.7818609E-02  0.8368229E-01
       -2   -1    0    0    0  501  0.00000000000E+00  0.00000000000E+00  0.11025558022E+04  0.11025558022E+04  0.25500000920E-02 0.  1.
        2   -1    0    0  501    0  0.00000000000E+00  0.00000000000E+00 -0.15327072268E+04  0.15327072268E+04  0.25500000920E-02 0. -1.
    10030    2    1    2    0    0  0.00000000000E+00  0.00000000000E+00 -0.43015142464E+03  0.26352630290E+04  0.25999194187E+04 0.  0.
        1    1    3    3  502    0  0.16531094295E+03 -0.87759771958E+03  0.74243000436E+03  0.11613387863E+04  0.50400001928E-02 0.  1.
       -1    1    3    3    0  502 -0.16531094295E+03  0.87759771958E+03 -0.11725814290E+04  0.14739242426E+04  0.50400001928E-02 0. -1.
</event>
<event>
 5   0  0.5942229E-06  0.2580452E+04  0.7818609E-02  0.8374872E-01
        2   -1    0    0  501    0  0.00000000000E+00  0.00000000000E+00  0.11957675610E+04  0.11957675610E+04  0.25500000920E-02 0.  1.
       -2   -1    0    0    0  501  0.00000000000E+00  0.00000000000E+00 -0.13921462243E+04  0.13921462243E+04  0.25500000920E-02 0. -1.
    10030    2    1    2    0    0  0.00000000000E+00  0.00000000000E+00 -0.19637866325E+03  0.25879137853E+04  0.25804521272E+04 0.  0.
        4    1    3    3  502    0 -0.57124558254E+03  0.52607241892E+03 -0.11315123030E+04  0.13723685403E+04  0.12699999809E+01 0. -1.
       -4    1    3    3    0  502  0.57124558254E+03 -0.52607241892E+03  0.93513363979E+03  0.12155452450E+04  0.12699999809E+01 0.  1.
</event>
<event>
 5   0  0.6173140E-06  0.2589794E+04  0.7818609E-02  0.8371676E-01
        2   -1    0    0  501    0  0.00000000000E+00  0.00000000000E+00  0.15590647583E+04  0.15590647583E+04  0.25500000920E-02 0.  1.
       -2   -1    0    0    0  501  0.00000000000E+00  0.00000000000E+00 -0.10754898753E+04  0.10754898753E+04  0.25500000920E-02 0. -1.
    10030    2    1    2    0    0  0.00000000000E+00  0.00000000000E+00  0.48357488304E+03  0.26345546336E+04  0.25897940941E+04 0.  0.
        3    1    3    3  502    0 -0.28228685293E+03  0.84681267465E+03 -0.71249858823E+03  0.11421172539E+04  0.10100000352E+00 0. -1.
       -3    1    3    3    0  502  0.28228685293E+03 -0.84681267465E+03  0.11960734713E+04  0.14924373796E+04  0.10100000352E+00 0.  1.
</event>
<event>
 5   0  0.2440590E-06  0.2603929E+04  0.7818609E-02  0.8366868E-01
       -1   -1    0    0    0  501  0.00000000000E+00  0.00000000000E+00  0.10090816591E+04  0.10090816591E+04  0.50400001928E-02 0. -1.
        1   -1    0    0  501    0  0.00000000000E+00  0.00000000000E+00 -0.16798551601E+04  0.16798551601E+04  0.50400001928E-02 0.  1.
    10030    2    1    2    0    0  0.00000000000E+00  0.00000000000E+00 -0.67077350102E+03  0.26889368192E+04  0.26039285951E+04 0.  0.
        1    1    3    3  502    0 -0.90728965588E+03 -0.90343975467E+03 -0.91601058403E+02  0.12836544176E+04  0.50400001928E-02 0. -1.
       -1    1    3    3    0  502  0.90728965588E+03  0.90343975467E+03 -0.57917244262E+03  0.14052824016E+04  0.50400001928E-02 0.  1.
</event>
<event>
 5   0  0.6158063E-06  0.2597092E+04  0.7818609E-02  0.8369190E-01
        2   -1    0    0  501    0  0.00000000000E+00  0.00000000000E+00  0.10249002379E+04  0.10249002380E+04  0.25500000920E-02 0.  1.
       -2   -1    0    0    0  501  0.00000000000E+00  0.00000000000E+00 -0.16452541831E+04  0.16452541831E+04  0.25500000920E-02 0. -1.
    10030    2    1    2    0    0  0.00000000000E+00  0.00000000000E+00 -0.62035394515E+03  0.26701544211E+04  0.25970917610E+04 0.  0.
        2    1    3    3  502    0  0.12666172346E+04  0.28533803591E+03 -0.33280499983E+03  0.13403343544E+04  0.25500000920E-02 0. -1.
       -2    1    3    3    0  502 -0.12666172346E+04 -0.28533803591E+03 -0.28754894532E+03  0.13298200666E+04  0.25500000920E-02 0.  1.
</event>
<event>
 5   0  0.2440590E-06  0.2593817E+04  0.7818609E-02  0.8370304E-01
       -1   -1    0    0    0  501  0.00000000000E+00  0.00000000000E+00  0.86465380664E+03  0.86465380665E+03  0.50400001928E-02 0. -1.
        1   -1    0    0  501    0  0.00000000000E+00  0.00000000000E+00 -0.19452543736E+04  0.19452543737E+04  0.50400001928E-02 0.  1.
    10030    2    1    2    0    0  0.00000000000E+00  0.00000000000E+00 -0.10806005670E+04  0.28099081803E+04  0.25938169551E+04 0.  0.
        1    1    3    3  502    0 -0.23221229781E+03  0.12659742276E+04 -0.71280973577E+03  0.14712956928E+04  0.50400001928E-02 0. -1.
       -1    1    3    3    0  502  0.23221229781E+03 -0.12659742276E+04 -0.36779083124E+03  0.13386124875E+04  0.50400001928E-02 0.  1.
</event>
<event>
 5   0  0.2503292E-06  0.2670694E+04  0.7818609E-02  0.8344577E-01
        1   -1    0    0  501    0  0.00000000000E+00  0.00000000000E+00  0.10225391319E+04  0.10225391319E+04  0.50400001928E-02 0.  1.
       -1   -1    0    0    0  501  0.00000000000E+00  0.00000000000E+00 -0.17438469703E+04  0.17438469703E+04  0.50400001928E-02 0. -1.
    10030    2    1    2    0    0  0.00000000000E+00  0.00000000000E+00 -0.72130783839E+03  0.27663861022E+04  0.26706941174E+04 0.  0.
        2    1    3    3  502    0 -0.15937138766E+03  0.11654010384E+04 -0.10154371549E+04  0.15539213092E+04  0.25500000920E-02 0. -1.
       -2    1    3    3    0  502  0.15937138766E+03 -0.11654010384E+04  0.29412931652E+03  0.12124647931E+04  0.25500000920E-02 0.  1.
</event>
<event>
 5   0  0.6161834E-06  0.2603633E+04  0.7818609E-02  0.8366968E-01
        2   -1    0    0  501    0  0.00000000000E+00  0.00000000000E+00  0.13251304352E+04  0.13251304352E+04  0.25500000920E-02 0.  1.
       -2   -1    0    0    0  501  0.00000000000E+00  0.00000000000E+00 -0.12789130821E+04  0.12789130821E+04  0.25500000920E-02 0. -1.
    10030    2    1    2    0    0  0.00000000000E+00  0.00000000000E+00  0.46217353082E+02  0.26040435172E+04  0.26036333451E+04 0.  0.
        5    1    3    3  502    0 -0.10444895109E+04  0.64944133234E+03  0.44975784875E+03  0.13095940574E+04  0.46999998093E+01 0. -1.
       -5    1    3    3    0  502  0.10444895109E+04 -0.64944133234E+03 -0.40354049567E+03  0.12944494599E+04  0.46999998093E+01 0.  1.
</event>
<event>
 5   0  0.2440590E-06  0.2599112E+04  0.7818609E-02  0.8368503E-01
       -1   -1    0    0    0  501  0.00000000000E+00  0.00000000000E+00  0.13918717694E+04  0.13918717694E+04  0.50400001928E-02 0. -1.
        1   -1    0    0  501    0  0.00000000000E+00  0.00000000000E+00 -0.12133629649E+04  0.12133629649E+04  0.50400001928E-02 0.  1.
    10030    2    1    2    0    0  0.00000000000E+00  0.00000000000E+00  0.17850880454E+03  0.26052347343E+04  0.25991118920E+04 0.  0.
        1    1    3    3  502    0  0.96476159871E+03  0.87032570868E+03  0.11408927564E+03  0.13043190347E+04  0.50400001928E-02 0.  1.
       -1    1    3    3    0  502 -0.96476159871E+03 -0.87032570868E+03  0.64419528892E+02  0.13009156995E+04  0.50400001928E-02 0. -1.
</event>
<event>
 5   0  0.5942229E-06  0.2599987E+04  0.7818609E-02  0.8368206E-01
       -2   -1    0    0    0  501  0.00000000000E+00  0.00000000000E+00  0.86398459473E+03  0.86398459473E+03  0.25500000920E-02 0.  1.
        2   -1    0    0  501    0  0.00000000000E+00  0.00000000000E+00 -0.19560337087E+04  0.19560337087E+04  0.25500000920E-02 0. -1.
    10030    2    1    2    0    0  0.00000000000E+00  0.00000000000E+00 -0.10920491140E+04  0.28200183034E+04  0.25999869162E+04 0.  0.
        4    1    3    3  502    0  0.89898218924E+03 -0.10051394387E+03  0.46664234669E+03  0.10178549612E+04  0.12699999809E+01 0.  1.
       -4    1    3    3    0  502 -0.89898218924E+03  0.10051394387E+03 -0.15586914607E+04  0.18021633422E+04  0.12699999809E+01 0. -1.
</event>
<event>
 5   0  0.2456600E-06  0.2577701E+04  0.7818609E-02  0.8375815E-01
       -1   -1    0    0    0  501  0.00000000000E+00  0.00000000000E+00  0.10806578325E+04  0.10806578325E+04  0.50400001928E-02 0.  1.
        1   -1    0    0  501    0  0.00000000000E+00  0.00000000000E+00 -0.15371518546E+04  0.15371518546E+04  0.50400001928E-02 0. -1.
    10030    2    1    2    0    0  0.00000000000E+00  0.00000000000E+00 -0.45649402210E+03  0.26178096871E+04  0.25777006742E+04 0.  0.
        5    1    3    3  502    0  0.58377333886E+03 -0.82418702531E+03 -0.10413532924E+04  0.14506944315E+04  0.46999998093E+01 0. -1.
       -5    1    3    3    0  502 -0.58377333886E+03  0.82418702531E+03  0.58485927031E+03  0.11671152556E+04  0.46999998093E+01 0.  1.
</event>
<event>
 5   0  0.6173140E-06  0.2599776E+04  0.7818609E-02  0.8368277E-01
        2   -1    0    0  501    0  0.00000000000E+00  0.00000000000E+00  0.14364923945E+04  0.14364923945E+04  0.25500000920E-02 0. -1.
       -2   -1    0    0    0  501  0.00000000000E+00  0.00000000000E+00 -0.11762744430E+04  0.11762744430E+04  0.25500000920E-02 0.  1.
    10030    2    1    2    0    0  0.00000000000E+00  0.00000000000E+00  0.26021795151E+03  0.26127668374E+04  0.25997763682E+04 0.  0.
        3    1    3    3  502    0  0.33365136863E+03 -0.12186722171E+04 -0.17674284092E+03  0.12758225780E+04  0.10100000352E+00 0.  1.
       -3    1    3    3    0  502 -0.33365136863E+03  0.12186722171E+04  0.43696079242E+03  0.13369442594E+04  0.10100000352E+00 0. -1.
</event>
<event>
 5   0  0.6173140E-06  0.2595408E+04  0.7818609E-02  0.8369763E-01
       -2   -1    0    0    0  501  0.00000000000E+00  0.00000000000E+00  0.94647485321E+03  0.94647485321E+03  0.25500000920E-02 0. -1.
        2   -1    0    0  501    0  0.00000000000E+00  0.00000000000E+00 -0.17792714197E+04  0.17792714197E+04  0.25500000920E-02 0.  1.
    10030    2    1    2    0    0  0.00000000000E+00  0.00000000000E+00 -0.83279656653E+03  0.27257462730E+04  0.25954079878E+04 0.  0.
        3    1    3    3  502    0  0.59044370295E+03  0.67682111334E+03 -0.14000923623E+04  0.16634209386E+04  0.10100000352E+00 0.  1.
       -3    1    3    3    0  502 -0.59044370295E+03 -0.67682111334E+03  0.56729579580E+03  0.10623253343E+04  0.10100000352E+00 0. -1.
</event>
<event>
 5   0  0.2333979E-06  0.2595497E+04  0.7818609E-02  0.8369732E-01
       -1   -1    0    0    0  501  0.00000000000E+00  0.00000000000E+00  0.12247596402E+04  0.12247596403E+04  0.50400001928E-02 0. -1.
        1   -1    0    0  501    0  0.00000000000E+00  0.00000000000E+00 -0.13750875742E+04  0.13750875742E+04  0.50400001928E-02 0.  1.
    10030    2    1    2    0    0  0.00000000000E+00  0.00000000000E+00 -0.15032793392E+03  0.25998472144E+04  0.25954974573E+04 0.  0.
        3    1    3    3  502    0  0.10993596292E+03 -0.10418804462E+04  0.69198569549E+03  0.12555656068E+04  0.10100000352E+00 0. -1.
       -3    1    3    3    0  502 -0.10993596292E+03  0.10418804462E+04 -0.84231362941E+03  0.13442816076E+04  0.10100000352E+00 0.  1.
</event>
<event>
 5   0  0.6158063E-06  0.2596246E+04  0.7818609E-02  0.8369478E-01
        2   -1    0    0  501    0  0.00000000000E+00  0.00000000000E+00  0.13232356867E+04  0.13232356868E+04  0.25500000920E-02 0.  1.
       -2   -1    0    0    0  501  0.00000000000E+00  0.00000000000E+00 -0.12734865648E+04  0.12734865648E+04  0.25500000920E-02 0. -1.
    10030    2    1    2    0    0  0.00000000000E+00  0.00000000000E+00  0.49749121933E+02  0.25967222516E+04  0.25962456503E+04 0.  0.
        2    1    3    3  502    0 -0.58573886394E+03  0.48203006427E+03  0.10784813767E+04  0.13185465784E+04  0.25500000920E-02 0. -1.
       -2    1    3    3    0  502  0.58573886394E+03 -0.48203006427E+03 -0.10287322547E+04  0.12781756732E+04  0.25500000920E-02 0.  1.
</event>
<event>
 5   0  0.5942229E-06  0.2601009E+04  0.7818609E-02  0.8367859E-01
       -2   -1    0    0    0  501  0.00000000000E+00  0.00000000000E+00  0.83762757298E+03  0.83762757298E+03  0.25500000920E-02 0. -1.
        2   -1    0    0  501    0  0.00000000000E+00  0.00000000000E+00 -0.20191687535E+04  0.20191687535E+04  0.25500000920E-02 0.  1.
    10030    2    1    2    0    0  0.00000000000E+00  0.00000000000E+00 -0.11815411805E+04  0.28567963265E+04  0.26010085908E+04 0.  0.
        4    1    3    3  502    0  0.14315508653E+03  0.59466497710E+03 -0.18513253130E+04  0.19497504561E+04  0.12699999809E+01 0.  1.
       -4    1    3    3    0  502 -0.14315508653E+03 -0.59466497710E+03  0.66978413250E+03  0.90704587031E+03  0.12699999809E+01 0. -1.
</event>
<event>
 5   0  0.5942229E-06  0.2597832E+04  0.7818609E-02  0.8368938E-01
       -2   -1    0    0    0  501  0.00000000000E+00  0.00000000000E+00  0.11617512923E+04  0.11617512923E+04  0.25500000920E-02 0.  1.
        2   -1    0    0  501    0  0.00000000000E+00  0.00000000000E+00 -0.14522748035E+04  0.14522748035E+04  0.25500000920E-02 0. -1.
    10030    2    1    2    0    0  0.00000000000E+00  0.00000000000E+00 -0.29052351119E+03  0.26140260958E+04  0.25978315032E+04 0.  0.
        4    1    3    3  502    0  0.11076676331E+04 -0.59750157457E+03 -0.46858210029E+03  0.13429469515E+04  0.12699999809E+01 0.  1.
       -4    1    3    3    0  502 -0.11076676331E+04  0.59750157457E+03  0.17805858909E+03  0.12710791443E+04  0.12699999809E+01 0. -1.
</event>
<event>
 5   0  0.2471488E-06  0.2598784E+04  0.7818609E-02  0.8368614E-01
        1   -1    0    0  501    0  0.00000000000E+00  0.00000000000E+00  0.20376801150E+04  0.20376801150E+04  0.50400001928E-02 0.  1.
       -1   -1    0    0    0  501  0.00000000000E+00  0.00000000000E+00 -0.82859893704E+03  0.82859893706E+03  0.50400001928E-02 0. -1.
    10030    2    1    2    0    0  0.00000000000E+00  0.00000000000E+00  0.12090811779E+04  0.28662790520E+04  0.25987840059E+04 0.  0.
        4    1    3    3  502    0 -0.68021041976E+03 -0.74020190573E+03  0.15125902545E+04  0.18161816999E+04  0.12699999809E+01 0.  1.
       -4    1    3    3    0  502  0.68021041976E+03  0.74020190573E+03 -0.30350907655E+03  0.10500973521E+04  0.12699999809E+01 0. -1.
</event>
<event>
 5   0  0.2333979E-06  0.2594578E+04  0.7818609E-02  0.8370045E-01
        1   -1    0    0  501    0  0.00000000000E+00  0.00000000000E+00  0.13849479808E+04  0.13849479808E+04  0.50400001928E-02 0. -1.
       -1   -1    0    0    0  501  0.00000000000E+00  0.00000000000E+00 -0.12151781880E+04  0.12151781880E+04  0.50400001928E-02 0.  1.
    10030    2    1    2    0    0  0.00000000000E+00  0.00000000000E+00  0.16976979285E+03  0.26001261688E+04  0.25945778676E+04 0.  0.
        3    1    3    3  502    0 -0.98673237106E+03 -0.30416482185E+03  0.87193149012E+03  0.13514516435E+04  0.10100000352E+00 0. -1.
       -3    1    3    3    0  502  0.98673237106E+03  0.30416482185E+03 -0.70216169727E+03  0.12486745253E+04  0.10100000352E+00 0.  1.
</event>
<event>
 5   0  0.2440590E-06  0.2674456E+04  0.7818609E-02  0.8343341E-01
        1   -1    0    0  501    0  0.00000000000E+00  0.00000000000E+00  0.21928413403E+04  0.21928413403E+04  0.50400001928E-02 0.  1.
       -1   -1    0    0    0  501  0.00000000000E+00  0.00000000000E+00 -0.81546191983E+03  0.81546191985E+03  0.50400001928E-02 0. -1.
    10030    2    1    2    0    0  0.00000000000E+00  0.00000000000E+00  0.13773794205E+04  0.30083032601E+04  0.26744559142E+04 0.  0.
        1    1    3    3  502    0 -0.45784950570E+03  0.12379454996E+04  0.44732722623E+03  0.13936415885E+04  0.50400001928E-02 0. -1.
       -1    1    3    3    0  502  0.45784950570E+03 -0.12379454996E+04  0.93005219423E+03  0.16146616716E+04  0.50400001928E-02 0.  1.
</event>
<event>
 5   0  0.2471488E-06  0.2609475E+04  0.7818609E-02  0.8364990E-01
       -1   -1    0    0    0  501  0.00000000000E+00  0.00000000000E+00  0.85456516572E+03  0.85456516573E+03  0.50400001928E-02 0.  1.
        1   -1    0    0  501    0  0.00000000000E+00  0.00000000000E+00 -0.19920546720E+04  0.19920546721E+04  0.50400001928E-02 0. -1.
    10030    2    1    2    0    0  0.00000000000E+00  0.00000000000E+00 -0.11374895063E+04  0.28466198378E+04  0.26094754499E+04 0.  0.
        4    1    3    3  502    0 -0.75380107838E+03 -0.93839883503E+03 -0.11180216651E+04  0.16427971560E+04  0.12699999809E+01 0. -1.
       -4    1    3    3    0  502  0.75380107838E+03  0.93839883503E+03 -0.19467841234E+02  0.12038226817E+04  0.12699999809E+01 0.  1.
</event>
<event>
 5   0  0.2440590E-06  0.2597031E+04  0.7818609E-02  0.8369210E-01
       -1   -1    0    0    0  501  0.00000000000E+00  0.00000000000E+00  0.11030521812E+04  0.11030521812E+04  0.50400001928E-02 0.  1.
        1   -1    0    0  501    0  0.00000000000E+00  0.00000000000E+00 -0.15286156304E+04  0.15286156304E+04  0.50400001928E-02 0. -1.
    10030    2    1    2    0    0  0.00000000000E+00  0.00000000000E+00 -0.42556344913E+03  0.26316678116E+04  0.25970312323E+04 0.  0.
        1    1    3    3  502    0  0.49204913506E+02 -0.56727528267E+03  0.96979619071E+03  0.11246008276E+04  0.50400001928E-02 0.  1.
       -1    1    3    3    0  502 -0.49204913506E+02  0.56727528267E+03 -0.13953596398E+04  0.15070669840E+04  0.50400001928E-02 0. -1.
</event>
<event>
 5   0  0.6158063E-06  0.2610142E+04  0.7818609E-02  0.8364764E-01
       -2   -1    0    0    0  501  0.00000000000E+00  0.00000000000E+00  0.67531676816E+03  0.67531676817E+03  0.25500000920E-02 0. -1.
        2   -1    0    0  501    0  0.00000000000E+00  0.00000000000E+00 -0.25220916769E+04  0.25220916769E+04  0.25500000920E-02 0.  1.
    10030    2    1    2    0    0  0.00000000000E+00  0.00000000000E+00 -0.18467749087E+04  0.31974084450E+04  0.26101423718E+04 0.  0.
        2    1    3    3  502    0 -0.61297430547E+03  0.42127680673E+03 -0.22370465619E+04  0.23574539163E+04  0.25500000920E-02 0.  1.
       -2    1    3    3    0  502  0.61297430547E+03 -0.42127680673E+03  0.39027165324E+03  0.83995452876E+03  0.25500000920E-02 0. -1.
</event>
<event>
 5   0  0.2471488E-06  0.2626806E+04  0.7818609E-02  0.8359152E-01
        1   -1    0    0  501    0  0.00000000000E+00  0.00000000000E+00  0.14647690487E+04  0.14647690487E+04  0.50400001928E-02 0.  1.
       -1   -1    0    0    0  501  0.00000000000E+00  0.00000000000E+00 -0.11776790089E+04  0.11776790089E+04  0.50400001928E-02 0. -1.
    10030    2    1    2    0    0  0.00000000000E+00  0.00000000000E+00  0.28709003976E+03  0.26424480576E+04  0.26268062445E+04 0.  0.
        4    1    3    3  502    0 -0.87011521720E+03  0.94032023965E+03  0.43461815134E+03  0.13528478091E+04  0.12699999809E+01 0.  1.
       -4    1    3    3    0  502  0.87011521720E+03 -0.94032023965E+03 -0.14752811158E+03  0.12896002485E+04  0.12699999809E+01 0. -1.
</event>
<event>
 5   0  0.6158063E-06  0.2592715E+04  0.7818609E-02  0.8370680E-01
        2   -1    0    0  501    0  0.00000000000E+00  0.00000000000E+00  0.18327629818E+04  0.18327629818E+04  0.25500000920E-02 0. -1.
       -2   -1    0    0    0  501  0.00000000000E+00  0.00000000000E+00 -0.91694468116E+03  0.91694468116E+03  0.25500000920E-02 0.  1.
    10030    2    1    2    0    0  0.00000000000E+00  0.00000000000E+00  0.91581830065E+03  0.27497076630E+04  0.25927146145E+04 0.  0.
        2    1    3    3  502    0 -0.61504840261E+03  0.10167247565E+04 -0.91665891003E+02  0.11918122350E+04  0.25500000920E-02 0.  1.
       -2    1    3    3    0  502  0.61504840261E+03 -0.10167247565E+04  0.10074841917E+04  0.15578954279E+04  0.25500000920E-02 0. -1.
</event>
<event>
 5   0  0.2440590E-06  0.2597293E+04  0.7818609E-02  0.8369121E-01
        1   -1    0    0  501    0  0.00000000000E+00  0.00000000000E+00  0.16052097156E+04  0.16052097156E+04  0.50400001928E-02 0.  1.
       -1   -1    0    0    0  501  0.00000000000E+00  0.00000000000E+00 -0.10506309948E+04  0.10506309948E+04  0.50400001928E-02 0. -1.
    10030    2    1    2    0    0  0.00000000000E+00  0.00000000000E+00  0.55457872076E+03  0.26558407104E+04  0.25972932683E+04 0.  0.
        1    1    3    3  502    0 -0.10368985661E+04  0.43732250368E+03  0.94003009057E+03  0.14663103968E+04  0.50400001928E-02 0.  1.
       -1    1    3    3    0  502  0.10368985661E+04 -0.43732250368E+03 -0.38545136980E+03  0.11895303136E+04  0.50400001928E-02 0. -1.
</event>
<event>
 5   0  0.2333979E-06  0.2609077E+04  0.7818609E-02  0.8365124E-01
        1   -1    0    0  501    0  0.00000000000E+00  0.00000000000E+00  0.16812910920E+04  0.16812910920E+04  0.50400001928E-02 0.  1.
       -1   -1    0    0    0  501  0.00000000000E+00  0.00000000000E+00 -0.10122108961E+04  0.10122108961E+04  0.50400001928E-02 0. -1.
    10030    2    1    2    0    0  0.00000000000E+00  0.00000000000E+00  0.66908019592E+03  0.26935019880E+04  0.26090773563E+04 0.  0.
        3    1    3    3  502    0  0.22619800583E+02 -0.13037419435E+04  0.29368112090E+03  0.13366014072E+04  0.10100000352E+00 0. -1.
       -3    1    3    3    0  502 -0.22619800583E+02  0.13037419435E+04  0.37539907502E+03  0.13569005809E+04  0.10100000352E+00 0.  1.
</event>
<event>
 5   0  0.6158063E-06  0.2601885E+04  0.7818609E-02  0.8367561E-01
       -2   -1    0    0    0  501  0.00000000000E+00  0.00000000000E+00  0.96368850876E+03  0.96368850876E+03  0.25500000920E-02 0. -1.
        2   -1    0    0  501    0  0.00000000000E+00  0.00000000000E+00 -0.17562221856E+04  0.17562221856E+04  0.25500000920E-02 0.  1.
    10030    2    1    2    0    0  0.00000000000E+00  0.00000000000E+00 -0.79253367685E+03  0.27199106944E+04  0.26018848085E+04 0.  0.
        2    1    3    3  502    0  0.63371690857E+03 -0.13233361934E+03  0.78334489194E+03  0.10162374362E+04  0.25500000920E-02 0. -1.
       -2    1    3    3    0  502 -0.63371690857E+03  0.13233361934E+03 -0.15758785688E+04  0.17036732582E+04  0.25500000920E-02 0.  1.
</event>
<event>
 5   0  0.5940748E-06  0.2596561E+04  0.7818609E-02  0.8369370E-01
        2   -1    0    0  501    0  0.00000000000E+00  0.00000000000E+00  0.20137810539E+04  0.20137810539E+04  0.25500000920E-02 0.  1.
       -2   -1    0    0    0  501  0.00000000000E+00  0.00000000000E+00 -0.83699874606E+03  0.83699874606E+03  0.25500000920E-02 0. -1.
    10030    2    1    2    0    0  0.00000000000E+00  0.00000000000E+00  0.11767823078E+04  0.28507798000E+04  0.25965609694E+04 0.  0.
        1    1    3    3  502    0  0.12479157887E+04 -0.34572460111E+03  0.48590940023E+03  0.13830861364E+04  0.50400001928E-02 0.  1.
       -1    1    3    3    0  502 -0.12479157887E+04  0.34572460111E+03  0.69087290759E+03  0.14676936635E+04  0.50400001928E-02 0. -1.
</event>
<event>
 5   0  0.6161834E-06  0.2653013E+04  0.7818609E-02  0.8350414E-01
        2   -1    0    0  501    0  0.00000000000E+00  0.00000000000E+00  0.21399739180E+04  0.21399739180E+04  0.25500000920E-02 0. -1.
       -2   -1    0    0    0  501  0.00000000000E+00  0.00000000000E+00 -0.82226198421E+03  0.82226198422E+03  0.25500000920E-02 0.  1.
    10030    2    1    2    0    0  0.00000000000E+00  0.00000000000E+00  0.13177119337E+04  0.29622359022E+04  0.26530127779E+04 0.  0.
        5    1    3    3  502    0 -0.11583694714E+03  0.11018625329E+04 -0.15560054082E+03  0.11188176161E+04  0.46999998093E+01 0.  1.
       -5    1    3    3    0  502  0.11583694714E+03 -0.11018625329E+04  0.14733124746E+04  0.18434182861E+04  0.46999998093E+01 0. -1.
</event>
<event>
 5   0  0.2471488E-06  0.2598253E+04  0.7818609E-02  0.8368795E-01
       -1   -1    0    0    0  501  0.00000000000E+00  0.00000000000E+00  0.10898465462E+04  0.10898465462E+04  0.50400001928E-02 0.  1.
        1   -1    0    0  501    0  0.00000000000E+00  0.00000000000E+00 -0.15485944013E+04  0.15485944013E+04  0.50400001928E-02 0. -1.
    10030    2    1    2    0    0  0.00000000000E+00  0.00000000000E+00 -0.45874785509E+03  0.26384409475E+04  0.25982534594E+04 0.  0.
        4    1    3    3  502    0 -0.65840605093E+03  0.10703257673E+04 -0.56406682228E+03  0.13774137973E+04  0.12699999809E+01 0.  1.
       -4    1    3    3    0  502  0.65840605093E+03 -0.10703257673E+04  0.10531896719E+03  0.12610271503E+04  0.12699999809E+01 0. -1.
</event>
<event>
 5   0  0.2440590E-06  0.2601039E+04  0.7818609E-02  0.8367848E-01
       -1   -1    0    0    0  501  0.00000000000E+00  0.00000000000E+00  0.87267947604E+03  0.87267947606E+03  0.50400001928E-02 0. -1.
        1   -1    0    0  501    0  0.00000000000E+00  0.00000000000E+00 -0.19381124071E+04  0.19381124071E+04  0.50400001928E-02 0.  1.
    10030    2    1    2    0    0  0.00000000000E+00  0.00000000000E+00 -0.10654329311E+04  0.28107918832E+04  0.26010389616E+04 0.  0.
        1    1    3    3  502    0  0.21944187281E+03  0.68925344013E+03 -0.17006729333E+04  0.18481107830E+04  0.50400001928E-02 0.  1.
       -1    1    3    3    0  502 -0.21944187281E+03 -0.68925344013E+03  0.63524000218E+03  0.96268110019E+03  0.50400001928E-02 0. -1.
</event>
<event>
 5   0  0.2333979E-06  0.2585828E+04  0.7818609E-02  0.8373031E-01
        1   -1    0    0  501    0  0.00000000000E+00  0.00000000000E+00  0.15408973490E+04  0.15408973490E+04  0.50400001928E-02 0.  1.
       -1   -1    0    0    0  501  0.00000000000E+00  0.00000000000E+00 -0.10848395553E+04  0.10848395553E+04  0.50400001928E-02 0. -1.
    10030    2    1    2    0    0  0.00000000000E+00  0.00000000000E+00  0.45605779373E+03  0.26257369043E+04  0.25858278326E+04 0.  0.
        3    1    3    3  502    0  0.15754179265E+03  0.12686992088E+04  0.42390311210E+03  0.13468893635E+04  0.10100000352E+00 0.  1.
       -3    1    3    3    0  502 -0.15754179265E+03 -0.12686992088E+04  0.32154681630E+02  0.12788475408E+04  0.10100000352E+00 0. -1.
</event>
<event>
 5   0  0.6173140E-06  0.2603898E+04  0.7818609E-02  0.8366878E-01
        2   -1    0    0  501    0  0.00000000000E+00  0.00000000000E+00  0.97977306914E+03  0.97977306915E+03  0.25500000920E-02 0.  1.
       -2   -1    0    0    0  501  0.00000000000E+00  0.00000000000E+00 -0.17300645250E+04  0.17300645250E+04  0.25500000920E-02 0. -1.
    10030    2    1    2    0    0  0.00000000000E+00  0.00000000000E+00 -0.75029145590E+03  0.27098375942E+04  0.26038975629E+04 0.  0.
        3    1    3    3  502    0  0.12806545378E+04 -0.12996199479E+03 -0.57829124388E+03  0.14111650995E+04  0.10100000352E+00 0. -1.
       -3    1    3    3    0  502 -0.12806545378E+04  0.12996199479E+03 -0.17200021201E+03  0.12986724946E+04  0.10100000352E+00 0.  1.
</event>
<event>
 5   0  0.6158063E-06  0.2589334E+04  0.7818609E-02  0.8371833E-01
       -2   -1    0    0    0  501  0.00000000000E+00  0.00000000000E+00  0.99325784951E+03  0.99325784951E+03  0.25500000920E-02 0. -1.
        2   -1    0    0  501    0  0.00000000000E+00  0.00000000000E+00 -0.16875405034E+04  0.16875405034E+04  0.25500000920E-02 0.  1.
    10030    2    1    2    0    0  0.00000000000E+00  0.00000000000E+00 -0.69428265385E+03  0.26807983529E+04  0.25893341625E+04 0.  0.
        2    1    3    3  502    0  0.29092477214E+03 -0.67088313842E+03 -0.14532629062E+04  0.16268664614E+04  0.25500000920E-02 0.  1.
       -2    1    3    3    0  502 -0.29092477214E+03  0.67088313842E+03  0.75898025237E+03  0.10539318915E+04  0.25500000920E-02 0. -1.
</event>
<event>
 5   0  0.2503292E-06  0.2603263E+04  0.7818609E-02  0.8367094E-01
       -1   -1    0    0    0  501  0.00000000000E+00  0.00000000000E+00  0.15296752671E+04  0.15296752671E+04  0.50400001928E-02 0.  1.
        1   -1    0    0  501    0  0.00000000000E+00  0.00000000000E+00 -0.11075840842E+04  0.11075840842E+04  0.50400001928E-02 0. -1.
    10030    2    1    2    0    0  0.00000000000E+00  0.00000000000E+00  0.42209118293E+03  0.26372593513E+04  0.26032625529E+04 0.  0.
        2    1    3    3  502    0  0.59450752478E+03 -0.47342484129E+03  0.12815735499E+04  0.14899667920E+04  0.25500000920E-02 0.  1.
       -2    1    3    3    0  502 -0.59450752478E+03  0.47342484129E+03 -0.85948236701E+03  0.11472925593E+04  0.25500000920E-02 0. -1.
</event>
<event>
 5   0  0.2503292E-06  0.2595749E+04  0.7818609E-02  0.8369647E-01
       -1   -1    0    0    0  501  0.00000000000E+00  0.00000000000E+00  0.69003891259E+03  0.69003891261E+03  0.50400001928E-02 0. -1.
        1   -1    0    0  501    0  0.00000000000E+00  0.00000000000E+00 -0.24411344110E+04  0.24411344110E+04  0.50400001928E-02 0.  1.
    10030    2    1    2    0    0  0.00000000000E+00  0.00000000000E+00 -0.17510954984E+04  0.31311733236E+04  0.25957486277E+04 0.  0.
        2    1    3    3  502    0  0.38703222930E+03 -0.11974740851E+04 -0.12584118034E+04  0.17797017722E+04  0.25500000920E-02 0.  1.
       -2    1    3    3    0  502 -0.38703222930E+03  0.11974740851E+04 -0.49268369501E+03  0.13514715514E+04  0.25500000920E-02 0. -1.
</event>
<event>
 5   0  0.5942229E-06  0.2655371E+04  0.7818609E-02  0.8349632E-01
        2   -1    0    0  501    0  0.00000000000E+00  0.00000000000E+00  0.21409557167E+04  0.21409557167E+04  0.25500000920E-02 0.  1.
       -2   -1    0    0    0  501  0.00000000000E+00  0.00000000000E+00 -0.82334667465E+03  0.82334667465E+03  0.25500000920E-02 0. -1.
    10030    2    1    2    0    0  0.00000000000E+00  0.00000000000E+00  0.13176090420E+04  0.29643023913E+04  0.26553709872E+04 0.  0.
        4    1    3    3  502    0 -0.68335154624E+03  0.21223239927E+03 -0.58967088077E+03  0.92721372270E+03  0.12699999809E+01 0. -1.
       -4    1    3    3    0  502  0.68335154624E+03 -0.21223239927E+03  0.19072799228E+04  0.20370886686E+04  0.12699999809E+01 0.  1.
</event>
<event>
 5   0  0.2333979E-06  0.2601532E+04  0.7818609E-02  0.8367681E-01
       -1   -1    0    0    0  501  0.00000000000E+00  0.00000000000E+00  0.10968918300E+04  0.10968918300E+04  0.50400001928E-02 0. -1.
        1   -1    0    0  501    0  0.00000000000E+00  0.00000000000E+00 -0.15425338958E+04  0.15425338958E+04  0.50400001928E-02 0.  1.
    10030    2    1    2    0    0  0.00000000000E+00  0.00000000000E+00 -0.44564206581E+03  0.26394257258E+04  0.26015324928E+04 0.  0.
        3    1    3    3  502    0  0.26898338829E+03  0.94166030267E+03  0.64575427393E+03  0.11730621387E+04  0.10100000352E+00 0. -1.
       -3    1    3    3    0  502 -0.26898338829E+03 -0.94166030267E+03 -0.10913963397E+04  0.14663635870E+04  0.10100000352E+00 0.  1.
</event>
<event>
 5   0  0.5940748E-06  0.2597077E+04  0.7818609E-02  0.8369195E-01
       -2   -1    0    0    0  501  0.00000000000E+00  0.00000000000E+00  0.67363119061E+03  0.67363119062E+03  0.25500000920E-02 0.  1.
        2   -1    0    0  501    0  0.00000000000E+00  0.00000000000E+00 -0.25031525460E+04  0.25031525460E+04  0.25500000920E-02 0. -1.
    10030    2    1    2    0    0  0.00000000000E+00  0.00000000000E+00 -0.18295213553E+04  0.31767837366E+04  0.25970765332E+04 0.  0.
        1    1    3    3  502    0  0.11740924557E+04 -0.54943824064E+03 -0.82139356630E+03  0.15346214079E+04  0.50400001928E-02 0. -1.
       -1    1    3    3    0  502 -0.11740924557E+04  0.54943824064E+03 -0.10081277890E+04  0.16421623287E+04  0.50400001928E-02 0.  1.
</event>
<event>
 5   0  0.2503292E-06  0.2628104E+04  0.7818609E-02  0.8358717E-01
       -1   -1    0    0    0  501  0.00000000000E+00  0.00000000000E+00  0.10043563047E+04  0.10043563047E+04  0.50400001928E-02 0.  1.
        1   -1    0    0  501    0  0.00000000000E+00  0.00000000000E+00 -0.17192430260E+04  0.17192430260E+04  0.50400001928E-02 0. -1.
    10030    2    1    2    0    0  0.00000000000E+00  0.00000000000E+00 -0.71488672130E+03  0.27235993307E+04  0.26281039344E+04 0.  0.
        2    1    3    3  502    0  0.61352631055E+03  0.44321884209E+03 -0.14706610085E+04  0.16539955494E+04  0.25500000920E-02 0. -1.
       -2    1    3    3    0  502 -0.61352631055E+03 -0.44321884209E+03  0.75577428718E+03  0.10696037813E+04  0.25500000920E-02 0.  1.
</event>
<event>
 5   0  0.2471488E-06  0.2604779E+04  0.7818609E-02  0.8366580E-01
       -1   -1    0    0    0  501  0.00000000000E+00  0.00000000000E+00  0.77630905346E+03  0.77630905347E+03  0.50400001928E-02 0.  1.
        1   -1    0    0  501    0  0.00000000000E+00  0.00000000000E+00 -0.21849774699E+04  0.21849774699E+04  0.50400001928E-02 0. -1.
    10030    2    1    2    0    0  0.00000000000E+00  0.00000000000E+00 -0.14086684165E+04  0.29612865234E+04  0.26047785254E+04 0.  0.
        4    1    3    3  502    0  0.80174214407E+03 -0.96750868923E+03 -0.31488029074E+03  0.12953820825E+04  0.12699999809E+01 0. -1.
       -4    1    3    3    0  502 -0.80174214407E+03  0.96750868923E+03 -0.10937881257E+04  0.16659044409E+04  0.12699999809E+01 0.  1.
</event>
<event>
 5   0  0.5942229E-06  0.2607711E+04  0.7818609E-02  0.8365587E-01
        2   -1    0    0  501    0  0.00000000000E+00  0.00000000000E+00  0.11060735829E+04  0.11060735829E+04  0.25500000920E-02 0.  1.
       -2   -1    0    0    0  501  0.00000000000E+00  0.00000000000E+00 -0.15370038394E+04  0.15370038394E+04  0.25500000920E-02 0. -1.
    10030    2    1    2    0    0  0.00000000000E+00  0.00000000000E+00 -0.43093025649E+03  0.26430774223E+04  0.26077111371E+04 0.  0.
        4    1    3    3  502    0  0.20828297328E+03 -0.12731626863E+04 -0.40700614755E+03  0.13527677701E+04  0.12699999809E+01 0. -1.
       -4    1    3    3    0  502 -0.20828297328E+03  0.12731626863E+04 -0.23924108941E+02  0.12903096522E+04  0.12699999809E+01 0.  1.
</event>
<event>
 5   0  0.6158063E-06  0.2604415E+04  0.7818609E-02  0.8366703E-01
        2   -1    0    0  501    0  0.00000000000E+00  0.00000000000E+00  0.17166577497E+04  0.17166577497E+04  0.25500000920E-02 0. -1.
       -2   -1    0    0    0  501  0.00000000000E+00  0.00000000000E+00 -0.98781723211E+03  0.98781723212E+03  0.25500000920E-02 0.  1.
    10030    2    1    2    0    0  0.00000000000E+00  0.00000000000E+00  0.72884051762E+03  0.27044749819E+04  0.26044147956E+04 0.  0.
        2    1    3    3  502    0 -0.95060117373E+02  0.55505921943E+03 -0.85483495199E+03  0.10236551949E+04  0.25500000920E-02 0.  1.
       -2    1    3    3    0  502  0.95060117373E+02 -0.55505921943E+03  0.15836754696E+04  0.16808197869E+04  0.25500000920E-02 0. -1.
</event>
<event>
 5   0  0.2456600E-06  0.2596542E+04  0.7818609E-02  0.8369377E-01
        1   -1    0    0  501    0  0.00000000000E+00  0.00000000000E+00  0.21631302326E+04  0.21631302326E+04  0.50400001928E-02 0.  1.
       -1   -1    0    0    0  501  0.00000000000E+00  0.00000000000E+00 -0.77919834248E+03  0.77919834249E+03  0.50400001928E-02 0. -1.
    10030    2    1    2    0    0  0.00000000000E+00  0.00000000000E+00  0.13839318901E+04  0.29423285751E+04  0.25965419248E+04 0.  0.
        5    1    3    3  502    0  0.60499397242E+03 -0.11469296614E+04  0.62011848854E+03  0.14373706497E+04  0.46999998093E+01 0. -1.
       -5    1    3    3    0  502 -0.60499397242E+03  0.11469296614E+04  0.76381340158E+03  0.15049579254E+04  0.46999998093E+01 0.  1.
</event>
<event>
 5   0  0.6161834E-06  0.2595168E+04  0.7818609E-02  0.8369844E-01
       -2   -1    0    0    0  501  0.00000000000E+00  0.00000000000E+00  0.11559986325E+04  0.11559986325E+04  0.25500000920E-02 0.  1.
        2   -1    0    0  501    0  0.00000000000E+00  0.00000000000E+00 -0.14565108272E+04  0.14565108272E+04  0.25500000920E-02 0. -1.
    10030    2    1    2    0    0  0.00000000000E+00  0.00000000000E+00 -0.30051219464E+03  0.26125094597E+04  0.25951682215E+04 0.  0.
        5    1    3    3  502    0  0.90890494321E+03 -0.62204398764E+03 -0.84088370257E+03  0.13856963627E+04  0.46999998093E+01 0. -1.
       -5    1    3    3    0  502 -0.90890494321E+03  0.62204398764E+03  0.54037150793E+03  0.12268130970E+04  0.46999998093E+01 0.  1.
</event>
<event>
 5   0  0.6158063E-06  0.2602375E+04  0.7818609E-02  0.8367395E-01
        2   -1    0    0  501    0  0.00000000000E+00  0.00000000000E+00  0.11228636949E+04  0.11228636949E+04  0.25500000920E-02 0. -1.
       -2   -1    0    0    0  501  0.00000000000E+00  0.00000000000E+00 -0.15078315714E+04  0.15078315714E+04  0.25500000920E-02 0.  1.
    10030    2    1    2    0    0  0.00000000000E+00  0.00000000000E+00 -0.38496787644E+03  0.26306952663E+04  0.26023753223E+04 0.  0.
        2    1    3    3  502    0 -0.48940115211E+03 -0.34301946519E+03  0.97591130109E+03  0.11443682575E+04  0.25500000920E-02 0. -1.
       -2    1    3    3    0  502  0.48940115211E+03  0.34301946519E+03 -0.13608791775E+04  0.14863270088E+04  0.25500000920E-02 0.  1.
</event>
<event>
 5   0  0.6161834E-06  0.2600033E+04  0.7818609E-02  0.8368190E-01
        2   -1    0    0  501    0  0.00000000000E+00  0.00000000000E+00  0.14599377771E+04  0.14599377771E+04  0.25500000920E-02 0.  1.
       -2   -1    0    0    0  501  0.00000000000E+00  0.00000000000E+00 -0.11576128713E+04  0.11576128713E+04  0.25500000920E-02 0. -1.
    10030    2    1    2    0    0  0.00000000000E+00  0.00000000000E+00  0.30232490586E+03  0.26175506484E+04  0.26000328937E+04 0.  0.
        5    1    3    3  502    0 -0.67220564960E+03  0.35107604232E+03 -0.91184264774E+03  0.11859991261E+04  0.46999998093E+01 0. -1.
       -5    1    3    3    0  502  0.67220564960E+03 -0.35107604232E+03  0.12141675536E+04  0.14315515223E+04  0.46999998093E+01 0.  1.
</event>
<event>
 5   0  0.2333979E-06  0.2582312E+04  0.7818609E-02  0.8374234E-01
       -1   -1    0    0    0  501  0.00000000000E+00  0.00000000000E+00  0.13689793351E+04  0.13689793351E+04  0.50400001928E-02 0. -1.
        1   -1    0    0  501    0  0.00000000000E+00  0.00000000000E+00 -0.12177569620E+04  0.12177569620E+04  0.50400001928E-02 0.  1.
    10030    2    1    2    0    0  0.00000000000E+00  0.00000000000E+00  0.15122237316E+03  0.25867362971E+04  0.25823122322E+04 0.  0.
        3    1    3    3  502    0 -0.33684899661E+03  0.55035136011E+03 -0.10446653235E+04  0.12278760175E+04  0.10100000352E+00 0.  1.
       -3    1    3    3    0  502  0.33684899661E+03 -0.55035136011E+03  0.11958876967E+04  0.13588602796E+04  0.10100000352E+00 0. -1.
</event>
<event>
 5   0  0.5940748E-06  0.2600748E+04  0.7818609E-02  0.8367947E-01
       -2   -1    0    0    0  501  0.00000000000E+00  0.00000000000E+00  0.93713686696E+03  0.93713686696E+03  0.25500000920E-02 0. -1.
        2   -1    0    0  501    0  0.00000000000E+00  0.00000000000E+00 -0.18044035233E+04  0.18044035233E+04  0.25500000920E-02 0.  1.
    10030    2    1    2    0    0  0.00000000000E+00  0.00000000000E+00 -0.86726665636E+03  0.27415403903E+04  0.26007484035E+04 0.  0.
        1    1    3    3  502    0 -0.54274207865E+03 -0.28406555796E+03 -0.16427731867E+04  0.17532729246E+04  0.50400001928E-02 0.  1.
       -1    1    3    3    0  502  0.54274207865E+03  0.28406555796E+03  0.77550653032E+03  0.98826746570E+03  0.50400001928E-02 0. -1.
</event>
<event>
 5   0  0.2333979E-06  0.2598137E+04  0.7818609E-02  0.8368834E-01
       -1   -1    0    0    0  501  0.00000000000E+00  0.00000000000E+00  0.10215720598E+04  0.10215720598E+04  0.50400001928E-02 0.  1.
        1   -1    0    0  501    0  0.00000000000E+00  0.00000000000E+00 -0.16519427557E+04  0.16519427557E+04  0.50400001928E-02 0. -1.
    10030    2    1    2    0    0  0.00000000000E+00  0.00000000000E+00 -0.63037069592E+03  0.26735148155E+04  0.25981366889E+04 0.  0.
        3    1    3    3  502    0  0.48384671310E+03 -0.11583880321E+04  0.28585001147E+02  0.12557020296E+04  0.10100000352E+00 0.  1.
       -3    1    3    3    0  502 -0.48384671310E+03  0.11583880321E+04 -0.65895569707E+03  0.14178127858E+04  0.10100000352E+00 0. -1.
</event>
<event>
 5   0  0.6158063E-06  0.2542002E+04  0.7818609E-02  0.8388173E-01
       -2   -1    0    0    0  501  0.00000000000E+00  0.00000000000E+00  0.88226649191E+03  0.88226649192E+03  0.25500000920E-02 0.  1.
        2   -1    0    0  501    0  0.00000000000E+00  0.00000000000E+00 -0.18310147677E+04  0.18310147677E+04  0.25500000920E-02 0. -1.
    10030    2    1    2    0    0  0.00000000000E+00  0.00000000000E+00 -0.94874827580E+03  0.27132812596E+04  0.25420015545E+04 0.  0.
        2    1    3    3  502    0 -0.10249671819E+03  0.19802636422E+03 -0.18099743002E+04  0.18236575845E+04  0.25500000920E-02 0. -1.
       -2    1    3    3    0  502  0.10249671819E+03 -0.19802636422E+03  0.86122602442E+03  0.88962367510E+03  0.25500000920E-02 0.  1.
</event>
<event>
 5   0  0.6173140E-06  0.2602605E+04  0.7818609E-02  0.8367317E-01
        2   -1    0    0  501    0  0.00000000000E+00  0.00000000000E+00  0.78089220801E+03  0.78089220802E+03  0.25500000920E-02 0. -1.
       -2   -1    0    0    0  501  0.00000000000E+00  0.00000000000E+00 -0.21685300395E+04  0.21685300395E+04  0.25500000920E-02 0.  1.
    10030    2    1    2    0    0  0.00000000000E+00  0.00000000000E+00 -0.13876378315E+04  0.29494222475E+04  0.26026050109E+04 0.  0.
        3    1    3    3  502    0  0.47826080131E+03  0.54646139016E+03 -0.19175456216E+04  0.20504474307E+04  0.10100000352E+00 0.  1.
       -3    1    3    3    0  502 -0.47826080131E+03 -0.54646139016E+03  0.52990779012E+03  0.89897481680E+03  0.10100000352E+00 0. -1.
</event>
<event>
 5   0  0.5940748E-06  0.2603932E+04  0.7818609E-02  0.8366867E-01
       -2   -1    0    0    0  501  0.00000000000E+00  0.00000000000E+00  0.13537788634E+04  0.13537788634E+04  0.25500000920E-02 0. -1.
        2   -1    0    0  501    0  0.00000000000E+00  0.00000000000E+00 -0.12521358226E+04  0.12521358226E+04  0.25500000920E-02 0.  1.
    10030    2    1    2    0    0  0.00000000000E+00  0.00000000000E+00  0.10164304089E+03  0.26059146860E+04  0.26039316510E+04 0.  0.
        1    1    3    3  502    0  0.51197397258E+03  0.73891056557E+03 -0.89170718639E+03  0.12661942500E+04  0.50400001928E-02 0.  1.
       -1    1    3    3    0  502 -0.51197397258E+03 -0.73891056557E+03  0.99335022728E+03  0.13397204360E+04  0.50400001928E-02 0. -1.
</event>
<event>
 5   0  0.6161834E-06  0.2605299E+04  0.7818609E-02  0.8366404E-01
        2   -1    0    0  501    0  0.00000000000E+00  0.00000000000E+00  0.10824773546E+04  0.10824773546E+04  0.25500000920E-02 0.  1.
       -2   -1    0    0    0  501  0.00000000000E+00  0.00000000000E+00 -0.15676035911E+04  0.15676035911E+04  0.25500000920E-02 0. -1.
    10030    2    1    2    0    0  0.00000000000E+00  0.00000000000E+00 -0.48512623646E+03  0.26500809457E+04  0.26052987455E+04 0.  0.
        5    1    3    3  502    0 -0.18112532004E+03 -0.15660253088E+03  0.10598925708E+04  0.10866117457E+04  0.46999998093E+01 0.  1.
       -5    1    3    3    0  502  0.18112532004E+03  0.15660253088E+03 -0.15450188073E+04  0.15634691999E+04  0.46999998093E+01 0. -1.
</event>
<event>
 5   0  0.2471488E-06  0.2426818E+04  0.7818609E-02  0.8429531E-01
       -1   -1    0    0    0  501  0.00000000000E+00  0.00000000000E+00  0.76344721324E+03  0.76344721326E+03  0.50400001928E-02 0.  1.
        1   -1    0    0  501    0  0.00000000000E+00  0.00000000000E+00 -0.19285692685E+04  0.19285692685E+04  0.50400001928E-02 0. -1.
    10030    2    1    2    0    0  0.00000000000E+00  0.00000000000E+00 -0.11651220553E+04  0.26920164818E+04  0.24268175322E+04 0.  0.
        4    1    3    3  502    0 -0.72731408771E+03 -0.79491845780E+03 -0.12016518102E+04  0.16139547152E+04  0.12699999809E+01 0. -1.
       -4    1    3    3    0  502  0.72731408771E+03  0.79491845780E+03  0.36529754942E+02  0.10780617666E+04  0.12699999809E+01 0.  1.
</event>
<event>
 5   0  0.2456600E-06  0.2604402E+04  0.7818609E-02  0.8366708E-01
       -1   -1    0    0    0  501  0.00000000000E+00  0.00000000000E+00  0.11251513023E+04  0.11251513023E+04  0.50400001928E-02 0. -1.
        1   -1    0    0  501    0  0.00000000000E+00  0.00000000000E+00 -0.15071102232E+04  0.15071102232E+04  0.50400001928E-02 0.  1.
    10030    2    1    2    0    0  0.00000000000E+00  0.00000000000E+00 -0.38195892095E+03  0.26322615255E+04  0.26044016820E+04 0.  0.
        5    1    3    3  502    0 -0.17030205658E+03  0.11789605501E+04  0.34072237124E+03  0.12389772368E+04  0.46999998093E+01 0.  1.
       -5    1    3    3    0  502  0.17030205658E+03 -0.11789605501E+04 -0.72268129219E+03  0.13932842887E+04  0.46999998093E+01 0. -1.
</event>
<event>
 5   0  0.5942229E-06  0.2507742E+04  0.7818609E-02  0.8400233E-01
        2   -1    0    0  501    0  0.00000000000E+00  0.00000000000E+00  0.15871163889E+04  0.15871163889E+04  0.25500000920E-02 0.  1.
       -2   -1    0    0    0  501  0.00000000000E+00  0.00000000000E+00 -0.99059693038E+03  0.99059693038E+03  0.25500000920E-02 0. -1.
    10030    2    1    2    0    0  0.00000000000E+00  0.00000000000E+00  0.59651945854E+03  0.25777133193E+04  0.25077421104E+04 0.  0.
        4    1    3    3  502    0 -0.10358809267E+04 -0.24149064587E+03  0.98073096273E+03  0.14467901923E+04  0.12699999809E+01 0.  1.
       -4    1    3    3    0  502  0.10358809267E+04  0.24149064587E+03 -0.38421150419E+03  0.11309231270E+04  0.12699999809E+01 0. -1.
</event>
<event>
 5   0  0.2471488E-06  0.2599362E+04  0.7818609E-02  0.8368418E-01
        1   -1    0    0  501    0  0.00000000000E+00  0.00000000000E+00  0.21632748719E+04  0.21632748719E+04  0.50400001928E-02 0. -1.
       -1   -1    0    0    0  501  0.00000000000E+00  0.00000000000E+00 -0.78083965547E+03  0.78083965549E+03  0.50400001928E-02 0.  1.
    10030    2    1    2    0    0  0.00000000000E+00  0.00000000000E+00  0.13824352164E+04  0.29441145274E+04  0.25993620800E+04 0.  0.
        4    1    3    3  502    0  0.71452053178E+03 -0.10121650123E+04  0.24652293644E+03  0.12632469171E+04  0.12699999809E+01 0.  1.
       -4    1    3    3    0  502 -0.71452053178E+03  0.10121650123E+04  0.11359122800E+04  0.16808676103E+04  0.12699999809E+01 0. -1.
</event>
<event>
 5   0  0.2440590E-06  0.2596309E+04  0.7818609E-02  0.8369456E-01
        1   -1    0    0  501    0  0.00000000000E+00  0.00000000000E+00  0.15195174045E+04  0.15195174045E+04  0.50400001928E-02 0. -1.
       -1   -1    0    0    0  501  0.00000000000E+00  0.00000000000E+00 -0.11090395647E+04  0.11090395647E+04  0.50400001928E-02 0.  1.
    10030    2    1    2    0    0  0.00000000000E+00  0.00000000000E+00  0.41047783976E+03  0.26285569692E+04  0.25963088575E+04 0.  0.
        1    1    3    3  502    0  0.68833115292E+03  0.99569583775E+03 -0.26962304849E+03  0.12401236090E+04  0.50400001928E-02 0.  1.
       -1    1    3    3    0  502 -0.68833115292E+03 -0.99569583775E+03  0.68010088826E+03  0.13884333602E+04  0.50400001928E-02 0. -1.
</event>
<event>
 5   0  0.5940748E-06  0.2598386E+04  0.7818609E-02  0.8368749E-01
       -2   -1    0    0    0  501  0.00000000000E+00  0.00000000000E+00  0.73134592499E+03  0.73134592499E+03  0.25500000920E-02 0.  1.
        2   -1    0    0  501    0  0.00000000000E+00  0.00000000000E+00 -0.23079407941E+04  0.23079407941E+04  0.25500000920E-02 0. -1.
    10030    2    1    2    0    0  0.00000000000E+00  0.00000000000E+00 -0.15765948691E+04  0.30392867191E+04  0.25983864954E+04 0.  0.
        1    1    3    3  502    0  0.80210194960E+01 -0.10011298367E+03 -0.23033932787E+04  0.23055818230E+04  0.50400001928E-02 0. -1.
       -1    1    3    3    0  502 -0.80210194960E+01  0.10011298367E+03  0.72679840961E+03  0.73370489605E+03  0.50400001928E-02 0.  1.
</event>
<event>
 5   0  0.2456600E-06  0.2606399E+04  0.7818609E-02  0.8366031E-01
        1   -1    0    0  501    0  0.00000000000E+00  0.00000000000E+00  0.12841403179E+04  0.12841403179E+04  0.50400001928E-02 0.  1.
       -1   -1    0    0    0  501  0.00000000000E+00  0.00000000000E+00 -0.13225418519E+04  0.13225418519E+04  0.50400001928E-02 0. -1.
    10030    2    1    2    0    0  0.00000000000E+00  0.00000000000E+00 -0.38401534005E+02  0.26066821698E+04  0.26063992895E+04 0.  0.
        5    1    3    3  502    0 -0.15605691624E+03 -0.23343972088E+03 -0.12919186887E+04  0.13220907127E+04  0.46999998093E+01 0. -1.
       -5    1    3    3    0  502  0.15605691624E+03  0.23343972088E+03  0.12535171547E+04  0.12845914571E+04  0.46999998093E+01 0.  1.
</event>
<event>
 5   0  0.5942229E-06  0.2542757E+04  0.7818609E-02  0.8387909E-01
        2   -1    0    0  501    0  0.00000000000E+00  0.00000000000E+00  0.10835521901E+04  0.10835521901E+04  0.25500000920E-02 0. -1.
       -2   -1    0    0    0  501  0.00000000000E+00  0.00000000000E+00 -0.14917635615E+04  0.14917635615E+04  0.25500000920E-02 0.  1.
    10030    2    1    2    0    0  0.00000000000E+00  0.00000000000E+00 -0.40821137131E+03  0.25753157516E+04  0.25427573020E+04 0.  0.
        4    1    3    3  502    0 -0.10558234725E+02 -0.13392824885E+03  0.10763425741E+04  0.10846949810E+04  0.12699999809E+01 0. -1.
       -4    1    3    3    0  502  0.10558234725E+02  0.13392824885E+03 -0.14845539454E+04  0.14906207706E+04  0.12699999809E+01 0.  1.
</event>
<event>
 5   0  0.5940748E-06  0.2596261E+04  0.7818609E-02  0.8369472E-01
        2   -1    0    0  501    0  0.00000000000E+00  0.00000000000E+00  0.18969957421E+04  0.18969957421E+04  0.25500000920E-02 0. -1.
       -2   -1    0    0    0  501  0.00000000000E+00  0.00000000000E+00 -0.88832185721E+03  0.88832185722E+03  0.25500000920E-02 0.  1.
    10030    2    1    2    0    0  0.00000000000E+00  0.00000000000E+00  0.10086738849E+04  0.27853175993E+04  0.25962609890E+04 0.  0.
        1    1    3    3  502    0 -0.15057708156E+02  0.16029282966E+03 -0.87756955137E+03  0.89221569328E+03  0.50400001928E-02 0.  1.
       -1    1    3    3    0  502  0.15057708156E+02 -0.16029282966E+03  0.18862434363E+04  0.18931019061E+04  0.50400001928E-02 0. -1.
</event>
<event>
 5   0  0.6173140E-06  0.2594809E+04  0.7818609E-02  0.8369967E-01
       -2   -1    0    0    0  501  0.00000000000E+00  0.00000000000E+00  0.87497326612E+03  0.87497326612E+03  0.25500000920E-02 0.  1.
        2   -1    0    0  501    0  0.00000000000E+00  0.00000000000E+00 -0.19237830807E+04  0.19237830807E+04  0.25500000920E-02 0. -1.
    10030    2    1    2    0    0  0.00000000000E+00  0.00000000000E+00 -0.10488098145E+04  0.27987563468E+04  0.25948092534E+04 0.  0.
        3    1    3    3  502    0 -0.80872651693E+03  0.10144050927E+04 -0.53975302066E+03  0.14051297466E+04  0.10100000352E+00 0.  1.
       -3    1    3    3    0  502  0.80872651693E+03 -0.10144050927E+04 -0.50905679389E+03  0.13936266002E+04  0.10100000352E+00 0. -1.
</event>
<event>
 5   0  0.6158063E-06  0.2607994E+04  0.7818609E-02  0.8365491E-01
        2   -1    0    0  501    0  0.00000000000E+00  0.00000000000E+00  0.13062393244E+04  0.13062393244E+04  0.25500000920E-02 0. -1.
       -2   -1    0    0    0  501  0.00000000000E+00  0.00000000000E+00 -0.13017585797E+04  0.13017585797E+04  0.25500000920E-02 0.  1.
    10030    2    1    2    0    0  0.00000000000E+00  0.00000000000E+00  0.44807447584E+01  0.26079979041E+04  0.26079940549E+04 0.  0.
        2    1    3    3  502    0 -0.20912576985E+03  0.41777972403E+03 -0.12151909962E+04  0.13019073096E+04  0.25500000920E-02 0.  1.
       -2    1    3    3    0  502  0.20912576985E+03 -0.41777972403E+03  0.12196717410E+04  0.13060905945E+04  0.25500000920E-02 0. -1.
</event>
<event>
 5   0  0.5940748E-06  0.2575679E+04  0.7818609E-02  0.8376510E-01
       -2   -1    0    0    0  501  0.00000000000E+00  0.00000000000E+00  0.93253018346E+03  0.93253018346E+03  0.25500000920E-02 0. -1.
        2   -1    0    0  501    0  0.00000000000E+00  0.00000000000E+00 -0.17785280714E+04  0.17785280714E+04  0.25500000920E-02 0.  1.
    10030    2    1    2    0    0  0.00000000000E+00  0.00000000000E+00 -0.84599788791E+03  0.27110582548E+04  0.25756794123E+04 0.  0.
        1    1    3    3  502    0 -0.62352727656E+03 -0.15236097868E+03  0.75216533181E+03  0.98881384438E+03  0.50400001928E-02 0. -1.
       -1    1    3    3    0  502  0.62352727656E+03  0.15236097868E+03 -0.15981632197E+04  0.17222444105E+04  0.50400001928E-02 0.  1.
</event>
<event>
 5   0  0.6161834E-06  0.2607364E+04  0.7818609E-02  0.8365704E-01
        2   -1    0    0  501    0  0.00000000000E+00  0.00000000000E+00  0.25307623163E+04  0.25307623163E+04  0.25500000920E-02 0. -1.
       -2   -1    0    0    0  501  0.00000000000E+00  0.00000000000E+00 -0.67157102725E+03  0.67157102725E+03  0.25500000920E-02 0.  1.
    10030    2    1    2    0    0  0.00000000000E+00  0.00000000000E+00  0.18591912890E+04  0.32023333435E+04  0.26073639166E+04 0.  0.
        5    1    3    3  502    0  0.64046862474E+03  0.10109258217E+04  0.15646929862E+04  0.19698876382E+04  0.46999998093E+01 0. -1.
       -5    1    3    3    0  502 -0.64046862474E+03 -0.10109258217E+04  0.29449830285E+03  0.12324457053E+04  0.46999998093E+01 0.  1.
</event>
<event>
 5   0  0.6158063E-06  0.2589319E+04  0.7818609E-02  0.8371838E-01
        2   -1    0    0  501    0  0.00000000000E+00  0.00000000000E+00  0.13844164907E+04  0.13844164907E+04  0.25500000920E-02 0.  1.
       -2   -1    0    0    0  501  0.00000000000E+00  0.00000000000E+00 -0.12107220164E+04  0.12107220165E+04  0.25500000920E-02 0. -1.
    10030    2    1    2    0    0  0.00000000000E+00  0.00000000000E+00  0.17369447422E+03  0.25951385071E+04  0.25893192350E+04 0.  0.
        2    1    3    3  502    0 -0.27796457621E+03  0.60589020749E+03 -0.10255012334E+04  0.12231189758E+04  0.25500000920E-02 0. -1.
       -2    1    3    3    0  502  0.27796457621E+03 -0.60589020749E+03  0.11991957076E+04  0.13720195313E+04  0.25500000920E-02 0.  1.
</event>
<event>
 5   0  0.2333979E-06  0.2594821E+04  0.7818609E-02  0.8369963E-01
       -1   -1    0    0    0  501  0.00000000000E+00  0.00000000000E+00  0.16492107093E+04  0.16492107093E+04  0.50400001928E-02 0. -1.
        1   -1    0    0  501    0  0.00000000000E+00  0.00000000000E+00 -0.10206541646E+04  0.10206541646E+04  0.50400001928E-02 0.  1.
    10030    2    1    2    0    0  0.00000000000E+00  0.00000000000E+00  0.62855654468E+03  0.26698648738E+04  0.25948208252E+04 0.  0.
        3    1    3    3  502    0  0.12769108592E+04  0.21172261541E+03  0.22256016206E+03  0.13133395769E+04  0.10100000352E+00 0.  1.
       -3    1    3    3    0  502 -0.12769108592E+04 -0.21172261541E+03  0.40599638262E+03  0.13565252969E+04  0.10100000352E+00 0. -1.
</event>
<event>
 5   0  0.2440590E-06  0.2604597E+04  0.7818609E-02  0.8366641E-01
        1   -1    0    0  501    0  0.00000000000E+00  0.00000000000E+00  0.18860492335E+04  0.18860492335E+04  0.50400001928E-02 0. -1.
       -1   -1    0    0    0  501  0.00000000000E+00  0.00000000000E+00 -0.89922415647E+03  0.89922415648E+03  0.50400001928E-02 0.  1.
    10030    2    1    2    0    0  0.00000000000E+00  0.00000000000E+00  0.98682507702E+03  0.27852733900E+04  0.26045967297E+04 0.  0.
        1    1    3    3  502    0 -0.63805079938E+03  0.81455104070E+03 -0.35225355888E+03  0.10930163724E+04  0.50400001928E-02 0. -1.
       -1    1    3    3    0  502  0.63805079938E+03 -0.81455104070E+03  0.13390786359E+04  0.16922570176E+04  0.50400001928E-02 0.  1.
</event>
<event>
 5   0  0.6158063E-06  0.2594119E+04  0.7818609E-02  0.8370202E-01
       -2   -1    0    0    0  501  0.00000000000E+00  0.00000000000E+00  0.79739660908E+03  0.79739660909E+03  0.25500000920E-02 0. -1.
        2   -1    0    0  501    0  0.00000000000E+00  0.00000000000E+00 -0.21098196852E+04  0.21098196852E+04  0.25500000920E-02 0.  1.
    10030    2    1    2    0    0  0.00000000000E+00  0.00000000000E+00 -0.13124230761E+04  0.29072162942E+04  0.25941187812E+04 0.  0.
        2    1    3    3  502    0 -0.94901252266E+03 -0.47620191400E+03  0.17866499140E+03  0.10767145444E+04  0.25500000920E-02 0. -1.
       -2    1    3    3    0  502  0.94901252266E+03  0.47620191400E+03 -0.14910880675E+04  0.18305017498E+04  0.25500000920E-02 0.  1.
</event>
<event>
 5   0  0.6161834E-06  0.2608456E+04  0.7818609E-02  0.8365335E-01
       -2   -1    0    0    0  501  0.00000000000E+00  0.00000000000E+00  0.81785984448E+03  0.81785984448E+03  0.25500000920E-02 0. -1.
        2   -1    0    0  501    0  0.00000000000E+00  0.00000000000E+00 -0.20798307701E+04  0.20798307701E+04  0.25500000920E-02 0.  1.
    10030    2    1    2    0    0  0.00000000000E+00  0.00000000000E+00 -0.12619709257E+04  0.28976906146E+04  0.26084555355E+04 0.  0.
        5    1    3    3  502    0  0.93836115828E+03  0.21111065596E+03  0.34753759194E+03  0.10226895131E+04  0.46999998093E+01 0. -1.
       -5    1    3    3    0  502 -0.93836115828E+03 -0.21111065596E+03 -0.16095085176E+04  0.18750011015E+04  0.46999998093E+01 0.  1.
</event>
<event>
 5   0  0.6161834E-06  0.2601989E+04  0.7818609E-02  0.8367526E-01
       -2   -1    0    0    0  501  0.00000000000E+00  0.00000000000E+00  0.11934420779E+04  0.11934420779E+04  0.25500000920E-02 0. -1.
        2   -1    0    0  501    0  0.00000000000E+00  0.00000000000E+00 -0.14182398720E+04  0.14182398720E+04  0.25500000920E-02 0.  1.
    10030    2    1    2    0    0  0.00000000000E+00  0.00000000000E+00 -0.22479779404E+03  0.26116819499E+04  0.26019893465E+04 0.  0.
        5    1    3    3  502    0  0.59984132018E+03  0.58738882292E+03 -0.11099470165E+04  0.13917038867E+04  0.46999998093E+01 0.  1.
       -5    1    3    3    0  502 -0.59984132018E+03 -0.58738882292E+03  0.88514922250E+03  0.12199780632E+04  0.46999998093E+01 0. -1.
</event>
<event>
 5   0  0.2471488E-06  0.2599411E+04  0.7818609E-02  0.8368401E-01
        1   -1    0    0  501    0  0.00000000000E+00  0.00000000000E+00  0.11019625075E+04  0.11019625075E+04  0.50400001928E-02 0. -1.
       -1   -1    0    0    0  501  0.00000000000E+00  0.00000000000E+00 -0.15329332803E+04  0.15329332803E+04  0.50400001928E-02 0.  1.
    10030    2    1    2    0    0  0.00000000000E+00  0.00000000000E+00 -0.43097077287E+03  0.26348957878E+04  0.25994114729E+04 0.  0.
        4    1    3    3  502    0  0.78798790601E+03  0.51000103160E+03 -0.11267611546E+04  0.14664986548E+04  0.12699999809E+01 0.  1.
       -4    1    3    3    0  502 -0.78798790601E+03 -0.51000103160E+03  0.69579038168E+03  0.11683971330E+04  0.12699999809E+01 0. -1.
</event>
<event>
 5   0  0.2456600E-06  0.2594982E+04  0.7818609E-02  0.8369908E-01
        1   -1    0    0  501    0  0.00000000000E+00  0.00000000000E+00  0.15954387597E+04  0.15954387598E+04  0.50400001928E-02 0.  1.
       -1   -1    0    0    0  501  0.00000000000E+00  0.00000000000E+00 -0.10551845234E+04  0.10551845234E+04  0.50400001928E-02 0. -1.
    10030    2    1    2    0    0  0.00000000000E+00  0.00000000000E+00  0.54025423637E+03  0.26506232831E+04  0.25949815316E+04 0.  0.
        5    1    3    3  502    0 -0.53131827261E+03  0.65720187562E+03  0.12757402172E+04  0.15302772964E+04  0.46999998093E+01 0.  1.
       -5    1    3    3    0  502  0.53131827261E+03 -0.65720187562E+03 -0.73548598079E+03  0.11203459868E+04  0.46999998093E+01 0. -1.
</event>
<event>
 5   0  0.5940748E-06  0.2613842E+04  0.7818609E-02  0.8363515E-01
        2   -1    0    0  501    0  0.00000000000E+00  0.00000000000E+00  0.19419606133E+04  0.19419606133E+04  0.25500000920E-02 0. -1.
       -2   -1    0    0    0  501  0.00000000000E+00  0.00000000000E+00 -0.87954547303E+03  0.87954547304E+03  0.25500000920E-02 0.  1.
    10030    2    1    2    0    0  0.00000000000E+00  0.00000000000E+00  0.10624151403E+04  0.28215060864E+04  0.26138421270E+04 0.  0.
        1    1    3    3  502    0 -0.59887856003E+03  0.72296330846E+03 -0.45026585885E+03  0.10411872160E+04  0.50400001928E-02 0.  1.
       -1    1    3    3    0  502  0.59887856003E+03 -0.72296330846E+03  0.15126809992E+04  0.17803188704E+04  0.50400001928E-02 0. -1.
</event>
<event>
 5   0  0.5942229E-06  0.2595578E+04  0.7818609E-02  0.8369705E-01
       -2   -1    0    0    0  501  0.00000000000E+00  0.00000000000E+00  0.57204075874E+03  0.57204075875E+03  0.25500000920E-02 0. -1.
        2   -1    0    0  501    0  0.00000000000E+00  0.00000000000E+00 -0.29442936296E+04  0.29442936296E+04  0.25500000920E-02 0.  1.
    10030    2    1    2    0    0  0.00000000000E+00  0.00000000000E+00 -0.23722528708E+04  0.35163343883E+04  0.25955777483E+04 0.  0.
        4    1    3    3  502    0 -0.12668301490E+04  0.28129310156E+03 -0.11638693460E+04  0.17431517154E+04  0.12699999809E+01 0.  1.
       -4    1    3    3    0  502  0.12668301490E+04 -0.28129310156E+03 -0.12083835248E+04  0.17731826729E+04  0.12699999809E+01 0. -1.
</event>
<event>
 5   0  0.6158063E-06  0.2592490E+04  0.7818609E-02  0.8370757E-01
       -2   -1    0    0    0  501  0.00000000000E+00  0.00000000000E+00  0.10485394213E+04  0.10485394213E+04  0.25500000920E-02 0.  1.
        2   -1    0    0  501    0  0.00000000000E+00  0.00000000000E+00 -0.16024687166E+04  0.16024687166E+04  0.25500000920E-02 0. -1.
    10030    2    1    2    0    0  0.00000000000E+00  0.00000000000E+00 -0.55392929530E+03  0.26510081380E+04  0.25924904018E+04 0.  0.
        2    1    3    3  502    0 -0.19288302868E+03  0.85067294136E+03  0.70353385329E+03  0.11206284838E+04  0.25500000920E-02 0.  1.
       -2    1    3    3    0  502  0.19288302868E+03 -0.85067294136E+03 -0.12574631486E+04  0.15303796542E+04  0.25500000920E-02 0. -1.
</event>
<event>
 5   0  0.6158063E-06  0.2596229E+04  0.7818609E-02  0.8369483E-01
        2   -1    0    0  501    0  0.00000000000E+00  0.00000000000E+00  0.22703682821E+04  0.22703682821E+04  0.25500000920E-02 0.  1.
       -2   -1    0    0    0  501  0.00000000000E+00  0.00000000000E+00 -0.74221493479E+03  0.74221493480E+03  0.25500000920E-02 0. -1.
    10030    2    1    2    0    0  0.00000000000E+00  0.00000000000E+00  0.15281533473E+04  0.30125832169E+04  0.25962289933E+04 0.  0.
        2    1    3    3  502    0  0.16036000957E+03 -0.42589048519E+03 -0.64662033402E+03  0.79070594687E+03  0.25500000920E-02 0. -1.
       -2    1    3    3    0  502 -0.16036000957E+03  0.42589048519E+03  0.21747736813E+04  0.22218772700E+04  0.25500000920E-02 0.  1.
</event>
<event>
 5   0  0.2503292E-06  0.2649159E+04  0.7818609E-02  0.8351692E-01
       -1   -1    0    0    0  501  0.00000000000E+00  0.00000000000E+00  0.93032338189E+03  0.93032338190E+03  0.50400001928E-02 0.  1.
        1   -1    0    0  501    0  0.00000000000E+00  0.00000000000E+00 -0.18859145492E+04  0.18859145492E+04  0.50400001928E-02 0. -1.
    10030    2    1    2    0    0  0.00000000000E+00  0.00000000000E+00 -0.95559116729E+03  0.28162379311E+04  0.26491586599E+04 0.  0.
        2    1    3    3  502    0 -0.49985395923E+03 -0.10762877598E+04  0.14775612305E+03  0.11958600229E+04  0.25500000920E-02 0.  1.
       -2    1    3    3    0  502  0.49985395923E+03  0.10762877598E+04 -0.11033472903E+04  0.16203779082E+04  0.25500000920E-02 0. -1.
</event>
<event>
 5   0  0.2333979E-06  0.2599218E+04  0.7818609E-02  0.8368467E-01
       -1   -1    0    0    0  501  0.00000000000E+00  0.00000000000E+00  0.12988906553E+04  0.12988906553E+04  0.50400001928E-02 0. -1.
        1   -1    0    0  501    0  0.00000000000E+00  0.00000000000E+00 -0.13003275666E+04  0.13003275666E+04  0.50400001928E-02 0.  1.
    10030    2    1    2    0    0  0.00000000000E+00  0.00000000000E+00 -0.14369113369E+01  0.25992182219E+04  0.25992178247E+04 0.  0.
        3    1    3    3  502    0  0.47458515494E+03 -0.93219876956E+02  0.12055413608E+04  0.12989422611E+04  0.10100000352E+00 0. -1.
       -3    1    3    3    0  502 -0.47458515494E+03  0.93219876956E+02 -0.12069782721E+04  0.13002759609E+04  0.10100000352E+00 0.  1.
</event>
<event>
 5   0  0.6161834E-06  0.2636299E+04  0.7818609E-02  0.8355975E-01
        2   -1    0    0  501    0  0.00000000000E+00  0.00000000000E+00  0.23334290182E+04  0.23334290182E+04  0.25500000920E-02 0.  1.
       -2   -1    0    0    0  501  0.00000000000E+00  0.00000000000E+00 -0.74461996699E+03  0.74461996700E+03  0.25500000920E-02 0. -1.
    10030    2    1    2    0    0  0.00000000000E+00  0.00000000000E+00  0.15888090512E+04  0.30780489852E+04  0.26362987984E+04 0.  0.
        5    1    3    3  502    0  0.11231998303E+04 -0.64346287083E+03  0.10848288376E+04  0.16889339898E+04  0.46999998093E+01 0.  1.
       -5    1    3    3    0  502 -0.11231998303E+04  0.64346287083E+03  0.50398021363E+03  0.13891149955E+04  0.46999998093E+01 0. -1.
</event>
<event>
 5   0  0.5940748E-06  0.2602968E+04  0.7818609E-02  0.8367194E-01
       -2   -1    0    0    0  501  0.00000000000E+00  0.00000000000E+00  0.10160491979E+04  0.10160491979E+04  0.25500000920E-02 0.  1.
        2   -1    0    0  501    0  0.00000000000E+00  0.00000000000E+00 -0.16671043581E+04  0.16671043581E+04  0.25500000920E-02 0. -1.
    10030    2    1    2    0    0  0.00000000000E+00  0.00000000000E+00 -0.65105516016E+03  0.26831535560E+04  0.26029675725E+04 0.  0.
        1    1    3    3  502    0 -0.73488206989E+03  0.10738954517E+04 -0.34985433328E+03  0.13474795554E+04  0.50400001928E-02 0.  1.
       -1    1    3    3    0  502  0.73488206989E+03 -0.10738954517E+04 -0.30120082688E+03  0.13356740006E+04  0.50400001928E-02 0. -1.
</event>
<event>
 5   0  0.2471488E-06  0.2601972E+04  0.7818609E-02  0.8367532E-01
        1   -1    0    0  501    0  0.00000000000E+00  0.00000000000E+00  0.81930747825E+03  0.81930747826E+03  0.50400001928E-02 0. -1.
       -1   -1    0    0    0  501  0.00000000000E+00  0.00000000000E+00 -0.20658485228E+04  0.20658485228E+04  0.50400001928E-02 0.  1.
    10030    2    1    2    0    0  0.00000000000E+00  0.00000000000E+00 -0.12465410446E+04  0.28851560011E+04  0.26019724393E+04 0.  0.
        4    1    3    3  502    0  0.29984906827E+03  0.99313064732E+03 -0.14937905214E+04  0.18186890006E+04  0.12699999809E+01 0.  1.
       -4    1    3    3    0  502 -0.29984906827E+03 -0.99313064732E+03  0.24724947680E+03  0.10664670005E+04  0.12699999809E+01 0. -1.
</event>
<event>
 5   0  0.2333979E-06  0.2600598E+04  0.7818609E-02  0.8367998E-01
        1   -1    0    0  501    0  0.00000000000E+00  0.00000000000E+00  0.16991404539E+04  0.16991404539E+04  0.50400001928E-02 0. -1.
       -1   -1    0    0    0  501  0.00000000000E+00  0.00000000000E+00 -0.99507799266E+03  0.99507799267E+03  0.50400001928E-02 0.  1.
    10030    2    1    2    0    0  0.00000000000E+00  0.00000000000E+00  0.70406246127E+03  0.26942184466E+04  0.26005978329E+04 0.  0.
        3    1    3    3  502    0  0.62409457609E+03  0.97816041684E+03 -0.25602680531E+03  0.11882093992E+04  0.10100000352E+00 0. -1.
       -3    1    3    3    0  502 -0.62409457609E+03 -0.97816041684E+03  0.96008926659E+03  0.15060090475E+04  0.10100000352E+00 0.  1.
</event>
<event>
 5   0  0.6161834E-06  0.2611121E+04  0.7818609E-02  0.8364433E-01
        2   -1    0    0  501    0  0.00000000000E+00  0.00000000000E+00  0.23059218735E+04  0.23059218735E+04  0.25500000920E-02 0.  1.
       -2   -1    0    0    0  501  0.00000000000E+00  0.00000000000E+00 -0.73917866268E+03  0.73917866268E+03  0.25500000920E-02 0. -1.
    10030    2    1    2    0    0  0.00000000000E+00  0.00000000000E+00  0.15667432108E+04  0.30451005362E+04  0.26111210211E+04 0.  0.
        5    1    3    3  502    0  0.63192054512E+02  0.43236159989E+03 -0.65136132030E+03  0.78436180962E+03  0.46999998093E+01 0. -1.
       -5    1    3    3    0  502 -0.63192054512E+02 -0.43236159989E+03  0.22181045311E+04  0.22607387266E+04  0.46999998093E+01 0.  1.
</event>
<event>
 5   0  0.6161834E-06  0.2585632E+04  0.7818609E-02  0.8373098E-01
        2   -1    0    0  501    0  0.00000000000E+00  0.00000000000E+00  0.17951208708E+04  0.17951208708E+04  0.25500000920E-02 0. -1.
       -2   -1    0    0    0  501  0.00000000000E+00  0.00000000000E+00 -0.93106448377E+03  0.93106448378E+03  0.25500000920E-02 0.  1.
    10030    2    1    2    0    0  0.00000000000E+00  0.00000000000E+00  0.86405638699E+03  0.27261853545E+04  0.25856320596E+04 0.  0.
        5    1    3    3  502    0 -0.49869466587E+03  0.88296447971E+03 -0.41345267687E+03  0.10951200154E+04  0.46999998093E+01 0.  1.
       -5    1    3    3    0  502  0.49869466587E+03 -0.88296447971E+03  0.12775090639E+04  0.16310653391E+04  0.46999998093E+01 0. -1.
</event>
<event>
 5   0  0.6158063E-06  0.2608700E+04  0.7818609E-02  0.8365252E-01
        2   -1    0    0  501    0  0.00000000000E+00  0.00000000000E+00  0.15127963810E+04  0.15127963810E+04  0.25500000920E-02 0.  1.
       -2   -1    0    0    0  501  0.00000000000E+00  0.00000000000E+00 -0.11246252048E+04  0.11246252048E+04  0.25500000920E-02 0. -1.
    10030    2    1    2    0    0  0.00000000000E+00  0.00000000000E+00  0.38817117612E+03  0.26374215858E+04  0.26087000133E+04 0.  0.
        2    1    3    3  502    0 -0.12451281021E+04  0.33897468132E+03  0.38612722017E+03  0.13469751503E+04  0.25500000920E-02 0.  1.
       -2    1    3    3    0  502  0.12451281021E+04 -0.33897468132E+03  0.20439559589E+01  0.12904464355E+04  0.25500000920E-02 0. -1.
</event>
<event>
 5   0  0.5942229E-06  0.2589012E+04  0.7818609E-02  0.8371943E-01
       -2   -1    0    0    0  501  0.00000000000E+00  0.00000000000E+00  0.14679347966E+04  0.14679347966E+04  0.25500000920E-02 0.  1.
        2   -1    0    0  501    0  0.00000000000E+00  0.00000000000E+00 -0.11415669552E+04  0.11415669553E+04  0.25500000920E-02 0. -1.
    10030    2    1    2    0    0  0.00000000000E+00  0.00000000000E+00  0.32636784139E+03  0.26095017519E+04  0.25890120558E+04 0.  0.
        4    1    3    3  502    0  0.28771113251E+03  0.43478612768E+03  0.13574356298E+04  0.14541147735E+04  0.12699999809E+01 0.  1.
       -4    1    3    3    0  502 -0.28771113251E+03 -0.43478612768E+03 -0.10310677884E+04  0.11553869784E+04  0.12699999809E+01 0. -1.
</event>
<event>
 5   0  0.2440590E-06  0.2592599E+04  0.7818609E-02  0.8370719E-01
        1   -1    0    0  501    0  0.00000000000E+00  0.00000000000E+00  0.14621342424E+04  0.14621342424E+04  0.50400001928E-02 0. -1.
       -1   -1    0    0    0  501  0.00000000000E+00  0.00000000000E+00 -0.11492741095E+04  0.11492741095E+04  0.50400001928E-02 0.  1.
    10030    2    1    2    0    0  0.00000000000E+00  0.00000000000E+00  0.31286013290E+03  0.26114083518E+04  0.25925994903E+04 0.  0.
        1    1    3    3  502    0 -0.10903466311E+04  0.38738432230E+03 -0.43216421972E+03  0.12351875574E+04  0.50400001928E-02 0.  1.
       -1    1    3    3    0  502  0.10903466311E+04 -0.38738432230E+03  0.74502435263E+03  0.13762207945E+04  0.50400001928E-02 0. -1.
</event>
<event>
 5   0  0.2440590E-06  0.2606922E+04  0.7818609E-02  0.8365854E-01
        1   -1    0    0  501    0  0.00000000000E+00  0.00000000000E+00  0.13513063776E+04  0.13513063776E+04  0.50400001928E-02 0. -1.
       -1   -1    0    0    0  501  0.00000000000E+00  0.00000000000E+00 -0.12573096607E+04  0.12573096607E+04  0.50400001928E-02 0.  1.
    10030    2    1    2    0    0  0.00000000000E+00  0.00000000000E+00  0.93996716933E+02  0.26086160383E+04  0.26069219882E+04 0.  0.
        1    1    3    3  502    0 -0.78703577430E+03 -0.81487710176E+03  0.69205713336E+03  0.13275515345E+04  0.50400001928E-02 0. -1.
       -1    1    3    3    0  502  0.78703577430E+03  0.81487710176E+03 -0.59806041643E+03  0.12810645037E+04  0.50400001928E-02 0.  1.
</event>
<event>
 5   0  0.2333979E-06  0.2606465E+04  0.7818609E-02  0.8366009E-01
       -1   -1    0    0    0  501  0.00000000000E+00  0.00000000000E+00  0.13635714966E+04  0.13635714966E+04  0.50400001928E-02 0. -1.
        1   -1    0    0  501    0  0.00000000000E+00  0.00000000000E+00 -0.12455632697E+04  0.12455632697E+04  0.50400001928E-02 0.  1.
    10030    2    1    2    0    0  0.00000000000E+00  0.00000000000E+00  0.11800822693E+03  0.26091347663E+04  0.26064647105E+04 0.  0.
        3    1    3    3  502    0  0.92372737595E+03  0.95162994235E+02 -0.85631012093E+03  0.12631687512E+04  0.10100000352E+00 0.  1.
       -3    1    3    3    0  502 -0.92372737595E+03 -0.95162994235E+02  0.97431834787E+03  0.13459660151E+04  0.10100000352E+00 0. -1.
</event>
<event>
 5   0  0.5940748E-06  0.2627875E+04  0.7818609E-02  0.8358794E-01
       -2   -1    0    0    0  501  0.00000000000E+00  0.00000000000E+00  0.14435833995E+04  0.14435833995E+04  0.25500000920E-02 0. -1.
        2   -1    0    0  501    0  0.00000000000E+00  0.00000000000E+00 -0.11959346061E+04  0.11959346061E+04  0.25500000920E-02 0.  1.
    10030    2    1    2    0    0  0.00000000000E+00  0.00000000000E+00  0.24764879338E+03  0.26395180055E+04  0.26278746882E+04 0.  0.
        1    1    3    3  502    0  0.39428072693E+02  0.12036969999E+04 -0.40385105345E+03  0.12702506500E+04  0.50400001928E-02 0.  1.
       -1    1    3    3    0  502 -0.39428072693E+02 -0.12036969999E+04  0.65149984683E+03  0.13692673555E+04  0.50400001928E-02 0. -1.
</event>
<event>
 5   0  0.2072125E-06  0.2593602E+04  0.7818609E-02  0.8370378E-01
        3   -1    0    0  501    0  0.00000000000E+00  0.00000000000E+00  0.11795020258E+04  0.11795020301E+04  0.10100000352E+00 0.  1.
       -3   -1    0    0    0  501  0.00000000000E+00  0.00000000000E+00 -0.14257647485E+04  0.14257647521E+04  0.10100000352E+00 0. -1.
    10030    2    1    2    0    0  0.00000000000E+00  0.00000000000E+00 -0.24626272271E+03  0.26052667822E+04  0.25936016806E+04 0.  0.
        3    1    3    3  502    0  0.85385549475E+03 -0.66419316353E+03 -0.84151970957E+03  0.13705390167E+04  0.10100000352E+00 0. -1.
       -3    1    3    3    0  502 -0.85385549475E+03  0.66419316353E+03  0.59525698686E+03  0.12347277655E+04  0.10100000352E+00 0.  1.
</event>
<event>
 5   0  0.5942229E-06  0.2597230E+04  0.7818609E-02  0.8369143E-01
       -2   -1    0    0    0  501  0.00000000000E+00  0.00000000000E+00  0.67452008029E+03  0.67452008029E+03  0.25500000920E-02 0. -1.
        2   -1    0    0  501    0  0.00000000000E+00  0.00000000000E+00 -0.25001499253E+04  0.25001499253E+04  0.25500000920E-02 0.  1.
    10030    2    1    2    0    0  0.00000000000E+00  0.00000000000E+00 -0.18256298450E+04  0.31746700056E+04  0.25972303158E+04 0.  0.
        4    1    3    3  502    0 -0.24413996866E+03  0.22430868669E+03  0.62191689325E+03  0.70477013716E+03  0.12699999809E+01 0. -1.
       -4    1    3    3    0  502  0.24413996866E+03 -0.22430868669E+03 -0.24475467383E+04  0.24698998685E+04  0.12699999809E+01 0.  1.
</event>
<event>
 5   0  0.2471488E-06  0.2599948E+04  0.7818609E-02  0.8368219E-01
       -1   -1    0    0    0  501  0.00000000000E+00  0.00000000000E+00  0.10186177170E+04  0.10186177170E+04  0.50400001928E-02 0. -1.
        1   -1    0    0  501    0  0.00000000000E+00  0.00000000000E+00 -0.16590448191E+04  0.16590448191E+04  0.50400001928E-02 0.  1.
    10030    2    1    2    0    0  0.00000000000E+00  0.00000000000E+00 -0.64042710210E+03  0.26776625360E+04  0.25999480348E+04 0.  0.
        4    1    3    3  502    0  0.13371434541E+03  0.12855126725E+04 -0.17636587692E+03  0.13044266529E+04  0.12699999809E+01 0. -1.
       -4    1    3    3    0  502 -0.13371434541E+03 -0.12855126725E+04 -0.46406122518E+03  0.13732358832E+04  0.12699999809E+01 0.  1.
</event>
<event>
 5   0  0.2456600E-06  0.2602688E+04  0.7818609E-02  0.8367289E-01
       -1   -1    0    0    0  501  0.00000000000E+00  0.00000000000E+00  0.12596202124E+04  0.12596202124E+04  0.50400001928E-02 0.  1.
        1   -1    0    0  501    0  0.00000000000E+00  0.00000000000E+00 -0.13444493831E+04  0.13444493831E+04  0.50400001928E-02 0. -1.
    10030    2    1    2    0    0  0.00000000000E+00  0.00000000000E+00 -0.84829170687E+02  0.26040695955E+04  0.26026875475E+04 0.  0.
        5    1    3    3  502    0 -0.27490929667E+03 -0.20157967387E+03  0.12141440347E+04  0.12611016269E+04  0.46999998093E+01 0.  1.
       -5    1    3    3    0  502  0.27490929667E+03  0.20157967387E+03 -0.12989732054E+04  0.13429679686E+04  0.46999998093E+01 0. -1.
</event>
<event>
 5   0  0.5940748E-06  0.2597967E+04  0.7818609E-02  0.8368892E-01
        2   -1    0    0  501    0  0.00000000000E+00  0.00000000000E+00  0.21944865531E+04  0.21944865531E+04  0.25500000920E-02 0.  1.
       -2   -1    0    0    0  501  0.00000000000E+00  0.00000000000E+00 -0.76890774767E+03  0.76890774768E+03  0.25500000920E-02 0. -1.
    10030    2    1    2    0    0  0.00000000000E+00  0.00000000000E+00  0.14255788054E+04  0.29633943007E+04  0.25979666763E+04 0.  0.
        1    1    3    3  502    0  0.46497915138E+03 -0.63261376400E+03  0.18932210747E+04  0.20495589339E+04  0.50400001928E-02 0.  1.
       -1    1    3    3    0  502 -0.46497915138E+03  0.63261376400E+03 -0.46764226934E+03  0.91383536686E+03  0.50400001928E-02 0. -1.
</event>
<event>
 5   0  0.2333979E-06  0.2596938E+04  0.7818609E-02  0.8369242E-01
        1   -1    0    0  501    0  0.00000000000E+00  0.00000000000E+00  0.26893865952E+04  0.26893865952E+04  0.50400001928E-02 0. -1.
       -1   -1    0    0    0  501  0.00000000000E+00  0.00000000000E+00 -0.62691684188E+03  0.62691684190E+03  0.50400001928E-02 0.  1.
    10030    2    1    2    0    0  0.00000000000E+00  0.00000000000E+00  0.20624697533E+04  0.33163034371E+04  0.25969380053E+04 0.  0.
        3    1    3    3  502    0  0.11986045473E+04  0.41678051673E+03  0.13824992587E+04  0.18766094614E+04  0.10100000352E+00 0.  1.
       -3    1    3    3    0  502 -0.11986045473E+04 -0.41678051673E+03  0.67997049463E+03  0.14396939757E+04  0.10100000352E+00 0. -1.
</event>
<event>
 5   0  0.6158063E-06  0.2597876E+04  0.7818609E-02  0.8368923E-01
        2   -1    0    0  501    0  0.00000000000E+00  0.00000000000E+00  0.22975667040E+04  0.22975667040E+04  0.25500000920E-02 0.  1.
       -2   -1    0    0    0  501  0.00000000000E+00  0.00000000000E+00 -0.73435942429E+03  0.73435942429E+03  0.25500000920E-02 0. -1.
    10030    2    1    2    0    0  0.00000000000E+00  0.00000000000E+00  0.15632072797E+04  0.30319261283E+04  0.25978758723E+04 0.  0.
        2    1    3    3  502    0  0.30089817645E+03 -0.46583736835E+03 -0.58925242632E+03  0.80917401606E+03  0.25500000920E-02 0. -1.
       -2    1    3    3    0  502 -0.30089817645E+03  0.46583736835E+03  0.21524597060E+04  0.22227521122E+04  0.25500000920E-02 0.  1.
</event>
<event>
 5   0  0.6158063E-06  0.2599064E+04  0.7818609E-02  0.8368519E-01
        2   -1    0    0  501    0  0.00000000000E+00  0.00000000000E+00  0.11164429213E+04  0.11164429213E+04  0.25500000920E-02 0.  1.
       -2   -1    0    0    0  501  0.00000000000E+00  0.00000000000E+00 -0.15126465296E+04  0.15126465296E+04  0.25500000920E-02 0. -1.
    10030    2    1    2    0    0  0.00000000000E+00  0.00000000000E+00 -0.39620360834E+03  0.26290894509E+04  0.25990640703E+04 0.  0.
        2    1    3    3  502    0 -0.11799457562E+04 -0.30299646819E+03 -0.65577159267E+03  0.13835155326E+04  0.25500000920E-02 0. -1.
       -2    1    3    3    0  502  0.11799457562E+04  0.30299646819E+03  0.25956798432E+03  0.12455739182E+04  0.25500000920E-02 0.  1.
</event>
<event>
 5   0  0.5942229E-06  0.2608255E+04  0.7818609E-02  0.8365403E-01
       -2   -1    0    0    0  501  0.00000000000E+00  0.00000000000E+00  0.10058289173E+04  0.10058289173E+04  0.25500000920E-02 0. -1.
        2   -1    0    0  501    0  0.00000000000E+00  0.00000000000E+00 -0.16908919631E+04  0.16908919631E+04  0.25500000920E-02 0.  1.
    10030    2    1    2    0    0  0.00000000000E+00  0.00000000000E+00 -0.68506304586E+03  0.26967208804E+04  0.26082546137E+04 0.  0.
        4    1    3    3  502    0  0.75152319254E+03 -0.13723705192E+03 -0.14353221410E+04  0.16259681358E+04  0.12699999809E+01 0.  1.
       -4    1    3    3    0  502 -0.75152319254E+03  0.13723705192E+03  0.75025909511E+03  0.10707527446E+04  0.12699999809E+01 0. -1.
</event>
<event>
 5   0  0.6173140E-06  0.2601997E+04  0.7818609E-02  0.8367523E-01
        2   -1    0    0  501    0  0.00000000000E+00  0.00000000000E+00  0.99085992420E+03  0.99085992420E+03  0.25500000920E-02 0.  1.
       -2   -1    0    0    0  501  0.00000000000E+00  0.00000000000E+00 -0.17082100811E+04  0.17082100811E+04  0.25500000920E-02 0. -1.
    10030    2    1    2    0    0  0.00000000000E+00  0.00000000000E+00 -0.71735015691E+03  0.26990700053E+04  0.26019968574E+04 0.  0.
        3    1    3    3  502    0 -0.46196707654E+03  0.10886936913E+04 -0.92105378907E+03  0.14990022101E+04  0.10100000352E+00 0. -1.
       -3    1    3    3    0  502  0.46196707654E+03 -0.10886936913E+04  0.20370363216E+03  0.12000677952E+04  0.10100000352E+00 0.  1.
</event>
<event>
 5   0  0.5940748E-06  0.2619496E+04  0.7818609E-02  0.8361609E-01
        2   -1    0    0  501    0  0.00000000000E+00  0.00000000000E+00  0.22681977248E+04  0.22681977248E+04  0.25500000920E-02 0. -1.
       -2   -1    0    0    0  501  0.00000000000E+00  0.00000000000E+00 -0.75630111713E+03  0.75630111713E+03  0.25500000920E-02 0.  1.
    10030    2    1    2    0    0  0.00000000000E+00  0.00000000000E+00  0.15118966077E+04  0.30244988419E+04  0.26194964960E+04 0.  0.
        1    1    3    3  502    0  0.87011806769E+03 -0.52440112419E+03 -0.19850248252E+03  0.10351353662E+04  0.50400001928E-02 0.  1.
       -1    1    3    3    0  502 -0.87011806769E+03  0.52440112419E+03  0.17103990902E+04  0.19893634757E+04  0.50400001928E-02 0. -1.
</event>
<event>
 5   0  0.6161834E-06  0.2597530E+04  0.7818609E-02  0.8369041E-01
       -2   -1    0    0    0  501  0.00000000000E+00  0.00000000000E+00  0.17126441643E+04  0.17126441643E+04  0.25500000920E-02 0.  1.
        2   -1    0    0  501    0  0.00000000000E+00  0.00000000000E+00 -0.98490413061E+03  0.98490413061E+03  0.25500000920E-02 0. -1.
    10030    2    1    2    0    0  0.00000000000E+00  0.00000000000E+00  0.72774003371E+03  0.26975482949E+04  0.25975298356E+04 0.  0.
        5    1    3    3  502    0  0.35598495852E+03  0.10000871328E+04 -0.41318498798E+03  0.11391415576E+04  0.46999998093E+01 0. -1.
       -5    1    3    3    0  502 -0.35598495852E+03 -0.10000871328E+04  0.11409250217E+04  0.15584067374E+04  0.46999998093E+01 0.  1.
</event>
<event>
 5   0  0.2471488E-06  0.2581305E+04  0.7818609E-02  0.8374579E-01
       -1   -1    0    0    0  501  0.00000000000E+00  0.00000000000E+00  0.11468135958E+04  0.11468135959E+04  0.50400001928E-02 0. -1.
        1   -1    0    0  501    0  0.00000000000E+00  0.00000000000E+00 -0.14525328883E+04  0.14525328883E+04  0.50400001928E-02 0.  1.
    10030    2    1    2    0    0  0.00000000000E+00  0.00000000000E+00 -0.30571929243E+03  0.25993464841E+04  0.25813054563E+04 0.  0.
        4    1    3    3  502    0  0.11387002139E+03 -0.37388746666E+03  0.10857879757E+04  0.11539910574E+04  0.12699999809E+01 0. -1.
       -4    1    3    3    0  502 -0.11387002139E+03  0.37388746666E+03 -0.13915072681E+04  0.14453554267E+04  0.12699999809E+01 0.  1.
</event>
<event>
 5   0  0.2456600E-06  0.2588958E+04  0.7818609E-02  0.8371962E-01
        1   -1    0    0  501    0  0.00000000000E+00  0.00000000000E+00  0.21632686755E+04  0.21632686755E+04  0.50400001928E-02 0.  1.
       -1   -1    0    0    0  501  0.00000000000E+00  0.00000000000E+00 -0.77460376413E+03  0.77460376415E+03  0.50400001928E-02 0. -1.
    10030    2    1    2    0    0  0.00000000000E+00  0.00000000000E+00  0.13886649114E+04  0.29378724397E+04  0.25889581371E+04 0.  0.
        5    1    3    3  502    0  0.71892908416E+03  0.30196432909E+02  0.19154016301E+04  0.20461076089E+04  0.46999998093E+01 0.  1.
       -5    1    3    3    0  502 -0.71892908416E+03 -0.30196432909E+02 -0.52673671870E+03  0.89176483079E+03  0.46999998093E+01 0. -1.
</event>
<event>
 5   0  0.5942229E-06  0.2598499E+04  0.7818609E-02  0.8368711E-01
       -2   -1    0    0    0  501  0.00000000000E+00  0.00000000000E+00  0.11570533908E+04  0.11570533908E+04  0.25500000920E-02 0.  1.
        2   -1    0    0  501    0  0.00000000000E+00  0.00000000000E+00 -0.14589206838E+04  0.14589206838E+04  0.25500000920E-02 0. -1.
    10030    2    1    2    0    0  0.00000000000E+00  0.00000000000E+00 -0.30186729299E+03  0.26159740746E+04  0.25984988929E+04 0.  0.
        4    1    3    3  502    0  0.62930345422E+03  0.57343554612E+03  0.83709221687E+03  0.11939749392E+04  0.12699999809E+01 0.  1.
       -4    1    3    3    0  502 -0.62930345422E+03 -0.57343554612E+03 -0.11389595099E+04  0.14219991354E+04  0.12699999809E+01 0. -1.
</event>
<event>
 5   0  0.6158063E-06  0.2586168E+04  0.7818609E-02  0.8372915E-01
       -2   -1    0    0    0  501  0.00000000000E+00  0.00000000000E+00  0.11033366714E+04  0.11033366714E+04  0.25500000920E-02 0.  1.
        2   -1    0    0  501    0  0.00000000000E+00  0.00000000000E+00 -0.15154631357E+04  0.15154631357E+04  0.25500000920E-02 0. -1.
    10030    2    1    2    0    0  0.00000000000E+00  0.00000000000E+00 -0.41212646427E+03  0.26187998071E+04  0.25861678613E+04 0.  0.
        2    1    3    3  502    0  0.50826164233E+03 -0.32651671217E+03 -0.13637839806E+04  0.14915930431E+04  0.25500000920E-02 0. -1.
       -2    1    3    3    0  502 -0.50826164233E+03  0.32651671217E+03  0.95165751632E+03  0.11272067640E+04  0.25500000920E-02 0.  1.
</event>
<event>
 5   0  0.2456600E-06  0.2602076E+04  0.7818609E-02  0.8367496E-01
        1   -1    0    0  501    0  0.00000000000E+00  0.00000000000E+00  0.18103881532E+04  0.18103881532E+04  0.50400001928E-02 0. -1.
       -1   -1    0    0    0  501  0.00000000000E+00  0.00000000000E+00 -0.93499280120E+03  0.93499280121E+03  0.50400001928E-02 0.  1.
    10030    2    1    2    0    0  0.00000000000E+00  0.00000000000E+00  0.87539535197E+03  0.27453809544E+04  0.26020760101E+04 0.  0.
        5    1    3    3  502    0 -0.84085295899E+03 -0.16507399736E+03  0.14705894872E+04  0.17020395568E+04  0.46999998093E+01 0. -1.
       -5    1    3    3    0  502  0.84085295899E+03  0.16507399736E+03 -0.59519413521E+03  0.10433413975E+04  0.46999998093E+01 0.  1.
</event>
<event>
 5   0  0.2503292E-06  0.2589728E+04  0.7818609E-02  0.8371699E-01
       -1   -1    0    0    0  501  0.00000000000E+00  0.00000000000E+00  0.15200066023E+04  0.15200066023E+04  0.50400001928E-02 0.  1.
        1   -1    0    0  501    0  0.00000000000E+00  0.00000000000E+00 -0.11030692972E+04  0.11030692972E+04  0.50400001928E-02 0. -1.
    10030    2    1    2    0    0  0.00000000000E+00  0.00000000000E+00  0.41693730511E+03  0.26230758995E+04  0.25897278733E+04 0.  0.
        2    1    3    3  502    0 -0.70862217542E+03  0.10221176394E+04 -0.15645220495E+03  0.12535338642E+04  0.25500000920E-02 0. -1.
       -2    1    3    3    0  502  0.70862217542E+03 -0.10221176394E+04  0.57338951006E+03  0.13695420353E+04  0.25500000920E-02 0.  1.
</event>
<event>
 5   0  0.6161834E-06  0.2597094E+04  0.7818609E-02  0.8369189E-01
       -2   -1    0    0    0  501  0.00000000000E+00  0.00000000000E+00  0.87794607112E+03  0.87794607112E+03  0.25500000920E-02 0. -1.
        2   -1    0    0  501    0  0.00000000000E+00  0.00000000000E+00 -0.19206465370E+04  0.19206465370E+04  0.25500000920E-02 0.  1.
    10030    2    1    2    0    0  0.00000000000E+00  0.00000000000E+00 -0.10427004659E+04  0.27985926081E+04  0.25970938228E+04 0.  0.
        5    1    3    3  502    0  0.29439772331E+03 -0.91357219304E+03 -0.14638026502E+04  0.17504355058E+04  0.46999998093E+01 0.  1.
       -5    1    3    3    0  502 -0.29439772331E+03  0.91357219304E+03  0.42110218433E+03  0.10481571023E+04  0.46999998093E+01 0. -1.
</event>
<event>
 5   0  0.2503292E-06  0.2602170E+04  0.7818609E-02  0.8367465E-01
        1   -1    0    0  501    0  0.00000000000E+00  0.00000000000E+00  0.14952658209E+04  0.14952658209E+04  0.50400001928E-02 0. -1.
       -1   -1    0    0    0  501  0.00000000000E+00  0.00000000000E+00 -0.11321209732E+04  0.11321209732E+04  0.50400001928E-02 0.  1.
    10030    2    1    2    0    0  0.00000000000E+00  0.00000000000E+00  0.36314484772E+03  0.26273867942E+04  0.26021697073E+04 0.  0.
        2    1    3    3  502    0 -0.53297449618E+02  0.31390171730E+03 -0.10921783793E+04  0.11376416477E+04  0.25500000920E-02 0.  1.
       -2    1    3    3    0  502  0.53297449618E+02 -0.31390171730E+03  0.14553232270E+04  0.14897451465E+04  0.25500000920E-02 0. -1.
</event>
<event>
 5   0  0.2333979E-06  0.2593398E+04  0.7818609E-02  0.8370447E-01
        1   -1    0    0  501    0  0.00000000000E+00  0.00000000000E+00  0.56919603898E+03  0.56919603900E+03  0.50400001928E-02 0. -1.
       -1   -1    0    0    0  501  0.00000000000E+00  0.00000000000E+00 -0.29540417411E+04  0.29540417411E+04  0.50400001928E-02 0.  1.
    10030    2    1    2    0    0  0.00000000000E+00  0.00000000000E+00 -0.23848457021E+04  0.35232377801E+04  0.25933984330E+04 0.  0.
        3    1    3    3  502    0  0.93627879893E+03  0.40040504761E+03 -0.22830584652E+04  0.24998596275E+04  0.10100000352E+00 0.  1.
       -3    1    3    3    0  502 -0.93627879893E+03 -0.40040504761E+03 -0.10178723695E+03  0.10233781526E+04  0.10100000352E+00 0. -1.
</event>
<event>
 5   0  0.2440590E-06  0.2596825E+04  0.7818609E-02  0.8369280E-01
       -1   -1    0    0    0  501  0.00000000000E+00  0.00000000000E+00  0.79777785381E+03  0.79777785383E+03  0.50400001928E-02 0. -1.
        1   -1    0    0  501    0  0.00000000000E+00  0.00000000000E+00 -0.21132138477E+04  0.21132138477E+04  0.50400001928E-02 0.  1.
    10030    2    1    2    0    0  0.00000000000E+00  0.00000000000E+00 -0.13154359939E+04  0.29109917015E+04  0.25968251447E+04 0.  0.
        1    1    3    3  502    0 -0.10514078527E+04  0.55097911807E+03 -0.12475274066E+04  0.17220223842E+04  0.50400001928E-02 0.  1.
       -1    1    3    3    0  502  0.10514078527E+04 -0.55097911807E+03 -0.67908587301E+02  0.11889693174E+04  0.50400001928E-02 0. -1.
</event>
<event>
 5   0  0.5940748E-06  0.2592096E+04  0.7818609E-02  0.8370891E-01
        2   -1    0    0  501    0  0.00000000000E+00  0.00000000000E+00  0.17529261363E+04  0.17529261363E+04  0.25500000920E-02 0. -1.
       -2   -1    0    0    0  501  0.00000000000E+00  0.00000000000E+00 -0.95824967752E+03  0.95824967752E+03  0.25500000920E-02 0.  1.
    10030    2    1    2    0    0  0.00000000000E+00  0.00000000000E+00  0.79467645875E+03  0.27111758138E+04  0.25920963754E+04 0.  0.
        1    1    3    3  502    0 -0.14165860916E+03  0.50861616797E+03  0.16353450053E+04  0.17184617698E+04  0.50400001928E-02 0. -1.
       -1    1    3    3    0  502  0.14165860916E+03 -0.50861616797E+03 -0.84066854658E+03  0.99271404397E+03  0.50400001928E-02 0.  1.
</event>
<event>
 5   0  0.6173140E-06  0.2589469E+04  0.7818609E-02  0.8371787E-01
       -2   -1    0    0    0  501  0.00000000000E+00  0.00000000000E+00  0.18161300627E+04  0.18161300627E+04  0.25500000920E-02 0.  1.
        2   -1    0    0  501    0  0.00000000000E+00  0.00000000000E+00 -0.92302712496E+03  0.92302712497E+03  0.25500000920E-02 0. -1.
    10030    2    1    2    0    0  0.00000000000E+00  0.00000000000E+00  0.89310293776E+03  0.27391571877E+04  0.25894689111E+04 0.  0.
        3    1    3    3  502    0 -0.22213546555E+03  0.49804483118E+03  0.16887174878E+04  0.17745871584E+04  0.10100000352E+00 0.  1.
       -3    1    3    3    0  502  0.22213546555E+03 -0.49804483118E+03 -0.79561455006E+03  0.96457002928E+03  0.10100000352E+00 0. -1.
</event>
<event>
 5   0  0.6161834E-06  0.2647481E+04  0.7818609E-02  0.8352249E-01
        2   -1    0    0  501    0  0.00000000000E+00  0.00000000000E+00  0.14587702677E+04  0.14587702677E+04  0.25500000920E-02 0. -1.
       -2   -1    0    0    0  501  0.00000000000E+00  0.00000000000E+00 -0.12012100409E+04  0.12012100409E+04  0.25500000920E-02 0.  1.
    10030    2    1    2    0    0  0.00000000000E+00  0.00000000000E+00  0.25756022683E+03  0.26599803085E+04  0.26474814393E+04 0.  0.
        5    1    3    3  502    0 -0.82897139040E+03  0.80141427409E+03 -0.52452733274E+03  0.12667317860E+04  0.46999998093E+01 0.  1.
       -5    1    3    3    0  502  0.82897139040E+03 -0.80141427409E+03  0.78208755957E+03  0.13932485226E+04  0.46999998093E+01 0. -1.
</event>
<event>
 5   0  0.5942229E-06  0.2598917E+04  0.7818609E-02  0.8368569E-01
       -2   -1    0    0    0  501  0.00000000000E+00  0.00000000000E+00  0.81805884916E+03  0.81805884916E+03  0.25500000920E-02 0.  1.
        2   -1    0    0  501    0  0.00000000000E+00  0.00000000000E+00 -0.20641453665E+04  0.20641453665E+04  0.25500000920E-02 0. -1.
    10030    2    1    2    0    0  0.00000000000E+00  0.00000000000E+00 -0.12460865174E+04  0.28822042157E+04  0.25989169922E+04 0.  0.
        4    1    3    3  502    0 -0.36030869529E+03 -0.12204341685E+04 -0.33108100906E+03  0.13148757215E+04  0.12699999809E+01 0.  1.
       -4    1    3    3    0  502  0.36030869529E+03  0.12204341685E+04 -0.91500550830E+03  0.15673284942E+04  0.12699999809E+01 0. -1.
</event>
<event>
 5   0  0.5940748E-06  0.2563958E+04  0.7818609E-02  0.8380548E-01
       -2   -1    0    0    0  501  0.00000000000E+00  0.00000000000E+00  0.12209332888E+04  0.12209332888E+04  0.25500000920E-02 0. -1.
        2   -1    0    0  501    0  0.00000000000E+00  0.00000000000E+00 -0.13460768795E+04  0.13460768795E+04  0.25500000920E-02 0.  1.
    10030    2    1    2    0    0  0.00000000000E+00  0.00000000000E+00 -0.12514359066E+03  0.25670101683E+04  0.25639579338E+04 0.  0.
        1    1    3    3  502    0 -0.43673556477E+03 -0.43866762321E+03 -0.11865403210E+04  0.13382993576E+04  0.50400001928E-02 0.  1.
       -1    1    3    3    0  502  0.43673556477E+03  0.43866762321E+03  0.10613967303E+04  0.12287108107E+04  0.50400001928E-02 0. -1.
</event>
<event>
 5   0  0.2503292E-06  0.2597384E+04  0.7818609E-02  0.8369090E-01
       -1   -1    0    0    0  501  0.00000000000E+00  0.00000000000E+00  0.11218497669E+04  0.11218497669E+04  0.50400001928E-02 0. -1.
        1   -1    0    0  501    0  0.00000000000E+00  0.00000000000E+00 -0.15034103462E+04  0.15034103462E+04  0.50400001928E-02 0.  1.
    10030    2    1    2    0    0  0.00000000000E+00  0.00000000000E+00 -0.38156057927E+03  0.26252601131E+04  0.25973837194E+04 0.  0.
        2    1    3    3  502    0 -0.75270156967E+03 -0.50842245422E+03 -0.11289379732E+04  0.14489837792E+04  0.25500000920E-02 0.  1.
       -2    1    3    3    0  502  0.75270156967E+03  0.50842245422E+03  0.74737739392E+03  0.11762763340E+04  0.25500000920E-02 0. -1.
</event>
<event>
 5   0  0.2333979E-06  0.2658455E+04  0.7818609E-02  0.8348612E-01
        1   -1    0    0  501    0  0.00000000000E+00  0.00000000000E+00  0.10435648562E+04  0.10435648562E+04  0.50400001928E-02 0.  1.
       -1   -1    0    0    0  501  0.00000000000E+00  0.00000000000E+00 -0.16930866897E+04  0.16930866897E+04  0.50400001928E-02 0. -1.
    10030    2    1    2    0    0  0.00000000000E+00  0.00000000000E+00 -0.64952183343E+03  0.27366515459E+04  0.26584550159E+04 0.  0.
        3    1    3    3  502    0  0.74360274620E+03 -0.62023754695E+03  0.61263148890E+03  0.11458433620E+04  0.10100000352E+00 0.  1.
       -3    1    3    3    0  502 -0.74360274620E+03  0.62023754695E+03 -0.12621533223E+04  0.15908081839E+04  0.10100000352E+00 0. -1.
</event>
<event>
 5   0  0.6173140E-06  0.2597634E+04  0.7818609E-02  0.8369005E-01
       -2   -1    0    0    0  501  0.00000000000E+00  0.00000000000E+00  0.13217710610E+04  0.13217710610E+04  0.25500000920E-02 0. -1.
        2   -1    0    0  501    0  0.00000000000E+00  0.00000000000E+00 -0.12762612833E+04  0.12762612833E+04  0.25500000920E-02 0.  1.
    10030    2    1    2    0    0  0.00000000000E+00  0.00000000000E+00  0.45509777714E+02  0.25980323443E+04  0.25976337159E+04 0.  0.
        3    1    3    3  502    0  0.48953478334E+03 -0.10688836419E+04  0.57489818727E+03  0.13086880759E+04  0.10100000352E+00 0.  1.
       -3    1    3    3    0  502 -0.48953478334E+03  0.10688836419E+04 -0.52938840955E+03  0.12893442684E+04  0.10100000352E+00 0. -1.
</event>
<event>
 5   0  0.6173140E-06  0.2602272E+04  0.7818609E-02  0.8367430E-01
       -2   -1    0    0    0  501  0.00000000000E+00  0.00000000000E+00  0.11597407905E+04  0.11597407905E+04  0.25500000920E-02 0.  1.
        2   -1    0    0  501    0  0.00000000000E+00  0.00000000000E+00 -0.14597705290E+04  0.14597705290E+04  0.25500000920E-02 0. -1.
    10030    2    1    2    0    0  0.00000000000E+00  0.00000000000E+00 -0.30002973852E+03  0.26195113195E+04  0.26022724126E+04 0.  0.
        3    1    3    3  502    0  0.81569457797E+03 -0.93273441771E+03 -0.54963883334E+03  0.13555272022E+04  0.10100000352E+00 0. -1.
       -3    1    3    3    0  502 -0.81569457797E+03  0.93273441771E+03  0.24960909482E+03  0.12639841174E+04  0.10100000352E+00 0.  1.
</event>
<event>
 5   0  0.2503292E-06  0.2612444E+04  0.7818609E-02  0.8363987E-01
        1   -1    0    0  501    0  0.00000000000E+00  0.00000000000E+00  0.17815118136E+04  0.17815118136E+04  0.50400001928E-02 0.  1.
       -1   -1    0    0    0  501  0.00000000000E+00  0.00000000000E+00 -0.95773484561E+03  0.95773484563E+03  0.50400001928E-02 0. -1.
    10030    2    1    2    0    0  0.00000000000E+00  0.00000000000E+00  0.82377696798E+03  0.27392466592E+04  0.26124440218E+04 0.  0.
        2    1    3    3  502    0 -0.98045354944E+03 -0.24946582811E+03  0.12782458188E+04  0.16301640210E+04  0.25500000920E-02 0.  1.
       -2    1    3    3    0  502  0.98045354944E+03  0.24946582811E+03 -0.45446885085E+03  0.11090826382E+04  0.25500000920E-02 0. -1.
</event>
<event>
 5   0  0.2440590E-06  0.2599910E+04  0.7818609E-02  0.8368232E-01
       -1   -1    0    0    0  501  0.00000000000E+00  0.00000000000E+00  0.14598318932E+04  0.14598318932E+04  0.50400001928E-02 0.  1.
        1   -1    0    0  501    0  0.00000000000E+00  0.00000000000E+00 -0.11575870607E+04  0.11575870607E+04  0.50400001928E-02 0. -1.
    10030    2    1    2    0    0  0.00000000000E+00  0.00000000000E+00  0.30224483250E+03  0.26174189539E+04  0.25999096218E+04 0.  0.
        1    1    3    3  502    0 -0.16404679907E+03 -0.31708532660E+03 -0.11072668518E+04  0.11633977556E+04  0.50400001928E-02 0. -1.
       -1    1    3    3    0  502  0.16404679907E+03  0.31708532660E+03  0.14095116843E+04  0.14540211982E+04  0.50400001928E-02 0.  1.
</event>
<event>
 5   0  0.6161834E-06  0.2574279E+04  0.7818609E-02  0.8376991E-01
        2   -1    0    0  501    0  0.00000000000E+00  0.00000000000E+00  0.21843711466E+04  0.21843711466E+04  0.25500000920E-02 0.  1.
       -2   -1    0    0    0  501  0.00000000000E+00  0.00000000000E+00 -0.75844651867E+03  0.75844651867E+03  0.25500000920E-02 0. -1.
    10030    2    1    2    0    0  0.00000000000E+00  0.00000000000E+00  0.14259246280E+04  0.29428176653E+04  0.25742794655E+04 0.  0.
        5    1    3    3  502    0 -0.11293114723E+04  0.95063431709E+02  0.15422750783E+02  0.11334202261E+04  0.46999998093E+01 0. -1.
       -5    1    3    3    0  502  0.11293114723E+04 -0.95063431709E+02  0.14105018772E+04  0.18093974392E+04  0.46999998093E+01 0.  1.
</event>
<event>
 5   0  0.2471488E-06  0.2578256E+04  0.7818609E-02  0.8375625E-01
        1   -1    0    0  501    0  0.00000000000E+00  0.00000000000E+00  0.14808685662E+04  0.14808685662E+04  0.50400001928E-02 0.  1.
       -1   -1    0    0    0  501  0.00000000000E+00  0.00000000000E+00 -0.11222135384E+04  0.11222135384E+04  0.50400001928E-02 0. -1.
    10030    2    1    2    0    0  0.00000000000E+00  0.00000000000E+00  0.35865502773E+03  0.26030821046E+04  0.25782558086E+04 0.  0.
        4    1    3    3  502    0  0.87074349967E+03  0.30158067349E+03 -0.73085410198E+03  0.11761353987E+04  0.12699999809E+01 0. -1.
       -4    1    3    3    0  502 -0.87074349967E+03 -0.30158067349E+03  0.10895091297E+04  0.14269467059E+04  0.12699999809E+01 0.  1.
</event>
<event>
 5   0  0.2440590E-06  0.2601963E+04  0.7818609E-02  0.8367535E-01
        1   -1    0    0  501    0  0.00000000000E+00  0.00000000000E+00  0.15292284847E+04  0.15292284847E+04  0.50400001928E-02 0.  1.
       -1   -1    0    0    0  501  0.00000000000E+00  0.00000000000E+00 -0.11068022098E+04  0.11068022098E+04  0.50400001928E-02 0. -1.
    10030    2    1    2    0    0  0.00000000000E+00  0.00000000000E+00  0.42242627491E+03  0.26360306944E+04  0.26019634633E+04 0.  0.
        1    1    3    3  502    0  0.28454862001E+03 -0.29310116617E+03 -0.10401420692E+04  0.11174845569E+04  0.50400001928E-02 0. -1.
       -1    1    3    3    0  502 -0.28454862001E+03  0.29310116617E+03  0.14625683441E+04  0.15185461376E+04  0.50400001928E-02 0.  1.
</event>
<event>
 5   0  0.5942229E-06  0.2603129E+04  0.7818609E-02  0.8367139E-01
        2   -1    0    0  501    0  0.00000000000E+00  0.00000000000E+00  0.18823792966E+04  0.18823792966E+04  0.25500000920E-02 0. -1.
       -2   -1    0    0    0  501  0.00000000000E+00  0.00000000000E+00 -0.89996185382E+03  0.89996185382E+03  0.25500000920E-02 0.  1.
    10030    2    1    2    0    0  0.00000000000E+00  0.00000000000E+00  0.98241744277E+03  0.27823411504E+04  0.26031285495E+04 0.  0.
        4    1    3    3  502    0 -0.78916226027E+03 -0.52102924169E+03 -0.46468747152E+03  0.10536529803E+04  0.12699999809E+01 0.  1.
       -4    1    3    3    0  502  0.78916226027E+03  0.52102924169E+03  0.14471049143E+04  0.17286881701E+04  0.12699999809E+01 0. -1.
</event>
<event>
 5   0  0.2333979E-06  0.2587157E+04  0.7818609E-02  0.8372577E-01
       -1   -1    0    0    0  501  0.00000000000E+00  0.00000000000E+00  0.14488440092E+04  0.14488440093E+04  0.50400001928E-02 0. -1.
        1   -1    0    0  501    0  0.00000000000E+00  0.00000000000E+00 -0.11549519195E+04  0.11549519195E+04  0.50400001928E-02 0.  1.
    10030    2    1    2    0    0  0.00000000000E+00  0.00000000000E+00  0.29389208977E+03  0.26037959287E+04  0.25871568716E+04 0.  0.
        3    1    3    3  502    0  0.65064567659E+02  0.11240873196E+04  0.78786149307E+03  0.13742384955E+04  0.10100000352E+00 0. -1.
       -3    1    3    3    0  502 -0.65064567659E+02 -0.11240873196E+04 -0.49396940330E+03  0.12295574332E+04  0.10100000352E+00 0.  1.
</event>
<event>
 5   0  0.2440590E-06  0.2600134E+04  0.7818609E-02  0.8368156E-01
       -1   -1    0    0    0  501  0.00000000000E+00  0.00000000000E+00  0.12715216288E+04  0.12715216288E+04  0.50400001928E-02 0. -1.
        1   -1    0    0  501    0  0.00000000000E+00  0.00000000000E+00 -0.13292534873E+04  0.13292534873E+04  0.50400001928E-02 0.  1.
    10030    2    1    2    0    0  0.00000000000E+00  0.00000000000E+00 -0.57731858498E+02  0.26007751162E+04  0.26001342730E+04 0.  0.
        1    1    3    3  502    0  0.49846217370E+03 -0.30986494126E+03 -0.11891922431E+04  0.13261444158E+04  0.50400001928E-02 0.  1.
       -1    1    3    3    0  502 -0.49846217370E+03  0.30986494126E+03  0.11314603846E+04  0.12746307004E+04  0.50400001928E-02 0. -1.
</event>
<event>
 5   0  0.2440590E-06  0.2612923E+04  0.7818609E-02  0.8363825E-01
        1   -1    0    0  501    0  0.00000000000E+00  0.00000000000E+00  0.13576812378E+04  0.13576812378E+04  0.50400001928E-02 0.  1.
       -1   -1    0    0    0  501  0.00000000000E+00  0.00000000000E+00 -0.12571739968E+04  0.12571739968E+04  0.50400001928E-02 0. -1.
    10030    2    1    2    0    0  0.00000000000E+00  0.00000000000E+00  0.10050724095E+03  0.26148552346E+04  0.26129229212E+04 0.  0.
        1    1    3    3  502    0  0.17217651037E+03 -0.91746988850E+02 -0.12425141070E+04  0.12577374793E+04  0.50400001928E-02 0. -1.
       -1    1    3    3    0  502 -0.17217651037E+03  0.91746988850E+02  0.13430213479E+04  0.13571177553E+04  0.50400001928E-02 0.  1.
</event>
<event>
 5   0  0.2456600E-06  0.2599433E+04  0.7818609E-02  0.8368394E-01
       -1   -1    0    0    0  501  0.00000000000E+00  0.00000000000E+00  0.12222665269E+04  0.12222665269E+04  0.50400001928E-02 0. -1.
        1   -1    0    0  501    0  0.00000000000E+00  0.00000000000E+00 -0.13820745288E+04  0.13820745288E+04  0.50400001928E-02 0.  1.
    10030    2    1    2    0    0  0.00000000000E+00  0.00000000000E+00 -0.15980800192E+03  0.26043410557E+04  0.25994333492E+04 0.  0.
        5    1    3    3  502    0  0.26577116939E+03 -0.12216079006E+04  0.27612753217E+03  0.12803236627E+04  0.46999998093E+01 0. -1.
       -5    1    3    3    0  502 -0.26577116939E+03  0.12216079006E+04 -0.43593553409E+03  0.13240173930E+04  0.46999998093E+01 0.  1.
</event>
<event>
 5   0  0.2456600E-06  0.2618702E+04  0.7818609E-02  0.8361876E-01
        1   -1    0    0  501    0  0.00000000000E+00  0.00000000000E+00  0.14822687743E+04  0.14822687743E+04  0.50400001928E-02 0. -1.
       -1   -1    0    0    0  501  0.00000000000E+00  0.00000000000E+00 -0.11566050790E+04  0.11566050790E+04  0.50400001928E-02 0.  1.
    10030    2    1    2    0    0  0.00000000000E+00  0.00000000000E+00  0.32566369530E+03  0.26388738532E+04  0.26187016575E+04 0.  0.
        5    1    3    3  502    0  0.92744512712E+01 -0.47224729996E+02  0.14813686730E+04  0.14821576927E+04  0.46999998093E+01 0. -1.
       -5    1    3    3    0  502 -0.92744512712E+01  0.47224729996E+02 -0.11557049777E+04  0.11567161606E+04  0.46999998093E+01 0.  1.
</event>
<event>
 5   0  0.2503292E-06  0.2595203E+04  0.7818609E-02  0.8369832E-01
        1   -1    0    0  501    0  0.00000000000E+00  0.00000000000E+00  0.15208820702E+04  0.15208820702E+04  0.50400001928E-02 0. -1.
       -1   -1    0    0    0  501  0.00000000000E+00  0.00000000000E+00 -0.11071010678E+04  0.11071010678E+04  0.50400001928E-02 0.  1.
    10030    2    1    2    0    0  0.00000000000E+00  0.00000000000E+00  0.41378100243E+03  0.26279831380E+04  0.25952033939E+04 0.  0.
        2    1    3    3  502    0 -0.57166111404E+03  0.33873023665E+03 -0.92174355968E+03  0.11362859642E+04  0.25500000920E-02 0.  1.
       -2    1    3    3    0  502  0.57166111404E+03 -0.33873023665E+03  0.13355245621E+04  0.14916971739E+04  0.25500000920E-02 0. -1.
</event>
<event>
 5   0  0.2503292E-06  0.2594752E+04  0.7818609E-02  0.8369986E-01
       -1   -1    0    0    0  501  0.00000000000E+00  0.00000000000E+00  0.74267616556E+03  0.74267616558E+03  0.50400001928E-02 0.  1.
        1   -1    0    0  501    0  0.00000000000E+00  0.00000000000E+00 -0.22663780180E+04  0.22663780180E+04  0.50400001928E-02 0. -1.
    10030    2    1    2    0    0  0.00000000000E+00  0.00000000000E+00 -0.15237018524E+04  0.30090541836E+04  0.25947523475E+04 0.  0.
        2    1    3    3  502    0  0.53389120626E+03  0.51026789930E+02 -0.21318032528E+04  0.21982330773E+04  0.25500000920E-02 0. -1.
       -2    1    3    3    0  502 -0.53389120626E+03 -0.51026789930E+02  0.60810140032E+03  0.81082110634E+03  0.25500000920E-02 0.  1.
</event>
<event>
 5   0  0.2503292E-06  0.2627064E+04  0.7818609E-02  0.8359066E-01
       -1   -1    0    0    0  501  0.00000000000E+00  0.00000000000E+00  0.17100381774E+04  0.17100381774E+04  0.50400001928E-02 0. -1.
        1   -1    0    0  501    0  0.00000000000E+00  0.00000000000E+00 -0.10089635849E+04  0.10089635849E+04  0.50400001928E-02 0.  1.
    10030    2    1    2    0    0  0.00000000000E+00  0.00000000000E+00  0.70107459256E+03  0.27190017623E+04  0.26270639504E+04 0.  0.
        2    1    3    3  502    0  0.52838812488E+03 -0.94573489558E+03 -0.41826215347E+03  0.11612716014E+04  0.25500000920E-02 0.  1.
       -2    1    3    3    0  502 -0.52838812488E+03  0.94573489558E+03  0.11193367460E+04  0.15577301609E+04  0.25500000920E-02 0. -1.
</event>
<event>
 5   0  0.6161834E-06  0.2607821E+04  0.7818609E-02  0.8365550E-01
        2   -1    0    0  501    0  0.00000000000E+00  0.00000000000E+00  0.11753917061E+04  0.11753917061E+04  0.25500000920E-02 0. -1.
       -2   -1    0    0    0  501  0.00000000000E+00  0.00000000000E+00 -0.14464813214E+04  0.14464813214E+04  0.25500000920E-02 0.  1.
    10030    2    1    2    0    0  0.00000000000E+00  0.00000000000E+00 -0.27108961528E+03  0.26218730275E+04  0.26078206596E+04 0.  0.
        5    1    3    3  502    0  0.11547644214E+04 -0.59378761631E+03 -0.25490884503E+03  0.13232782063E+04  0.46999998093E+01 0. -1.
       -5    1    3    3    0  502 -0.11547644214E+04  0.59378761631E+03 -0.16180770249E+02  0.12985948211E+04  0.46999998093E+01 0.  1.
</event>
<event>
 5   0  0.2440590E-06  0.2597814E+04  0.7818609E-02  0.8368944E-01
        1   -1    0    0  501    0  0.00000000000E+00  0.00000000000E+00  0.22123019524E+04  0.22123019524E+04  0.50400001928E-02 0.  1.
       -1   -1    0    0    0  501  0.00000000000E+00  0.00000000000E+00 -0.76262599876E+03  0.76262599877E+03  0.50400001928E-02 0. -1.
    10030    2    1    2    0    0  0.00000000000E+00  0.00000000000E+00  0.14496759536E+04  0.29749279512E+04  0.25978136854E+04 0.  0.
        1    1    3    3  502    0  0.69785290956E+02  0.10633577100E+04  0.15753189245E+04  0.19019015012E+04  0.50400001928E-02 0.  1.
       -1    1    3    3    0  502 -0.69785290956E+02 -0.10633577100E+04 -0.12564297083E+03  0.10730264500E+04  0.50400001928E-02 0. -1.
</event>
<event>
 5   0  0.2072125E-06  0.2588609E+04  0.7818609E-02  0.8372081E-01
       -3   -1    0    0    0  501  0.00000000000E+00  0.00000000000E+00  0.21144978730E+04  0.21144978754E+04  0.10100000352E+00 0. -1.
        3   -1    0    0  501    0  0.00000000000E+00  0.00000000000E+00 -0.79225617973E+03  0.79225618617E+03  0.10100000352E+00 0.  1.
    10030    2    1    2    0    0  0.00000000000E+00  0.00000000000E+00  0.13222416933E+04  0.29067540616E+04  0.25886089081E+04 0.  0.
        2    1    3    3  502    0  0.10771964630E+03 -0.46759296728E+03 -0.68868828251E+03  0.83936777143E+03  0.25500000920E-02 0.  1.
       -2    1    3    3    0  502 -0.10771964630E+03  0.46759296728E+03  0.20109299758E+04  0.20673862902E+04  0.25500000920E-02 0. -1.
</event>
<event>
 5   0  0.6173140E-06  0.2555510E+04  0.7818609E-02  0.8383473E-01
        2   -1    0    0  501    0  0.00000000000E+00  0.00000000000E+00  0.26112336164E+04  0.26112336164E+04  0.25500000920E-02 0. -1.
       -2   -1    0    0    0  501  0.00000000000E+00  0.00000000000E+00 -0.62524374738E+03  0.62524374738E+03  0.25500000920E-02 0.  1.
    10030    2    1    2    0    0  0.00000000000E+00  0.00000000000E+00  0.19859898691E+04  0.32364773638E+04  0.25555097273E+04 0.  0.
        3    1    3    3  502    0  0.63789410240E+02 -0.69003451722E+02  0.26068513887E+04  0.26085445632E+04  0.10100000352E+00 0. -1.
       -3    1    3    3    0  502 -0.63789410240E+02  0.69003451722E+02 -0.62086151969E+03  0.62793280058E+03  0.10100000352E+00 0.  1.
</event>
<event>
 5   0  0.2471488E-06  0.2595530E+04  0.7818609E-02  0.8369721E-01
       -1   -1    0    0    0  501  0.00000000000E+00  0.00000000000E+00  0.10126730011E+04  0.10126730011E+04  0.50400001928E-02 0. -1.
        1   -1    0    0  501    0  0.00000000000E+00  0.00000000000E+00 -0.16631175680E+04  0.16631175680E+04  0.50400001928E-02 0.  1.
    10030    2    1    2    0    0  0.00000000000E+00  0.00000000000E+00 -0.65044456696E+03  0.26757905691E+04  0.25955302031E+04 0.  0.
        4    1    3    3  502    0 -0.12513259116E+04 -0.16722923186E+03 -0.15241015720E+02  0.12625434862E+04  0.12699999809E+01 0. -1.
       -4    1    3    3    0  502  0.12513259116E+04  0.16722923186E+03 -0.63520355124E+03  0.14132470829E+04  0.12699999809E+01 0.  1.
</event>
<event>
 5   0  0.5942229E-06  0.2539730E+04  0.7818609E-02  0.8388967E-01
       -2   -1    0    0    0  501  0.00000000000E+00  0.00000000000E+00  0.18584599860E+04  0.18584599860E+04  0.25500000920E-02 0.  1.
        2   -1    0    0  501    0  0.00000000000E+00  0.00000000000E+00 -0.86768426645E+03  0.86768426645E+03  0.25500000920E-02 0. -1.
    10030    2    1    2    0    0  0.00000000000E+00  0.00000000000E+00  0.99077571958E+03  0.27261442525E+04  0.25397295051E+04 0.  0.
        4    1    3    3  502    0  0.20212443866E+03 -0.11344765546E+04 -0.77312277669E+02  0.11549329604E+04  0.12699999809E+01 0. -1.
       -4    1    3    3    0  502 -0.20212443866E+03  0.11344765546E+04  0.10680879972E+04  0.15712112921E+04  0.12699999809E+01 0.  1.
</event>
<event>
 5   0  0.5940748E-06  0.2602988E+04  0.7818609E-02  0.8367187E-01
        2   -1    0    0  501    0  0.00000000000E+00  0.00000000000E+00  0.18874059725E+04  0.18874059725E+04  0.25500000920E-02 0. -1.
       -2   -1    0    0    0  501  0.00000000000E+00  0.00000000000E+00 -0.89746775926E+03  0.89746775927E+03  0.25500000920E-02 0.  1.
    10030    2    1    2    0    0  0.00000000000E+00  0.00000000000E+00  0.98993821320E+03  0.27848737317E+04  0.26029875212E+04 0.  0.
        1    1    3    3  502    0 -0.33673443896E+03 -0.78939886115E+03  0.15417788156E+04  0.17645459928E+04  0.50400001928E-02 0. -1.
       -1    1    3    3    0  502  0.33673443896E+03  0.78939886115E+03 -0.55184060241E+03  0.10203277389E+04  0.50400001928E-02 0.  1.
</event>
<event>
 5   0  0.2333979E-06  0.2598184E+04  0.7818609E-02  0.8368818E-01
       -1   -1    0    0    0  501  0.00000000000E+00  0.00000000000E+00  0.15460353749E+04  0.15460353749E+04  0.50400001928E-02 0. -1.
        1   -1    0    0  501    0  0.00000000000E+00  0.00000000000E+00 -0.10915919628E+04  0.10915919628E+04  0.50400001928E-02 0.  1.
    10030    2    1    2    0    0  0.00000000000E+00  0.00000000000E+00  0.45444341208E+03  0.26376273377E+04  0.25981838191E+04 0.  0.
        3    1    3    3  502    0  0.10082373478E+04  0.19034250803E+03 -0.58165983429E+03  0.11794494448E+04  0.10100000352E+00 0.  1.
       -3    1    3    3    0  502 -0.10082373478E+04 -0.19034250803E+03  0.10361032464E+04  0.14581778929E+04  0.10100000352E+00 0. -1.
</event>
<event>
 5   0  0.6173140E-06  0.2580531E+04  0.7818609E-02  0.8374845E-01
       -2   -1    0    0    0  501  0.00000000000E+00  0.00000000000E+00  0.18398669558E+04  0.18398669558E+04  0.25500000920E-02 0. -1.
        2   -1    0    0  501    0  0.00000000000E+00  0.00000000000E+00 -0.90483970943E+03  0.90483970943E+03  0.25500000920E-02 0.  1.
    10030    2    1    2    0    0  0.00000000000E+00  0.00000000000E+00  0.93502724638E+03  0.27447066652E+04  0.25805307064E+04 0.  0.
        3    1    3    3  502    0  0.25392092313E+03  0.24241241416E+03  0.17880945405E+04  0.18222298729E+04  0.10100000352E+00 0. -1.
       -3    1    3    3    0  502 -0.25392092313E+03 -0.24241241416E+03 -0.85306729416E+03  0.92247679229E+03  0.10100000352E+00 0.  1.
</event>
<event>
 5   0  0.2471488E-06  0.2594577E+04  0.7818609E-02  0.8370045E-01
        1   -1    0    0  501    0  0.00000000000E+00  0.00000000000E+00  0.14951274652E+04  0.14951274652E+04  0.50400001928E-02 0. -1.
       -1   -1    0    0    0  501  0.00000000000E+00  0.00000000000E+00 -0.11256284842E+04  0.11256284842E+04  0.50400001928E-02 0.  1.
    10030    2    1    2    0    0  0.00000000000E+00  0.00000000000E+00  0.36949898101E+03  0.26207559494E+04  0.25945774703E+04 0.  0.
        4    1    3    3  502    0  0.36876241297E+03 -0.12353068700E+04  0.33108241194E+03  0.13310093751E+04  0.12699999809E+01 0.  1.
       -4    1    3    3    0  502 -0.36876241297E+03  0.12353068700E+04  0.38416569070E+02  0.12897465743E+04  0.12699999809E+01 0. -1.
</event>
<event>
 5   0  0.6158063E-06  0.2604591E+04  0.7818609E-02  0.8366643E-01
       -2   -1    0    0    0  501  0.00000000000E+00  0.00000000000E+00  0.14523834994E+04  0.14523834994E+04  0.25500000920E-02 0.  1.
        2   -1    0    0  501    0  0.00000000000E+00  0.00000000000E+00 -0.11677178956E+04  0.11677178956E+04  0.25500000920E-02 0. -1.
    10030    2    1    2    0    0  0.00000000000E+00  0.00000000000E+00  0.28466560387E+03  0.26201013950E+04  0.26045914870E+04 0.  0.
        2    1    3    3  502    0  0.97075811444E+03 -0.86172908438E+03  0.36703367769E+02  0.12985743986E+04  0.25500000920E-02 0.  1.
       -2    1    3    3    0  502 -0.97075811444E+03  0.86172908438E+03  0.24796223610E+03  0.13215269964E+04  0.25500000920E-02 0. -1.
</event>
<event>
 5   0  0.2471488E-06  0.2737600E+04  0.7818609E-02  0.8322907E-01
        1   -1    0    0  501    0  0.00000000000E+00  0.00000000000E+00  0.20016446155E+04  0.20016446155E+04  0.50400001928E-02 0.  1.
       -1   -1    0    0    0  501  0.00000000000E+00  0.00000000000E+00 -0.93603673125E+03  0.93603673126E+03  0.50400001928E-02 0. -1.
    10030    2    1    2    0    0  0.00000000000E+00  0.00000000000E+00  0.10656078842E+04  0.29376813468E+04  0.27375995931E+04 0.  0.
        4    1    3    3  502    0  0.15692530517E+03  0.44055443082E+03  0.19132527612E+04  0.19695815543E+04  0.12699999809E+01 0.  1.
       -4    1    3    3    0  502 -0.15692530517E+03 -0.44055443082E+03 -0.84764487693E+03  0.96809979248E+03  0.12699999809E+01 0. -1.
</event>
<event>
 5   0  0.2471488E-06  0.2664145E+04  0.7818609E-02  0.8346733E-01
        1   -1    0    0  501    0  0.00000000000E+00  0.00000000000E+00  0.55782637069E+03  0.55782637071E+03  0.50400001928E-02 0.  1.
       -1   -1    0    0    0  501  0.00000000000E+00  0.00000000000E+00 -0.31809489037E+04  0.31809489037E+04  0.50400001928E-02 0. -1.
    10030    2    1    2    0    0  0.00000000000E+00  0.00000000000E+00 -0.26231225330E+04  0.37387752745E+04  0.26641450279E+04 0.  0.
        4    1    3    3  502    0 -0.97854426799E+03  0.24424955193E+03 -0.25327402944E+04  0.27261661248E+04  0.12699999809E+01 0. -1.
       -4    1    3    3    0  502  0.97854426799E+03 -0.24424955193E+03 -0.90382238620E+02  0.10126091497E+04  0.12699999809E+01 0.  1.
</event>
<event>
 5   0  0.2503292E-06  0.2619706E+04  0.7818609E-02  0.8361538E-01
       -1   -1    0    0    0  501  0.00000000000E+00  0.00000000000E+00  0.12082679074E+04  0.12082679074E+04  0.50400001928E-02 0. -1.
        1   -1    0    0  501    0  0.00000000000E+00  0.00000000000E+00 -0.14199786947E+04  0.14199786947E+04  0.50400001928E-02 0.  1.
    10030    2    1    2    0    0  0.00000000000E+00  0.00000000000E+00 -0.21171078724E+03  0.26282466021E+04  0.26197058506E+04 0.  0.
        2    1    3    3  502    0  0.70076853644E+02 -0.11376119427E+04 -0.75343866344E+03  0.13662874944E+04  0.25500000920E-02 0.  1.
       -2    1    3    3    0  502 -0.70076853644E+02  0.11376119427E+04  0.54172787621E+03  0.12619591077E+04  0.25500000920E-02 0. -1.
</event>
<event>
 5   0  0.6158063E-06  0.2600978E+04  0.7818609E-02  0.8367869E-01
       -2   -1    0    0    0  501  0.00000000000E+00  0.00000000000E+00  0.19762278384E+04  0.19762278384E+04  0.25500000920E-02 0. -1.
        2   -1    0    0  501    0  0.00000000000E+00  0.00000000000E+00 -0.85580828234E+03  0.85580828235E+03  0.25500000920E-02 0.  1.
    10030    2    1    2    0    0  0.00000000000E+00  0.00000000000E+00  0.11204195560E+04  0.28320361207E+04  0.26009783943E+04 0.  0.
        2    1    3    3  502    0  0.53500057997E+03  0.87730863939E+03 -0.30770578282E+03  0.10726504175E+04  0.25500000920E-02 0.  1.
       -2    1    3    3    0  502 -0.53500057997E+03 -0.87730863939E+03  0.14281253388E+04  0.17593857032E+04  0.25500000920E-02 0. -1.
</event>
<event>
 5   0  0.5940748E-06  0.2593619E+04  0.7818609E-02  0.8370372E-01
       -2   -1    0    0    0  501  0.00000000000E+00  0.00000000000E+00  0.14525770808E+04  0.14525770808E+04  0.25500000920E-02 0. -1.
        2   -1    0    0  501    0  0.00000000000E+00  0.00000000000E+00 -0.11577458497E+04  0.11577458497E+04  0.25500000920E-02 0.  1.
    10030    2    1    2    0    0  0.00000000000E+00  0.00000000000E+00  0.29483123108E+03  0.26103229305E+04  0.25936191599E+04 0.  0.
        1    1    3    3  502    0 -0.12139009750E+04 -0.24960044161E+03  0.53179035676E+03  0.13485758937E+04  0.50400001928E-02 0.  1.
       -1    1    3    3    0  502  0.12139009750E+04  0.24960044161E+03 -0.23695912568E+03  0.12617470368E+04  0.50400001928E-02 0. -1.
</event>
<event>
 5   0  0.6161834E-06  0.2591257E+04  0.7818609E-02  0.8371177E-01
        2   -1    0    0  501    0  0.00000000000E+00  0.00000000000E+00  0.12223690575E+04  0.12223690575E+04  0.25500000920E-02 0. -1.
       -2   -1    0    0    0  501  0.00000000000E+00  0.00000000000E+00 -0.13732790552E+04  0.13732790552E+04  0.25500000920E-02 0.  1.
    10030    2    1    2    0    0  0.00000000000E+00  0.00000000000E+00 -0.15090999765E+03  0.25956481127E+04  0.25912574742E+04 0.  0.
        5    1    3    3  502    0 -0.37234107088E+03  0.64843972022E+03  0.98441142842E+03  0.12362038239E+04  0.46999998093E+01 0. -1.
       -5    1    3    3    0  502  0.37234107088E+03 -0.64843972022E+03 -0.11353214261E+04  0.13594442888E+04  0.46999998093E+01 0.  1.
</event>
<event>
 5   0  0.5940748E-06  0.2590444E+04  0.7818609E-02  0.8371454E-01
        2   -1    0    0  501    0  0.00000000000E+00  0.00000000000E+00  0.27016125398E+04  0.27016125398E+04  0.25500000920E-02 0. -1.
       -2   -1    0    0    0  501  0.00000000000E+00  0.00000000000E+00 -0.62096236575E+03  0.62096236575E+03  0.25500000920E-02 0.  1.
    10030    2    1    2    0    0  0.00000000000E+00  0.00000000000E+00  0.20806501740E+04  0.33225749055E+04  0.25904437566E+04 0.  0.
        1    1    3    3  502    0 -0.72446222045E+03 -0.10488771511E+04  0.13345223247E+04  0.18455185239E+04  0.50400001928E-02 0. -1.
       -1    1    3    3    0  502  0.72446222045E+03  0.10488771511E+04  0.74612784932E+03  0.14770563816E+04  0.50400001928E-02 0.  1.
</event>
<event>
 5   0  0.2440590E-06  0.2620637E+04  0.7818609E-02  0.8361225E-01
       -1   -1    0    0    0  501  0.00000000000E+00  0.00000000000E+00  0.80065092945E+03  0.80065092947E+03  0.50400001928E-02 0.  1.
        1   -1    0    0  501    0  0.00000000000E+00  0.00000000000E+00 -0.21444237841E+04  0.21444237841E+04  0.50400001928E-02 0. -1.
    10030    2    1    2    0    0  0.00000000000E+00  0.00000000000E+00 -0.13437728546E+04  0.29450747136E+04  0.26206372476E+04 0.  0.
        1    1    3    3  502    0 -0.89112645678E+03 -0.25446948306E+03 -0.17128888311E+04  0.19475238708E+04  0.50400001928E-02 0. -1.
       -1    1    3    3    0  502  0.89112645678E+03  0.25446948306E+03  0.36911597644E+03  0.99755084275E+03  0.50400001928E-02 0.  1.
</event>
<event>
 5   0  0.6161834E-06  0.2596949E+04  0.7818609E-02  0.8369238E-01
        2   -1    0    0  501    0  0.00000000000E+00  0.00000000000E+00  0.15618064988E+04  0.15618064988E+04  0.25500000920E-02 0.  1.
       -2   -1    0    0    0  501  0.00000000000E+00  0.00000000000E+00 -0.10795420640E+04  0.10795420640E+04  0.25500000920E-02 0. -1.
    10030    2    1    2    0    0  0.00000000000E+00  0.00000000000E+00  0.48226443481E+03  0.26413485629E+04  0.25969488338E+04 0.  0.
        5    1    3    3  502    0  0.99534175377E+03  0.68707250910E+03  0.72169287711E+03  0.14084163228E+04  0.46999998093E+01 0.  1.
       -5    1    3    3    0  502 -0.99534175377E+03 -0.68707250910E+03 -0.23942844230E+03  0.12329322400E+04  0.46999998093E+01 0. -1.
</event>
<event>
 5   0  0.2072125E-06  0.2601631E+04  0.7818609E-02  0.8367647E-01
       -3   -1    0    0    0  501  0.00000000000E+00  0.00000000000E+00  0.72872972059E+03  0.72872972759E+03  0.10100000352E+00 0. -1.
        3   -1    0    0  501    0  0.00000000000E+00  0.00000000000E+00 -0.23220140519E+04  0.23220140541E+04  0.10100000352E+00 0.  1.
    10030    2    1    2    0    0  0.00000000000E+00  0.00000000000E+00 -0.15932843313E+04  0.30507437817E+04  0.26016307695E+04 0.  0.
        3    1    3    3  502    0  0.33367610187E+03  0.30244909828E+03  0.63439846564E+03  0.77799525797E+03  0.10100000352E+00 0. -1.
       -3    1    3    3    0  502 -0.33367610187E+03 -0.30244909828E+03 -0.22276827969E+04  0.22727485237E+04  0.10100000352E+00 0.  1.
</event>
<event>
 5   0  0.5942229E-06  0.2602263E+04  0.7818609E-02  0.8367433E-01
        2   -1    0    0  501    0  0.00000000000E+00  0.00000000000E+00  0.23031384890E+04  0.23031384890E+04  0.25500000920E-02 0. -1.
       -2   -1    0    0    0  501  0.00000000000E+00  0.00000000000E+00 -0.73505911186E+03  0.73505911186E+03  0.25500000920E-02 0.  1.
    10030    2    1    2    0    0  0.00000000000E+00  0.00000000000E+00  0.15680793772E+04  0.30381976009E+04  0.26022628094E+04 0.  0.
        4    1    3    3  502    0  0.99763045251E+03  0.73705274770E+03  0.32523489097E+03  0.12822997387E+04  0.12699999809E+01 0.  1.
       -4    1    3    3    0  502 -0.99763045251E+03 -0.73705274770E+03  0.12428444862E+04  0.17558978622E+04  0.12699999809E+01 0. -1.
</event>
<event>
 5   0  0.5942229E-06  0.2606983E+04  0.7818609E-02  0.8365833E-01
       -2   -1    0    0    0  501  0.00000000000E+00  0.00000000000E+00  0.16502840209E+04  0.16502840209E+04  0.25500000920E-02 0.  1.
        2   -1    0    0  501    0  0.00000000000E+00  0.00000000000E+00 -0.10295740317E+04  0.10295740317E+04  0.25500000920E-02 0. -1.
    10030    2    1    2    0    0  0.00000000000E+00  0.00000000000E+00  0.62070998921E+03  0.26798580526E+04  0.26069826028E+04 0.  0.
        4    1    3    3  502    0 -0.11803942620E+04  0.82978587582E+02 -0.25161897578E+03  0.12097643496E+04  0.12699999809E+01 0. -1.
       -4    1    3    3    0  502  0.11803942620E+04 -0.82978587582E+02  0.87232896499E+03  0.14700937030E+04  0.12699999809E+01 0.  1.
</event>
<event>
 5   0  0.2503292E-06  0.2595227E+04  0.7818609E-02  0.8369824E-01
       -1   -1    0    0    0  501  0.00000000000E+00  0.00000000000E+00  0.15701363469E+04  0.15701363470E+04  0.50400001928E-02 0. -1.
        1   -1    0    0  501    0  0.00000000000E+00  0.00000000000E+00 -0.10723911887E+04  0.10723911887E+04  0.50400001928E-02 0.  1.
    10030    2    1    2    0    0  0.00000000000E+00  0.00000000000E+00  0.49774515828E+03  0.26425275356E+04  0.25952266826E+04 0.  0.
        2    1    3    3  502    0  0.74791406068E+03  0.87613385383E+03 -0.35935403159E+03  0.12066985092E+04  0.25500000920E-02 0. -1.
       -2    1    3    3    0  502 -0.74791406068E+03 -0.87613385383E+03  0.85709918987E+03  0.14358290265E+04  0.25500000920E-02 0.  1.
</event>
<event>
 5   0  0.2333979E-06  0.2604797E+04  0.7818609E-02  0.8366574E-01
       -1   -1    0    0    0  501  0.00000000000E+00  0.00000000000E+00  0.89710259025E+03  0.89710259027E+03  0.50400001928E-02 0.  1.
        1   -1    0    0  501    0  0.00000000000E+00  0.00000000000E+00 -0.18908000953E+04  0.18908000953E+04  0.50400001928E-02 0. -1.
    10030    2    1    2    0    0  0.00000000000E+00  0.00000000000E+00 -0.99369750505E+03  0.27879026856E+04  0.26047968544E+04 0.  0.
        3    1    3    3  502    0 -0.74559550353E+03  0.34336984221E+03  0.58538163887E+03  0.10082098873E+04  0.10100000352E+00 0.  1.
       -3    1    3    3    0  502  0.74559550353E+03 -0.34336984221E+03 -0.15790791439E+04  0.17796927983E+04  0.10100000352E+00 0. -1.
</event>
<event>
 5   0  0.2456600E-06  0.2602169E+04  0.7818609E-02  0.8367465E-01
       -1   -1    0    0    0  501  0.00000000000E+00  0.00000000000E+00  0.68954868826E+03  0.68954868828E+03  0.50400001928E-02 0.  1.
        1   -1    0    0  501    0  0.00000000000E+00  0.00000000000E+00 -0.24549701428E+04  0.24549701428E+04  0.50400001928E-02 0. -1.
    10030    2    1    2    0    0  0.00000000000E+00  0.00000000000E+00 -0.17654214545E+04  0.31445188310E+04  0.26021694347E+04 0.  0.
        5    1    3    3  502    0  0.28808194566E+03  0.82330562431E+02  0.64728222250E+03  0.71327827282E+03  0.46999998093E+01 0.  1.
       -5    1    3    3    0  502 -0.28808194566E+03 -0.82330562431E+02 -0.24127036770E+04  0.24312405582E+04  0.46999998093E+01 0. -1.
</event>
<event>
 5   0  0.5942229E-06  0.2589193E+04  0.7818609E-02  0.8371881E-01
       -2   -1    0    0    0  501  0.00000000000E+00  0.00000000000E+00  0.87824926323E+03  0.87824926323E+03  0.25500000920E-02 0.  1.
        2   -1    0    0  501    0  0.00000000000E+00  0.00000000000E+00 -0.19083195429E+04  0.19083195429E+04  0.25500000920E-02 0. -1.
    10030    2    1    2    0    0  0.00000000000E+00  0.00000000000E+00 -0.10300702797E+04  0.27865688061E+04  0.25891931041E+04 0.  0.
        4    1    3    3  502    0 -0.12867532556E+04 -0.25641803693E+02 -0.36441215436E+03  0.13376057992E+04  0.12699999809E+01 0. -1.
       -4    1    3    3    0  502  0.12867532556E+04  0.25641803693E+02 -0.66565812530E+03  0.14489630070E+04  0.12699999809E+01 0.  1.
</event>
<event>
 5   0  0.6161834E-06  0.2608881E+04  0.7818609E-02  0.8365191E-01
        2   -1    0    0  501    0  0.00000000000E+00  0.00000000000E+00  0.15108018955E+04  0.15108018955E+04  0.25500000920E-02 0.  1.
       -2   -1    0    0    0  501  0.00000000000E+00  0.00000000000E+00 -0.11262663184E+04  0.11262663184E+04  0.25500000920E-02 0. -1.
    10030    2    1    2    0    0  0.00000000000E+00  0.00000000000E+00  0.38453557709E+03  0.26370682138E+04  0.26088812074E+04 0.  0.
        5    1    3    3  502    0 -0.26690280105E+03 -0.83043255631E+03  0.11726373749E+04  0.14614909643E+04  0.46999998093E+01 0.  1.
       -5    1    3    3    0  502  0.26690280105E+03  0.83043255631E+03 -0.78810179783E+03  0.11755772495E+04  0.46999998093E+01 0. -1.
</event>
<event>
 5   0  0.5940748E-06  0.2582202E+04  0.7818609E-02  0.8374272E-01
       -2   -1    0    0    0  501  0.00000000000E+00  0.00000000000E+00  0.11667245050E+04  0.11667245050E+04  0.25500000920E-02 0. -1.
        2   -1    0    0  501    0  0.00000000000E+00  0.00000000000E+00 -0.14287363748E+04  0.14287363748E+04  0.25500000920E-02 0.  1.
    10030    2    1    2    0    0  0.00000000000E+00  0.00000000000E+00 -0.26201186985E+03  0.25954608798E+04  0.25822019593E+04 0.  0.
        1    1    3    3  502    0  0.89482518343E+03  0.72363622937E+02 -0.10636675986E+04  0.13918826686E+04  0.50400001928E-02 0.  1.
       -1    1    3    3    0  502 -0.89482518343E+03 -0.72363622937E+02  0.80165572880E+03  0.12035782112E+04  0.50400001928E-02 0. -1.
</event>
<event>
 5   0  0.5940748E-06  0.2612519E+04  0.7818609E-02  0.8363961E-01
       -2   -1    0    0    0  501  0.00000000000E+00  0.00000000000E+00  0.14454592907E+04  0.14454592907E+04  0.25500000920E-02 0.  1.
        2   -1    0    0  501    0  0.00000000000E+00  0.00000000000E+00 -0.11804644700E+04  0.11804644700E+04  0.25500000920E-02 0. -1.
    10030    2    1    2    0    0  0.00000000000E+00  0.00000000000E+00  0.26499482070E+03  0.26259237606E+04  0.26125185821E+04 0.  0.
        1    1    3    3  502    0 -0.85905134011E+03  0.91693052946E+03 -0.22652233751E+03  0.12767314401E+04  0.50400001928E-02 0. -1.
       -1    1    3    3    0  502  0.85905134011E+03 -0.91693052946E+03  0.49151715820E+03  0.13491923205E+04  0.50400001928E-02 0.  1.
</event>
<event>
 5   0  0.2456600E-06  0.2572845E+04  0.7818609E-02  0.8377484E-01
       -1   -1    0    0    0  501  0.00000000000E+00  0.00000000000E+00  0.82378617070E+03  0.82378617072E+03  0.50400001928E-02 0.  1.
        1   -1    0    0  501    0  0.00000000000E+00  0.00000000000E+00 -0.20088736661E+04  0.20088736661E+04  0.50400001928E-02 0. -1.
    10030    2    1    2    0    0  0.00000000000E+00  0.00000000000E+00 -0.11850874954E+04  0.28326598368E+04  0.25728446085E+04 0.  0.
        5    1    3    3  502    0  0.47864341094E+03  0.21792330445E+02 -0.19069567674E+04  0.19662351394E+04  0.46999998093E+01 0. -1.
       -5    1    3    3    0  502 -0.47864341094E+03 -0.21792330445E+02  0.72186927201E+03  0.86642469746E+03  0.46999998093E+01 0.  1.
</event>
<event>
 5   0  0.2456600E-06  0.2608115E+04  0.7818609E-02  0.8365450E-01
       -1   -1    0    0    0  501  0.00000000000E+00  0.00000000000E+00  0.13963968717E+04  0.13963968717E+04  0.50400001928E-02 0.  1.
        1   -1    0    0  501    0  0.00000000000E+00  0.00000000000E+00 -0.12178244521E+04  0.12178244521E+04  0.50400001928E-02 0. -1.
    10030    2    1    2    0    0  0.00000000000E+00  0.00000000000E+00  0.17857241959E+03  0.26142213238E+04  0.26081152238E+04 0.  0.
        5    1    3    3  502    0 -0.82668368356E+03 -0.46161185807E+03  0.98807541578E+03  0.13685052201E+04  0.46999998093E+01 0.  1.
       -5    1    3    3    0  502  0.82668368356E+03  0.46161185807E+03 -0.80950299619E+03  0.12457161037E+04  0.46999998093E+01 0. -1.
</event>
<event>
 5   0  0.5942229E-06  0.2606537E+04  0.7818609E-02  0.8365984E-01
        2   -1    0    0  501    0  0.00000000000E+00  0.00000000000E+00  0.17012859387E+04  0.17012859387E+04  0.25500000920E-02 0.  1.
       -2   -1    0    0    0  501  0.00000000000E+00  0.00000000000E+00 -0.99836783737E+03  0.99836783737E+03  0.25500000920E-02 0. -1.
    10030    2    1    2    0    0  0.00000000000E+00  0.00000000000E+00  0.70291810136E+03  0.26996537761E+04  0.26065372918E+04 0.  0.
        4    1    3    3  502    0 -0.84783153218E+03 -0.74099598407E+03  0.10311137105E+04  0.15267909000E+04  0.12699999809E+01 0.  1.
       -4    1    3    3    0  502  0.84783153218E+03  0.74099598407E+03 -0.32819560917E+03  0.11728628761E+04  0.12699999809E+01 0. -1.
</event>
<event>
 5   0  0.2471488E-06  0.2610580E+04  0.7818609E-02  0.8364616E-01
        1   -1    0    0  501    0  0.00000000000E+00  0.00000000000E+00  0.14251963804E+04  0.14251963804E+04  0.50400001928E-02 0. -1.
       -1   -1    0    0    0  501  0.00000000000E+00  0.00000000000E+00 -0.11954719583E+04  0.11954719583E+04  0.50400001928E-02 0.  1.
    10030    2    1    2    0    0  0.00000000000E+00  0.00000000000E+00  0.22972442207E+03  0.26206683387E+04  0.26105802480E+04 0.  0.
        4    1    3    3  502    0 -0.64645989686E+02  0.12193674732E+04 -0.34816257748E+03  0.12697460108E+04  0.12699999809E+01 0. -1.
       -4    1    3    3    0  502  0.64645989686E+02 -0.12193674732E+04  0.57788699955E+03  0.13509223279E+04  0.12699999809E+01 0.  1.
</event>
<event>
 5   0  0.5942229E-06  0.2603979E+04  0.7818609E-02  0.8366851E-01
        2   -1    0    0  501    0  0.00000000000E+00  0.00000000000E+00  0.17107840791E+04  0.17107840791E+04  0.25500000920E-02 0. -1.
       -2   -1    0    0    0  501  0.00000000000E+00  0.00000000000E+00 -0.99087722093E+03  0.99087722093E+03  0.25500000920E-02 0.  1.
    10030    2    1    2    0    0  0.00000000000E+00  0.00000000000E+00  0.71990685813E+03  0.27016613000E+04  0.26039792425E+04 0.  0.
        4    1    3    3  502    0  0.73363622075E+02  0.12611965646E+04  0.33217060412E+02  0.12637657938E+04  0.12699999809E+01 0.  1.
       -4    1    3    3    0  502 -0.73363622075E+02 -0.12611965646E+04  0.68668979772E+03  0.14378955062E+04  0.12699999809E+01 0. -1.
</event>
<event>
 5   0  0.2333979E-06  0.2598948E+04  0.7818609E-02  0.8368559E-01
        1   -1    0    0  501    0  0.00000000000E+00  0.00000000000E+00  0.19429716429E+04  0.19429716429E+04  0.50400001928E-02 0. -1.
       -1   -1    0    0    0  501  0.00000000000E+00  0.00000000000E+00 -0.86909785161E+03  0.86909785162E+03  0.50400001928E-02 0.  1.
    10030    2    1    2    0    0  0.00000000000E+00  0.00000000000E+00  0.10738737913E+04  0.28120694945E+04  0.25989478491E+04 0.  0.
        3    1    3    3  502    0  0.42388362838E+03 -0.49260565788E+03  0.17545123852E+04  0.18710027752E+04  0.10100000352E+00 0. -1.
       -3    1    3    3    0  502 -0.42388362838E+03  0.49260565788E+03 -0.68063859392E+03  0.94106671938E+03  0.10100000352E+00 0.  1.
</event>
<event>
 5   0  0.2471488E-06  0.2578847E+04  0.7818609E-02  0.8375422E-01
        1   -1    0    0  501    0  0.00000000000E+00  0.00000000000E+00  0.87233549323E+03  0.87233549324E+03  0.50400001928E-02 0.  1.
       -1   -1    0    0    0  501  0.00000000000E+00  0.00000000000E+00 -0.19059332656E+04  0.19059332656E+04  0.50400001928E-02 0. -1.
    10030    2    1    2    0    0  0.00000000000E+00  0.00000000000E+00 -0.10335977724E+04  0.27782687589E+04  0.25788472117E+04 0.  0.
        4    1    3    3  502    0 -0.76648492936E+02 -0.97989891820E+03 -0.14159238055E+04  0.17236353203E+04  0.12699999809E+01 0. -1.
       -4    1    3    3    0  502  0.76648492936E+02  0.97989891820E+03  0.38232603310E+03  0.10546334386E+04  0.12699999809E+01 0.  1.
</event>
<event>
 5   0  0.2503292E-06  0.2602289E+04  0.7818609E-02  0.8367424E-01
        1   -1    0    0  501    0  0.00000000000E+00  0.00000000000E+00  0.23540192683E+04  0.23540192683E+04  0.50400001928E-02 0. -1.
       -1   -1    0    0    0  501  0.00000000000E+00  0.00000000000E+00 -0.71918594919E+03  0.71918594921E+03  0.50400001928E-02 0.  1.
    10030    2    1    2    0    0  0.00000000000E+00  0.00000000000E+00  0.16348333191E+04  0.30732052175E+04  0.26022894396E+04 0.  0.
        2    1    3    3  502    0 -0.47678396673E+03  0.63399984620E+03  0.20354110902E+04  0.21845313141E+04  0.25500000920E-02 0. -1.
       -2    1    3    3    0  502  0.47678396673E+03 -0.63399984620E+03 -0.40057777114E+03  0.88867390344E+03  0.25500000920E-02 0.  1.
</event>
<event>
 5   0  0.5940748E-06  0.2599373E+04  0.7818609E-02  0.8368414E-01
        2   -1    0    0  501    0  0.00000000000E+00  0.00000000000E+00  0.10343084270E+04  0.10343084270E+04  0.25500000920E-02 0. -1.
       -2   -1    0    0    0  501  0.00000000000E+00  0.00000000000E+00 -0.16331539434E+04  0.16331539434E+04  0.25500000920E-02 0.  1.
    10030    2    1    2    0    0  0.00000000000E+00  0.00000000000E+00 -0.59884551644E+03  0.26674623705E+04  0.25993729138E+04 0.  0.
        1    1    3    3  502    0 -0.19706660867E+03  0.86839785083E+03  0.67207234662E+03  0.11156304561E+04  0.50400001928E-02 0. -1.
       -1    1    3    3    0  502  0.19706660867E+03 -0.86839785083E+03 -0.12709178631E+04  0.15518319143E+04  0.50400001928E-02 0.  1.
</event>
<event>
 5   0  0.2440590E-06  0.2597914E+04  0.7818609E-02  0.8368910E-01
       -1   -1    0    0    0  501  0.00000000000E+00  0.00000000000E+00  0.11766777849E+04  0.11766777849E+04  0.50400001928E-02 0.  1.
        1   -1    0    0  501    0  0.00000000000E+00  0.00000000000E+00 -0.14339430330E+04  0.14339430330E+04  0.50400001928E-02 0. -1.
    10030    2    1    2    0    0  0.00000000000E+00  0.00000000000E+00 -0.25726524811E+03  0.26106208179E+04  0.25979137104E+04 0.  0.
        1    1    3    3  502    0 -0.21840048433E+02 -0.27843551284E+03  0.11461485351E+04  0.11796863087E+04  0.50400001928E-02 0.  1.
       -1    1    3    3    0  502  0.21840048433E+02  0.27843551284E+03 -0.14034137832E+04  0.14309345091E+04  0.50400001928E-02 0. -1.
</event>
<event>
 5   0  0.5940748E-06  0.2573003E+04  0.7818609E-02  0.8377430E-01
       -2   -1    0    0    0  501  0.00000000000E+00  0.00000000000E+00  0.11603070301E+04  0.11603070301E+04  0.25500000920E-02 0.  1.
        2   -1    0    0  501    0  0.00000000000E+00  0.00000000000E+00 -0.14264206611E+04  0.14264206611E+04  0.25500000920E-02 0. -1.
    10030    2    1    2    0    0  0.00000000000E+00  0.00000000000E+00 -0.26611363107E+03  0.25867276912E+04  0.25730028534E+04 0.  0.
        1    1    3    3  502    0  0.17786338329E+03  0.37564936654E+03 -0.13570643151E+04  0.14192855193E+04  0.50400001928E-02 0. -1.
       -1    1    3    3    0  502 -0.17786338329E+03 -0.37564936654E+03  0.10909506841E+04  0.11674421719E+04  0.50400001928E-02 0.  1.
</event>
<event>
 5   0  0.6158063E-06  0.2560852E+04  0.7818609E-02  0.8381622E-01
       -2   -1    0    0    0  501  0.00000000000E+00  0.00000000000E+00  0.72817605138E+03  0.72817605138E+03  0.25500000920E-02 0.  1.
        2   -1    0    0  501    0  0.00000000000E+00  0.00000000000E+00 -0.22515032988E+04  0.22515032988E+04  0.25500000920E-02 0. -1.
    10030    2    1    2    0    0  0.00000000000E+00  0.00000000000E+00 -0.15233272474E+04  0.29796793501E+04  0.25608520315E+04 0.  0.
        2    1    3    3  502    0 -0.53550076013E+03  0.75792997836E+03  0.26481689516E+03  0.96506316071E+03  0.25500000920E-02 0.  1.
       -2    1    3    3    0  502  0.53550076013E+03 -0.75792997836E+03 -0.17881441425E+04  0.20146161894E+04  0.25500000920E-02 0. -1.
</event>
<event>
 5   0  0.5942229E-06  0.2554832E+04  0.7818609E-02  0.8383708E-01
       -2   -1    0    0    0  501  0.00000000000E+00  0.00000000000E+00  0.91110160434E+03  0.91110160435E+03  0.25500000920E-02 0.  1.
        2   -1    0    0  501    0  0.00000000000E+00  0.00000000000E+00 -0.17910088848E+04  0.17910088848E+04  0.25500000920E-02 0. -1.
    10030    2    1    2    0    0  0.00000000000E+00  0.00000000000E+00 -0.87990728041E+03  0.27021104891E+04  0.25548315548E+04 0.  0.
        4    1    3    3  502    0 -0.86796273652E+03  0.16049110149E+03  0.53668077401E+03  0.10330268979E+04  0.12699999809E+01 0.  1.
       -4    1    3    3    0  502  0.86796273652E+03 -0.16049110149E+03 -0.14165880544E+04  0.16690835912E+04  0.12699999809E+01 0. -1.
</event>
<event>
 5   0  0.2471488E-06  0.2641645E+04  0.7818609E-02  0.8354191E-01
        1   -1    0    0  501    0  0.00000000000E+00  0.00000000000E+00  0.88674573128E+03  0.88674573129E+03  0.50400001928E-02 0. -1.
       -1   -1    0    0    0  501  0.00000000000E+00  0.00000000000E+00 -0.19673875356E+04  0.19673875356E+04  0.50400001928E-02 0.  1.
    10030    2    1    2    0    0  0.00000000000E+00  0.00000000000E+00 -0.10806418043E+04  0.28541332669E+04  0.26416453199E+04 0.  0.
        4    1    3    3  502    0  0.47805447320E+02  0.78095067225E+03  0.60941997649E+03  0.99174776729E+03  0.12699999809E+01 0. -1.
       -4    1    3    3    0  502 -0.47805447320E+02 -0.78095067225E+03 -0.16900617808E+04  0.18623854996E+04  0.12699999809E+01 0.  1.
</event>
<event>
 5   0  0.2440590E-06  0.2568370E+04  0.7818609E-02  0.8379025E-01
       -1   -1    0    0    0  501  0.00000000000E+00  0.00000000000E+00  0.17300810068E+04  0.17300810068E+04  0.50400001928E-02 0. -1.
        1   -1    0    0  501    0  0.00000000000E+00  0.00000000000E+00 -0.95321012868E+03  0.95321012869E+03  0.50400001928E-02 0.  1.
    10030    2    1    2    0    0  0.00000000000E+00  0.00000000000E+00  0.77687087807E+03  0.26832911355E+04  0.25683697079E+04 0.  0.
        1    1    3    3  502    0  0.72826825610E+03  0.99756481207E+03  0.21106147763E+02  0.12352957851E+04  0.50400001928E-02 0.  1.
       -1    1    3    3    0  502 -0.72826825610E+03 -0.99756481207E+03  0.75576473031E+03  0.14479953504E+04  0.50400001928E-02 0. -1.
</event>
<event>
 5   0  0.5942229E-06  0.2609495E+04  0.7818609E-02  0.8364983E-01
       -2   -1    0    0    0  501  0.00000000000E+00  0.00000000000E+00  0.10426775059E+04  0.10426775060E+04  0.25500000920E-02 0. -1.
        2   -1    0    0  501    0  0.00000000000E+00  0.00000000000E+00 -0.16326866062E+04  0.16326866062E+04  0.25500000920E-02 0.  1.
    10030    2    1    2    0    0  0.00000000000E+00  0.00000000000E+00 -0.59000910029E+03  0.26753641122E+04  0.26094946627E+04 0.  0.
        4    1    3    3  502    0 -0.39674718184E+03 -0.62902631666E+03 -0.13941108623E+04  0.15800725118E+04  0.12699999809E+01 0.  1.
       -4    1    3    3    0  502  0.39674718184E+03  0.62902631666E+03  0.80410176199E+03  0.10952916004E+04  0.12699999809E+01 0. -1.
</event>
<event>
 5   0  0.6173140E-06  0.2596731E+04  0.7818609E-02  0.8369312E-01
       -2   -1    0    0    0  501  0.00000000000E+00  0.00000000000E+00  0.87760801986E+03  0.87760801986E+03  0.25500000920E-02 0. -1.
        2   -1    0    0  501    0  0.00000000000E+00  0.00000000000E+00 -0.19208493607E+04  0.19208493607E+04  0.25500000920E-02 0.  1.
    10030    2    1    2    0    0  0.00000000000E+00  0.00000000000E+00 -0.10432413409E+04  0.27984573806E+04  0.25967308708E+04 0.  0.
        3    1    3    3  502    0 -0.14171214426E+03 -0.66496292210E+03  0.67042478259E+03  0.95484418567E+03  0.10100000352E+00 0. -1.
       -3    1    3    3    0  502  0.14171214426E+03  0.66496292210E+03 -0.17136661234E+04  0.18436131949E+04  0.10100000352E+00 0.  1.
</event>
<event>
 5   0  0.2503292E-06  0.2579456E+04  0.7818609E-02  0.8375213E-01
        1   -1    0    0  501    0  0.00000000000E+00  0.00000000000E+00  0.13044580199E+04  0.13044580199E+04  0.50400001928E-02 0.  1.
       -1   -1    0    0    0  501  0.00000000000E+00  0.00000000000E+00 -0.12751645725E+04  0.12751645725E+04  0.50400001928E-02 0. -1.
    10030    2    1    2    0    0  0.00000000000E+00  0.00000000000E+00  0.29293447390E+02  0.25796225923E+04  0.25794562630E+04 0.  0.
        2    1    3    3  502    0 -0.34538003726E+03 -0.12386004864E+04 -0.85260259641E+02  0.12886767814E+04  0.25500000920E-02 0.  1.
       -2    1    3    3    0  502  0.34538003726E+03  0.12386004864E+04  0.11455370703E+03  0.12909458109E+04  0.25500000920E-02 0. -1.
</event>
<event>
 5   0  0.2333979E-06  0.2462950E+04  0.7818609E-02  0.8416305E-01
       -1   -1    0    0    0  501  0.00000000000E+00  0.00000000000E+00  0.10383260424E+04  0.10383260424E+04  0.50400001928E-02 0. -1.
        1   -1    0    0  501    0  0.00000000000E+00  0.00000000000E+00 -0.14605537928E+04  0.14605537928E+04  0.50400001928E-02 0.  1.
    10030    2    1    2    0    0  0.00000000000E+00  0.00000000000E+00 -0.42222775039E+03  0.24988798352E+04  0.24629502954E+04 0.  0.
        3    1    3    3  502    0  0.52336763100E+03 -0.83057016477E+03  0.54321750527E+03  0.11219829517E+04  0.10100000352E+00 0. -1.
       -3    1    3    3    0  502 -0.52336763100E+03  0.83057016477E+03 -0.96544525565E+03  0.13768968834E+04  0.10100000352E+00 0.  1.
</event>
<event>
 5   0  0.6158063E-06  0.2538085E+04  0.7818609E-02  0.8389542E-01
        2   -1    0    0  501    0  0.00000000000E+00  0.00000000000E+00  0.12086840670E+04  0.12086840670E+04  0.25500000920E-02 0.  1.
       -2   -1    0    0    0  501  0.00000000000E+00  0.00000000000E+00 -0.13324153381E+04  0.13324153381E+04  0.25500000920E-02 0. -1.
    10030    2    1    2    0    0  0.00000000000E+00  0.00000000000E+00 -0.12373127109E+03  0.25410994052E+04  0.25380852546E+04 0.  0.
        2    1    3    3  502    0  0.15145380504E+03 -0.12187175871E+04  0.25829276205E+03  0.12549605425E+04  0.25500000920E-02 0. -1.
       -2    1    3    3    0  502 -0.15145380504E+03  0.12187175871E+04 -0.38202403313E+03  0.12861388627E+04  0.25500000920E-02 0.  1.
</event>
<event>
 5   0  0.5942229E-06  0.2594692E+04  0.7818609E-02  0.8370006E-01
       -2   -1    0    0    0  501  0.00000000000E+00  0.00000000000E+00  0.10685521031E+04  0.10685521031E+04  0.25500000920E-02 0.  1.
        2   -1    0    0  501    0  0.00000000000E+00  0.00000000000E+00 -0.15751283064E+04  0.15751283064E+04  0.25500000920E-02 0. -1.
    10030    2    1    2    0    0  0.00000000000E+00  0.00000000000E+00 -0.50657620329E+03  0.26436804096E+04  0.25946920161E+04 0.  0.
        4    1    3    3  502    0 -0.93628974152E+03  0.86806983717E+03 -0.18898408894E+02  0.12769269693E+04  0.12699999809E+01 0.  1.
       -4    1    3    3    0  502  0.93628974152E+03 -0.86806983717E+03 -0.48767779439E+03  0.13667534402E+04  0.12699999809E+01 0. -1.
</event>
<event>
 5   0  0.2440590E-06  0.2594493E+04  0.7818609E-02  0.8370074E-01
        1   -1    0    0  501    0  0.00000000000E+00  0.00000000000E+00  0.22375131277E+04  0.22375131277E+04  0.50400001928E-02 0.  1.
       -1   -1    0    0    0  501  0.00000000000E+00  0.00000000000E+00 -0.75210678408E+03  0.75210678410E+03  0.50400001928E-02 0. -1.
    10030    2    1    2    0    0  0.00000000000E+00  0.00000000000E+00  0.14854063437E+04  0.29896199118E+04  0.25944932475E+04 0.  0.
        1    1    3    3  502    0 -0.23671353412E+03  0.11210851572E+04  0.14436009050E+04  0.18430542043E+04  0.50400001928E-02 0.  1.
       -1    1    3    3    0  502  0.23671353412E+03 -0.11210851572E+04  0.41805438666E+02  0.11465657076E+04  0.50400001928E-02 0. -1.
</event>
<event>
 5   0  0.2440590E-06  0.2576348E+04  0.7818609E-02  0.8376280E-01
        1   -1    0    0  501    0  0.00000000000E+00  0.00000000000E+00  0.32781261063E+04  0.32781261063E+04  0.50400001928E-02 0. -1.
       -1   -1    0    0    0  501  0.00000000000E+00  0.00000000000E+00 -0.50620146298E+03  0.50620146301E+03  0.50400001928E-02 0.  1.
    10030    2    1    2    0    0  0.00000000000E+00  0.00000000000E+00  0.27719246433E+04  0.37843275693E+04  0.25763479819E+04 0.  0.
        1    1    3    3  502    0 -0.10118471117E+04  0.35034523428E+03  0.33408539641E+03  0.11216904265E+04  0.50400001928E-02 0.  1.
       -1    1    3    3    0  502  0.10118471117E+04 -0.35034523428E+03  0.24378392469E+04  0.26626371428E+04  0.50400001928E-02 0. -1.
</event>
<event>
 5   0  0.6173140E-06  0.2602655E+04  0.7818609E-02  0.8367300E-01
       -2   -1    0    0    0  501  0.00000000000E+00  0.00000000000E+00  0.61429257551E+03  0.61429257552E+03  0.25500000920E-02 0.  1.
        2   -1    0    0  501    0  0.00000000000E+00  0.00000000000E+00 -0.27567530681E+04  0.27567530681E+04  0.25500000920E-02 0. -1.
    10030    2    1    2    0    0  0.00000000000E+00  0.00000000000E+00 -0.21424604926E+04  0.33710456436E+04  0.26026547541E+04 0.  0.
        3    1    3    3  502    0 -0.95546524464E+02  0.77443769765E+03  0.27766080542E+03  0.82823814144E+03  0.10100000352E+00 0.  1.
       -3    1    3    3    0  502  0.95546524464E+02 -0.77443769765E+03 -0.24201212980E+04  0.25428075022E+04  0.10100000352E+00 0. -1.
</event>
<event>
 5   0  0.2471488E-06  0.2605739E+04  0.7818609E-02  0.8366254E-01
        1   -1    0    0  501    0  0.00000000000E+00  0.00000000000E+00  0.13829492608E+04  0.13829492608E+04  0.50400001928E-02 0. -1.
       -1   -1    0    0    0  501  0.00000000000E+00  0.00000000000E+00 -0.12274269214E+04  0.12274269215E+04  0.50400001928E-02 0.  1.
    10030    2    1    2    0    0  0.00000000000E+00  0.00000000000E+00  0.15552233931E+03  0.26103761822E+04  0.26057391686E+04 0.  0.
        4    1    3    3  502    0 -0.12438661188E+04 -0.38642235282E+03  0.10851408096E+03  0.13070203039E+04  0.12699999809E+01 0.  1.
       -4    1    3    3    0  502  0.12438661188E+04  0.38642235282E+03  0.47008258350E+02  0.13033558783E+04  0.12699999809E+01 0. -1.
</event>
<event>
 5   0  0.2440590E-06  0.2608407E+04  0.7818609E-02  0.8365351E-01
       -1   -1    0    0    0  501  0.00000000000E+00  0.00000000000E+00  0.12011457053E+04  0.12011457053E+04  0.50400001928E-02 0. -1.
        1   -1    0    0  501    0  0.00000000000E+00  0.00000000000E+00 -0.14161033303E+04  0.14161033303E+04  0.50400001928E-02 0.  1.
    10030    2    1    2    0    0  0.00000000000E+00  0.00000000000E+00 -0.21495762496E+03  0.26172490357E+04  0.26084067425E+04 0.  0.
        1    1    3    3  502    0 -0.10816669637E+04 -0.31055766750E+03 -0.76887715088E+03  0.13629459118E+04  0.50400001928E-02 0.  1.
       -1    1    3    3    0  502  0.10816669637E+04  0.31055766750E+03  0.55391952592E+03  0.12543031239E+04  0.50400001928E-02 0. -1.
</event>
<event>
 5   0  0.2440590E-06  0.2609408E+04  0.7818609E-02  0.8365012E-01
       -1   -1    0    0    0  501  0.00000000000E+00  0.00000000000E+00  0.80499670340E+03  0.80499670341E+03  0.50400001928E-02 0.  1.
        1   -1    0    0  501    0  0.00000000000E+00  0.00000000000E+00 -0.21146088305E+04  0.21146088305E+04  0.50400001928E-02 0. -1.
    10030    2    1    2    0    0  0.00000000000E+00  0.00000000000E+00 -0.13096121271E+04  0.29196055339E+04  0.26094084675E+04 0.  0.
        1    1    3    3  502    0  0.49082199637E+03  0.14792051316E+03 -0.19972089613E+04  0.20619481917E+04  0.50400001928E-02 0. -1.
       -1    1    3    3    0  502 -0.49082199637E+03 -0.14792051316E+03  0.68759683413E+03  0.85765734223E+03  0.50400001928E-02 0.  1.
</event>
<event>
 5   0  0.2333979E-06  0.2515140E+04  0.7818609E-02  0.8397612E-01
       -1   -1    0    0    0  501  0.00000000000E+00  0.00000000000E+00  0.79925552745E+03  0.79925552746E+03  0.50400001928E-02 0.  1.
        1   -1    0    0  501    0  0.00000000000E+00  0.00000000000E+00 -0.19786947534E+04  0.19786947534E+04  0.50400001928E-02 0. -1.
    10030    2    1    2    0    0  0.00000000000E+00  0.00000000000E+00 -0.11794392259E+04  0.27779502808E+04  0.25151403291E+04 0.  0.
        3    1    3    3  502    0  0.65280970810E+03 -0.43944990184E+03 -0.16731381770E+04  0.18489640615E+04  0.10100000352E+00 0. -1.
       -3    1    3    3    0  502 -0.65280970810E+03  0.43944990184E+03  0.49369895107E+03  0.92898621933E+03  0.10100000352E+00 0.  1.
</event>
<event>
 5   0  0.6161834E-06  0.2608408E+04  0.7818609E-02  0.8365351E-01
       -2   -1    0    0    0  501  0.00000000000E+00  0.00000000000E+00  0.14683189840E+04  0.14683189840E+04  0.25500000920E-02 0. -1.
        2   -1    0    0  501    0  0.00000000000E+00  0.00000000000E+00 -0.11584324237E+04  0.11584324237E+04  0.25500000920E-02 0.  1.
    10030    2    1    2    0    0  0.00000000000E+00  0.00000000000E+00  0.30988656027E+03  0.26267514077E+04  0.26084081884E+04 0.  0.
        5    1    3    3  502    0 -0.78543298196E+03  0.88142494992E+03  0.71301668885E+03  0.13792134715E+04  0.46999998093E+01 0. -1.
       -5    1    3    3    0  502  0.78543298196E+03 -0.88142494992E+03 -0.40313012858E+03  0.12475379361E+04  0.46999998093E+01 0.  1.
</event>
<event>
 5   0  0.2471488E-06  0.2606509E+04  0.7818609E-02  0.8365994E-01
       -1   -1    0    0    0  501  0.00000000000E+00  0.00000000000E+00  0.14592597571E+04  0.14592597571E+04  0.50400001928E-02 0. -1.
        1   -1    0    0  501    0  0.00000000000E+00  0.00000000000E+00 -0.11639270100E+04  0.11639270100E+04  0.50400001928E-02 0.  1.
    10030    2    1    2    0    0  0.00000000000E+00  0.00000000000E+00  0.29533274709E+03  0.26231867671E+04  0.26065086579E+04 0.  0.
        4    1    3    3  502    0  0.80449494184E+02  0.11127867405E+04 -0.53021896459E+03  0.12352733359E+04  0.12699999809E+01 0.  1.
       -4    1    3    3    0  502 -0.80449494184E+02 -0.11127867405E+04  0.82555171167E+03  0.13879134312E+04  0.12699999809E+01 0. -1.
</event>
<event>
 5   0  0.2440590E-06  0.2594419E+04  0.7818609E-02  0.8370099E-01
        1   -1    0    0  501    0  0.00000000000E+00  0.00000000000E+00  0.17361614156E+04  0.17361614156E+04  0.50400001928E-02 0.  1.
       -1   -1    0    0    0  501  0.00000000000E+00  0.00000000000E+00 -0.96923743157E+03  0.96923743159E+03  0.50400001928E-02 0. -1.
    10030    2    1    2    0    0  0.00000000000E+00  0.00000000000E+00  0.76692398400E+03  0.27053988472E+04  0.25944191113E+04 0.  0.
        1    1    3    3  502    0 -0.15693226154E+03 -0.64324083104E+02  0.17245499171E+04  0.17328697987E+04  0.50400001928E-02 0.  1.
       -1    1    3    3    0  502  0.15693226154E+03  0.64324083104E+02 -0.95762593313E+03  0.97252904852E+03  0.50400001928E-02 0. -1.
</event>
<event>
 5   0  0.2440590E-06  0.2604989E+04  0.7818609E-02  0.8366508E-01
       -1   -1    0    0    0  501  0.00000000000E+00  0.00000000000E+00  0.81279212627E+03  0.81279212628E+03  0.50400001928E-02 0. -1.
        1   -1    0    0  501    0  0.00000000000E+00  0.00000000000E+00 -0.20872400321E+04  0.20872400321E+04  0.50400001928E-02 0.  1.
    10030    2    1    2    0    0  0.00000000000E+00  0.00000000000E+00 -0.12744479058E+04  0.29000321583E+04  0.26049892619E+04 0.  0.
        1    1    3    3  502    0  0.86453621825E+03  0.91086358383E+03 -0.25254941291E+03  0.12809670359E+04  0.50400001928E-02 0.  1.
       -1    1    3    3    0  502 -0.86453621825E+03 -0.91086358383E+03 -0.10218984929E+04  0.16190651225E+04  0.50400001928E-02 0. -1.
</event>
<event>
 5   0  0.6161834E-06  0.2598682E+04  0.7818609E-02  0.8368649E-01
        2   -1    0    0  501    0  0.00000000000E+00  0.00000000000E+00  0.12701577785E+04  0.12701577785E+04  0.25500000920E-02 0.  1.
       -2   -1    0    0    0  501  0.00000000000E+00  0.00000000000E+00 -0.13291946974E+04  0.13291946974E+04  0.25500000920E-02 0. -1.
    10030    2    1    2    0    0  0.00000000000E+00  0.00000000000E+00 -0.59036918864E+02  0.25993524759E+04  0.25986819613E+04 0.  0.
        5    1    3    3  502    0 -0.83820005012E+02  0.34821093666E+03  0.12197987012E+04  0.12713015421E+04  0.46999998093E+01 0.  1.
       -5    1    3    3    0  502  0.83820005012E+02 -0.34821093666E+03 -0.12788356200E+04  0.13280509338E+04  0.46999998093E+01 0. -1.
</event>
<event>
 5   0  0.5942229E-06  0.2614445E+04  0.7818609E-02  0.8363311E-01
       -2   -1    0    0    0  501  0.00000000000E+00  0.00000000000E+00  0.12141496300E+04  0.12141496300E+04  0.25500000920E-02 0.  1.
        2   -1    0    0  501    0  0.00000000000E+00  0.00000000000E+00 -0.14074304452E+04  0.14074304452E+04  0.25500000920E-02 0. -1.
    10030    2    1    2    0    0  0.00000000000E+00  0.00000000000E+00 -0.19328081527E+03  0.26215800752E+04  0.26144453747E+04 0.  0.
        4    1    3    3  502    0  0.67208796282E+03  0.83849487295E+03  0.64973869138E+03  0.12557618650E+04  0.12699999809E+01 0.  1.
       -4    1    3    3    0  502 -0.67208796282E+03 -0.83849487295E+03 -0.84301950664E+03  0.13658182102E+04  0.12699999809E+01 0. -1.
</event>
<event>
 5   0  0.2456600E-06  0.2602559E+04  0.7818609E-02  0.8367333E-01
        1   -1    0    0  501    0  0.00000000000E+00  0.00000000000E+00  0.16039120691E+04  0.16039120691E+04  0.50400001928E-02 0.  1.
       -1   -1    0    0    0  501  0.00000000000E+00  0.00000000000E+00 -0.10557485706E+04  0.10557485706E+04  0.50400001928E-02 0. -1.
    10030    2    1    2    0    0  0.00000000000E+00  0.00000000000E+00  0.54816349853E+03  0.26596606397E+04  0.26025586444E+04 0.  0.
        5    1    3    3  502    0  0.19854570910E+03  0.56393973193E+03 -0.90707013289E+03  0.10863916126E+04  0.46999998093E+01 0. -1.
       -5    1    3    3    0  502 -0.19854570910E+03 -0.56393973193E+03  0.14552336314E+04  0.15732690272E+04  0.46999998093E+01 0.  1.
</event>
<event>
 5   0  0.5942229E-06  0.2608262E+04  0.7818609E-02  0.8365400E-01
        2   -1    0    0  501    0  0.00000000000E+00  0.00000000000E+00  0.13917036395E+04  0.13917036395E+04  0.25500000920E-02 0. -1.
       -2   -1    0    0    0  501  0.00000000000E+00  0.00000000000E+00 -0.12220692875E+04  0.12220692875E+04  0.25500000920E-02 0.  1.
    10030    2    1    2    0    0  0.00000000000E+00  0.00000000000E+00  0.16963435199E+03  0.26137729269E+04  0.26082624676E+04 0.  0.
        4    1    3    3  502    0  0.95858290596E+02  0.10928800086E+04  0.79141758570E+03  0.13527449623E+04  0.12699999809E+01 0. -1.
       -4    1    3    3    0  502 -0.95858290596E+02 -0.10928800086E+04 -0.62178323371E+03  0.12610279647E+04  0.12699999809E+01 0.  1.
</event>
<event>
 5   0  0.2333979E-06  0.2597733E+04  0.7818609E-02  0.8368972E-01
       -1   -1    0    0    0  501  0.00000000000E+00  0.00000000000E+00  0.17923873558E+04  0.17923873558E+04  0.50400001928E-02 0.  1.
        1   -1    0    0  501    0  0.00000000000E+00  0.00000000000E+00 -0.94123326912E+03  0.94123326913E+03  0.50400001928E-02 0. -1.
    10030    2    1    2    0    0  0.00000000000E+00  0.00000000000E+00  0.85115408663E+03  0.27336206249E+04  0.25977333277E+04 0.  0.
        3    1    3    3  502    0 -0.41846717447E+03  0.10500918997E+04 -0.24761091108E+03  0.11572030710E+04  0.10100000352E+00 0. -1.
       -3    1    3    3    0  502  0.41846717447E+03 -0.10500918997E+04  0.10987649977E+04  0.15764175539E+04  0.10100000352E+00 0.  1.
</event>
<event>
 5   0  0.6158063E-06  0.2597598E+04  0.7818609E-02  0.8369018E-01
        2   -1    0    0  501    0  0.00000000000E+00  0.00000000000E+00  0.19064730180E+04  0.19064730180E+04  0.25500000920E-02 0. -1.
       -2   -1    0    0    0  501  0.00000000000E+00  0.00000000000E+00 -0.88481652700E+03  0.88481652700E+03  0.25500000920E-02 0.  1.
    10030    2    1    2    0    0  0.00000000000E+00  0.00000000000E+00  0.10216564910E+04  0.27912895450E+04  0.25975979940E+04 0.  0.
        2    1    3    3  502    0  0.11873807947E+04  0.32094285671E+03  0.95906687043E+03  0.15597072581E+04  0.25500000920E-02 0. -1.
       -2    1    3    3    0  502 -0.11873807947E+04 -0.32094285671E+03  0.62589620615E+02  0.12315822870E+04  0.25500000920E-02 0.  1.
</event>
<event>
 5   0  0.5940748E-06  0.2431947E+04  0.7818609E-02  0.8427639E-01
       -2   -1    0    0    0  501  0.00000000000E+00  0.00000000000E+00  0.10608346228E+04  0.10608346228E+04  0.25500000920E-02 0. -1.
        2   -1    0    0  501    0  0.00000000000E+00  0.00000000000E+00 -0.13937999876E+04  0.13937999876E+04  0.25500000920E-02 0.  1.
    10030    2    1    2    0    0  0.00000000000E+00  0.00000000000E+00 -0.33296536478E+03  0.24546346105E+04  0.24319467792E+04 0.  0.
        1    1    3    3  502    0  0.94422331885E+03  0.19901407081E+03 -0.91326821687E+03  0.13286169923E+04  0.50400001928E-02 0.  1.
       -1    1    3    3    0  502 -0.94422331885E+03 -0.19901407081E+03  0.58030285209E+03  0.11260176182E+04  0.50400001928E-02 0. -1.
</event>
<event>
 5   0  0.2471488E-06  0.2597308E+04  0.7818609E-02  0.8369116E-01
        1   -1    0    0  501    0  0.00000000000E+00  0.00000000000E+00  0.92003906606E+03  0.92003906607E+03  0.50400001928E-02 0.  1.
       -1   -1    0    0    0  501  0.00000000000E+00  0.00000000000E+00 -0.18330771513E+04  0.18330771513E+04  0.50400001928E-02 0. -1.
    10030    2    1    2    0    0  0.00000000000E+00  0.00000000000E+00 -0.91303808525E+03  0.27531162174E+04  0.25973082915E+04 0.  0.
        4    1    3    3  502    0 -0.49688235760E+03 -0.17747564154E+02  0.81515494780E+03  0.95482263020E+03  0.12699999809E+01 0.  1.
       -4    1    3    3    0  502  0.49688235760E+03  0.17747564154E+02 -0.17281930331E+04  0.17982935872E+04  0.12699999809E+01 0. -1.
</event>
<event>
 5   0  0.5940748E-06  0.2589714E+04  0.7818609E-02  0.8371704E-01
        2   -1    0    0  501    0  0.00000000000E+00  0.00000000000E+00  0.10529149169E+04  0.10529149169E+04  0.25500000920E-02 0.  1.
       -2   -1    0    0    0  501  0.00000000000E+00  0.00000000000E+00 -0.15923931790E+04  0.15923931790E+04  0.25500000920E-02 0. -1.
    10030    2    1    2    0    0  0.00000000000E+00  0.00000000000E+00 -0.53947826212E+03  0.26453080959E+04  0.25897139083E+04 0.  0.
        1    1    3    3  502    0 -0.84661384176E+02 -0.32712606765E+02  0.10496617135E+04  0.10535783680E+04  0.50400001928E-02 0.  1.
       -1    1    3    3    0  502  0.84661384176E+02  0.32712606765E+02 -0.15891399756E+04  0.15917297279E+04  0.50400001928E-02 0. -1.
</event>
<event>
 5   0  0.2503292E-06  0.2598139E+04  0.7818609E-02  0.8368834E-01
       -1   -1    0    0    0  501  0.00000000000E+00  0.00000000000E+00  0.12643309073E+04  0.12643309073E+04  0.50400001928E-02 0. -1.
        1   -1    0    0  501    0  0.00000000000E+00  0.00000000000E+00 -0.13347625747E+04  0.13347625747E+04  0.50400001928E-02 0.  1.
    10030    2    1    2    0    0  0.00000000000E+00  0.00000000000E+00 -0.70431667355E+02  0.25990934820E+04  0.25981390087E+04 0.  0.
        2    1    3    3  502    0  0.83124958133E+03 -0.14721886858E+03  0.95253350953E+03  0.12727801650E+04  0.25500000920E-02 0. -1.
       -2    1    3    3    0  502 -0.83124958133E+03  0.14721886858E+03 -0.10229651769E+04  0.13263133170E+04  0.25500000920E-02 0.  1.
</event>
<event>
 5   0  0.5942229E-06  0.2611680E+04  0.7818609E-02  0.8364245E-01
        2   -1    0    0  501    0  0.00000000000E+00  0.00000000000E+00  0.11986248274E+04  0.11986248274E+04  0.25500000920E-02 0. -1.
       -2   -1    0    0    0  501  0.00000000000E+00  0.00000000000E+00 -0.14226451311E+04  0.14226451311E+04  0.25500000920E-02 0.  1.
    10030    2    1    2    0    0  0.00000000000E+00  0.00000000000E+00 -0.22402030375E+03  0.26212699586E+04  0.26116797467E+04 0.  0.
        4    1    3    3  502    0 -0.10833123498E+04 -0.22086949008E+03  0.58542795741E+03  0.12510301696E+04  0.12699999809E+01 0. -1.
       -4    1    3    3    0  502  0.10833123498E+04  0.22086949008E+03 -0.80944826115E+03  0.13702397890E+04  0.12699999809E+01 0.  1.
</event>
<event>
 5   0  0.6173140E-06  0.2588652E+04  0.7818609E-02  0.8372066E-01
       -2   -1    0    0    0  501  0.00000000000E+00  0.00000000000E+00  0.92571156574E+03  0.92571156575E+03  0.25500000920E-02 0.  1.
        2   -1    0    0  501    0  0.00000000000E+00  0.00000000000E+00 -0.18097214147E+04  0.18097214147E+04  0.25500000920E-02 0. -1.
    10030    2    1    2    0    0  0.00000000000E+00  0.00000000000E+00 -0.88400984891E+03  0.27354329804E+04  0.25886521932E+04 0.  0.
        3    1    3    3  502    0 -0.68887990102E+03  0.12847792316E+03 -0.15919264228E+04  0.17393366093E+04  0.10100000352E+00 0. -1.
       -3    1    3    3    0  502  0.68887990102E+03 -0.12847792316E+03  0.70791657386E+03  0.99609637110E+03  0.10100000352E+00 0.  1.
</event>
<event>
 5   0  0.2503292E-06  0.2594995E+04  0.7818609E-02  0.8369903E-01
        1   -1    0    0  501    0  0.00000000000E+00  0.00000000000E+00  0.11058730022E+04  0.11058730022E+04  0.50400001928E-02 0.  1.
       -1   -1    0    0    0  501  0.00000000000E+00  0.00000000000E+00 -0.15223268570E+04  0.15223268570E+04  0.50400001928E-02 0. -1.
    10030    2    1    2    0    0  0.00000000000E+00  0.00000000000E+00 -0.41645385479E+03  0.26281998593E+04  0.25949953154E+04 0.  0.
        2    1    3    3  502    0 -0.30107442111E+03  0.12618066082E+04 -0.18146059005E+03  0.13098586447E+04  0.25500000920E-02 0. -1.
       -2    1    3    3    0  502  0.30107442111E+03 -0.12618066082E+04 -0.23499326474E+03  0.13183412145E+04  0.25500000920E-02 0.  1.
</event>
<event>
 5   0  0.2471488E-06  0.2464843E+04  0.7818609E-02  0.8415619E-01
        1   -1    0    0  501    0  0.00000000000E+00  0.00000000000E+00  0.25843057956E+04  0.25843057956E+04  0.50400001928E-02 0.  1.
       -1   -1    0    0    0  501  0.00000000000E+00  0.00000000000E+00 -0.58772551608E+03  0.58772551610E+03  0.50400001928E-02 0. -1.
    10030    2    1    2    0    0  0.00000000000E+00  0.00000000000E+00  0.19965802795E+04  0.31720313117E+04  0.24648427597E+04 0.  0.
        4    1    3    3  502    0  0.58034039961E+03 -0.40297075178E+03 -0.30122184801E+03  0.76806029765E+03  0.12699999809E+01 0. -1.
       -4    1    3    3    0  502 -0.58034039961E+03  0.40297075178E+03  0.22978021276E+04  0.24039710141E+04  0.12699999809E+01 0.  1.
</event>
<event>
 5   0  0.2333979E-06  0.2597583E+04  0.7818609E-02  0.8369023E-01
       -1   -1    0    0    0  501  0.00000000000E+00  0.00000000000E+00  0.14404099996E+04  0.14404099996E+04  0.50400001928E-02 0.  1.
        1   -1    0    0  501    0  0.00000000000E+00  0.00000000000E+00 -0.11710964357E+04  0.11710964357E+04  0.50400001928E-02 0. -1.
    10030    2    1    2    0    0  0.00000000000E+00  0.00000000000E+00  0.26931356393E+03  0.26115064353E+04  0.25975827352E+04 0.  0.
        3    1    3    3  502    0  0.81714424962E+03  0.10014732892E+04  0.26256110101E+03  0.13189434467E+04  0.10100000352E+00 0.  1.
       -3    1    3    3    0  502 -0.81714424962E+03 -0.10014732892E+04  0.67524629250E+01  0.12925629886E+04  0.10100000352E+00 0. -1.
</event>
<event>
 5   0  0.2333979E-06  0.2619572E+04  0.7818609E-02  0.8361583E-01
       -1   -1    0    0    0  501  0.00000000000E+00  0.00000000000E+00  0.10622828333E+04  0.10622828333E+04  0.50400001928E-02 0.  1.
        1   -1    0    0  501    0  0.00000000000E+00  0.00000000000E+00 -0.16149550392E+04  0.16149550392E+04  0.50400001928E-02 0. -1.
    10030    2    1    2    0    0  0.00000000000E+00  0.00000000000E+00 -0.55267220595E+03  0.26772378725E+04  0.26195717319E+04 0.  0.
        3    1    3    3  502    0  0.61769334295E+03  0.29718890895E+03 -0.14170024701E+04  0.15740909516E+04  0.10100000352E+00 0. -1.
       -3    1    3    3    0  502 -0.61769334295E+03 -0.29718890895E+03  0.86433026410E+03  0.11031469209E+04  0.10100000352E+00 0.  1.
</event>
<event>
 5   0  0.5940748E-06  0.2599416E+04  0.7818609E-02  0.8368400E-01
        2   -1    0    0  501    0  0.00000000000E+00  0.00000000000E+00  0.17920361139E+04  0.17920361139E+04  0.25500000920E-02 0.  1.
       -2   -1    0    0    0  501  0.00000000000E+00  0.00000000000E+00 -0.94263739791E+03  0.94263739791E+03  0.25500000920E-02 0. -1.
    10030    2    1    2    0    0  0.00000000000E+00  0.00000000000E+00  0.84939871597E+03  0.27346735118E+04  0.25994155184E+04 0.  0.
        1    1    3    3  502    0  0.12490527654E+04  0.52160051552E+02  0.50691611832E+02  0.12511687022E+04  0.50400001928E-02 0. -1.
       -1    1    3    3    0  502 -0.12490527654E+04 -0.52160051552E+02  0.79870710414E+03  0.14835048096E+04  0.50400001928E-02 0.  1.
</event>
<event>
 5   0  0.6161834E-06  0.2595696E+04  0.7818609E-02  0.8369665E-01
       -2   -1    0    0    0  501  0.00000000000E+00  0.00000000000E+00  0.12232159532E+04  0.12232159532E+04  0.25500000920E-02 0. -1.
        2   -1    0    0  501    0  0.00000000000E+00  0.00000000000E+00 -0.13770331582E+04  0.13770331582E+04  0.25500000920E-02 0.  1.
    10030    2    1    2    0    0  0.00000000000E+00  0.00000000000E+00 -0.15381720505E+03  0.26002491114E+04  0.25956956118E+04 0.  0.
        5    1    3    3  502    0  0.62853179636E+03  0.20454493991E+03  0.10419643416E+04  0.12339378553E+04  0.46999998093E+01 0. -1.
       -5    1    3    3    0  502 -0.62853179636E+03 -0.20454493991E+03 -0.11957815466E+04  0.13663112562E+04  0.46999998093E+01 0.  1.
</event>
<event>
 5   0  0.6158063E-06  0.2598774E+04  0.7818609E-02  0.8368618E-01
       -2   -1    0    0    0  501  0.00000000000E+00  0.00000000000E+00  0.72745545241E+03  0.72745545242E+03  0.25500000920E-02 0. -1.
        2   -1    0    0  501    0  0.00000000000E+00  0.00000000000E+00 -0.23209760234E+04  0.23209760234E+04  0.25500000920E-02 0.  1.
    10030    2    1    2    0    0  0.00000000000E+00  0.00000000000E+00 -0.15935205709E+04  0.30484314758E+04  0.25987740672E+04 0.  0.
        2    1    3    3  502    0  0.68777204678E+03 -0.83779303598E+03 -0.16373214095E+04  0.19636061106E+04  0.25500000920E-02 0. -1.
       -2    1    3    3    0  502 -0.68777204678E+03  0.83779303598E+03  0.43800838591E+02  0.10848253652E+04  0.25500000920E-02 0.  1.
</event>
<event>
 5   0  0.2440590E-06  0.2605439E+04  0.7818609E-02  0.8366356E-01
        1   -1    0    0  501    0  0.00000000000E+00  0.00000000000E+00  0.21697450022E+04  0.21697450022E+04  0.50400001928E-02 0.  1.
       -1   -1    0    0    0  501  0.00000000000E+00  0.00000000000E+00 -0.78215555143E+03  0.78215555144E+03  0.50400001928E-02 0. -1.
    10030    2    1    2    0    0  0.00000000000E+00  0.00000000000E+00  0.13875894508E+04  0.29519005537E+04  0.26054390023E+04 0.  0.
        1    1    3    3  502    0  0.26802849533E+03  0.11375052773E+03 -0.74481731628E+03  0.79970700355E+03  0.50400001928E-02 0. -1.
       -1    1    3    3    0  502 -0.26802849533E+03 -0.11375052773E+03  0.21324067671E+04  0.21521935501E+04  0.50400001928E-02 0.  1.
</event>
<event>
 5   0  0.6158063E-06  0.2593122E+04  0.7818609E-02  0.8370541E-01
       -2   -1    0    0    0  501  0.00000000000E+00  0.00000000000E+00  0.12950236860E+04  0.12950236860E+04  0.25500000920E-02 0.  1.
        2   -1    0    0  501    0  0.00000000000E+00  0.00000000000E+00 -0.12981005140E+04  0.12981005140E+04  0.25500000920E-02 0. -1.
    10030    2    1    2    0    0  0.00000000000E+00  0.00000000000E+00 -0.30768279274E+01  0.25931242000E+04  0.25931223746E+04 0.  0.
        2    1    3    3  502    0 -0.40352177529E+03  0.77546276427E+03 -0.95908730640E+03  0.12976982635E+04  0.25500000920E-02 0.  1.
       -2    1    3    3    0  502  0.40352177529E+03 -0.77546276427E+03  0.95601047847E+03  0.12954259365E+04  0.25500000920E-02 0. -1.
</event>
<event>
 5   0  0.2440590E-06  0.2599141E+04  0.7818609E-02  0.8368493E-01
        1   -1    0    0  501    0  0.00000000000E+00  0.00000000000E+00  0.13403650324E+04  0.13403650324E+04  0.50400001928E-02 0. -1.
       -1   -1    0    0    0  501  0.00000000000E+00  0.00000000000E+00 -0.12600173541E+04  0.12600173541E+04  0.50400001928E-02 0.  1.
    10030    2    1    2    0    0  0.00000000000E+00  0.00000000000E+00  0.80347678249E+02  0.26003823865E+04  0.25991407824E+04 0.  0.
        1    1    3    3  502    0 -0.15730292763E+03  0.49139328816E+02  0.13298684932E+04  0.13400407060E+04  0.50400001928E-02 0. -1.
       -1    1    3    3    0  502  0.15730292763E+03 -0.49139328816E+02 -0.12495208149E+04  0.12603416805E+04  0.50400001928E-02 0.  1.
</event>
<event>
 5   0  0.2456600E-06  0.2600781E+04  0.7818609E-02  0.8367936E-01
       -1   -1    0    0    0  501  0.00000000000E+00  0.00000000000E+00  0.10818807660E+04  0.10818807660E+04  0.50400001928E-02 0.  1.
        1   -1    0    0  501    0  0.00000000000E+00  0.00000000000E+00 -0.15630332146E+04  0.15630332147E+04  0.50400001928E-02 0. -1.
    10030    2    1    2    0    0  0.00000000000E+00  0.00000000000E+00 -0.48115244863E+03  0.26449139807E+04  0.26007810916E+04 0.  0.
        5    1    3    3  502    0 -0.34623691369E+03 -0.95409549469E+03  0.58612349011E+03  0.11720669985E+04  0.46999998093E+01 0.  1.
       -5    1    3    3    0  502  0.34623691369E+03  0.95409549469E+03 -0.10672759387E+04  0.14728469821E+04  0.46999998093E+01 0. -1.
</event>
<event>
 5   0  0.5942229E-06  0.2611540E+04  0.7818609E-02  0.8364292E-01
        2   -1    0    0  501    0  0.00000000000E+00  0.00000000000E+00  0.19593529680E+04  0.19593529680E+04  0.25500000920E-02 0. -1.
       -2   -1    0    0    0  501  0.00000000000E+00  0.00000000000E+00 -0.87020294306E+03  0.87020294307E+03  0.25500000920E-02 0.  1.
    10030    2    1    2    0    0  0.00000000000E+00  0.00000000000E+00  0.10891500249E+04  0.28295559110E+04  0.26115395607E+04 0.  0.
        4    1    3    3  502    0 -0.11778875543E+04 -0.38932022553E+03  0.98607731564E+03  0.15847206107E+04  0.12699999809E+01 0. -1.
       -4    1    3    3    0  502  0.11778875543E+04  0.38932022553E+03  0.10307270928E+03  0.12448353003E+04  0.12699999809E+01 0.  1.
</event>
<event>
 5   0  0.2333979E-06  0.2599399E+04  0.7818609E-02  0.8368405E-01
        1   -1    0    0  501    0  0.00000000000E+00  0.00000000000E+00  0.20997071258E+04  0.20997071259E+04  0.50400001928E-02 0. -1.
       -1   -1    0    0    0  501  0.00000000000E+00  0.00000000000E+00 -0.80450225076E+03  0.80450225078E+03  0.50400001928E-02 0.  1.
    10030    2    1    2    0    0  0.00000000000E+00  0.00000000000E+00  0.12952048751E+04  0.29042093766E+04  0.25993992450E+04 0.  0.
        3    1    3    3  502    0  0.12030900162E+04 -0.32693685757E+03  0.23723749692E+03  0.12690921700E+04  0.10100000352E+00 0.  1.
       -3    1    3    3    0  502 -0.12030900162E+04  0.32693685757E+03  0.10579673782E+04  0.16351172066E+04  0.10100000352E+00 0. -1.
</event>
<event>
 5   0  0.2072125E-06  0.2603404E+04  0.7818609E-02  0.8367046E-01
       -3   -1    0    0    0  501  0.00000000000E+00  0.00000000000E+00  0.15487053197E+04  0.15487053230E+04  0.10100000352E+00 0. -1.
        3   -1    0    0  501    0  0.00000000000E+00  0.00000000000E+00 -0.10940931323E+04  0.10940931370E+04  0.10100000352E+00 0.  1.
    10030    2    1    2    0    0  0.00000000000E+00  0.00000000000E+00  0.45461218734E+03  0.26427984600E+04  0.26034038218E+04 0.  0.
        4    1    3    3  502    0  0.12640048707E+04 -0.16678412893E+03 -0.39155884367E+02  0.12755626426E+04  0.12699999809E+01 0.  1.
       -4    1    3    3    0  502 -0.12640048707E+04  0.16678412893E+03  0.49376807171E+03  0.13672358174E+04  0.12699999809E+01 0. -1.
</event>
<event>
 5   0  0.2440590E-06  0.2591383E+04  0.7818609E-02  0.8371134E-01
       -1   -1    0    0    0  501  0.00000000000E+00  0.00000000000E+00  0.11782303739E+04  0.11782303739E+04  0.50400001928E-02 0.  1.
        1   -1    0    0  501    0  0.00000000000E+00  0.00000000000E+00 -0.14248621371E+04  0.14248621371E+04  0.50400001928E-02 0. -1.
    10030    2    1    2    0    0  0.00000000000E+00  0.00000000000E+00 -0.24663176319E+03  0.26030925111E+04  0.25913825257E+04 0.  0.
        1    1    3    3  502    0 -0.32471136100E+02  0.15273815370E+02  0.11777311304E+04  0.11782776751E+04  0.50400001928E-02 0.  1.
       -1    1    3    3    0  502  0.32471136100E+02 -0.15273815370E+02 -0.14243628936E+04  0.14248148360E+04  0.50400001928E-02 0. -1.
</event>
<event>
 5   0  0.2503292E-06  0.2701434E+04  0.7818609E-02  0.8334540E-01
        1   -1    0    0  501    0  0.00000000000E+00  0.00000000000E+00  0.85260356497E+03  0.85260356499E+03  0.50400001928E-02 0.  1.
       -1   -1    0    0    0  501  0.00000000000E+00  0.00000000000E+00 -0.21398409626E+04  0.21398409626E+04  0.50400001928E-02 0. -1.
    10030    2    1    2    0    0  0.00000000000E+00  0.00000000000E+00 -0.12872373976E+04  0.29924445276E+04  0.27014337180E+04 0.  0.
        2    1    3    3  502    0  0.63927308016E+03 -0.11076643640E+04 -0.11249956026E+04  0.17032925527E+04  0.25500000920E-02 0. -1.
       -2    1    3    3    0  502 -0.63927308016E+03  0.11076643640E+04 -0.16224179498E+03  0.12891519749E+04  0.25500000920E-02 0.  1.
</event>
<event>
 5   0  0.2471488E-06  0.2609187E+04  0.7818609E-02  0.8365087E-01
        1   -1    0    0  501    0  0.00000000000E+00  0.00000000000E+00  0.10045953656E+04  0.10045953656E+04  0.50400001928E-02 0. -1.
       -1   -1    0    0    0  501  0.00000000000E+00  0.00000000000E+00 -0.16941785786E+04  0.16941785786E+04  0.50400001928E-02 0.  1.
    10030    2    1    2    0    0  0.00000000000E+00  0.00000000000E+00 -0.68958321300E+03  0.26987739442E+04  0.26091868070E+04 0.  0.
        4    1    3    3  502    0  0.51860448056E+03  0.10235585670E+04 -0.98686274584E+03  0.15134472040E+04  0.12699999809E+01 0.  1.
       -4    1    3    3    0  502 -0.51860448056E+03 -0.10235585670E+04  0.29727953284E+03  0.11853267401E+04  0.12699999809E+01 0. -1.
</event>
<event>
 5   0  0.2456600E-06  0.2603123E+04  0.7818609E-02  0.8367141E-01
       -1   -1    0    0    0  501  0.00000000000E+00  0.00000000000E+00  0.77352184887E+03  0.77352184888E+03  0.50400001928E-02 0. -1.
        1   -1    0    0  501    0  0.00000000000E+00  0.00000000000E+00 -0.21900638799E+04  0.21900638799E+04  0.50400001928E-02 0.  1.
    10030    2    1    2    0    0  0.00000000000E+00  0.00000000000E+00 -0.14165420310E+04  0.29635857288E+04  0.26031229410E+04 0.  0.
        5    1    3    3  502    0  0.30742824210E+03  0.12399681242E+04 -0.42477724505E+03  0.13462878113E+04  0.46999998093E+01 0. -1.
       -5    1    3    3    0  502 -0.30742824210E+03 -0.12399681242E+04 -0.99176478596E+03  0.16172979174E+04  0.46999998093E+01 0.  1.
</event>
<event>
 5   0  0.5940748E-06  0.2543659E+04  0.7818609E-02  0.8387595E-01
       -2   -1    0    0    0  501  0.00000000000E+00  0.00000000000E+00  0.16404051129E+04  0.16404051129E+04  0.25500000920E-02 0. -1.
        2   -1    0    0  501    0  0.00000000000E+00  0.00000000000E+00 -0.98606730298E+03  0.98606730298E+03  0.25500000920E-02 0.  1.
    10030    2    1    2    0    0  0.00000000000E+00  0.00000000000E+00  0.65433780993E+03  0.26264724159E+04  0.25436586607E+04 0.  0.
        1    1    3    3  502    0 -0.59452798184E+03  0.77912043592E+02 -0.83096053328E+03  0.10247093323E+04  0.50400001928E-02 0.  1.
       -1    1    3    3    0  502  0.59452798184E+03 -0.77912043592E+02  0.14852983432E+04  0.16017630836E+04  0.50400001928E-02 0. -1.
</event>
<event>
 5   0  0.2503292E-06  0.2605928E+04  0.7818609E-02  0.8366190E-01
        1   -1    0    0  501    0  0.00000000000E+00  0.00000000000E+00  0.13696172247E+04  0.13696172247E+04  0.50400001928E-02 0.  1.
       -1   -1    0    0    0  501  0.00000000000E+00  0.00000000000E+00 -0.12395548450E+04  0.12395548450E+04  0.50400001928E-02 0. -1.
    10030    2    1    2    0    0  0.00000000000E+00  0.00000000000E+00  0.13006237972E+03  0.26091720698E+04  0.26059283695E+04 0.  0.
        2    1    3    3  502    0 -0.52477019391E+03  0.82653504941E+03 -0.79578994090E+03  0.12616757010E+04  0.25500000920E-02 0. -1.
       -2    1    3    3    0  502  0.52477019391E+03 -0.82653504941E+03  0.92585232062E+03  0.13474963688E+04  0.25500000920E-02 0.  1.
</event>
<event>
 5   0  0.6173140E-06  0.2595073E+04  0.7818609E-02  0.8369877E-01
       -2   -1    0    0    0  501  0.00000000000E+00  0.00000000000E+00  0.88723908715E+03  0.88723908716E+03  0.25500000920E-02 0. -1.
        2   -1    0    0  501    0  0.00000000000E+00  0.00000000000E+00 -0.18975734237E+04  0.18975734237E+04  0.25500000920E-02 0.  1.
    10030    2    1    2    0    0  0.00000000000E+00  0.00000000000E+00 -0.10103343365E+04  0.27848125108E+04  0.25950732647E+04 0.  0.
        3    1    3    3  502    0 -0.15546131342E+03  0.11286747627E+04  0.16113830093E+03  0.11506695886E+04  0.10100000352E+00 0. -1.
       -3    1    3    3    0  502  0.15546131342E+03 -0.11286747627E+04 -0.11714726375E+04  0.16341429223E+04  0.10100000352E+00 0.  1.
</event>
<event>
 5   0  0.2471488E-06  0.2606719E+04  0.7818609E-02  0.8365923E-01
        1   -1    0    0  501    0  0.00000000000E+00  0.00000000000E+00  0.17232621398E+04  0.17232621398E+04  0.50400001928E-02 0. -1.
       -1   -1    0    0    0  501  0.00000000000E+00  0.00000000000E+00 -0.98577333959E+03  0.98577333960E+03  0.50400001928E-02 0.  1.
    10030    2    1    2    0    0  0.00000000000E+00  0.00000000000E+00  0.73748880023E+03  0.27090354794E+04  0.26067189143E+04 0.  0.
        4    1    3    3  502    0 -0.78113828945E+03  0.21630719882E+03  0.14294825050E+04  0.16432856345E+04  0.12699999809E+01 0. -1.
       -4    1    3    3    0  502  0.78113828945E+03 -0.21630719882E+03 -0.69199370481E+03  0.10657498449E+04  0.12699999809E+01 0.  1.
</event>
<event>
 5   0  0.5940748E-06  0.2603158E+04  0.7818609E-02  0.8367129E-01
        2   -1    0    0  501    0  0.00000000000E+00  0.00000000000E+00  0.12279506634E+04  0.12279506634E+04  0.25500000920E-02 0. -1.
       -2   -1    0    0    0  501  0.00000000000E+00  0.00000000000E+00 -0.13796224433E+04  0.13796224434E+04  0.25500000920E-02 0.  1.
    10030    2    1    2    0    0  0.00000000000E+00  0.00000000000E+00 -0.15167177995E+03  0.26075731068E+04  0.26031583083E+04 0.  0.
        1    1    3    3  502    0  0.53597374982E+03 -0.63708256021E+03  0.92634387456E+03  0.12454938872E+04  0.50400001928E-02 0.  1.
       -1    1    3    3    0  502 -0.53597374982E+03  0.63708256021E+03 -0.10780156545E+04  0.13620792196E+04  0.50400001928E-02 0. -1.
</event>
<event>
 5   0  0.2333979E-06  0.2597818E+04  0.7818609E-02  0.8368943E-01
        1   -1    0    0  501    0  0.00000000000E+00  0.00000000000E+00  0.15024606074E+04  0.15024606075E+04  0.50400001928E-02 0.  1.
       -1   -1    0    0    0  501  0.00000000000E+00  0.00000000000E+00 -0.11229341561E+04  0.11229341561E+04  0.50400001928E-02 0. -1.
    10030    2    1    2    0    0  0.00000000000E+00  0.00000000000E+00  0.37952645139E+03  0.26253947635E+04  0.25978178029E+04 0.  0.
        3    1    3    3  502    0  0.58418051103E+03 -0.11148241508E+04  0.51420787648E+03  0.13595990244E+04  0.10100000352E+00 0.  1.
       -3    1    3    3    0  502 -0.58418051103E+03  0.11148241508E+04 -0.13468142509E+03  0.12657957391E+04  0.10100000352E+00 0. -1.
</event>
<event>
 5   0  0.5942229E-06  0.2576577E+04  0.7818609E-02  0.8376201E-01
       -2   -1    0    0    0  501  0.00000000000E+00  0.00000000000E+00  0.69189002386E+03  0.69189002387E+03  0.25500000920E-02 0. -1.
        2   -1    0    0  501    0  0.00000000000E+00  0.00000000000E+00 -0.23987737582E+04  0.23987737582E+04  0.25500000920E-02 0.  1.
    10030    2    1    2    0    0  0.00000000000E+00  0.00000000000E+00 -0.17068837343E+04  0.30906637820E+04  0.25765772900E+04 0.  0.
        4    1    3    3  502    0  0.69298893254E+03  0.10154557824E+04 -0.13153780330E+04  0.18004458029E+04  0.12699999809E+01 0.  1.
       -4    1    3    3    0  502 -0.69298893254E+03 -0.10154557824E+04 -0.39150570130E+03  0.12902179791E+04  0.12699999809E+01 0. -1.
</event>
<event>
 5   0  0.5942229E-06  0.2594066E+04  0.7818609E-02  0.8370219E-01
        2   -1    0    0  501    0  0.00000000000E+00  0.00000000000E+00  0.15175909931E+04  0.15175909931E+04  0.25500000920E-02 0. -1.
       -2   -1    0    0    0  501  0.00000000000E+00  0.00000000000E+00 -0.11085300108E+04  0.11085300108E+04  0.25500000920E-02 0.  1.
    10030    2    1    2    0    0  0.00000000000E+00  0.00000000000E+00  0.40906098226E+03  0.26261210039E+04  0.25940664294E+04 0.  0.
        4    1    3    3  502    0 -0.45903160339E+03  0.12120394117E+04  0.25559181653E+03  0.13210141324E+04  0.12699999809E+01 0. -1.
       -4    1    3    3    0  502  0.45903160339E+03 -0.12120394117E+04  0.15346916573E+03  0.13051068715E+04  0.12699999809E+01 0.  1.
</event>
<event>
 5   0  0.6161834E-06  0.2601286E+04  0.7818609E-02  0.8367764E-01
        2   -1    0    0  501    0  0.00000000000E+00  0.00000000000E+00  0.20107273903E+04  0.20107273903E+04  0.25500000920E-02 0. -1.
       -2   -1    0    0    0  501  0.00000000000E+00  0.00000000000E+00 -0.84132378434E+03  0.84132378435E+03  0.25500000920E-02 0.  1.
    10030    2    1    2    0    0  0.00000000000E+00  0.00000000000E+00  0.11694036059E+04  0.28520511746E+04  0.26012864335E+04 0.  0.
        5    1    3    3  502    0  0.22558489644E+03  0.95718153100E+03 -0.34856971292E+03  0.10433637734E+04  0.46999998093E+01 0.  1.
       -5    1    3    3    0  502 -0.22558489644E+03 -0.95718153100E+03  0.15179733189E+04  0.18086874013E+04  0.46999998093E+01 0. -1.
</event>
<event>
 5   0  0.6158063E-06  0.2603887E+04  0.7818609E-02  0.8366882E-01
        2   -1    0    0  501    0  0.00000000000E+00  0.00000000000E+00  0.13134151216E+04  0.13134151216E+04  0.25500000920E-02 0. -1.
       -2   -1    0    0    0  501  0.00000000000E+00  0.00000000000E+00 -0.12905719590E+04  0.12905719590E+04  0.25500000920E-02 0.  1.
    10030    2    1    2    0    0  0.00000000000E+00  0.00000000000E+00  0.22843162590E+02  0.26039870805E+04  0.26038868842E+04 0.  0.
        2    1    3    3  502    0 -0.22234355339E+03  0.98343790575E+03 -0.81230299136E+03  0.12947675158E+04  0.25500000920E-02 0.  1.
       -2    1    3    3    0  502  0.22234355339E+03 -0.98343790575E+03  0.83514615395E+03  0.13092195647E+04  0.25500000920E-02 0. -1.
</event>
<event>
 5   0  0.6173140E-06  0.2607119E+04  0.7818609E-02  0.8365787E-01
       -2   -1    0    0    0  501  0.00000000000E+00  0.00000000000E+00  0.15944103182E+04  0.15944103182E+04  0.25500000920E-02 0.  1.
        2   -1    0    0  501    0  0.00000000000E+00  0.00000000000E+00 -0.10657652752E+04  0.10657652753E+04  0.25500000920E-02 0. -1.
    10030    2    1    2    0    0  0.00000000000E+00  0.00000000000E+00  0.52864504291E+03  0.26601755934E+04  0.26071188324E+04 0.  0.
        3    1    3    3  502    0  0.46014377665E+03  0.37377185316E+03 -0.92026444027E+03  0.10946800188E+04  0.10100000352E+00 0. -1.
       -3    1    3    3    0  502 -0.46014377665E+03 -0.37377185316E+03  0.14489094832E+04  0.15654955746E+04  0.10100000352E+00 0.  1.
</event>
<event>
 5   0  0.6173140E-06  0.2598794E+04  0.7818609E-02  0.8368611E-01
        2   -1    0    0  501    0  0.00000000000E+00  0.00000000000E+00  0.14636035861E+04  0.14636035861E+04  0.25500000920E-02 0. -1.
       -2   -1    0    0    0  501  0.00000000000E+00  0.00000000000E+00 -0.11536128697E+04  0.11536128697E+04  0.25500000920E-02 0.  1.
    10030    2    1    2    0    0  0.00000000000E+00  0.00000000000E+00  0.30999071644E+03  0.26172164557E+04  0.25987935147E+04 0.  0.
        3    1    3    3  502    0 -0.13500573776E+02  0.61450928469E+03  0.13079376983E+04  0.14451660663E+04  0.10100000352E+00 0. -1.
       -3    1    3    3    0  502  0.13500573776E+02 -0.61450928469E+03 -0.99794698187E+03  0.11720503894E+04  0.10100000352E+00 0.  1.
</event>
<event>
 5   0  0.6158063E-06  0.2591364E+04  0.7818609E-02  0.8371141E-01
       -2   -1    0    0    0  501  0.00000000000E+00  0.00000000000E+00  0.14845770044E+04  0.14845770044E+04  0.25500000920E-02 0. -1.
        2   -1    0    0  501    0  0.00000000000E+00  0.00000000000E+00 -0.11308213573E+04  0.11308213573E+04  0.25500000920E-02 0.  1.
    10030    2    1    2    0    0  0.00000000000E+00  0.00000000000E+00  0.35375564716E+03  0.26153983617E+04  0.25913636434E+04 0.  0.
        2    1    3    3  502    0 -0.19332753027E+03  0.83827015872E+03  0.11547391890E+04  0.14399635369E+04  0.25500000920E-02 0. -1.
       -2    1    3    3    0  502  0.19332753027E+03 -0.83827015872E+03 -0.80098354186E+03  0.11754348248E+04  0.25500000920E-02 0.  1.
</event>
<event>
 5   0  0.2072125E-06  0.2616310E+04  0.7818609E-02  0.8362682E-01
        3   -1    0    0  501    0  0.00000000000E+00  0.00000000000E+00  0.25875998234E+04  0.25875998253E+04  0.10100000352E+00 0.  1.
       -3   -1    0    0    0  501  0.00000000000E+00  0.00000000000E+00 -0.66133445146E+03  0.66133445917E+03  0.10100000352E+00 0. -1.
    10030    2    1    2    0    0  0.00000000000E+00  0.00000000000E+00  0.19262653719E+04  0.32489342845E+04  0.26163095578E+04 0.  0.
        1    1    3    3  502    0 -0.71647863104E+03 -0.20314432453E+03  0.22986656064E+04  0.24162931973E+04  0.50400001928E-02 0.  1.
       -1    1    3    3    0  502  0.71647863104E+03  0.20314432453E+03 -0.37240023452E+03  0.83264108716E+03  0.50400001928E-02 0. -1.
</event>
<event>
 5   0  0.6161834E-06  0.2597718E+04  0.7818609E-02  0.8368977E-01
       -2   -1    0    0    0  501  0.00000000000E+00  0.00000000000E+00  0.12477763257E+04  0.12477763257E+04  0.25500000920E-02 0. -1.
        2   -1    0    0  501    0  0.00000000000E+00  0.00000000000E+00 -0.13520331027E+04  0.13520331027E+04  0.25500000920E-02 0.  1.
    10030    2    1    2    0    0  0.00000000000E+00  0.00000000000E+00 -0.10425677702E+03  0.25998094285E+04  0.25977181504E+04 0.  0.
        5    1    3    3  502    0 -0.11208146042E+04 -0.65491331742E+03 -0.87809714861E+01  0.12981664091E+04  0.46999998093E+01 0.  1.
       -5    1    3    3    0  502  0.11208146042E+04  0.65491331742E+03 -0.95475805538E+02  0.13016430193E+04  0.46999998093E+01 0. -1.
</event>
<event>
 5   0  0.6173140E-06  0.2594654E+04  0.7818609E-02  0.8370019E-01
        2   -1    0    0  501    0  0.00000000000E+00  0.00000000000E+00  0.17069768198E+04  0.17069768198E+04  0.25500000920E-02 0. -1.
       -2   -1    0    0    0  501  0.00000000000E+00  0.00000000000E+00 -0.98598700459E+03  0.98598700460E+03  0.25500000920E-02 0.  1.
    10030    2    1    2    0    0  0.00000000000E+00  0.00000000000E+00  0.72098981525E+03  0.26929638244E+04  0.25946537045E+04 0.  0.
        3    1    3    3  502    0 -0.34066354923E+03 -0.17508611185E+03 -0.92596489391E+03  0.10020567825E+04  0.10100000352E+00 0.  1.
       -3    1    3    3    0  502  0.34066354923E+03  0.17508611185E+03  0.16469547092E+04  0.16909070420E+04  0.10100000352E+00 0. -1.
</event>
<event>
 5   0  0.2471488E-06  0.2598356E+04  0.7818609E-02  0.8368760E-01
        1   -1    0    0  501    0  0.00000000000E+00  0.00000000000E+00  0.65328827713E+03  0.65328827715E+03  0.50400001928E-02 0. -1.
       -1   -1    0    0    0  501  0.00000000000E+00  0.00000000000E+00 -0.25836422995E+04  0.25836422995E+04  0.50400001928E-02 0.  1.
    10030    2    1    2    0    0  0.00000000000E+00  0.00000000000E+00 -0.19303540224E+04  0.32369305766E+04  0.25983558083E+04 0.  0.
        4    1    3    3  502    0 -0.15952048864E+02 -0.12497663837E+04 -0.14068360088E+04  0.18818500605E+04  0.12699999809E+01 0.  1.
       -4    1    3    3    0  502  0.15952048864E+02  0.12497663837E+04 -0.52351801355E+03  0.13550805161E+04  0.12699999809E+01 0. -1.
</event>
<event>
 5   0  0.5940748E-06  0.2596001E+04  0.7818609E-02  0.8369561E-01
       -2   -1    0    0    0  501  0.00000000000E+00  0.00000000000E+00  0.63947670174E+03  0.63947670174E+03  0.25500000920E-02 0.  1.
        2   -1    0    0  501    0  0.00000000000E+00  0.00000000000E+00 -0.26346619996E+04  0.26346619996E+04  0.25500000920E-02 0. -1.
    10030    2    1    2    0    0  0.00000000000E+00  0.00000000000E+00 -0.19951852978E+04  0.32741387013E+04  0.25960007440E+04 0.  0.
        1    1    3    3  502    0 -0.84854261247E+03  0.85624022442E+03 -0.16045980430E+04  0.20069645654E+04  0.50400001928E-02 0. -1.
       -1    1    3    3    0  502  0.84854261247E+03 -0.85624022442E+03 -0.39058725482E+03  0.12671741359E+04  0.50400001928E-02 0.  1.
</event>
<event>
 5   0  0.6158063E-06  0.2597145E+04  0.7818609E-02  0.8369172E-01
        2   -1    0    0  501    0  0.00000000000E+00  0.00000000000E+00  0.13931123687E+04  0.13931123687E+04  0.25500000920E-02 0. -1.
       -2   -1    0    0    0  501  0.00000000000E+00  0.00000000000E+00 -0.12104481590E+04  0.12104481590E+04  0.25500000920E-02 0.  1.
    10030    2    1    2    0    0  0.00000000000E+00  0.00000000000E+00  0.18266420975E+03  0.26035605277E+04  0.25971448185E+04 0.  0.
        2    1    3    3  502    0 -0.11765927939E+04 -0.54859621224E+03  0.12242315447E+03  0.13039615928E+04  0.25500000920E-02 0.  1.
       -2    1    3    3    0  502  0.11765927939E+04  0.54859621224E+03  0.60241055274E+02  0.12995989349E+04  0.25500000920E-02 0. -1.
</event>
<event>
 5   0  0.2503292E-06  0.2619642E+04  0.7818609E-02  0.8361560E-01
       -1   -1    0    0    0  501  0.00000000000E+00  0.00000000000E+00  0.92879892068E+03  0.92879892070E+03  0.50400001928E-02 0.  1.
        1   -1    0    0  501    0  0.00000000000E+00  0.00000000000E+00 -0.18471497002E+04  0.18471497002E+04  0.50400001928E-02 0. -1.
    10030    2    1    2    0    0  0.00000000000E+00  0.00000000000E+00 -0.91835077952E+03  0.27759486209E+04  0.26196416915E+04 0.  0.
        2    1    3    3  502    0  0.34950470847E+02 -0.10715109719E+04 -0.12565870677E+04  0.16517773328E+04  0.25500000920E-02 0. -1.
       -2    1    3    3    0  502 -0.34950470847E+02  0.10715109719E+04  0.33823628822E+03  0.11241712881E+04  0.25500000920E-02 0.  1.
</event>
<event>
 5   0  0.6161834E-06  0.2588898E+04  0.7818609E-02  0.8371982E-01
        2   -1    0    0  501    0  0.00000000000E+00  0.00000000000E+00  0.18575957116E+04  0.18575957116E+04  0.25500000920E-02 0.  1.
       -2   -1    0    0    0  501  0.00000000000E+00  0.00000000000E+00 -0.90202492964E+03  0.90202492965E+03  0.25500000920E-02 0. -1.
    10030    2    1    2    0    0  0.00000000000E+00  0.00000000000E+00  0.95557078198E+03  0.27596206413E+04  0.25888975577E+04 0.  0.
        5    1    3    3  502    0 -0.22228256187E+03 -0.15884140586E+02 -0.88141429387E+03  0.90916175166E+03  0.46999998093E+01 0. -1.
       -5    1    3    3    0  502  0.22228256187E+03  0.15884140586E+02  0.18369850759E+04  0.18504588896E+04  0.46999998093E+01 0.  1.
</event>
<event>
 5   0  0.2333979E-06  0.2590393E+04  0.7818609E-02  0.8371472E-01
       -1   -1    0    0    0  501  0.00000000000E+00  0.00000000000E+00  0.13629552026E+04  0.13629552026E+04  0.50400001928E-02 0.  1.
        1   -1    0    0  501    0  0.00000000000E+00  0.00000000000E+00 -0.12308065490E+04  0.12308065490E+04  0.50400001928E-02 0. -1.
    10030    2    1    2    0    0  0.00000000000E+00  0.00000000000E+00  0.13214865365E+03  0.25937617516E+04  0.25903931666E+04 0.  0.
        3    1    3    3  502    0  0.31058620364E+03 -0.36004802920E+03 -0.11402478511E+04  0.12354203922E+04  0.10100000352E+00 0. -1.
       -3    1    3    3    0  502 -0.31058620364E+03  0.36004802920E+03  0.12723965048E+04  0.13583413594E+04  0.10100000352E+00 0.  1.
</event>
<event>
 5   0  0.2333979E-06  0.2601008E+04  0.7818609E-02  0.8367859E-01
       -1   -1    0    0    0  501  0.00000000000E+00  0.00000000000E+00  0.89688688934E+03  0.89688688935E+03  0.50400001928E-02 0.  1.
        1   -1    0    0  501    0  0.00000000000E+00  0.00000000000E+00 -0.18857573380E+04  0.18857573380E+04  0.50400001928E-02 0. -1.
    10030    2    1    2    0    0  0.00000000000E+00  0.00000000000E+00 -0.98887044862E+03  0.27826442273E+04  0.26010082913E+04 0.  0.
        3    1    3    3  502    0  0.48514611612E+03 -0.88576355774E+03 -0.13710241971E+04  0.17028362204E+04  0.10100000352E+00 0.  1.
       -3    1    3    3    0  502 -0.48514611612E+03  0.88576355774E+03  0.38215374846E+03  0.10798080069E+04  0.10100000352E+00 0. -1.
</event>
<event>
 5   0  0.2471488E-06  0.2660205E+04  0.7818609E-02  0.8348034E-01
        1   -1    0    0  501    0  0.00000000000E+00  0.00000000000E+00  0.20539315686E+04  0.20539315686E+04  0.50400001928E-02 0. -1.
       -1   -1    0    0    0  501  0.00000000000E+00  0.00000000000E+00 -0.86135941470E+03  0.86135941471E+03  0.50400001928E-02 0.  1.
    10030    2    1    2    0    0  0.00000000000E+00  0.00000000000E+00  0.11925721539E+04  0.29152909834E+04  0.26602054761E+04 0.  0.
        4    1    3    3  502    0 -0.42810180943E+03  0.81232572242E+02 -0.78092114103E+03  0.89426468757E+03  0.12699999809E+01 0.  1.
       -4    1    3    3    0  502  0.42810180943E+03 -0.81232572242E+02  0.19734932950E+04  0.20210262958E+04  0.12699999809E+01 0. -1.
</event>
<event>
 5   0  0.5942229E-06  0.2646235E+04  0.7818609E-02  0.8352664E-01
        2   -1    0    0  501    0  0.00000000000E+00  0.00000000000E+00  0.26779898705E+04  0.26779898705E+04  0.25500000920E-02 0.  1.
       -2   -1    0    0    0  501  0.00000000000E+00  0.00000000000E+00 -0.65371409778E+03  0.65371409779E+03  0.25500000920E-02 0. -1.
    10030    2    1    2    0    0  0.00000000000E+00  0.00000000000E+00  0.20242757727E+04  0.33317039683E+04  0.26462348589E+04 0.  0.
        4    1    3    3  502    0 -0.10008619703E+04 -0.24797431785E+03 -0.31740218037E+02  0.10316128151E+04  0.12699999809E+01 0. -1.
       -4    1    3    3    0  502  0.10008619703E+04  0.24797431785E+03  0.20560159908E+04  0.23000911532E+04  0.12699999809E+01 0.  1.
</event>
<event>
 5   0  0.6158063E-06  0.2604558E+04  0.7818609E-02  0.8366654E-01
        2   -1    0    0  501    0  0.00000000000E+00  0.00000000000E+00  0.22764542422E+04  0.22764542422E+04  0.25500000920E-02 0. -1.
       -2   -1    0    0    0  501  0.00000000000E+00  0.00000000000E+00 -0.74498804842E+03  0.74498804842E+03  0.25500000920E-02 0.  1.
    10030    2    1    2    0    0  0.00000000000E+00  0.00000000000E+00  0.15314661938E+04  0.30214422906E+04  0.26045584679E+04 0.  0.
        2    1    3    3  502    0 -0.45007410614E+03 -0.35377598548E+03 -0.59119271938E+03  0.82294166280E+03  0.25500000920E-02 0.  1.
       -2    1    3    3    0  502  0.45007410614E+03  0.35377598548E+03  0.21226589132E+04  0.21985006278E+04  0.25500000920E-02 0. -1.
</event>
<event>
 5   0  0.5942229E-06  0.2602076E+04  0.7818609E-02  0.8367496E-01
       -2   -1    0    0    0  501  0.00000000000E+00  0.00000000000E+00  0.87328570024E+03  0.87328570024E+03  0.25500000920E-02 0. -1.
        2   -1    0    0  501    0  0.00000000000E+00  0.00000000000E+00 -0.19383122307E+04  0.19383122307E+04  0.25500000920E-02 0.  1.
    10030    2    1    2    0    0  0.00000000000E+00  0.00000000000E+00 -0.10650265305E+04  0.28115979310E+04  0.26020763660E+04 0.  0.
        4    1    3    3  502    0  0.12675505584E+04 -0.10009640344E+03 -0.23464394111E+03  0.12929667823E+04  0.12699999809E+01 0. -1.
       -4    1    3    3    0  502 -0.12675505584E+04  0.10009640344E+03 -0.83038258938E+03  0.15186311487E+04  0.12699999809E+01 0.  1.
</event>
<event>
 5   0  0.5940748E-06  0.2643701E+04  0.7818609E-02  0.8353507E-01
       -2   -1    0    0    0  501  0.00000000000E+00  0.00000000000E+00  0.16521091191E+04  0.16521091191E+04  0.25500000920E-02 0.  1.
        2   -1    0    0  501    0  0.00000000000E+00  0.00000000000E+00 -0.10576107431E+04  0.10576107431E+04  0.25500000920E-02 0. -1.
    10030    2    1    2    0    0  0.00000000000E+00  0.00000000000E+00  0.59449837602E+03  0.27097198622E+04  0.26437007040E+04 0.  0.
        1    1    3    3  502    0  0.59577482269E+03  0.11748399537E+04  0.40995791153E+03  0.13795876360E+04  0.50400001928E-02 0.  1.
       -1    1    3    3    0  502 -0.59577482269E+03 -0.11748399537E+04  0.18454046449E+03  0.13301322262E+04  0.50400001928E-02 0. -1.
</event>
<event>
 5   0  0.6173140E-06  0.2600139E+04  0.7818609E-02  0.8368154E-01
       -2   -1    0    0    0  501  0.00000000000E+00  0.00000000000E+00  0.83418126408E+03  0.83418126409E+03  0.25500000920E-02 0. -1.
        2   -1    0    0  501    0  0.00000000000E+00  0.00000000000E+00 -0.20261553178E+04  0.20261553178E+04  0.25500000920E-02 0.  1.
    10030    2    1    2    0    0  0.00000000000E+00  0.00000000000E+00 -0.11919740537E+04  0.28603365819E+04  0.26001390764E+04 0.  0.
        3    1    3    3  502    0 -0.14950013313E+02  0.67064340066E+03  0.62909593936E+03  0.91964546694E+03  0.10100000352E+00 0. -1.
       -3    1    3    3    0  502  0.14950013313E+02 -0.67064340066E+03 -0.18210699931E+04  0.19406911149E+04  0.10100000352E+00 0.  1.
</event>
<event>
 5   0  0.2440590E-06  0.2610106E+04  0.7818609E-02  0.8364777E-01
        1   -1    0    0  501    0  0.00000000000E+00  0.00000000000E+00  0.15786369473E+04  0.15786369473E+04  0.50400001928E-02 0.  1.
       -1   -1    0    0    0  501  0.00000000000E+00  0.00000000000E+00 -0.10788821791E+04  0.10788821791E+04  0.50400001928E-02 0. -1.
    10030    2    1    2    0    0  0.00000000000E+00  0.00000000000E+00  0.49975476814E+03  0.26575191264E+04  0.26101059517E+04 0.  0.
        1    1    3    3  502    0 -0.34874341924E+03 -0.12493804474E+04  0.39597538427E+03  0.13562337482E+04  0.50400001928E-02 0. -1.
       -1    1    3    3    0  502  0.34874341924E+03  0.12493804474E+04  0.10377938386E+03  0.13012853782E+04  0.50400001928E-02 0.  1.
</event>
<event>
 5   0  0.6158063E-06  0.2606510E+04  0.7818609E-02  0.8365993E-01
       -2   -1    0    0    0  501  0.00000000000E+00  0.00000000000E+00  0.89420518424E+03  0.89420518425E+03  0.25500000920E-02 0.  1.
        2   -1    0    0  501    0  0.00000000000E+00  0.00000000000E+00 -0.18994229869E+04  0.18994229869E+04  0.25500000920E-02 0. -1.
    10030    2    1    2    0    0  0.00000000000E+00  0.00000000000E+00 -0.10052178026E+04  0.27936281711E+04  0.26065102202E+04 0.  0.
        2    1    3    3  502    0 -0.68762910633E+03 -0.90466464212E+03  0.18134176129E+03  0.11507114047E+04  0.25500000920E-02 0.  1.
       -2    1    3    3    0  502  0.68762910633E+03  0.90466464212E+03 -0.11865595639E+04  0.16429167664E+04  0.25500000920E-02 0. -1.
</event>
<event>
 5   0  0.2503292E-06  0.2527314E+04  0.7818609E-02  0.8393319E-01
        1   -1    0    0  501    0  0.00000000000E+00  0.00000000000E+00  0.22115389794E+04  0.22115389794E+04  0.50400001928E-02 0.  1.
       -1   -1    0    0    0  501  0.00000000000E+00  0.00000000000E+00 -0.72204429090E+03  0.72204429091E+03  0.50400001928E-02 0. -1.
    10030    2    1    2    0    0  0.00000000000E+00  0.00000000000E+00  0.14894946885E+04  0.29335832703E+04  0.25273140638E+04 0.  0.
        2    1    3    3  502    0 -0.92638813517E+03  0.39248519907E+03 -0.14274518546E+03  0.10161770498E+04  0.25500000920E-02 0. -1.
       -2    1    3    3    0  502  0.92638813517E+03 -0.39248519907E+03  0.16322398740E+04  0.19174062206E+04  0.25500000920E-02 0.  1.
</event>
<event>
 5   0  0.6158063E-06  0.2605506E+04  0.7818609E-02  0.8366333E-01
        2   -1    0    0  501    0  0.00000000000E+00  0.00000000000E+00  0.21329947940E+04  0.21329947940E+04  0.25500000920E-02 0.  1.
       -2   -1    0    0    0  501  0.00000000000E+00  0.00000000000E+00 -0.79567263489E+03  0.79567263489E+03  0.25500000920E-02 0. -1.
    10030    2    1    2    0    0  0.00000000000E+00  0.00000000000E+00  0.13373221591E+04  0.29286674289E+04  0.26055061604E+04 0.  0.
        2    1    3    3  502    0 -0.21094240347E+03  0.12739137857E+04  0.47458251738E+03  0.13757113058E+04  0.25500000920E-02 0. -1.
       -2    1    3    3    0  502  0.21094240347E+03 -0.12739137857E+04  0.86273964174E+03  0.15529561231E+04  0.25500000920E-02 0.  1.
</event>
<event>
 5   0  0.5942229E-06  0.2477938E+04  0.7818609E-02  0.8410888E-01
       -2   -1    0    0    0  501  0.00000000000E+00  0.00000000000E+00  0.58280187486E+03  0.58280187486E+03  0.25500000920E-02 0. -1.
        2   -1    0    0  501    0  0.00000000000E+00  0.00000000000E+00 -0.26339038469E+04  0.26339038469E+04  0.25500000920E-02 0.  1.
    10030    2    1    2    0    0  0.00000000000E+00  0.00000000000E+00 -0.20511019720E+04  0.32167057218E+04  0.24779379332E+04 0.  0.
        4    1    3    3  502    0 -0.74564361562E+03 -0.72620952275E+03 -0.15311155194E+03  0.10520501094E+04  0.12699999809E+01 0. -1.
       -4    1    3    3    0  502  0.74564361562E+03  0.72620952275E+03 -0.18979904201E+04  0.21646556124E+04  0.12699999809E+01 0.  1.
</event>
<event>
 5   0  0.2440590E-06  0.2619201E+04  0.7818609E-02  0.8361708E-01
        1   -1    0    0  501    0  0.00000000000E+00  0.00000000000E+00  0.15378091307E+04  0.15378091308E+04  0.50400001928E-02 0. -1.
       -1   -1    0    0    0  501  0.00000000000E+00  0.00000000000E+00 -0.11152576460E+04  0.11152576460E+04  0.50400001928E-02 0.  1.
    10030    2    1    2    0    0  0.00000000000E+00  0.00000000000E+00  0.42255148477E+03  0.26530667767E+04  0.26192009401E+04 0.  0.
        1    1    3    3  502    0 -0.83612021026E+03  0.22995925194E+03 -0.78277704321E+03  0.11682115232E+04  0.50400001928E-02 0.  1.
       -1    1    3    3    0  502  0.83612021026E+03 -0.22995925194E+03  0.12053285280E+04  0.14848552535E+04  0.50400001928E-02 0. -1.
</event>
<event>
 5   0  0.2333979E-06  0.2578776E+04  0.7818609E-02  0.8375447E-01
        1   -1    0    0  501    0  0.00000000000E+00  0.00000000000E+00  0.21956321473E+04  0.21956321473E+04  0.50400001928E-02 0.  1.
       -1   -1    0    0    0  501  0.00000000000E+00  0.00000000000E+00 -0.75719474118E+03  0.75719474120E+03  0.50400001928E-02 0. -1.
    10030    2    1    2    0    0  0.00000000000E+00  0.00000000000E+00  0.14384374061E+04  0.29528268885E+04  0.25787757681E+04 0.  0.
        3    1    3    3  502    0 -0.11300956718E+04 -0.46588435082E+03  0.11890474040E+04  0.17052853705E+04  0.10100000352E+00 0. -1.
       -3    1    3    3    0  502  0.11300956718E+04  0.46588435082E+03  0.24939000212E+03  0.12475415180E+04  0.10100000352E+00 0.  1.
</event>
<event>
 5   0  0.6173140E-06  0.2597337E+04  0.7818609E-02  0.8369106E-01
        2   -1    0    0  501    0  0.00000000000E+00  0.00000000000E+00  0.15280187235E+04  0.15280187235E+04  0.25500000920E-02 0. -1.
       -2   -1    0    0    0  501  0.00000000000E+00  0.00000000000E+00 -0.11037430410E+04  0.11037430410E+04  0.25500000920E-02 0.  1.
    10030    2    1    2    0    0  0.00000000000E+00  0.00000000000E+00  0.42427568249E+03  0.26317617646E+04  0.25973371230E+04 0.  0.
        3    1    3    3  502    0 -0.79813942102E+02  0.12913902503E+04  0.98938846700E+02  0.12976316694E+04  0.10100000352E+00 0.  1.
       -3    1    3    3    0  502  0.79813942102E+02 -0.12913902503E+04  0.32533683579E+03  0.13341300952E+04  0.10100000352E+00 0. -1.
</event>
<event>
 5   0  0.2456600E-06  0.2575185E+04  0.7818609E-02  0.8376680E-01
       -1   -1    0    0    0  501  0.00000000000E+00  0.00000000000E+00  0.88950089346E+03  0.88950089348E+03  0.50400001928E-02 0.  1.
        1   -1    0    0  501    0  0.00000000000E+00  0.00000000000E+00 -0.18638473436E+04  0.18638473436E+04  0.50400001928E-02 0. -1.
    10030    2    1    2    0    0  0.00000000000E+00  0.00000000000E+00 -0.97434645013E+03  0.27533482371E+04  0.25751845584E+04 0.  0.
        5    1    3    3  502    0 -0.12497879167E+04 -0.22743481438E+03 -0.71189378718E+03  0.14561975435E+04  0.46999998093E+01 0. -1.
       -5    1    3    3    0  502  0.12497879167E+04  0.22743481438E+03 -0.26245266295E+03  0.12971506936E+04  0.46999998093E+01 0.  1.
</event>
<event>
 5   0  0.2471488E-06  0.2599633E+04  0.7818609E-02  0.8368326E-01
        1   -1    0    0  501    0  0.00000000000E+00  0.00000000000E+00  0.10987077853E+04  0.10987077853E+04  0.50400001928E-02 0. -1.
       -1   -1    0    0    0  501  0.00000000000E+00  0.00000000000E+00 -0.15377369339E+04  0.15377369339E+04  0.50400001928E-02 0.  1.
    10030    2    1    2    0    0  0.00000000000E+00  0.00000000000E+00 -0.43902914860E+03  0.26364447191E+04  0.25996334672E+04 0.  0.
        4    1    3    3  502    0 -0.81627879810E+03 -0.51427590457E+03  0.66387141344E+03  0.11711181190E+04  0.12699999809E+01 0. -1.
       -4    1    3    3    0  502  0.81627879810E+03  0.51427590457E+03 -0.11029005620E+04  0.14653266001E+04  0.12699999809E+01 0.  1.
</event>
<event>
 5   0  0.5942229E-06  0.2530446E+04  0.7818609E-02  0.8392219E-01
        2   -1    0    0  501    0  0.00000000000E+00  0.00000000000E+00  0.82470974160E+03  0.82470974161E+03  0.25500000920E-02 0. -1.
       -2   -1    0    0    0  501  0.00000000000E+00  0.00000000000E+00 -0.19410335981E+04  0.19410335981E+04  0.25500000920E-02 0.  1.
    10030    2    1    2    0    0  0.00000000000E+00  0.00000000000E+00 -0.11163238565E+04  0.27657433397E+04  0.25304460612E+04 0.  0.
        4    1    3    3  502    0  0.37139876373E+03  0.76460834289E+03 -0.15824394113E+04  0.17962959285E+04  0.12699999809E+01 0.  1.
       -4    1    3    3    0  502 -0.37139876373E+03 -0.76460834289E+03  0.46611555476E+03  0.96944741116E+03  0.12699999809E+01 0. -1.
</event>
<event>
 5   0  0.5940748E-06  0.2593005E+04  0.7818609E-02  0.8370581E-01
       -2   -1    0    0    0  501  0.00000000000E+00  0.00000000000E+00  0.10232010810E+04  0.10232010810E+04  0.25500000920E-02 0.  1.
        2   -1    0    0  501    0  0.00000000000E+00  0.00000000000E+00 -0.16428033219E+04  0.16428033219E+04  0.25500000920E-02 0. -1.
    10030    2    1    2    0    0  0.00000000000E+00  0.00000000000E+00 -0.61960224092E+03  0.26660044029E+04  0.25930045390E+04 0.  0.
        1    1    3    3  502    0  0.77163047955E+03 -0.39737896684E+03  0.68043021775E+03  0.11028639633E+04  0.50400001928E-02 0.  1.
       -1    1    3    3    0  502 -0.77163047955E+03  0.39737896684E+03 -0.13000324587E+04  0.15631404396E+04  0.50400001928E-02 0. -1.
</event>
<event>
 5   0  0.2503292E-06  0.2588154E+04  0.7818609E-02  0.8372236E-01
        1   -1    0    0  501    0  0.00000000000E+00  0.00000000000E+00  0.14729983173E+04  0.14729983173E+04  0.50400001928E-02 0. -1.
       -1   -1    0    0    0  501  0.00000000000E+00  0.00000000000E+00 -0.11368891013E+04  0.11368891013E+04  0.50400001928E-02 0.  1.
    10030    2    1    2    0    0  0.00000000000E+00  0.00000000000E+00  0.33610921593E+03  0.26098874186E+04  0.25881543487E+04 0.  0.
        2    1    3    3  502    0 -0.10523776504E+04  0.58019717368E+03  0.65219892846E+03  0.13672932830E+04  0.25500000920E-02 0. -1.
       -2    1    3    3    0  502  0.10523776504E+04 -0.58019717368E+03 -0.31608971252E+03  0.12425941356E+04  0.25500000920E-02 0.  1.
</event>
<event>
 5   0  0.6158063E-06  0.2593888E+04  0.7818609E-02  0.8370280E-01
        2   -1    0    0  501    0  0.00000000000E+00  0.00000000000E+00  0.19692609289E+04  0.19692609289E+04  0.25500000920E-02 0.  1.
       -2   -1    0    0    0  501  0.00000000000E+00  0.00000000000E+00 -0.85415993332E+03  0.85415993332E+03  0.25500000920E-02 0. -1.
    10030    2    1    2    0    0  0.00000000000E+00  0.00000000000E+00  0.11151009956E+04  0.28234208622E+04  0.25938880344E+04 0.  0.
        2    1    3    3  502    0 -0.19672583808E+03 -0.44114783405E+03  0.18677013856E+04  0.19291503137E+04  0.25500000920E-02 0.  1.
       -2    1    3    3    0  502  0.19672583808E+03  0.44114783405E+03 -0.75260039006E+03  0.89427054854E+03  0.25500000920E-02 0. -1.
</event>
<event>
 5   0  0.5940748E-06  0.2591251E+04  0.7818609E-02  0.8371179E-01
        2   -1    0    0  501    0  0.00000000000E+00  0.00000000000E+00  0.11223818503E+04  0.11223818503E+04  0.25500000920E-02 0. -1.
       -2   -1    0    0    0  501  0.00000000000E+00  0.00000000000E+00 -0.14956100978E+04  0.14956100978E+04  0.25500000920E-02 0.  1.
    10030    2    1    2    0    0  0.00000000000E+00  0.00000000000E+00 -0.37322824752E+03  0.26179919481E+04  0.25912511486E+04 0.  0.
        1    1    3    3  502    0 -0.67300345123E+03 -0.67785676027E+03 -0.10709885249E+04  0.14350748598E+04  0.50400001928E-02 0.  1.
       -1    1    3    3    0  502  0.67300345123E+03  0.67785676027E+03  0.69776027741E+03  0.11829170882E+04  0.50400001928E-02 0. -1.
</event>
<event>
 5   0  0.6173140E-06  0.2631938E+04  0.7818609E-02  0.8357433E-01
       -2   -1    0    0    0  501  0.00000000000E+00  0.00000000000E+00  0.95663071446E+03  0.95663071447E+03  0.25500000920E-02 0. -1.
        2   -1    0    0  501    0  0.00000000000E+00  0.00000000000E+00 -0.18102852653E+04  0.18102852653E+04  0.25500000920E-02 0.  1.
    10030    2    1    2    0    0  0.00000000000E+00  0.00000000000E+00 -0.85365455086E+03  0.27669159798E+04  0.26319380591E+04 0.  0.
        3    1    3    3  502    0  0.64311968759E+03  0.42861896822E+03  0.69290549594E+03  0.10379957558E+04  0.10100000352E+00 0. -1.
       -3    1    3    3    0  502 -0.64311968759E+03 -0.42861896822E+03 -0.15465600468E+04  0.17289202240E+04  0.10100000352E+00 0.  1.
</event>
<event>
 5   0  0.6158063E-06  0.2574899E+04  0.7818609E-02  0.8376778E-01
       -2   -1    0    0    0  501  0.00000000000E+00  0.00000000000E+00  0.89957684097E+03  0.89957684097E+03  0.25500000920E-02 0. -1.
        2   -1    0    0  501    0  0.00000000000E+00  0.00000000000E+00 -0.18425624355E+04  0.18425624355E+04  0.25500000920E-02 0.  1.
    10030    2    1    2    0    0  0.00000000000E+00  0.00000000000E+00 -0.94298559453E+03  0.27421392765E+04  0.25748992175E+04 0.  0.
        2    1    3    3  502    0 -0.10861024008E+04  0.65260388937E+03 -0.71437669565E+03  0.14545942131E+04  0.25500000920E-02 0.  1.
       -2    1    3    3    0  502  0.10861024008E+04 -0.65260388937E+03 -0.22860889887E+03  0.12875450634E+04  0.25500000920E-02 0. -1.
</event>
<event>
 5   0  0.2456600E-06  0.2526945E+04  0.7818609E-02  0.8393449E-01
       -1   -1    0    0    0  501  0.00000000000E+00  0.00000000000E+00  0.65084866531E+03  0.65084866533E+03  0.50400001928E-02 0. -1.
        1   -1    0    0  501    0  0.00000000000E+00  0.00000000000E+00 -0.24527400916E+04  0.24527400916E+04  0.50400001928E-02 0.  1.
    10030    2    1    2    0    0  0.00000000000E+00  0.00000000000E+00 -0.18018914263E+04  0.31035887570E+04  0.25269448866E+04 0.  0.
        5    1    3    3  502    0  0.61179891969E+03 -0.22010155619E+03 -0.22314861077E+04  0.23242837503E+04  0.46999998093E+01 0.  1.
       -5    1    3    3    0  502 -0.61179891969E+03  0.22010155619E+03  0.42959468135E+03  0.77930500667E+03  0.46999998093E+01 0. -1.
</event>
<event>
 5   0  0.5942229E-06  0.2595432E+04  0.7818609E-02  0.8369754E-01
        2   -1    0    0  501    0  0.00000000000E+00  0.00000000000E+00  0.25853283606E+04  0.25853283606E+04  0.25500000920E-02 0.  1.
       -2   -1    0    0    0  501  0.00000000000E+00  0.00000000000E+00 -0.65139392064E+03  0.65139392064E+03  0.25500000920E-02 0. -1.
    10030    2    1    2    0    0  0.00000000000E+00  0.00000000000E+00  0.19339344400E+04  0.32367222813E+04  0.25954322777E+04 0.  0.
        4    1    3    3  502    0 -0.61936162372E+03 -0.28415661035E+03 -0.41031944419E+03  0.79543538978E+03  0.12699999809E+01 0. -1.
       -4    1    3    3    0  502  0.61936162372E+03  0.28415661035E+03  0.23442538842E+04  0.24412868915E+04  0.12699999809E+01 0.  1.
</event>
<event>
 5   0  0.2333979E-06  0.2586554E+04  0.7818609E-02  0.8372783E-01
        1   -1    0    0  501    0  0.00000000000E+00  0.00000000000E+00  0.19079616046E+04  0.19079616046E+04  0.50400001928E-02 0.  1.
       -1   -1    0    0    0  501  0.00000000000E+00  0.00000000000E+00 -0.87662413467E+03  0.87662413468E+03  0.50400001928E-02 0. -1.
    10030    2    1    2    0    0  0.00000000000E+00  0.00000000000E+00  0.10313374699E+04  0.27845857393E+04  0.25865538391E+04 0.  0.
        3    1    3    3  502    0  0.73814640727E+03  0.65325392296E+03  0.14170054146E+04  0.17261243181E+04  0.10100000352E+00 0.  1.
       -3    1    3    3    0  502 -0.73814640727E+03 -0.65325392296E+03 -0.38566794463E+03  0.10584614212E+04  0.10100000352E+00 0. -1.
</event>
<event>
 5   0  0.2440590E-06  0.2603385E+04  0.7818609E-02  0.8367052E-01
        1   -1    0    0  501    0  0.00000000000E+00  0.00000000000E+00  0.12776275381E+04  0.12776275381E+04  0.50400001928E-02 0. -1.
       -1   -1    0    0    0  501  0.00000000000E+00  0.00000000000E+00 -0.13262108546E+04  0.13262108546E+04  0.50400001928E-02 0.  1.
    10030    2    1    2    0    0  0.00000000000E+00  0.00000000000E+00 -0.48583316530E+02  0.26038383927E+04  0.26033851110E+04 0.  0.
        1    1    3    3  502    0  0.12259239696E+04  0.38248578474E+03  0.18839191380E+03  0.12979508727E+04  0.50400001928E-02 0. -1.
       -1    1    3    3    0  502 -0.12259239696E+04 -0.38248578474E+03 -0.23697523033E+03  0.13058875199E+04  0.50400001928E-02 0.  1.
</event>
<event>
 5   0  0.6173140E-06  0.2595030E+04  0.7818609E-02  0.8369891E-01
        2   -1    0    0  501    0  0.00000000000E+00  0.00000000000E+00  0.14922757232E+04  0.14922757232E+04  0.25500000920E-02 0. -1.
       -2   -1    0    0    0  501  0.00000000000E+00  0.00000000000E+00 -0.11281730276E+04  0.11281730276E+04  0.25500000920E-02 0.  1.
    10030    2    1    2    0    0  0.00000000000E+00  0.00000000000E+00  0.36410269565E+03  0.26204487508E+04  0.25950300350E+04 0.  0.
        3    1    3    3  502    0 -0.11492971769E+04 -0.43483439310E+03 -0.23865924707E+03  0.12517680283E+04  0.10100000352E+00 0.  1.
       -3    1    3    3    0  502  0.11492971769E+04  0.43483439310E+03  0.60276194271E+03  0.13686807225E+04  0.10100000352E+00 0. -1.
</event>
<event>
 5   0  0.2072125E-06  0.2598222E+04  0.7818609E-02  0.8368805E-01
        3   -1    0    0  501    0  0.00000000000E+00  0.00000000000E+00  0.15576330775E+04  0.15576330807E+04  0.10100000352E+00 0.  1.
       -3   -1    0    0    0  501  0.00000000000E+00  0.00000000000E+00 -0.10834960095E+04  0.10834960142E+04  0.10100000352E+00 0. -1.
    10030    2    1    2    0    0  0.00000000000E+00  0.00000000000E+00  0.47413706796E+03  0.26411290949E+04  0.25982218798E+04 0.  0.
        4    1    3    3  502    0 -0.72435608895E+03  0.47420549438E+03  0.12216320869E+04  0.14973139828E+04  0.12699999809E+01 0.  1.
       -4    1    3    3    0  502  0.72435608895E+03 -0.47420549438E+03 -0.74749501893E+03  0.11438151121E+04  0.12699999809E+01 0. -1.
</event>
<event>
 5   0  0.2333979E-06  0.2570397E+04  0.7818609E-02  0.8378327E-01
       -1   -1    0    0    0  501  0.00000000000E+00  0.00000000000E+00  0.80456509825E+03  0.80456509827E+03  0.50400001928E-02 0. -1.
        1   -1    0    0  501    0  0.00000000000E+00  0.00000000000E+00 -0.20529543720E+04  0.20529543720E+04  0.50400001928E-02 0.  1.
    10030    2    1    2    0    0  0.00000000000E+00  0.00000000000E+00 -0.12483892738E+04  0.28575194703E+04  0.25703971958E+04 0.  0.
        3    1    3    3  502    0 -0.38539210498E+03  0.45544751403E+03  0.64128135658E+03  0.87590028034E+03  0.10100000352E+00 0. -1.
       -3    1    3    3    0  502  0.38539210498E+03 -0.45544751403E+03 -0.18896706303E+04  0.19816191900E+04  0.10100000352E+00 0.  1.
</event>
<event>
 5   0  0.2471488E-06  0.2599687E+04  0.7818609E-02  0.8368307E-01
       -1   -1    0    0    0  501  0.00000000000E+00  0.00000000000E+00  0.14008932736E+04  0.14008932736E+04  0.50400001928E-02 0. -1.
        1   -1    0    0  501    0  0.00000000000E+00  0.00000000000E+00 -0.12060827726E+04  0.12060827726E+04  0.50400001928E-02 0.  1.
    10030    2    1    2    0    0  0.00000000000E+00  0.00000000000E+00  0.19481050099E+03  0.26069760462E+04  0.25996870916E+04 0.  0.
        4    1    3    3  502    0  0.12946488635E+04 -0.96099920932E+02  0.16270892454E+03  0.13083679458E+04  0.12699999809E+01 0. -1.
       -4    1    3    3    0  502 -0.12946488635E+04  0.96099920932E+02  0.32101576449E+02  0.12986081005E+04  0.12699999809E+01 0.  1.
</event>
<event>
 5   0  0.2456600E-06  0.2591325E+04  0.7818609E-02  0.8371154E-01
       -1   -1    0    0    0  501  0.00000000000E+00  0.00000000000E+00  0.10116138395E+04  0.10116138396E+04  0.50400001928E-02 0.  1.
        1   -1    0    0  501    0  0.00000000000E+00  0.00000000000E+00 -0.16594690804E+04  0.16594690804E+04  0.50400001928E-02 0. -1.
    10030    2    1    2    0    0  0.00000000000E+00  0.00000000000E+00 -0.64785524082E+03  0.26710829199E+04  0.25913254431E+04 0.  0.
        5    1    3    3  502    0 -0.74407414545E+03  0.43454336439E+03  0.67345153924E+03  0.10936330898E+04  0.46999998093E+01 0.  1.
       -5    1    3    3    0  502  0.74407414545E+03 -0.43454336439E+03 -0.13213067801E+04  0.15774498301E+04  0.46999998093E+01 0. -1.
</event>
<event>
 5   0  0.2471488E-06  0.2619286E+04  0.7818609E-02  0.8361679E-01
        1   -1    0    0  501    0  0.00000000000E+00  0.00000000000E+00  0.11230313078E+04  0.11230313078E+04  0.50400001928E-02 0. -1.
       -1   -1    0    0    0  501  0.00000000000E+00  0.00000000000E+00 -0.15272641340E+04  0.15272641340E+04  0.50400001928E-02 0.  1.
    10030    2    1    2    0    0  0.00000000000E+00  0.00000000000E+00 -0.40423282619E+03  0.26502954419E+04  0.26192864966E+04 0.  0.
        4    1    3    3  502    0 -0.19498693154E+03 -0.21265940041E+03  0.10904733286E+04  0.11279971708E+04  0.12699999809E+01 0. -1.
       -4    1    3    3    0  502  0.19498693154E+03  0.21265940041E+03 -0.14947061548E+04  0.15222982711E+04  0.12699999809E+01 0.  1.
</event>
<event>
 5   0  0.5940748E-06  0.2595674E+04  0.7818609E-02  0.8369672E-01
        2   -1    0    0  501    0  0.00000000000E+00  0.00000000000E+00  0.11432352756E+04  0.11432352756E+04  0.25500000920E-02 0.  1.
       -2   -1    0    0    0  501  0.00000000000E+00  0.00000000000E+00 -0.14733459385E+04  0.14733459385E+04  0.25500000920E-02 0. -1.
    10030    2    1    2    0    0  0.00000000000E+00  0.00000000000E+00 -0.33011066284E+03  0.26165812141E+04  0.25956741321E+04 0.  0.
        1    1    3    3  502    0  0.39502526169E+03 -0.37717914450E+03  0.10217430434E+04  0.11585628646E+04  0.50400001928E-02 0.  1.
       -1    1    3    3    0  502 -0.39502526169E+03  0.37717914450E+03 -0.13518537062E+04  0.14580183495E+04  0.50400001928E-02 0. -1.
</event>
<event>
 5   0  0.2440590E-06  0.2596513E+04  0.7818609E-02  0.8369387E-01
       -1   -1    0    0    0  501  0.00000000000E+00  0.00000000000E+00  0.24473337594E+04  0.24473337594E+04  0.50400001928E-02 0.  1.
        1   -1    0    0  501    0  0.00000000000E+00  0.00000000000E+00 -0.68869629420E+03  0.68869629422E+03  0.50400001928E-02 0. -1.
    10030    2    1    2    0    0  0.00000000000E+00  0.00000000000E+00  0.17586374652E+04  0.31360300536E+04  0.25965128082E+04 0.  0.
        1    1    3    3  502    0  0.75794518295E+03 -0.10391039312E+04  0.10928332150E+04  0.16877506676E+04  0.50400001928E-02 0.  1.
       -1    1    3    3    0  502 -0.75794518295E+03  0.10391039312E+04  0.66580425018E+03  0.14482793860E+04  0.50400001928E-02 0. -1.
</event>
<event>
 5   0  0.6173140E-06  0.2600887E+04  0.7818609E-02  0.8367900E-01
        2   -1    0    0  501    0  0.00000000000E+00  0.00000000000E+00  0.19338195075E+04  0.19338195075E+04  0.25500000920E-02 0. -1.
       -2   -1    0    0    0  501  0.00000000000E+00  0.00000000000E+00 -0.87451423612E+03  0.87451423612E+03  0.25500000920E-02 0.  1.
    10030    2    1    2    0    0  0.00000000000E+00  0.00000000000E+00  0.10593052714E+04  0.28083337436E+04  0.26008865330E+04 0.  0.
        3    1    3    3  502    0 -0.11657503981E+04 -0.10347976325E+03  0.11418591706E+04  0.16350915656E+04  0.10100000352E+00 0. -1.
       -3    1    3    3    0  502  0.11657503981E+04  0.10347976325E+03 -0.82553899236E+02  0.11732421781E+04  0.10100000352E+00 0.  1.
</event>
<event>
 5   0  0.5942229E-06  0.2603669E+04  0.7818609E-02  0.8366956E-01
        2   -1    0    0  501    0  0.00000000000E+00  0.00000000000E+00  0.13565178808E+04  0.13565178808E+04  0.25500000920E-02 0. -1.
       -2   -1    0    0    0  501  0.00000000000E+00  0.00000000000E+00 -0.12493558419E+04  0.12493558419E+04  0.25500000920E-02 0.  1.
    10030    2    1    2    0    0  0.00000000000E+00  0.00000000000E+00  0.10716203893E+03  0.26058737226E+04  0.26036693638E+04 0.  0.
        4    1    3    3  502    0  0.39147592901E+03  0.56847327101E+03 -0.10511454374E+04  0.12575069011E+04  0.12699999809E+01 0.  1.
       -4    1    3    3    0  502 -0.39147592901E+03 -0.56847327101E+03  0.11583074763E+04  0.13483668215E+04  0.12699999809E+01 0. -1.
</event>
<event>
 5   0  0.2471488E-06  0.2597889E+04  0.7818609E-02  0.8368919E-01
       -1   -1    0    0    0  501  0.00000000000E+00  0.00000000000E+00  0.16019499638E+04  0.16019499638E+04  0.50400001928E-02 0.  1.
        1   -1    0    0  501    0  0.00000000000E+00  0.00000000000E+00 -0.10532519663E+04  0.10532519663E+04  0.50400001928E-02 0. -1.
    10030    2    1    2    0    0  0.00000000000E+00  0.00000000000E+00  0.54869799755E+03  0.26552019301E+04  0.25978891041E+04 0.  0.
        4    1    3    3  502    0 -0.10931334079E+04 -0.69557645641E+03  0.18018568447E+03  0.13081420977E+04  0.12699999809E+01 0.  1.
       -4    1    3    3    0  502  0.10931334079E+04  0.69557645641E+03  0.36851231308E+03  0.13470598323E+04  0.12699999809E+01 0. -1.
</event>
<event>
 5   0  0.2440590E-06  0.2607940E+04  0.7818609E-02  0.8365509E-01
        1   -1    0    0  501    0  0.00000000000E+00  0.00000000000E+00  0.33331253307E+04  0.33331253307E+04  0.50400001928E-02 0.  1.
       -1   -1    0    0    0  501  0.00000000000E+00  0.00000000000E+00 -0.51013334392E+03  0.51013334395E+03  0.50400001928E-02 0. -1.
    10030    2    1    2    0    0  0.00000000000E+00  0.00000000000E+00  0.28229919868E+04  0.38432586747E+04  0.26079404677E+04 0.  0.
        1    1    3    3  502    0 -0.27067299017E+03 -0.11179639174E+04  0.50637688166E+03  0.12567914443E+04  0.50400001928E-02 0. -1.
       -1    1    3    3    0  502  0.27067299017E+03  0.11179639174E+04  0.23166151052E+04  0.25864672304E+04  0.50400001928E-02 0.  1.
</event>
<event>
 5   0  0.6158063E-06  0.2606596E+04  0.7818609E-02  0.8365964E-01
        2   -1    0    0  501    0  0.00000000000E+00  0.00000000000E+00  0.17147509138E+04  0.17147509138E+04  0.25500000920E-02 0.  1.
       -2   -1    0    0    0  501  0.00000000000E+00  0.00000000000E+00 -0.99057298951E+03  0.99057298951E+03  0.25500000920E-02 0. -1.
    10030    2    1    2    0    0  0.00000000000E+00  0.00000000000E+00  0.72417792427E+03  0.27053239033E+04  0.26065962011E+04 0.  0.
        2    1    3    3  502    0 -0.64733271273E+03  0.69375087723E+03  0.12893811747E+04  0.16008852971E+04  0.25500000920E-02 0.  1.
       -2    1    3    3    0  502  0.64733271273E+03 -0.69375087723E+03 -0.56520325044E+03  0.11044386062E+04  0.25500000920E-02 0. -1.
</event>
<event>
 5   0  0.6173140E-06  0.2686599E+04  0.7818609E-02  0.8339366E-01
       -2   -1    0    0    0  501  0.00000000000E+00  0.00000000000E+00  0.10195561336E+04  0.10195561336E+04  0.25500000920E-02 0. -1.
        2   -1    0    0  501    0  0.00000000000E+00  0.00000000000E+00 -0.17698427380E+04  0.17698427380E+04  0.25500000920E-02 0.  1.
    10030    2    1    2    0    0  0.00000000000E+00  0.00000000000E+00 -0.75028660448E+03  0.27893988716E+04  0.26865993516E+04 0.  0.
        3    1    3    3  502    0  0.26670526919E+03  0.13152389250E+04 -0.43629411799E+03  0.14111476528E+04  0.10100000352E+00 0.  1.
       -3    1    3    3    0  502 -0.26670526919E+03 -0.13152389250E+04 -0.31399248649E+03  0.13782512188E+04  0.10100000352E+00 0. -1.
</event>
<event>
 5   0  0.2471488E-06  0.2599558E+04  0.7818609E-02  0.8368351E-01
        1   -1    0    0  501    0  0.00000000000E+00  0.00000000000E+00  0.13783297569E+04  0.13783297570E+04  0.50400001928E-02 0. -1.
       -1   -1    0    0    0  501  0.00000000000E+00  0.00000000000E+00 -0.12257044660E+04  0.12257044660E+04  0.50400001928E-02 0.  1.
    10030    2    1    2    0    0  0.00000000000E+00  0.00000000000E+00  0.15262529099E+03  0.26040342229E+04  0.25995576075E+04 0.  0.
        4    1    3    3  502    0 -0.93142147322E+03 -0.60515241567E+03 -0.59988159623E+03  0.12623846281E+04  0.12699999809E+01 0.  1.
       -4    1    3    3    0  502  0.93142147322E+03  0.60515241567E+03  0.75250688722E+03  0.13416495948E+04  0.12699999809E+01 0. -1.
</event>
<event>
 5   0  0.2503292E-06  0.2601621E+04  0.7818609E-02  0.8367651E-01
       -1   -1    0    0    0  501  0.00000000000E+00  0.00000000000E+00  0.12301511616E+04  0.12301511616E+04  0.50400001928E-02 0. -1.
        1   -1    0    0  501    0  0.00000000000E+00  0.00000000000E+00 -0.13755290034E+04  0.13755290034E+04  0.50400001928E-02 0.  1.
    10030    2    1    2    0    0  0.00000000000E+00  0.00000000000E+00 -0.14537784179E+03  0.26056801650E+04  0.26016214954E+04 0.  0.
        2    1    3    3  502    0  0.12841039239E+04  0.15700820229E+03  0.63663607804E+02  0.12952326115E+04  0.25500000920E-02 0. -1.
       -2    1    3    3    0  502 -0.12841039239E+04 -0.15700820229E+03 -0.20904144960E+03  0.13104475535E+04  0.25500000920E-02 0.  1.
</event>
<event>
 5   0  0.2440590E-06  0.2598321E+04  0.7818609E-02  0.8368772E-01
        1   -1    0    0  501    0  0.00000000000E+00  0.00000000000E+00  0.11372027188E+04  0.11372027188E+04  0.50400001928E-02 0. -1.
       -1   -1    0    0    0  501  0.00000000000E+00  0.00000000000E+00 -0.14841840565E+04  0.14841840565E+04  0.50400001928E-02 0.  1.
    10030    2    1    2    0    0  0.00000000000E+00  0.00000000000E+00 -0.34698133771E+03  0.26213867753E+04  0.25983211074E+04 0.  0.
        1    1    3    3  502    0  0.18064503058E+03 -0.26091435050E+03 -0.14444793705E+04  0.14789285234E+04  0.50400001928E-02 0.  1.
       -1    1    3    3    0  502 -0.18064503058E+03  0.26091435050E+03  0.10974980328E+04  0.11424582519E+04  0.50400001928E-02 0. -1.
</event>
<event>
 5   0  0.6158063E-06  0.2554648E+04  0.7818609E-02  0.8383772E-01
        2   -1    0    0  501    0  0.00000000000E+00  0.00000000000E+00  0.24013663939E+04  0.24013663939E+04  0.25500000920E-02 0.  1.
       -2   -1    0    0    0  501  0.00000000000E+00  0.00000000000E+00 -0.67942819740E+03  0.67942819741E+03  0.25500000920E-02 0. -1.
    10030    2    1    2    0    0  0.00000000000E+00  0.00000000000E+00  0.17219381965E+04  0.30807945913E+04  0.25546475610E+04 0.  0.
        2    1    3    3  502    0  0.45739257672E+03 -0.11925093434E+04  0.88076798979E+03  0.15514634237E+04  0.25500000920E-02 0.  1.
       -2    1    3    3    0  502 -0.45739257672E+03  0.11925093434E+04  0.84117020667E+03  0.15293311675E+04  0.25500000920E-02 0. -1.
</event>
<event>
 5   0  0.2456600E-06  0.2584397E+04  0.7818609E-02  0.8373521E-01
        1   -1    0    0  501    0  0.00000000000E+00  0.00000000000E+00  0.27040115016E+04  0.27040115016E+04  0.50400001928E-02 0.  1.
       -1   -1    0    0    0  501  0.00000000000E+00  0.00000000000E+00 -0.61751832046E+03  0.61751832048E+03  0.50400001928E-02 0. -1.
    10030    2    1    2    0    0  0.00000000000E+00  0.00000000000E+00  0.20864931811E+04  0.33215298221E+04  0.25843967505E+04 0.  0.
        5    1    3    3  502    0 -0.27962187885E+03  0.84821278911E+03  0.22434708948E+04  0.24147126281E+04  0.46999998093E+01 0.  1.
       -5    1    3    3    0  502  0.27962187885E+03 -0.84821278911E+03 -0.15697771362E+03  0.90681719398E+03  0.46999998093E+01 0. -1.
</event>
<event>
 5   0  0.2333979E-06  0.2593966E+04  0.7818609E-02  0.8370254E-01
        1   -1    0    0  501    0  0.00000000000E+00  0.00000000000E+00  0.12973890456E+04  0.12973890456E+04  0.50400001928E-02 0.  1.
       -1   -1    0    0    0  501  0.00000000000E+00  0.00000000000E+00 -0.12965768944E+04  0.12965768945E+04  0.50400001928E-02 0. -1.
    10030    2    1    2    0    0  0.00000000000E+00  0.00000000000E+00  0.81215117509E+00  0.25939659401E+04  0.25939658129E+04 0.  0.
        3    1    3    3  502    0 -0.88201697214E+03  0.52995264990E+03 -0.78912603921E+03  0.12967357735E+04  0.10100000352E+00 0. -1.
       -3    1    3    3    0  502  0.88201697214E+03 -0.52995264990E+03  0.78993819039E+03  0.12972301666E+04  0.10100000352E+00 0.  1.
</event>
<event>
 5   0  0.6173140E-06  0.2600807E+04  0.7818609E-02  0.8367927E-01
       -2   -1    0    0    0  501  0.00000000000E+00  0.00000000000E+00  0.11710873685E+04  0.11710873685E+04  0.25500000920E-02 0.  1.
        2   -1    0    0  501    0  0.00000000000E+00  0.00000000000E+00 -0.14439992218E+04  0.14439992218E+04  0.25500000920E-02 0. -1.
    10030    2    1    2    0    0  0.00000000000E+00  0.00000000000E+00 -0.27291185329E+03  0.26150865903E+04  0.26008069892E+04 0.  0.
        3    1    3    3  502    0  0.53760031827E+02 -0.76634385622E+03  0.91853127195E+03  0.11974442596E+04  0.10100000352E+00 0.  1.
       -3    1    3    3    0  502 -0.53760031827E+02  0.76634385622E+03 -0.11914431252E+04  0.14176423307E+04  0.10100000352E+00 0. -1.
</event>
<event>
 5   0  0.6173140E-06  0.2608138E+04  0.7818609E-02  0.8365442E-01
        2   -1    0    0  501    0  0.00000000000E+00  0.00000000000E+00  0.98174404106E+03  0.98174404107E+03  0.25500000920E-02 0. -1.
       -2   -1    0    0    0  501  0.00000000000E+00  0.00000000000E+00 -0.17322199339E+04  0.17322199339E+04  0.25500000920E-02 0.  1.
    10030    2    1    2    0    0  0.00000000000E+00  0.00000000000E+00 -0.75047589287E+03  0.27139639750E+04  0.26081384917E+04 0.  0.
        3    1    3    3  502    0  0.44806059035E+03 -0.12244337225E+04 -0.34974164169E+03  0.13499316500E+04  0.10100000352E+00 0. -1.
       -3    1    3    3    0  502 -0.44806059035E+03  0.12244337225E+04 -0.40073425118E+03  0.13640323250E+04  0.10100000352E+00 0.  1.
</event>
<event>
 5   0  0.2440590E-06  0.2605311E+04  0.7818609E-02  0.8366399E-01
       -1   -1    0    0    0  501  0.00000000000E+00  0.00000000000E+00  0.89479621286E+03  0.89479621287E+03  0.50400001928E-02 0.  1.
        1   -1    0    0  501    0  0.00000000000E+00  0.00000000000E+00 -0.18964222622E+04  0.18964222622E+04  0.50400001928E-02 0. -1.
    10030    2    1    2    0    0  0.00000000000E+00  0.00000000000E+00 -0.10016260493E+04  0.27912184751E+04  0.26053110818E+04 0.  0.
        1    1    3    3  502    0 -0.11670795263E+04  0.53251265464E+03 -0.25823376689E+03  0.13085599056E+04  0.50400001928E-02 0.  1.
       -1    1    3    3    0  502  0.11670795263E+04 -0.53251265464E+03 -0.74339228244E+03  0.14826585695E+04  0.50400001928E-02 0. -1.
</event>
<event>
 5   0  0.5940748E-06  0.2575136E+04  0.7818609E-02  0.8376696E-01
        2   -1    0    0  501    0  0.00000000000E+00  0.00000000000E+00  0.73539798520E+03  0.73539798521E+03  0.25500000920E-02 0. -1.
       -2   -1    0    0    0  501  0.00000000000E+00  0.00000000000E+00 -0.22543330192E+04  0.22543330192E+04  0.25500000920E-02 0.  1.
    10030    2    1    2    0    0  0.00000000000E+00  0.00000000000E+00 -0.15189350340E+04  0.29897310044E+04  0.25751364704E+04 0.  0.
        1    1    3    3  502    0  0.11455129275E+03 -0.12822599387E+04 -0.73300765750E+03  0.14814225511E+04  0.50400001928E-02 0.  1.
       -1    1    3    3    0  502 -0.11455129275E+03  0.12822599387E+04 -0.78592737648E+03  0.15083084533E+04  0.50400001928E-02 0. -1.
</event>
<event>
 5   0  0.2503292E-06  0.2612966E+04  0.7818609E-02  0.8363810E-01
       -1   -1    0    0    0  501  0.00000000000E+00  0.00000000000E+00  0.20710070315E+04  0.20710070315E+04  0.50400001928E-02 0.  1.
        1   -1    0    0  501    0  0.00000000000E+00  0.00000000000E+00 -0.82418745963E+03  0.82418745964E+03  0.50400001928E-02 0. -1.
    10030    2    1    2    0    0  0.00000000000E+00  0.00000000000E+00  0.12468195719E+04  0.28951944912E+04  0.26129661492E+04 0.  0.
        2    1    3    3  502    0 -0.76161029976E+02  0.11553807912E+04 -0.47090288775E+02  0.11588454472E+04  0.25500000920E-02 0. -1.
       -2    1    3    3    0  502  0.76161029976E+02 -0.11553807912E+04  0.12939098607E+04  0.17363490440E+04  0.25500000920E-02 0.  1.
</event>
<event>
 5   0  0.2440590E-06  0.2616635E+04  0.7818609E-02  0.8362572E-01
        1   -1    0    0  501    0  0.00000000000E+00  0.00000000000E+00  0.22724362610E+04  0.22724362610E+04  0.50400001928E-02 0. -1.
       -1   -1    0    0    0  501  0.00000000000E+00  0.00000000000E+00 -0.75324236361E+03  0.75324236363E+03  0.50400001928E-02 0.  1.
    10030    2    1    2    0    0  0.00000000000E+00  0.00000000000E+00  0.15191938974E+04  0.30256786246E+04  0.26166354430E+04 0.  0.
        1    1    3    3  502    0 -0.63908101663E+03 -0.22954004432E+03  0.20527075687E+04  0.21621104367E+04  0.50400001928E-02 0. -1.
       -1    1    3    3    0  502  0.63908101663E+03  0.22954004432E+03 -0.53351367131E+03  0.86356818796E+03  0.50400001928E-02 0.  1.
</event>
<event>
 5   0  0.2072125E-06  0.2605481E+04  0.7818609E-02  0.8366342E-01
       -4   -1    0    0    0  501  0.00000000000E+00  0.00000000000E+00  0.15881246402E+04  0.15881251480E+04  0.12699999809E+01 0.  1.
        4   -1    0    0  501    0  0.00000000000E+00  0.00000000000E+00 -0.10686382111E+04  0.10686389658E+04  0.12699999809E+01 0. -1.
    10030    2    1    2    0    0  0.00000000000E+00  0.00000000000E+00  0.51948642913E+03  0.26567641138E+04  0.26054806479E+04 0.  0.
        4    1    3    3  502    0 -0.11957319040E+04  0.22916222368E+03 -0.21288903392E+03  0.12359666115E+04  0.12699999809E+01 0. -1.
       -4    1    3    3    0  502  0.11957319040E+04 -0.22916222368E+03  0.73237546305E+03  0.14207975024E+04  0.12699999809E+01 0.  1.
</event>
<event>
 5   0  0.5940748E-06  0.2612911E+04  0.7818609E-02  0.8363829E-01
       -2   -1    0    0    0  501  0.00000000000E+00  0.00000000000E+00  0.85966991833E+03  0.85966991833E+03  0.25500000920E-02 0.  1.
        2   -1    0    0  501    0  0.00000000000E+00  0.00000000000E+00 -0.19854430369E+04  0.19854430369E+04  0.25500000920E-02 0. -1.
    10030    2    1    2    0    0  0.00000000000E+00  0.00000000000E+00 -0.11257731186E+04  0.28451129552E+04  0.26129107550E+04 0.  0.
        1    1    3    3  502    0  0.13874559189E+03  0.11140185490E+04  0.16473262597E+03  0.11346473042E+04  0.50400001928E-02 0.  1.
       -1    1    3    3    0  502 -0.13874559189E+03 -0.11140185490E+04 -0.12905057445E+04  0.17104656511E+04  0.50400001928E-02 0. -1.
</event>
<event>
 5   0  0.2471488E-06  0.2599420E+04  0.7818609E-02  0.8368398E-01
       -1   -1    0    0    0  501  0.00000000000E+00  0.00000000000E+00  0.10556772148E+04  0.10556772148E+04  0.50400001928E-02 0. -1.
        1   -1    0    0  501    0  0.00000000000E+00  0.00000000000E+00 -0.16001544410E+04  0.16001544410E+04  0.50400001928E-02 0.  1.
    10030    2    1    2    0    0  0.00000000000E+00  0.00000000000E+00 -0.54447722620E+03  0.26558316559E+04  0.25994203843E+04 0.  0.
        4    1    3    3  502    0 -0.13031766302E+03 -0.62590208720E+03  0.88391440116E+03  0.10908906442E+04  0.12699999809E+01 0. -1.
       -4    1    3    3    0  502  0.13031766302E+03  0.62590208720E+03 -0.14283916274E+04  0.15649410117E+04  0.12699999809E+01 0.  1.
</event>
<event>
 5   0  0.2503292E-06  0.2550373E+04  0.7818609E-02  0.8385256E-01
        1   -1    0    0  501    0  0.00000000000E+00  0.00000000000E+00  0.11743951462E+04  0.11743951462E+04  0.50400001928E-02 0. -1.
       -1   -1    0    0    0  501  0.00000000000E+00  0.00000000000E+00 -0.13846284300E+04  0.13846284300E+04  0.50400001928E-02 0.  1.
    10030    2    1    2    0    0  0.00000000000E+00  0.00000000000E+00 -0.21023328380E+03  0.25590235763E+04  0.25503732335E+04 0.  0.
        2    1    3    3  502    0  0.82224046249E+03 -0.61357818866E+02 -0.10811733262E+04  0.13596984671E+04  0.25500000920E-02 0.  1.
       -2    1    3    3    0  502 -0.82224046249E+03  0.61357818866E+02  0.87094004240E+03  0.11993251092E+04  0.25500000920E-02 0. -1.
</event>
<event>
 5   0  0.6158063E-06  0.2587171E+04  0.7818609E-02  0.8372572E-01
       -2   -1    0    0    0  501  0.00000000000E+00  0.00000000000E+00  0.16884866437E+04  0.16884866437E+04  0.25500000920E-02 0. -1.
        2   -1    0    0  501    0  0.00000000000E+00  0.00000000000E+00 -0.99104304588E+03  0.99104304588E+03  0.25500000920E-02 0.  1.
    10030    2    1    2    0    0  0.00000000000E+00  0.00000000000E+00  0.69744359781E+03  0.26795296896E+04  0.25871706138E+04 0.  0.
        2    1    3    3  502    0 -0.11966675738E+04 -0.38148729152E+03  0.66931553932E+03  0.14232108512E+04  0.25500000920E-02 0. -1.
       -2    1    3    3    0  502  0.11966675738E+04  0.38148729152E+03  0.28128058490E+02  0.12563188383E+04  0.25500000920E-02 0.  1.
</event>
<event>
 5   0  0.2333979E-06  0.2589925E+04  0.7818609E-02  0.8371632E-01
       -1   -1    0    0    0  501  0.00000000000E+00  0.00000000000E+00  0.10998533756E+04  0.10998533756E+04  0.50400001928E-02 0.  1.
        1   -1    0    0  501    0  0.00000000000E+00  0.00000000000E+00 -0.15246828419E+04  0.15246828419E+04  0.50400001928E-02 0. -1.
    10030    2    1    2    0    0  0.00000000000E+00  0.00000000000E+00 -0.42482946633E+03  0.26245362175E+04  0.25899247637E+04 0.  0.
        3    1    3    3  502    0 -0.69800663117E+03  0.10880693868E+04 -0.13511085883E+03  0.12997550547E+04  0.10100000352E+00 0. -1.
       -3    1    3    3    0  502  0.69800663117E+03 -0.10880693868E+04 -0.28971860750E+03  0.13247811629E+04  0.10100000352E+00 0.  1.
</event>
<event>
 5   0  0.6161834E-06  0.2611361E+04  0.7818609E-02  0.8364352E-01
        2   -1    0    0  501    0  0.00000000000E+00  0.00000000000E+00  0.23503335113E+04  0.23503335113E+04  0.25500000920E-02 0. -1.
       -2   -1    0    0    0  501  0.00000000000E+00  0.00000000000E+00 -0.72534481132E+03  0.72534481132E+03  0.25500000920E-02 0.  1.
    10030    2    1    2    0    0  0.00000000000E+00  0.00000000000E+00  0.16249887000E+04  0.30756783226E+04  0.26113614972E+04 0.  0.
        5    1    3    3  502    0 -0.57138881866E+03  0.11680451525E+03  0.21883878460E+04  0.22647719380E+04  0.46999998093E+01 0. -1.
       -5    1    3    3    0  502  0.57138881866E+03 -0.11680451525E+03 -0.56339914600E+03  0.81090638459E+03  0.46999998093E+01 0.  1.
</event>
<event>
 5   0  0.2333979E-06  0.2624747E+04  0.7818609E-02  0.8359843E-01
        1   -1    0    0  501    0  0.00000000000E+00  0.00000000000E+00  0.16028101363E+04  0.16028101363E+04  0.50400001928E-02 0. -1.
       -1   -1    0    0    0  501  0.00000000000E+00  0.00000000000E+00 -0.10745655691E+04  0.10745655691E+04  0.50400001928E-02 0.  1.
    10030    2    1    2    0    0  0.00000000000E+00  0.00000000000E+00  0.52824456729E+03  0.26773757054E+04  0.26247472917E+04 0.  0.
        3    1    3    3  502    0  0.25996260574E+03  0.21792492976E+03 -0.10290723985E+04  0.10835413434E+04  0.10100000352E+00 0.  1.
       -3    1    3    3    0  502 -0.25996260574E+03 -0.21792492976E+03  0.15573169658E+04  0.15938343620E+04  0.10100000352E+00 0. -1.
</event>
<event>
 5   0  0.6158063E-06  0.2599181E+04  0.7818609E-02  0.8368480E-01
       -2   -1    0    0    0  501  0.00000000000E+00  0.00000000000E+00  0.94111529676E+03  0.94111529676E+03  0.25500000920E-02 0.  1.
        2   -1    0    0  501    0  0.00000000000E+00  0.00000000000E+00 -0.17946099997E+04  0.17946099997E+04  0.25500000920E-02 0. -1.
    10030    2    1    2    0    0  0.00000000000E+00  0.00000000000E+00 -0.85349470291E+03  0.27357252964E+04  0.25991805804E+04 0.  0.
        2    1    3    3  502    0 -0.24878232045E+03  0.39432913828E+03 -0.17035479380E+04  0.17662003536E+04  0.25500000920E-02 0. -1.
       -2    1    3    3    0  502  0.24878232045E+03 -0.39432913828E+03  0.85005323505E+03  0.96952494279E+03  0.25500000920E-02 0.  1.
</event>
<event>
 5   0  0.6158063E-06  0.2595578E+04  0.7818609E-02  0.8369705E-01
       -2   -1    0    0    0  501  0.00000000000E+00  0.00000000000E+00  0.14641332065E+04  0.14641332065E+04  0.25500000920E-02 0. -1.
        2   -1    0    0  501    0  0.00000000000E+00  0.00000000000E+00 -0.11503437221E+04  0.11503437221E+04  0.25500000920E-02 0.  1.
    10030    2    1    2    0    0  0.00000000000E+00  0.00000000000E+00  0.31378948441E+03  0.26144769287E+04  0.25955781186E+04 0.  0.
        2    1    3    3  502    0 -0.91533702159E+03  0.88346146381E+03 -0.10170480106E+03  0.12762013508E+04  0.25500000920E-02 0.  1.
       -2    1    3    3    0  502  0.91533702159E+03 -0.88346146381E+03  0.41549428548E+03  0.13382755779E+04  0.25500000920E-02 0. -1.
</event>
<event>
 5   0  0.2440590E-06  0.2607342E+04  0.7818609E-02  0.8365712E-01
        1   -1    0    0  501    0  0.00000000000E+00  0.00000000000E+00  0.24097992530E+04  0.24097992530E+04  0.50400001928E-02 0.  1.
       -1   -1    0    0    0  501  0.00000000000E+00  0.00000000000E+00 -0.70526949768E+03  0.70526949769E+03  0.50400001928E-02 0. -1.
    10030    2    1    2    0    0  0.00000000000E+00  0.00000000000E+00  0.17045297553E+04  0.31150687507E+04  0.26073418715E+04 0.  0.
        1    1    3    3  502    0 -0.93974067849E+03 -0.24955150505E+03  0.18898031223E+04  0.21252633572E+04  0.50400001928E-02 0.  1.
       -1    1    3    3    0  502  0.93974067849E+03  0.24955150505E+03 -0.18527336695E+03  0.98980539350E+03  0.50400001928E-02 0. -1.
</event>
<event>
 5   0  0.6173140E-06  0.2592207E+04  0.7818609E-02  0.8370853E-01
       -2   -1    0    0    0  501  0.00000000000E+00  0.00000000000E+00  0.23879552958E+04  0.23879552958E+04  0.25500000920E-02 0. -1.
        2   -1    0    0  501    0  0.00000000000E+00  0.00000000000E+00 -0.70348255647E+03  0.70348255648E+03  0.25500000920E-02 0.  1.
    10030    2    1    2    0    0  0.00000000000E+00  0.00000000000E+00  0.16844727393E+04  0.30914378523E+04  0.25922074734E+04 0.  0.
        3    1    3    3  502    0  0.12926599201E+04  0.83616993352E+02  0.78993328261E+03  0.15172198495E+04  0.10100000352E+00 0. -1.
       -3    1    3    3    0  502 -0.12926599201E+04 -0.83616993352E+02  0.89453945673E+03  0.15742180028E+04  0.10100000352E+00 0.  1.
</event>
<event>
 5   0  0.6158063E-06  0.2584028E+04  0.7818609E-02  0.8373647E-01
        2   -1    0    0  501    0  0.00000000000E+00  0.00000000000E+00  0.22198084894E+04  0.22198084894E+04  0.25500000920E-02 0.  1.
       -2   -1    0    0    0  501  0.00000000000E+00  0.00000000000E+00 -0.75200197267E+03  0.75200197267E+03  0.25500000920E-02 0. -1.
    10030    2    1    2    0    0  0.00000000000E+00  0.00000000000E+00  0.14678065167E+04  0.29718104620E+04  0.25840281445E+04 0.  0.
        2    1    3    3  502    0 -0.26379058625E+03 -0.74953466622E+03  0.19055704662E+04  0.20646032284E+04  0.25500000920E-02 0.  1.
       -2    1    3    3    0  502  0.26379058625E+03  0.74953466622E+03 -0.43776394947E+03  0.90720723361E+03  0.25500000920E-02 0. -1.
</event>
<event>
 5   0  0.2333979E-06  0.2499846E+04  0.7818609E-02  0.8403040E-01
        1   -1    0    0  501    0  0.00000000000E+00  0.00000000000E+00  0.15114336533E+04  0.15114336533E+04  0.50400001928E-02 0.  1.
       -1   -1    0    0    0  501  0.00000000000E+00  0.00000000000E+00 -0.10336592710E+04  0.10336592710E+04  0.50400001928E-02 0. -1.
    10030    2    1    2    0    0  0.00000000000E+00  0.00000000000E+00  0.47777438227E+03  0.25450929243E+04  0.24998459219E+04 0.  0.
        3    1    3    3  502    0 -0.82161535149E+03 -0.67757330487E+03  0.90506228320E+03  0.13976033471E+04  0.10100000352E+00 0.  1.
       -3    1    3    3    0  502  0.82161535149E+03  0.67757330487E+03 -0.42728790093E+03  0.11474895772E+04  0.10100000352E+00 0. -1.
</event>
<event>
 5   0  0.2333979E-06  0.2527501E+04  0.7818609E-02  0.8393253E-01
        1   -1    0    0  501    0  0.00000000000E+00  0.00000000000E+00  0.17244902815E+04  0.17244902815E+04  0.50400001928E-02 0.  1.
       -1   -1    0    0    0  501  0.00000000000E+00  0.00000000000E+00 -0.92610846894E+03  0.92610846896E+03  0.50400001928E-02 0. -1.
    10030    2    1    2    0    0  0.00000000000E+00  0.00000000000E+00  0.79838181251E+03  0.26505987504E+04  0.25275007848E+04 0.  0.
        3    1    3    3  502    0  0.65636544836E+03  0.95618197978E+03 -0.12721796367E+03  0.11667407599E+04  0.10100000352E+00 0. -1.
       -3    1    3    3    0  502 -0.65636544836E+03 -0.95618197978E+03  0.92559977617E+03  0.14838579905E+04  0.10100000352E+00 0.  1.
</event>
<event>
 5   0  0.2471488E-06  0.2731717E+04  0.7818609E-02  0.8324787E-01
        1   -1    0    0  501    0  0.00000000000E+00  0.00000000000E+00  0.21302293424E+04  0.21302293424E+04  0.50400001928E-02 0.  1.
       -1   -1    0    0    0  501  0.00000000000E+00  0.00000000000E+00 -0.87576006970E+03  0.87576006972E+03  0.50400001928E-02 0. -1.
    10030    2    1    2    0    0  0.00000000000E+00  0.00000000000E+00  0.12544692727E+04  0.30059894121E+04  0.27317172602E+04 0.  0.
        4    1    3    3  502    0 -0.26121022825E+03 -0.85457047578E+03  0.17639282342E+04  0.19773633732E+04  0.12699999809E+01 0.  1.
       -4    1    3    3    0  502  0.26121022825E+03  0.85457047578E+03 -0.50945896156E+03  0.10286260389E+04  0.12699999809E+01 0. -1.
</event>
<event>
 5   0  0.6173140E-06  0.2602964E+04  0.7818609E-02  0.8367195E-01
        2   -1    0    0  501    0  0.00000000000E+00  0.00000000000E+00  0.13973526363E+04  0.13973526363E+04  0.25500000920E-02 0. -1.
       -2   -1    0    0    0  501  0.00000000000E+00  0.00000000000E+00 -0.12121885597E+04  0.12121885597E+04  0.25500000920E-02 0.  1.
    10030    2    1    2    0    0  0.00000000000E+00  0.00000000000E+00  0.18516407659E+03  0.26095411959E+04  0.26029636029E+04 0.  0.
        3    1    3    3  502    0 -0.30965618827E+03 -0.11530608322E+04  0.61198257118E+03  0.13416254751E+04  0.10100000352E+00 0. -1.
       -3    1    3    3    0  502  0.30965618827E+03  0.11530608322E+04 -0.42681849459E+03  0.12679157209E+04  0.10100000352E+00 0.  1.
</event>
<event>
 5   0  0.6158063E-06  0.2586431E+04  0.7818609E-02  0.8372825E-01
       -2   -1    0    0    0  501  0.00000000000E+00  0.00000000000E+00  0.13687905795E+04  0.13687905795E+04  0.25500000920E-02 0.  1.
        2   -1    0    0  501    0  0.00000000000E+00  0.00000000000E+00 -0.12218136201E+04  0.12218136201E+04  0.25500000920E-02 0. -1.
    10030    2    1    2    0    0  0.00000000000E+00  0.00000000000E+00  0.14697695944E+03  0.25906041996E+04  0.25864314977E+04 0.  0.
        2    1    3    3  502    0 -0.52311382939E+03 -0.10419905045E+04  0.63386823836E+03  0.13270950356E+04  0.25500000920E-02 0.  1.
       -2    1    3    3    0  502  0.52311382939E+03  0.10419905045E+04 -0.48689127892E+03  0.12635091640E+04  0.25500000920E-02 0. -1.
</event>
<event>
 5   0  0.5942229E-06  0.2600709E+04  0.7818609E-02  0.8367960E-01
       -2   -1    0    0    0  501  0.00000000000E+00  0.00000000000E+00  0.95356727750E+03  0.95356727750E+03  0.25500000920E-02 0. -1.
        2   -1    0    0  501    0  0.00000000000E+00  0.00000000000E+00 -0.17732592426E+04  0.17732592426E+04  0.25500000920E-02 0.  1.
    10030    2    1    2    0    0  0.00000000000E+00  0.00000000000E+00 -0.81969196513E+03  0.27268265201E+04  0.26007091251E+04 0.  0.
        4    1    3    3  502    0 -0.34802299286E+03  0.47707959330E+03 -0.16245587776E+04  0.17285594513E+04  0.12699999809E+01 0.  1.
       -4    1    3    3    0  502  0.34802299286E+03 -0.47707959330E+03  0.80486681249E+03  0.99826706880E+03  0.12699999809E+01 0. -1.
</event>
<event>
 5   0  0.2503292E-06  0.2614193E+04  0.7818609E-02  0.8363396E-01
       -1   -1    0    0    0  501  0.00000000000E+00  0.00000000000E+00  0.10849221380E+04  0.10849221380E+04  0.50400001928E-02 0. -1.
        1   -1    0    0  501    0  0.00000000000E+00  0.00000000000E+00 -0.15747681949E+04  0.15747681949E+04  0.50400001928E-02 0.  1.
    10030    2    1    2    0    0  0.00000000000E+00  0.00000000000E+00 -0.48984605687E+03  0.26596903329E+04  0.26141927067E+04 0.  0.
        2    1    3    3  502    0  0.98295879965E+03  0.81975284515E+03 -0.51467549093E+03  0.13795265818E+04  0.25500000920E-02 0.  1.
       -2    1    3    3    0  502 -0.98295879965E+03 -0.81975284515E+03  0.24829434062E+02  0.12801637511E+04  0.25500000920E-02 0. -1.
</event>
<event>
 5   0  0.2072125E-06  0.2599100E+04  0.7818609E-02  0.8368507E-01
       -3   -1    0    0    0  501  0.00000000000E+00  0.00000000000E+00  0.11928585178E+04  0.11928585220E+04  0.10100000352E+00 0. -1.
        3   -1    0    0  501    0  0.00000000000E+00  0.00000000000E+00 -0.14157846276E+04  0.14157846312E+04  0.10100000352E+00 0.  1.
    10030    2    1    2    0    0  0.00000000000E+00  0.00000000000E+00 -0.22292610985E+03  0.26086431533E+04  0.25991004311E+04 0.  0.
        1    1    3    3  502    0  0.20200544683E+03 -0.93232371472E+03 -0.99719796624E+03  0.13800135845E+04  0.50400001928E-02 0.  1.
       -1    1    3    3    0  502 -0.20200544683E+03  0.93232371472E+03  0.77427185639E+03  0.12286295687E+04  0.50400001928E-02 0. -1.
</event>
<event>
 5   0  0.5940748E-06  0.2595060E+04  0.7818609E-02  0.8369881E-01
       -2   -1    0    0    0  501  0.00000000000E+00  0.00000000000E+00  0.67067625059E+03  0.67067625060E+03  0.25500000920E-02 0.  1.
        2   -1    0    0  501    0  0.00000000000E+00  0.00000000000E+00 -0.25102790831E+04  0.25102790831E+04  0.25500000920E-02 0. -1.
    10030    2    1    2    0    0  0.00000000000E+00  0.00000000000E+00 -0.18396028325E+04  0.31809553337E+04  0.25950603564E+04 0.  0.
        1    1    3    3  502    0 -0.27556018938E+03 -0.23774379398E+03  0.60682956327E+03  0.70759992117E+03  0.50400001928E-02 0.  1.
       -1    1    3    3    0  502  0.27556018938E+03  0.23774379398E+03 -0.24464323957E+04  0.24733554125E+04  0.50400001928E-02 0. -1.
</event>
<event>
 5   0  0.6158063E-06  0.2598060E+04  0.7818609E-02  0.8368860E-01
       -2   -1    0    0    0  501  0.00000000000E+00  0.00000000000E+00  0.13367753478E+04  0.13367753478E+04  0.25500000920E-02 0.  1.
        2   -1    0    0  501    0  0.00000000000E+00  0.00000000000E+00 -0.12623507786E+04  0.12623507786E+04  0.25500000920E-02 0. -1.
    10030    2    1    2    0    0  0.00000000000E+00  0.00000000000E+00  0.74424569221E+02  0.25991261264E+04  0.25980603543E+04 0.  0.
        2    1    3    3  502    0  0.54350781319E+03  0.11798633205E+04  0.36114982553E+02  0.12995316426E+04  0.25500000920E-02 0.  1.
       -2    1    3    3    0  502 -0.54350781319E+03 -0.11798633205E+04  0.38309586668E+02  0.12995944839E+04  0.25500000920E-02 0. -1.
</event>
<event>
 5   0  0.2440590E-06  0.2601759E+04  0.7818609E-02  0.8367604E-01
       -1   -1    0    0    0  501  0.00000000000E+00  0.00000000000E+00  0.10362749178E+04  0.10362749178E+04  0.50400001928E-02 0. -1.
        1   -1    0    0  501    0  0.00000000000E+00  0.00000000000E+00 -0.16330483383E+04  0.16330483383E+04  0.50400001928E-02 0.  1.
    10030    2    1    2    0    0  0.00000000000E+00  0.00000000000E+00 -0.59677342050E+03  0.26693232561E+04  0.26017586610E+04 0.  0.
        1    1    3    3  502    0  0.10069713173E+04  0.40383541710E+03 -0.10348099141E+04  0.14993017829E+04  0.50400001928E-02 0.  1.
       -1    1    3    3    0  502 -0.10069713173E+04 -0.40383541710E+03  0.43803649358E+03  0.11700214732E+04  0.50400001928E-02 0. -1.
</event>
<event>
 5   0  0.2333979E-06  0.2589140E+04  0.7818609E-02  0.8371899E-01
        1   -1    0    0  501    0  0.00000000000E+00  0.00000000000E+00  0.16171896358E+04  0.16171896359E+04  0.50400001928E-02 0. -1.
       -1   -1    0    0    0  501  0.00000000000E+00  0.00000000000E+00 -0.10363111325E+04  0.10363111325E+04  0.50400001928E-02 0.  1.
    10030    2    1    2    0    0  0.00000000000E+00  0.00000000000E+00  0.58087850337E+03  0.26535007683E+04  0.25891401067E+04 0.  0.
        3    1    3    3  502    0  0.68677752834E+03 -0.79660451409E+03 -0.48308715601E+03  0.11574175287E+04  0.10100000352E+00 0.  1.
       -3    1    3    3    0  502 -0.68677752834E+03  0.79660451409E+03  0.10639656594E+04  0.14960832396E+04  0.10100000352E+00 0. -1.
</event>
<event>
 5   0  0.2471488E-06  0.2614569E+04  0.7818609E-02  0.8363269E-01
       -1   -1    0    0    0  501  0.00000000000E+00  0.00000000000E+00  0.13692160368E+04  0.13692160368E+04  0.50400001928E-02 0. -1.
        1   -1    0    0  501    0  0.00000000000E+00  0.00000000000E+00 -0.12481538870E+04  0.12481538871E+04  0.50400001928E-02 0.  1.
    10030    2    1    2    0    0  0.00000000000E+00  0.00000000000E+00  0.12106214977E+03  0.26173699239E+04  0.26145686593E+04 0.  0.
        4    1    3    3  502    0 -0.87617636336E+03  0.53463545726E+03 -0.74994774442E+03  0.12711975944E+04  0.12699999809E+01 0.  1.
       -4    1    3    3    0  502  0.87617636336E+03 -0.53463545726E+03  0.87100989419E+03  0.13461723294E+04  0.12699999809E+01 0. -1.
</event>
<event>
 5   0  0.2440590E-06  0.2567731E+04  0.7818609E-02  0.8379246E-01
        1   -1    0    0  501    0  0.00000000000E+00  0.00000000000E+00  0.12050866946E+04  0.12050866946E+04  0.50400001928E-02 0.  1.
       -1   -1    0    0    0  501  0.00000000000E+00  0.00000000000E+00 -0.13677938088E+04  0.13677938088E+04  0.50400001928E-02 0. -1.
    10030    2    1    2    0    0  0.00000000000E+00  0.00000000000E+00 -0.16270711416E+03  0.25728805035E+04  0.25677306089E+04 0.  0.
        1    1    3    3  502    0 -0.56412744590E+03 -0.11510988332E+04 -0.10205365645E+02  0.12819408912E+04  0.50400001928E-02 0. -1.
       -1    1    3    3    0  502  0.56412744590E+03  0.11510988332E+04 -0.15250174852E+03  0.12909396122E+04  0.50400001928E-02 0.  1.
</event>
<event>
 5   0  0.6173140E-06  0.2600782E+04  0.7818609E-02  0.8367936E-01
        2   -1    0    0  501    0  0.00000000000E+00  0.00000000000E+00  0.13602562429E+04  0.13602562429E+04  0.25500000920E-02 0.  1.
       -2   -1    0    0    0  501  0.00000000000E+00  0.00000000000E+00 -0.12431601324E+04  0.12431601324E+04  0.25500000920E-02 0. -1.
    10030    2    1    2    0    0  0.00000000000E+00  0.00000000000E+00  0.11709611046E+03  0.26034163753E+04  0.26007816756E+04 0.  0.
        3    1    3    3  502    0 -0.98279056861E+03  0.74759115221E+03 -0.34959834995E+03  0.12833506337E+04  0.10100000352E+00 0.  1.
       -3    1    3    3    0  502  0.98279056861E+03 -0.74759115221E+03  0.46669446041E+03  0.13200657416E+04  0.10100000352E+00 0. -1.
</event>
<event>
 5   0  0.2503292E-06  0.2596349E+04  0.7818609E-02  0.8369442E-01
        1   -1    0    0  501    0  0.00000000000E+00  0.00000000000E+00  0.15074574337E+04  0.15074574338E+04  0.50400001928E-02 0. -1.
       -1   -1    0    0    0  501  0.00000000000E+00  0.00000000000E+00 -0.11179468777E+04  0.11179468777E+04  0.50400001928E-02 0.  1.
    10030    2    1    2    0    0  0.00000000000E+00  0.00000000000E+00  0.38951055604E+03  0.26254043115E+04  0.25963492302E+04 0.  0.
        2    1    3    3  502    0 -0.97231064979E+03 -0.79029740278E+03 -0.14860219920E+03  0.12617609116E+04  0.25500000920E-02 0.  1.
       -2    1    3    3    0  502  0.97231064979E+03  0.79029740278E+03  0.53811275524E+03  0.13636433998E+04  0.25500000920E-02 0. -1.
</event>
<event>
 5   0  0.5940748E-06  0.2640325E+04  0.7818609E-02  0.8354631E-01
       -2   -1    0    0    0  501  0.00000000000E+00  0.00000000000E+00  0.10947200844E+04  0.10947200844E+04  0.25500000920E-02 0.  1.
        2   -1    0    0  501    0  0.00000000000E+00  0.00000000000E+00 -0.15920311006E+04  0.15920311006E+04  0.25500000920E-02 0. -1.
    10030    2    1    2    0    0  0.00000000000E+00  0.00000000000E+00 -0.49731101620E+03  0.26867511849E+04  0.26403245412E+04 0.  0.
        1    1    3    3  502    0 -0.11205338268E+04  0.34309849290E+03  0.36991133381E+03  0.12288803960E+04  0.50400001928E-02 0.  1.
       -1    1    3    3    0  502  0.11205338268E+04 -0.34309849290E+03 -0.86722235001E+03  0.14578707889E+04  0.50400001928E-02 0. -1.
</event>
<event>
 5   0  0.2503292E-06  0.2601098E+04  0.7818609E-02  0.8367828E-01
        1   -1    0    0  501    0  0.00000000000E+00  0.00000000000E+00  0.10007351516E+04  0.10007351516E+04  0.50400001928E-02 0.  1.
       -1   -1    0    0    0  501  0.00000000000E+00  0.00000000000E+00 -0.16901854946E+04  0.16901854946E+04  0.50400001928E-02 0. -1.
    10030    2    1    2    0    0  0.00000000000E+00  0.00000000000E+00 -0.68945034296E+03  0.26909206462E+04  0.26010982582E+04 0.  0.
        2    1    3    3  502    0 -0.64923738137E+03 -0.48345900912E+03 -0.13978092440E+04  0.16152747363E+04  0.25500000920E-02 0. -1.
       -2    1    3    3    0  502  0.64923738137E+03  0.48345900912E+03  0.70835890108E+03  0.10756459100E+04  0.25500000920E-02 0.  1.
</event>
<event>
 5   0  0.2333979E-06  0.2603150E+04  0.7818609E-02  0.8367132E-01
        1   -1    0    0  501    0  0.00000000000E+00  0.00000000000E+00  0.17425339770E+04  0.17425339770E+04  0.50400001928E-02 0.  1.
       -1   -1    0    0    0  501  0.00000000000E+00  0.00000000000E+00 -0.97220304690E+03  0.97220304691E+03  0.50400001928E-02 0. -1.
    10030    2    1    2    0    0  0.00000000000E+00  0.00000000000E+00  0.77033093009E+03  0.27147370239E+04  0.26031495092E+04 0.  0.
        3    1    3    3  502    0  0.39825130753E+03  0.67219258514E+03  0.14707737341E+04  0.16654195756E+04  0.10100000352E+00 0.  1.
       -3    1    3    3    0  502 -0.39825130753E+03 -0.67219258514E+03 -0.70044280404E+03  0.10493174483E+04  0.10100000352E+00 0. -1.
</event>
<event>
 5   0  0.5942229E-06  0.2615722E+04  0.7818609E-02  0.8362880E-01
        2   -1    0    0  501    0  0.00000000000E+00  0.00000000000E+00  0.18674511575E+04  0.18674511575E+04  0.25500000920E-02 0. -1.
       -2   -1    0    0    0  501  0.00000000000E+00  0.00000000000E+00 -0.91595460026E+03  0.91595460027E+03  0.25500000920E-02 0.  1.
    10030    2    1    2    0    0  0.00000000000E+00  0.00000000000E+00  0.95149655719E+03  0.27834057577E+04  0.26157220636E+04 0.  0.
        4    1    3    3  502    0  0.48282256618E+03 -0.71241248899E+03 -0.57219346221E+03  0.10334680237E+04  0.12699999809E+01 0.  1.
       -4    1    3    3    0  502 -0.48282256618E+03  0.71241248899E+03  0.15236900194E+04  0.17499377340E+04  0.12699999809E+01 0. -1.
</event>
<event>
 5   0  0.2471488E-06  0.2624103E+04  0.7818609E-02  0.8360060E-01
       -1   -1    0    0    0  501  0.00000000000E+00  0.00000000000E+00  0.16497208939E+04  0.16497208939E+04  0.50400001928E-02 0.  1.
        1   -1    0    0  501    0  0.00000000000E+00  0.00000000000E+00 -0.10434972969E+04  0.10434972969E+04  0.50400001928E-02 0. -1.
    10030    2    1    2    0    0  0.00000000000E+00  0.00000000000E+00  0.60622359701E+03  0.26932181907E+04  0.26241031179E+04 0.  0.
        4    1    3    3  502    0 -0.40761385352E+03 -0.86061865516E+03  0.12294721235E+04  0.15551259880E+04  0.12699999809E+01 0.  1.
       -4    1    3    3    0  502  0.40761385352E+03  0.86061865516E+03 -0.62324852651E+03  0.11380922027E+04  0.12699999809E+01 0. -1.
</event>
<event>
 5   0  0.6158063E-06  0.2747011E+04  0.7818609E-02  0.8319911E-01
        2   -1    0    0  501    0  0.00000000000E+00  0.00000000000E+00  0.15917385706E+04  0.15917385706E+04  0.25500000920E-02 0. -1.
       -2   -1    0    0    0  501  0.00000000000E+00  0.00000000000E+00 -0.11851928640E+04  0.11851928640E+04  0.25500000920E-02 0.  1.
    10030    2    1    2    0    0  0.00000000000E+00  0.00000000000E+00  0.40654570654E+03  0.27769314346E+04  0.27470108811E+04 0.  0.
        2    1    3    3  502    0 -0.18957000725E+03  0.95325748016E+03  0.11843489606E+04  0.15320962997E+04  0.25500000920E-02 0. -1.
       -2    1    3    3    0  502  0.18957000725E+03 -0.95325748016E+03 -0.77780325401E+03  0.12448351349E+04  0.25500000920E-02 0.  1.
</event>
<event>
 5   0  0.2456600E-06  0.2600070E+04  0.7818609E-02  0.8368177E-01
        1   -1    0    0  501    0  0.00000000000E+00  0.00000000000E+00  0.12257540885E+04  0.12257540885E+04  0.50400001928E-02 0.  1.
       -1   -1    0    0    0  501  0.00000000000E+00  0.00000000000E+00 -0.13788175657E+04  0.13788175657E+04  0.50400001928E-02 0. -1.
    10030    2    1    2    0    0  0.00000000000E+00  0.00000000000E+00 -0.15306347713E+03  0.26045716542E+04  0.26000702056E+04 0.  0.
        5    1    3    3  502    0 -0.23992250452E+03 -0.54718103522E+03 -0.12331298607E+04  0.13702559019E+04  0.46999998093E+01 0. -1.
       -5    1    3    3    0  502  0.23992250452E+03  0.54718103522E+03  0.10800663835E+04  0.12343157523E+04  0.46999998093E+01 0.  1.
</event>
<event>
 5   0  0.6173140E-06  0.2601989E+04  0.7818609E-02  0.8367526E-01
       -2   -1    0    0    0  501  0.00000000000E+00  0.00000000000E+00  0.78692725639E+03  0.78692725640E+03  0.25500000920E-02 0.  1.
        2   -1    0    0  501    0  0.00000000000E+00  0.00000000000E+00 -0.21508804023E+04  0.21508804023E+04  0.25500000920E-02 0. -1.
    10030    2    1    2    0    0  0.00000000000E+00  0.00000000000E+00 -0.13639531459E+04  0.29378076587E+04  0.26019887885E+04 0.  0.
        3    1    3    3  502    0  0.12206769206E+04 -0.30054536252E+03 -0.10601817056E+04  0.16444953386E+04  0.10100000352E+00 0. -1.
       -3    1    3    3    0  502 -0.12206769206E+04  0.30054536252E+03 -0.30377144027E+03  0.12933123202E+04  0.10100000352E+00 0.  1.
</event>
<event>
 5   0  0.2503292E-06  0.2602043E+04  0.7818609E-02  0.8367507E-01
        1   -1    0    0  501    0  0.00000000000E+00  0.00000000000E+00  0.13941813546E+04  0.13941813546E+04  0.50400001928E-02 0.  1.
       -1   -1    0    0    0  501  0.00000000000E+00  0.00000000000E+00 -0.12140868405E+04  0.12140868405E+04  0.50400001928E-02 0. -1.
    10030    2    1    2    0    0  0.00000000000E+00  0.00000000000E+00  0.18009451417E+03  0.26082681951E+04  0.26020432248E+04 0.  0.
        2    1    3    3  502    0  0.86733384338E+03  0.40782769438E+03 -0.79186764700E+03  0.12432400390E+04  0.25500000920E-02 0. -1.
       -2    1    3    3    0  502 -0.86733384338E+03 -0.40782769438E+03  0.97196216118E+03  0.13650281561E+04  0.25500000920E-02 0.  1.
</event>
<event>
 5   0  0.6158063E-06  0.2598574E+04  0.7818609E-02  0.8368686E-01
       -2   -1    0    0    0  501  0.00000000000E+00  0.00000000000E+00  0.85652077694E+03  0.85652077694E+03  0.25500000920E-02 0.  1.
        2   -1    0    0  501    0  0.00000000000E+00  0.00000000000E+00 -0.19709354100E+04  0.19709354100E+04  0.25500000920E-02 0. -1.
    10030    2    1    2    0    0  0.00000000000E+00  0.00000000000E+00 -0.11144146331E+04  0.28274561870E+04  0.25985743235E+04 0.  0.
        2    1    3    3  502    0 -0.45422315333E+03 -0.21146674679E+03  0.74717765887E+03  0.89961731416E+03  0.25500000920E-02 0.  1.
       -2    1    3    3    0  502  0.45422315333E+03  0.21146674679E+03 -0.18615922919E+04  0.19278388728E+04  0.25500000920E-02 0. -1.
</event>
<event>
 5   0  0.5940748E-06  0.2570612E+04  0.7818609E-02  0.8378253E-01
        2   -1    0    0  501    0  0.00000000000E+00  0.00000000000E+00  0.17566535482E+04  0.17566535482E+04  0.25500000920E-02 0. -1.
       -2   -1    0    0    0  501  0.00000000000E+00  0.00000000000E+00 -0.94043106628E+03  0.94043106629E+03  0.25500000920E-02 0.  1.
    10030    2    1    2    0    0  0.00000000000E+00  0.00000000000E+00  0.81622248190E+03  0.26970846145E+04  0.25706120434E+04 0.  0.
        1    1    3    3  502    0  0.91400209178E+03 -0.68365100327E+03  0.10281455236E+04  0.15361841477E+04  0.50400001928E-02 0. -1.
       -1    1    3    3    0  502 -0.91400209178E+03  0.68365100327E+03 -0.21192304167E+03  0.11609004667E+04  0.50400001928E-02 0.  1.
</event>
<event>
 5   0  0.2333979E-06  0.2619200E+04  0.7818609E-02  0.8361708E-01
        1   -1    0    0  501    0  0.00000000000E+00  0.00000000000E+00  0.10139152257E+04  0.10139152257E+04  0.50400001928E-02 0.  1.
       -1   -1    0    0    0  501  0.00000000000E+00  0.00000000000E+00 -0.16915149595E+04  0.16915149595E+04  0.50400001928E-02 0. -1.
    10030    2    1    2    0    0  0.00000000000E+00  0.00000000000E+00 -0.67759973380E+03  0.27054301853E+04  0.26192004674E+04 0.  0.
        3    1    3    3  502    0  0.63811459975E+03  0.73606848391E+03 -0.12428668363E+04  0.15791469337E+04  0.10100000352E+00 0. -1.
       -3    1    3    3    0  502 -0.63811459975E+03 -0.73606848391E+03  0.56526710246E+03  0.11262832516E+04  0.10100000352E+00 0.  1.
</event>
<event>
 5   0  0.2471488E-06  0.2603245E+04  0.7818609E-02  0.8367100E-01
        1   -1    0    0  501    0  0.00000000000E+00  0.00000000000E+00  0.15870025484E+04  0.15870025484E+04  0.50400001928E-02 0. -1.
       -1   -1    0    0    0  501  0.00000000000E+00  0.00000000000E+00 -0.10675606068E+04  0.10675606068E+04  0.50400001928E-02 0.  1.
    10030    2    1    2    0    0  0.00000000000E+00  0.00000000000E+00  0.51944194159E+03  0.26545631551E+04  0.26032452082E+04 0.  0.
        4    1    3    3  502    0  0.60637326109E+02 -0.66156939978E+03  0.14011023619E+04  0.15506258083E+04  0.12699999809E+01 0. -1.
       -4    1    3    3    0  502 -0.60637326109E+02  0.66156939978E+03 -0.88166042031E+03  0.11039373468E+04  0.12699999809E+01 0.  1.
</event>
<event>
 5   0  0.6158063E-06  0.2613245E+04  0.7818609E-02  0.8363716E-01
       -2   -1    0    0    0  501  0.00000000000E+00  0.00000000000E+00  0.10457040175E+04  0.10457040175E+04  0.25500000920E-02 0. -1.
        2   -1    0    0  501    0  0.00000000000E+00  0.00000000000E+00 -0.16326434957E+04  0.16326434957E+04  0.25500000920E-02 0.  1.
    10030    2    1    2    0    0  0.00000000000E+00  0.00000000000E+00 -0.58693947811E+03  0.26783475132E+04  0.26132446213E+04 0.  0.
        2    1    3    3  502    0 -0.38087445793E+03 -0.74975309190E+03 -0.13184166428E+04  0.15637830718E+04  0.25500000920E-02 0.  1.
       -2    1    3    3    0  502  0.38087445793E+03  0.74975309190E+03  0.73147716473E+03  0.11145644414E+04  0.25500000920E-02 0. -1.
</event>
<event>
 5   0  0.5942229E-06  0.2657743E+04  0.7818609E-02  0.8348848E-01
       -2   -1    0    0    0  501  0.00000000000E+00  0.00000000000E+00  0.27719860215E+04  0.27719860215E+04  0.25500000920E-02 0.  1.
        2   -1    0    0  501    0  0.00000000000E+00  0.00000000000E+00 -0.63705187922E+03  0.63705187923E+03  0.25500000920E-02 0. -1.
    10030    2    1    2    0    0  0.00000000000E+00  0.00000000000E+00  0.21349341423E+04  0.34090379007E+04  0.26577425791E+04 0.  0.
        4    1    3    3  502    0 -0.69173153424E+03 -0.67264277181E+03 -0.10459560038E+03  0.97050639692E+03  0.12699999809E+01 0. -1.
       -4    1    3    3    0  502  0.69173153424E+03  0.67264277181E+03  0.22395297427E+04  0.24385315038E+04  0.12699999809E+01 0.  1.
</event>
<event>
 5   0  0.6173140E-06  0.2596773E+04  0.7818609E-02  0.8369298E-01
       -2   -1    0    0    0  501  0.00000000000E+00  0.00000000000E+00  0.14925440496E+04  0.14925440496E+04  0.25500000920E-02 0.  1.
        2   -1    0    0  501    0  0.00000000000E+00  0.00000000000E+00 -0.11294856577E+04  0.11294856577E+04  0.25500000920E-02 0. -1.
    10030    2    1    2    0    0  0.00000000000E+00  0.00000000000E+00  0.36305839190E+03  0.26220297073E+04  0.25967726874E+04 0.  0.
        3    1    3    3  502    0 -0.59015484173E+01 -0.75961657927E+03 -0.88168667685E+03  0.11637970537E+04  0.10100000352E+00 0. -1.
       -3    1    3    3    0  502  0.59015484173E+01  0.75961657927E+03  0.12447450687E+04  0.14582326536E+04  0.10100000352E+00 0.  1.
</event>
<event>
 5   0  0.6161834E-06  0.2561430E+04  0.7818609E-02  0.8381422E-01
        2   -1    0    0  501    0  0.00000000000E+00  0.00000000000E+00  0.15004867988E+04  0.15004867988E+04  0.25500000920E-02 0.  1.
       -2   -1    0    0    0  501  0.00000000000E+00  0.00000000000E+00 -0.10931324733E+04  0.10931324733E+04  0.25500000920E-02 0. -1.
    10030    2    1    2    0    0  0.00000000000E+00  0.00000000000E+00  0.40735432541E+03  0.25936192721E+04  0.25614299487E+04 0.  0.
        5    1    3    3  502    0  0.75671272323E+03  0.60587330904E+03 -0.64380696977E+03  0.11637036205E+04  0.46999998093E+01 0. -1.
       -5    1    3    3    0  502 -0.75671272323E+03 -0.60587330904E+03  0.10511612952E+04  0.14299156516E+04  0.46999998093E+01 0.  1.
</event>
<event>
 5   0  0.2471488E-06  0.2601201E+04  0.7818609E-02  0.8367793E-01
       -1   -1    0    0    0  501  0.00000000000E+00  0.00000000000E+00  0.93683878003E+03  0.93683878004E+03  0.50400001928E-02 0. -1.
        1   -1    0    0  501    0  0.00000000000E+00  0.00000000000E+00 -0.18056064372E+04  0.18056064372E+04  0.50400001928E-02 0.  1.
    10030    2    1    2    0    0  0.00000000000E+00  0.00000000000E+00 -0.86876765717E+03  0.27424452172E+04  0.26012013623E+04 0.  0.
        4    1    3    3  502    0  0.65296120049E+03  0.91764949651E+03 -0.11201824089E+04  0.15884738493E+04  0.12699999809E+01 0.  1.
       -4    1    3    3    0  502 -0.65296120049E+03 -0.91764949651E+03  0.25141475171E+03  0.11539713680E+04  0.12699999809E+01 0. -1.
</event>
<event>
 5   0  0.2456600E-06  0.2599568E+04  0.7818609E-02  0.8368348E-01
       -1   -1    0    0    0  501  0.00000000000E+00  0.00000000000E+00  0.10158456540E+04  0.10158456540E+04  0.50400001928E-02 0.  1.
        1   -1    0    0  501    0  0.00000000000E+00  0.00000000000E+00 -0.16630856954E+04  0.16630856954E+04  0.50400001928E-02 0. -1.
    10030    2    1    2    0    0  0.00000000000E+00  0.00000000000E+00 -0.64724004134E+03  0.26789313494E+04  0.25995679456E+04 0.  0.
        5    1    3    3  502    0  0.12667350605E+04 -0.71131309198E+02 -0.61462174135E+03  0.14097728014E+04  0.46999998093E+01 0. -1.
       -5    1    3    3    0  502 -0.12667350605E+04  0.71131309198E+02 -0.32618299988E+02  0.12691585480E+04  0.46999998093E+01 0.  1.
</event>
<event>
 5   0  0.2440590E-06  0.2606090E+04  0.7818609E-02  0.8366136E-01
       -1   -1    0    0    0  501  0.00000000000E+00  0.00000000000E+00  0.11238675981E+04  0.11238675981E+04  0.50400001928E-02 0.  1.
        1   -1    0    0  501    0  0.00000000000E+00  0.00000000000E+00 -0.15107881450E+04  0.15107881451E+04  0.50400001928E-02 0. -1.
    10030    2    1    2    0    0  0.00000000000E+00  0.00000000000E+00 -0.38692054691E+03  0.26346557432E+04  0.26060896714E+04 0.  0.
        1    1    3    3  502    0 -0.10857391729E+04  0.70213198788E+03 -0.35680785397E+03  0.13413167876E+04  0.50400001928E-02 0. -1.
       -1    1    3    3    0  502  0.10857391729E+04 -0.70213198788E+03 -0.30112692937E+02  0.12933389556E+04  0.50400001928E-02 0.  1.
</event>
<event>
 5   0  0.5942229E-06  0.2602555E+04  0.7818609E-02  0.8367334E-01
        2   -1    0    0  501    0  0.00000000000E+00  0.00000000000E+00  0.15296547595E+04  0.15296547595E+04  0.25500000920E-02 0.  1.
       -2   -1    0    0    0  501  0.00000000000E+00  0.00000000000E+00 -0.11069970984E+04  0.11069970984E+04  0.25500000920E-02 0. -1.
    10030    2    1    2    0    0  0.00000000000E+00  0.00000000000E+00  0.42265766113E+03  0.26366518579E+04  0.26025551909E+04 0.  0.
        4    1    3    3  502    0  0.12831993955E+04 -0.24004543419E+02 -0.62990391386E+01  0.12834399860E+04  0.12699999809E+01 0.  1.
       -4    1    3    3    0  502 -0.12831993955E+04  0.24004543419E+02  0.42895670027E+03  0.13532118720E+04  0.12699999809E+01 0. -1.
</event>
<event>
 5   0  0.5942229E-06  0.2599930E+04  0.7818609E-02  0.8368225E-01
        2   -1    0    0  501    0  0.00000000000E+00  0.00000000000E+00  0.17375485144E+04  0.17375485144E+04  0.25500000920E-02 0.  1.
       -2   -1    0    0    0  501  0.00000000000E+00  0.00000000000E+00 -0.97258204610E+03  0.97258204610E+03  0.25500000920E-02 0. -1.
    10030    2    1    2    0    0  0.00000000000E+00  0.00000000000E+00  0.76496646830E+03  0.27101305605E+04  0.25999296062E+04 0.  0.
        4    1    3    3  502    0 -0.12148037840E+03 -0.47790743455E+02 -0.96573168424E+03  0.97451564192E+03  0.12699999809E+01 0. -1.
       -4    1    3    3    0  502  0.12148037840E+03  0.47790743455E+02  0.17306981525E+04  0.17356149186E+04  0.12699999809E+01 0.  1.
</event>
<event>
 5   0  0.2456600E-06  0.2594311E+04  0.7818609E-02  0.8370136E-01
       -1   -1    0    0    0  501  0.00000000000E+00  0.00000000000E+00  0.18512312176E+04  0.18512312176E+04  0.50400001928E-02 0.  1.
        1   -1    0    0  501    0  0.00000000000E+00  0.00000000000E+00 -0.90891501547E+03  0.90891501548E+03  0.50400001928E-02 0. -1.
    10030    2    1    2    0    0  0.00000000000E+00  0.00000000000E+00  0.94231620211E+03  0.27601462331E+04  0.25943105834E+04 0.  0.
        5    1    3    3  502    0  0.31529217916E+03 -0.12364437933E+04  0.22303964629E+03  0.12953652713E+04  0.46999998093E+01 0.  1.
       -5    1    3    3    0  502 -0.31529217916E+03  0.12364437933E+04  0.71927655581E+03  0.14647809618E+04  0.46999998093E+01 0. -1.
</event>
<event>
 5   0  0.6158063E-06  0.2598833E+04  0.7818609E-02  0.8368598E-01
       -2   -1    0    0    0  501  0.00000000000E+00  0.00000000000E+00  0.84051501697E+03  0.84051501697E+03  0.25500000920E-02 0. -1.
        2   -1    0    0  501    0  0.00000000000E+00  0.00000000000E+00 -0.20088677367E+04  0.20088677367E+04  0.25500000920E-02 0.  1.
    10030    2    1    2    0    0  0.00000000000E+00  0.00000000000E+00 -0.11683527197E+04  0.28493827537E+04  0.25988331996E+04 0.  0.
        2    1    3    3  502    0 -0.14949342250E+03  0.59786555885E+03 -0.18384465692E+04  0.19389887307E+04  0.25500000920E-02 0.  1.
       -2    1    3    3    0  502  0.14949342250E+03 -0.59786555885E+03  0.67009384953E+03  0.91039402295E+03  0.25500000920E-02 0. -1.
</event>
<event>
 5   0  0.2503292E-06  0.2606322E+04  0.7818609E-02  0.8366057E-01
        1   -1    0    0  501    0  0.00000000000E+00  0.00000000000E+00  0.17081160329E+04  0.17081160329E+04  0.50400001928E-02 0.  1.
       -1   -1    0    0    0  501  0.00000000000E+00  0.00000000000E+00 -0.99421129477E+03  0.99421129478E+03  0.50400001928E-02 0. -1.
    10030    2    1    2    0    0  0.00000000000E+00  0.00000000000E+00  0.71390473815E+03  0.27023273277E+04  0.26063217397E+04 0.  0.
        2    1    3    3  502    0  0.50194843106E+03  0.37758454010E+03  0.15408107384E+04  0.16639170785E+04  0.25500000920E-02 0.  1.
       -2    1    3    3    0  502 -0.50194843106E+03 -0.37758454010E+03 -0.82690600030E+03  0.10384102492E+04  0.25500000920E-02 0. -1.
</event>
<event>
 5   0  0.2333979E-06  0.2601316E+04  0.7818609E-02  0.8367754E-01
       -1   -1    0    0    0  501  0.00000000000E+00  0.00000000000E+00  0.10208993634E+04  0.10208993634E+04  0.50400001928E-02 0.  1.
        1   -1    0    0  501    0  0.00000000000E+00  0.00000000000E+00 -0.16570789448E+04  0.16570789448E+04  0.50400001928E-02 0. -1.
    10030    2    1    2    0    0  0.00000000000E+00  0.00000000000E+00 -0.63617958133E+03  0.26779783082E+04  0.26013156978E+04 0.  0.
        3    1    3    3  502    0  0.72120848232E+03 -0.27900512423E+03 -0.13947238668E+04  0.15947539651E+04  0.10100000352E+00 0. -1.
       -3    1    3    3    0  502 -0.72120848232E+03  0.27900512423E+03  0.75854428546E+03  0.10832243431E+04  0.10100000352E+00 0.  1.
</event>
<event>
 5   0  0.6161834E-06  0.2517482E+04  0.7818609E-02  0.8396784E-01
        2   -1    0    0  501    0  0.00000000000E+00  0.00000000000E+00  0.12101044249E+04  0.12101044249E+04  0.25500000920E-02 0. -1.
       -2   -1    0    0    0  501  0.00000000000E+00  0.00000000000E+00 -0.13093320523E+04  0.13093320523E+04  0.25500000920E-02 0.  1.
    10030    2    1    2    0    0  0.00000000000E+00  0.00000000000E+00 -0.99227627402E+02  0.25194364772E+04  0.25174816862E+04 0.  0.
        5    1    3    3  502    0  0.11999089840E+04  0.32791955406E+03  0.14313276650E+03  0.12521269435E+04  0.46999998093E+01 0. -1.
       -5    1    3    3    0  502 -0.11999089840E+04 -0.32791955406E+03 -0.24236039390E+03  0.12673095337E+04  0.46999998093E+01 0.  1.
</event>
<event>
 5   0  0.5940748E-06  0.2605066E+04  0.7818609E-02  0.8366482E-01
       -2   -1    0    0    0  501  0.00000000000E+00  0.00000000000E+00  0.11806003314E+04  0.11806003314E+04  0.25500000920E-02 0. -1.
        2   -1    0    0  501    0  0.00000000000E+00  0.00000000000E+00 -0.14370587240E+04  0.14370587241E+04  0.25500000920E-02 0.  1.
    10030    2    1    2    0    0  0.00000000000E+00  0.00000000000E+00 -0.25645839264E+03  0.26176590555E+04  0.26050658386E+04 0.  0.
        1    1    3    3  502    0  0.49412203644E+02  0.63692129248E+03  0.10123711647E+04  0.11970821500E+04  0.50400001928E-02 0. -1.
       -1    1    3    3    0  502 -0.49412203644E+02 -0.63692129248E+03 -0.12688295574E+04  0.14205769055E+04  0.50400001928E-02 0.  1.
</event>
<event>
 5   0  0.2471488E-06  0.2594746E+04  0.7818609E-02  0.8369988E-01
        1   -1    0    0  501    0  0.00000000000E+00  0.00000000000E+00  0.10902928171E+04  0.10902928171E+04  0.50400001928E-02 0.  1.
       -1   -1    0    0    0  501  0.00000000000E+00  0.00000000000E+00 -0.15437840881E+04  0.15437840881E+04  0.50400001928E-02 0. -1.
    10030    2    1    2    0    0  0.00000000000E+00  0.00000000000E+00 -0.45349127099E+03  0.26340769053E+04  0.25947460011E+04 0.  0.
        4    1    3    3  502    0 -0.59388449336E+01  0.91078356652E+03 -0.11646620547E+04  0.14785132024E+04  0.12699999809E+01 0. -1.
       -4    1    3    3    0  502  0.59388449336E+01 -0.91078356652E+03  0.71117078374E+03  0.11555637029E+04  0.12699999809E+01 0.  1.
</event>
<event>
 5   0  0.2471488E-06  0.2600031E+04  0.7818609E-02  0.8368191E-01
        1   -1    0    0  501    0  0.00000000000E+00  0.00000000000E+00  0.23518151181E+04  0.23518151181E+04  0.50400001928E-02 0.  1.
       -1   -1    0    0    0  501  0.00000000000E+00  0.00000000000E+00 -0.71861111217E+03  0.71861111219E+03  0.50400001928E-02 0. -1.
    10030    2    1    2    0    0  0.00000000000E+00  0.00000000000E+00  0.16332040059E+04  0.30704262303E+04  0.26000311365E+04 0.  0.
        4    1    3    3  502    0 -0.75321120407E+03  0.41780544014E+03  0.19664984340E+04  0.21468596152E+04  0.12699999809E+01 0.  1.
       -4    1    3    3    0  502  0.75321120407E+03 -0.41780544014E+03 -0.33329442807E+03  0.92356661505E+03  0.12699999809E+01 0. -1.
</event>
<event>
 5   0  0.2333979E-06  0.2605836E+04  0.7818609E-02  0.8366222E-01
       -1   -1    0    0    0  501  0.00000000000E+00  0.00000000000E+00  0.18634330008E+04  0.18634330008E+04  0.50400001928E-02 0.  1.
        1   -1    0    0  501    0  0.00000000000E+00  0.00000000000E+00 -0.91100391997E+03  0.91100391998E+03  0.50400001928E-02 0. -1.
    10030    2    1    2    0    0  0.00000000000E+00  0.00000000000E+00  0.95242908079E+03  0.27744369207E+04  0.26058355806E+04 0.  0.
        3    1    3    3  502    0 -0.23918851580E+03 -0.73712239681E+03 -0.63894736636E+03  0.10043974916E+04  0.10100000352E+00 0. -1.
       -3    1    3    3    0  502  0.23918851580E+03  0.73712239681E+03  0.15913764472E+04  0.17700394291E+04  0.10100000352E+00 0.  1.
</event>
<event>
 5   0  0.5942229E-06  0.2593192E+04  0.7818609E-02  0.8370517E-01
        2   -1    0    0  501    0  0.00000000000E+00  0.00000000000E+00  0.28073951699E+04  0.28073951699E+04  0.25500000920E-02 0. -1.
       -2   -1    0    0    0  501  0.00000000000E+00  0.00000000000E+00 -0.59883311711E+03  0.59883311711E+03  0.25500000920E-02 0.  1.
    10030    2    1    2    0    0  0.00000000000E+00  0.00000000000E+00  0.22085620528E+04  0.34062282870E+04  0.25931920103E+04 0.  0.
        4    1    3    3  502    0  0.11061000417E+04 -0.64048742613E+03  0.81807028066E+03  0.15175381519E+04  0.12699999809E+01 0.  1.
       -4    1    3    3    0  502 -0.11061000417E+04  0.64048742613E+03  0.13904917721E+04  0.18886901351E+04  0.12699999809E+01 0. -1.
</event>
<event>
 5   0  0.2456600E-06  0.2598409E+04  0.7818609E-02  0.8368742E-01
        1   -1    0    0  501    0  0.00000000000E+00  0.00000000000E+00  0.29013458616E+04  0.29013458616E+04  0.50400001928E-02 0. -1.
       -1   -1    0    0    0  501  0.00000000000E+00  0.00000000000E+00 -0.58177582631E+03  0.58177582633E+03  0.50400001928E-02 0.  1.
    10030    2    1    2    0    0  0.00000000000E+00  0.00000000000E+00  0.23195700353E+04  0.34831216879E+04  0.25984094258E+04 0.  0.
        5    1    3    3  502    0 -0.65290977908E+03  0.54715246876E+03 -0.15514797862E+03  0.86588682226E+03  0.46999998093E+01 0.  1.
       -5    1    3    3    0  502  0.65290977908E+03 -0.54715246876E+03  0.24747180139E+04  0.26172348657E+04  0.46999998093E+01 0. -1.
</event>
<event>
 5   0  0.6173140E-06  0.2606785E+04  0.7818609E-02  0.8365900E-01
       -2   -1    0    0    0  501  0.00000000000E+00  0.00000000000E+00  0.10262657043E+04  0.10262657043E+04  0.25500000920E-02 0.  1.
        2   -1    0    0  501    0  0.00000000000E+00  0.00000000000E+00 -0.16553524536E+04  0.16553524536E+04  0.25500000920E-02 0. -1.
    10030    2    1    2    0    0  0.00000000000E+00  0.00000000000E+00 -0.62908674937E+03  0.26816181579E+04  0.26067845723E+04 0.  0.
        3    1    3    3  502    0  0.90290286506E+03 -0.26814943993E+03 -0.12413473602E+04  0.15582300808E+04  0.10100000352E+00 0. -1.
       -3    1    3    3    0  502 -0.90290286506E+03  0.26814943993E+03  0.61226061086E+03  0.11233880771E+04  0.10100000352E+00 0.  1.
</event>
<event>
 5   0  0.6173140E-06  0.2456763E+04  0.7818609E-02  0.8418553E-01
        2   -1    0    0  501    0  0.00000000000E+00  0.00000000000E+00  0.15168144967E+04  0.15168144967E+04  0.25500000920E-02 0.  1.
       -2   -1    0    0    0  501  0.00000000000E+00  0.00000000000E+00 -0.99479640466E+03  0.99479640466E+03  0.25500000920E-02 0. -1.
    10030    2    1    2    0    0  0.00000000000E+00  0.00000000000E+00  0.52201809204E+03  0.25116109014E+04  0.24567634057E+04 0.  0.
        3    1    3    3  502    0 -0.52412278335E+03  0.10587547742E+04  0.60505635500E+03  0.13273129122E+04  0.10100000352E+00 0. -1.
       -3    1    3    3    0  502  0.52412278335E+03 -0.10587547742E+04 -0.83038262968E+02  0.11842979892E+04  0.10100000352E+00 0.  1.
</event>
<event>
 5   0  0.2072125E-06  0.2537262E+04  0.7818609E-02  0.8389830E-01
       -3   -1    0    0    0  501  0.00000000000E+00  0.00000000000E+00  0.14963512310E+04  0.14963512345E+04  0.10100000352E+00 0. -1.
        3   -1    0    0  501    0  0.00000000000E+00  0.00000000000E+00 -0.10755657264E+04  0.10755657312E+04  0.10100000352E+00 0.  1.
    10030    2    1    2    0    0  0.00000000000E+00  0.00000000000E+00  0.42078550460E+03  0.25719169656E+04  0.25372616021E+04 0.  0.
        4    1    3    3  502    0 -0.11881361388E+04  0.10592783714E+03 -0.22740250599E+03  0.12143317930E+04  0.12699999809E+01 0.  1.
       -4    1    3    3    0  502  0.11881361388E+04 -0.10592783714E+03  0.64818801059E+03  0.13575851726E+04  0.12699999809E+01 0. -1.
</event>
<event>
 5   0  0.2456600E-06  0.2609187E+04  0.7818609E-02  0.8365087E-01
        1   -1    0    0  501    0  0.00000000000E+00  0.00000000000E+00  0.16288994421E+04  0.16288994421E+04  0.50400001928E-02 0. -1.
       -1   -1    0    0    0  501  0.00000000000E+00  0.00000000000E+00 -0.10448556147E+04  0.10448556147E+04  0.50400001928E-02 0.  1.
    10030    2    1    2    0    0  0.00000000000E+00  0.00000000000E+00  0.58404382738E+03  0.26737550568E+04  0.26091874044E+04 0.  0.
        5    1    3    3  502    0 -0.45820060870E+03 -0.35182684332E+03 -0.90663020184E+03  0.10750489935E+04  0.46999998093E+01 0.  1.
       -5    1    3    3    0  502  0.45820060870E+03  0.35182684332E+03  0.14906740292E+04  0.15987060633E+04  0.46999998093E+01 0. -1.
</event>
<event>
 5   0  0.6173140E-06  0.2597211E+04  0.7818609E-02  0.8369149E-01
        2   -1    0    0  501    0  0.00000000000E+00  0.00000000000E+00  0.25619418095E+04  0.25619418095E+04  0.25500000920E-02 0. -1.
       -2   -1    0    0    0  501  0.00000000000E+00  0.00000000000E+00 -0.65824158263E+03  0.65824158264E+03  0.25500000920E-02 0.  1.
    10030    2    1    2    0    0  0.00000000000E+00  0.00000000000E+00  0.19037002269E+04  0.32201833921E+04  0.25972112978E+04 0.  0.
        3    1    3    3  502    0  0.91580872839E+03 -0.85598472651E+03  0.53146352017E+03  0.13615685669E+04  0.10100000352E+00 0.  1.
       -3    1    3    3    0  502 -0.91580872839E+03  0.85598472651E+03  0.13722367067E+04  0.18586148252E+04  0.10100000352E+00 0. -1.
</event>
<event>
 5   0  0.2072125E-06  0.2593845E+04  0.7818609E-02  0.8370295E-01
        3   -1    0    0  501    0  0.00000000000E+00  0.00000000000E+00  0.13684648428E+04  0.13684648465E+04  0.10100000352E+00 0.  1.
       -3   -1    0    0    0  501  0.00000000000E+00  0.00000000000E+00 -0.12291200336E+04  0.12291200378E+04  0.10100000352E+00 0. -1.
    10030    2    1    2    0    0  0.00000000000E+00  0.00000000000E+00  0.13934480913E+03  0.25975848843E+04  0.25938446860E+04 0.  0.
        3    1    3    3  502    0  0.55200817884E+03 -0.11049785151E+04  0.46561196227E+03  0.13200322185E+04  0.10100000352E+00 0.  1.
       -3    1    3    3    0  502 -0.55200817884E+03  0.11049785151E+04 -0.32626715314E+03  0.12775526658E+04  0.10100000352E+00 0. -1.
</event>
<event>
 5   0  0.6158063E-06  0.2592818E+04  0.7818609E-02  0.8370645E-01
        2   -1    0    0  501    0  0.00000000000E+00  0.00000000000E+00  0.27332592666E+04  0.27332592666E+04  0.25500000920E-02 0. -1.
       -2   -1    0    0    0  501  0.00000000000E+00  0.00000000000E+00 -0.61489834911E+03  0.61489834912E+03  0.25500000920E-02 0.  1.
    10030    2    1    2    0    0  0.00000000000E+00  0.00000000000E+00  0.21183609175E+04  0.33481576157E+04  0.25928182433E+04 0.  0.
        2    1    3    3  502    0  0.87048281786E+03 -0.20892025912E+03 -0.15169518001E+03  0.90796444782E+03  0.25500000920E-02 0.  1.
       -2    1    3    3    0  502 -0.87048281786E+03  0.20892025912E+03  0.22700560975E+04  0.24401931679E+04  0.25500000920E-02 0. -1.
</event>
<event>
 5   0  0.5940748E-06  0.2601490E+04  0.7818609E-02  0.8367695E-01
        2   -1    0    0  501    0  0.00000000000E+00  0.00000000000E+00  0.20605911808E+04  0.20605911808E+04  0.25500000920E-02 0. -1.
       -2   -1    0    0    0  501  0.00000000000E+00  0.00000000000E+00 -0.82109311870E+03  0.82109311870E+03  0.25500000920E-02 0.  1.
    10030    2    1    2    0    0  0.00000000000E+00  0.00000000000E+00  0.12394980621E+04  0.28816842995E+04  0.26014897570E+04 0.  0.
        1    1    3    3  502    0  0.11755354686E+04  0.50065108013E+03  0.34977302516E+03  0.13247174458E+04  0.50400001928E-02 0. -1.
       -1    1    3    3    0  502 -0.11755354686E+04 -0.50065108013E+03  0.88972503693E+03  0.15569668537E+04  0.50400001928E-02 0.  1.
</event>
<event>
 5   0  0.2440590E-06  0.2602780E+04  0.7818609E-02  0.8367257E-01
        1   -1    0    0  501    0  0.00000000000E+00  0.00000000000E+00  0.11439596728E+04  0.11439596728E+04  0.50400001928E-02 0. -1.
       -1   -1    0    0    0  501  0.00000000000E+00  0.00000000000E+00 -0.14804858935E+04  0.14804858935E+04  0.50400001928E-02 0.  1.
    10030    2    1    2    0    0  0.00000000000E+00  0.00000000000E+00 -0.33652622063E+03  0.26244455663E+04  0.26027801739E+04 0.  0.
        1    1    3    3  502    0 -0.11441255920E+04 -0.35456276016E+03  0.34477270326E+03  0.12464374586E+04  0.50400001928E-02 0. -1.
       -1    1    3    3    0  502  0.11441255920E+04  0.35456276016E+03 -0.68129892389E+03  0.13780081077E+04  0.50400001928E-02 0.  1.
</event>
<event>
 5   0  0.5942229E-06  0.2604455E+04  0.7818609E-02  0.8366690E-01
       -2   -1    0    0    0  501  0.00000000000E+00  0.00000000000E+00  0.99685199348E+03  0.99685199348E+03  0.25500000920E-02 0.  1.
        2   -1    0    0  501    0  0.00000000000E+00  0.00000000000E+00 -0.17011515368E+04  0.17011515368E+04  0.25500000920E-02 0. -1.
    10030    2    1    2    0    0  0.00000000000E+00  0.00000000000E+00 -0.70429954333E+03  0.26980035303E+04  0.26044548763E+04 0.  0.
        4    1    3    3  502    0  0.28209628352E+02  0.11970676681E+04  0.17812314524E+03  0.12105768265E+04  0.12699999809E+01 0. -1.
       -4    1    3    3    0  502 -0.28209628352E+02 -0.11970676681E+04 -0.88242268857E+03  0.14874267038E+04  0.12699999809E+01 0.  1.
</event>
<event>
 5   0  0.5942229E-06  0.2596317E+04  0.7818609E-02  0.8369453E-01
        2   -1    0    0  501    0  0.00000000000E+00  0.00000000000E+00  0.13194163773E+04  0.13194163773E+04  0.25500000920E-02 0. -1.
       -2   -1    0    0    0  501  0.00000000000E+00  0.00000000000E+00 -0.12772428774E+04  0.12772428774E+04  0.25500000920E-02 0.  1.
    10030    2    1    2    0    0  0.00000000000E+00  0.00000000000E+00  0.42173499860E+02  0.25966592547E+04  0.25963167529E+04 0.  0.
        4    1    3    3  502    0 -0.96837301274E+03  0.22543325243E+03  0.85585074503E+03  0.13118874013E+04  0.12699999809E+01 0. -1.
       -4    1    3    3    0  502  0.96837301274E+03 -0.22543325243E+03 -0.81367724517E+03  0.12847718534E+04  0.12699999809E+01 0.  1.
</event>
<event>
 5   0  0.6173140E-06  0.2597335E+04  0.7818609E-02  0.8369107E-01
       -2   -1    0    0    0  501  0.00000000000E+00  0.00000000000E+00  0.15605926950E+04  0.15605926950E+04  0.25500000920E-02 0.  1.
        2   -1    0    0  501    0  0.00000000000E+00  0.00000000000E+00 -0.10807027578E+04  0.10807027578E+04  0.25500000920E-02 0. -1.
    10030    2    1    2    0    0  0.00000000000E+00  0.00000000000E+00  0.47988993720E+03  0.26412954529E+04  0.25973346564E+04 0.  0.
        3    1    3    3  502    0  0.93225646384E+03 -0.72943200297E+03 -0.30329085903E+03  0.12219486555E+04  0.10100000352E+00 0. -1.
       -3    1    3    3    0  502 -0.93225646384E+03  0.72943200297E+03  0.78318079624E+03  0.14193467973E+04  0.10100000352E+00 0.  1.
</event>
<event>
 5   0  0.2471488E-06  0.2601946E+04  0.7818609E-02  0.8367540E-01
        1   -1    0    0  501    0  0.00000000000E+00  0.00000000000E+00  0.19198229286E+04  0.19198229286E+04  0.50400001928E-02 0. -1.
       -1   -1    0    0    0  501  0.00000000000E+00  0.00000000000E+00 -0.88160774982E+03  0.88160774984E+03  0.50400001928E-02 0.  1.
    10030    2    1    2    0    0  0.00000000000E+00  0.00000000000E+00  0.10382151787E+04  0.28014306784E+04  0.26019460195E+04 0.  0.
        4    1    3    3  502    0 -0.96455874578E+03 -0.32789578844E+03  0.13902373404E+04  0.17235575702E+04  0.12699999809E+01 0. -1.
       -4    1    3    3    0  502  0.96455874578E+03  0.32789578844E+03 -0.35202216171E+03  0.10778731082E+04  0.12699999809E+01 0.  1.
</event>
<event>
 5   0  0.2503292E-06  0.2529623E+04  0.7818609E-02  0.8392508E-01
       -1   -1    0    0    0  501  0.00000000000E+00  0.00000000000E+00  0.17681726088E+04  0.17681726088E+04  0.50400001928E-02 0.  1.
        1   -1    0    0  501    0  0.00000000000E+00  0.00000000000E+00 -0.90474627142E+03  0.90474627144E+03  0.50400001928E-02 0. -1.
    10030    2    1    2    0    0  0.00000000000E+00  0.00000000000E+00  0.86342633736E+03  0.26729188802E+04  0.25296225608E+04 0.  0.
        2    1    3    3  502    0 -0.39905506603E+03 -0.50443403192E+03 -0.71903782080E+03  0.96473521032E+03  0.25500000920E-02 0. -1.
       -2    1    3    3    0  502  0.39905506603E+03  0.50443403192E+03  0.15824641582E+04  0.17081836699E+04  0.25500000920E-02 0.  1.
</event>
<event>
 5   0  0.6173140E-06  0.2601931E+04  0.7818609E-02  0.8367546E-01
       -2   -1    0    0    0  501  0.00000000000E+00  0.00000000000E+00  0.86240098271E+03  0.86240098271E+03  0.25500000920E-02 0.  1.
        2   -1    0    0  501    0  0.00000000000E+00  0.00000000000E+00 -0.19625574268E+04  0.19625574268E+04  0.25500000920E-02 0. -1.
    10030    2    1    2    0    0  0.00000000000E+00  0.00000000000E+00 -0.11001564441E+04  0.28249584095E+04  0.26019311701E+04 0.  0.
        3    1    3    3  502    0 -0.11192103771E+04 -0.53294056463E+03 -0.97870088773E+03  0.15794027199E+04  0.10100000352E+00 0. -1.
       -3    1    3    3    0  502  0.11192103771E+04  0.53294056463E+03 -0.12145555637E+03  0.12455556897E+04  0.10100000352E+00 0.  1.
</event>
<event>
 5   0  0.5942229E-06  0.2615062E+04  0.7818609E-02  0.8363103E-01
       -2   -1    0    0    0  501  0.00000000000E+00  0.00000000000E+00  0.18961514256E+04  0.18961514256E+04  0.25500000920E-02 0. -1.
        2   -1    0    0  501    0  0.00000000000E+00  0.00000000000E+00 -0.90163518594E+03  0.90163518595E+03  0.25500000920E-02 0.  1.
    10030    2    1    2    0    0  0.00000000000E+00  0.00000000000E+00  0.99451623962E+03  0.27977866115E+04  0.26150616384E+04 0.  0.
        4    1    3    3  502    0  0.52220771925E+03 -0.10241987191E+04  0.11636370703E+04  0.16357679428E+04  0.12699999809E+01 0. -1.
       -4    1    3    3    0  502 -0.52220771925E+03  0.10241987191E+04 -0.16912083068E+03  0.11620186688E+04  0.12699999809E+01 0.  1.
</event>
<event>
 5   0  0.5942229E-06  0.2603055E+04  0.7818609E-02  0.8367164E-01
        2   -1    0    0  501    0  0.00000000000E+00  0.00000000000E+00  0.27674175839E+04  0.27674175839E+04  0.25500000920E-02 0.  1.
       -2   -1    0    0    0  501  0.00000000000E+00  0.00000000000E+00 -0.61211365122E+03  0.61211365123E+03  0.25500000920E-02 0. -1.
    10030    2    1    2    0    0  0.00000000000E+00  0.00000000000E+00  0.21553039327E+04  0.33795312351E+04  0.26030551909E+04 0.  0.
        4    1    3    3  502    0  0.40931649950E+03  0.12277604597E+04  0.12567823324E+04  0.18040064266E+04  0.12699999809E+01 0.  1.
       -4    1    3    3    0  502 -0.40931649950E+03 -0.12277604597E+04  0.89852160033E+03  0.15755248086E+04  0.12699999809E+01 0. -1.
</event>
<event>
 5   0  0.2333979E-06  0.2599412E+04  0.7818609E-02  0.8368401E-01
        1   -1    0    0  501    0  0.00000000000E+00  0.00000000000E+00  0.87853528730E+03  0.87853528732E+03  0.50400001928E-02 0. -1.
       -1   -1    0    0    0  501  0.00000000000E+00  0.00000000000E+00 -0.19227868454E+04  0.19227868454E+04  0.50400001928E-02 0.  1.
    10030    2    1    2    0    0  0.00000000000E+00  0.00000000000E+00 -0.10442515581E+04  0.28013221328E+04  0.25994123134E+04 0.  0.
        3    1    3    3  502    0 -0.90836988658E+03 -0.36746787950E+02 -0.15231171672E+04  0.17738015933E+04  0.10100000352E+00 0.  1.
       -3    1    3    3    0  502  0.90836988658E+03  0.36746787950E+02  0.47886560905E+03  0.10275205395E+04  0.10100000352E+00 0. -1.
</event>
<event>
 5   0  0.2440590E-06  0.2593351E+04  0.7818609E-02  0.8370463E-01
        1   -1    0    0  501    0  0.00000000000E+00  0.00000000000E+00  0.14308738651E+04  0.14308738651E+04  0.50400001928E-02 0. -1.
       -1   -1    0    0    0  501  0.00000000000E+00  0.00000000000E+00 -0.11750636337E+04  0.11750636337E+04  0.50400001928E-02 0.  1.
    10030    2    1    2    0    0  0.00000000000E+00  0.00000000000E+00  0.25581023141E+03  0.26059374988E+04  0.25933513787E+04 0.  0.
        1    1    3    3  502    0  0.12782485595E+04  0.31486680485E+02  0.34449015644E+03  0.13242296850E+04  0.50400001928E-02 0. -1.
       -1    1    3    3    0  502 -0.12782485595E+04 -0.31486680485E+02 -0.88679925034E+02  0.12817078138E+04  0.50400001928E-02 0.  1.
</event>
<event>
 5   0  0.2503292E-06  0.2600053E+04  0.7818609E-02  0.8368183E-01
        1   -1    0    0  501    0  0.00000000000E+00  0.00000000000E+00  0.14238794165E+04  0.14238794165E+04  0.50400001928E-02 0. -1.
       -1   -1    0    0    0  501  0.00000000000E+00  0.00000000000E+00 -0.11869467823E+04  0.11869467823E+04  0.50400001928E-02 0.  1.
    10030    2    1    2    0    0  0.00000000000E+00  0.00000000000E+00  0.23693263422E+03  0.26108261987E+04  0.26000531469E+04 0.  0.
        2    1    3    3  502    0  0.91799940295E+03  0.64848156392E+03  0.77448623148E+03  0.13649469460E+04  0.25500000920E-02 0. -1.
       -2    1    3    3    0  502 -0.91799940295E+03 -0.64848156392E+03 -0.53755359726E+03  0.12458792528E+04  0.25500000920E-02 0.  1.
</event>
<event>
 5   0  0.5940748E-06  0.2589242E+04  0.7818609E-02  0.8371865E-01
       -2   -1    0    0    0  501  0.00000000000E+00  0.00000000000E+00  0.78913213284E+03  0.78913213284E+03  0.25500000920E-02 0.  1.
        2   -1    0    0  501    0  0.00000000000E+00  0.00000000000E+00 -0.21239075900E+04  0.21239075900E+04  0.25500000920E-02 0. -1.
    10030    2    1    2    0    0  0.00000000000E+00  0.00000000000E+00 -0.13347754571E+04  0.29130397228E+04  0.25892421489E+04 0.  0.
        1    1    3    3  502    0  0.10261091391E+04 -0.48785262942E+03 -0.13655961235E+04  0.17764438989E+04  0.50400001928E-02 0. -1.
       -1    1    3    3    0  502 -0.10261091391E+04  0.48785262942E+03  0.30820666326E+02  0.11365958239E+04  0.50400001928E-02 0.  1.
</event>
<event>
 5   0  0.5942229E-06  0.2600926E+04  0.7818609E-02  0.8367887E-01
       -2   -1    0    0    0  501  0.00000000000E+00  0.00000000000E+00  0.94299820889E+03  0.94299820890E+03  0.25500000920E-02 0. -1.
        2   -1    0    0  501    0  0.00000000000E+00  0.00000000000E+00 -0.17934326899E+04  0.17934326899E+04  0.25500000920E-02 0.  1.
    10030    2    1    2    0    0  0.00000000000E+00  0.00000000000E+00 -0.85043448104E+03  0.27364308988E+04  0.26009258462E+04 0.  0.
        4    1    3    3  502    0 -0.10332393167E+04 -0.74753112154E+03 -0.69307079933E+03  0.14514596133E+04  0.12699999809E+01 0.  1.
       -4    1    3    3    0  502  0.10332393167E+04  0.74753112154E+03 -0.15736368171E+03  0.12849712855E+04  0.12699999809E+01 0. -1.
</event>
<event>
 5   0  0.2456600E-06  0.2611588E+04  0.7818609E-02  0.8364276E-01
        1   -1    0    0  501    0  0.00000000000E+00  0.00000000000E+00  0.15249320604E+04  0.15249320604E+04  0.50400001928E-02 0. -1.
       -1   -1    0    0    0  501  0.00000000000E+00  0.00000000000E+00 -0.11181468324E+04  0.11181468324E+04  0.50400001928E-02 0.  1.
    10030    2    1    2    0    0  0.00000000000E+00  0.00000000000E+00  0.40678522806E+03  0.26430788928E+04  0.26115879866E+04 0.  0.
        5    1    3    3  502    0  0.53296643397E+03  0.11478370476E+04 -0.12218942543E+03  0.12714304752E+04  0.46999998093E+01 0. -1.
       -5    1    3    3    0  502 -0.53296643397E+03 -0.11478370476E+04  0.52897465348E+03  0.13716484176E+04  0.46999998093E+01 0.  1.
</event>
<event>
 5   0  0.5940748E-06  0.2602620E+04  0.7818609E-02  0.8367312E-01
        2   -1    0    0  501    0  0.00000000000E+00  0.00000000000E+00  0.11472346977E+04  0.11472346977E+04  0.25500000920E-02 0. -1.
       -2   -1    0    0    0  501  0.00000000000E+00  0.00000000000E+00 -0.14760782349E+04  0.14760782349E+04  0.25500000920E-02 0.  1.
    10030    2    1    2    0    0  0.00000000000E+00  0.00000000000E+00 -0.32884353715E+03  0.26233129326E+04  0.26026203469E+04 0.  0.
        1    1    3    3  502    0 -0.72548183290E+03 -0.46603565386E+03  0.81795275492E+03  0.11885116027E+04  0.50400001928E-02 0. -1.
       -1    1    3    3    0  502  0.72548183290E+03  0.46603565386E+03 -0.11467962921E+04  0.14348013298E+04  0.50400001928E-02 0.  1.
</event>
<event>
 5   0  0.2333979E-06  0.2595195E+04  0.7818609E-02  0.8369835E-01
        1   -1    0    0  501    0  0.00000000000E+00  0.00000000000E+00  0.12304407840E+04  0.12304407840E+04  0.50400001928E-02 0. -1.
       -1   -1    0    0    0  501  0.00000000000E+00  0.00000000000E+00 -0.13684199955E+04  0.13684199955E+04  0.50400001928E-02 0.  1.
    10030    2    1    2    0    0  0.00000000000E+00  0.00000000000E+00 -0.13797921151E+03  0.25988607796E+04  0.25951953855E+04 0.  0.
        3    1    3    3  502    0 -0.28570949366E+03  0.10926503310E+04  0.57085342781E+03  0.12654597216E+04  0.10100000352E+00 0. -1.
       -3    1    3    3    0  502  0.28570949366E+03 -0.10926503310E+04 -0.70883263932E+03  0.13334010580E+04  0.10100000352E+00 0.  1.
</event>
<event>
 5   0  0.2456600E-06  0.2585758E+04  0.7818609E-02  0.8373055E-01
       -1   -1    0    0    0  501  0.00000000000E+00  0.00000000000E+00  0.11042915734E+04  0.11042915734E+04  0.50400001928E-02 0.  1.
        1   -1    0    0  501    0  0.00000000000E+00  0.00000000000E+00 -0.15136724882E+04  0.15136724882E+04  0.50400001928E-02 0. -1.
    10030    2    1    2    0    0  0.00000000000E+00  0.00000000000E+00 -0.40938091482E+03  0.26179640617E+04  0.25857577409E+04 0.  0.
        5    1    3    3  502    0 -0.29194890159E+02  0.33496155082E+03  0.10592423004E+04  0.11113360982E+04  0.46999998093E+01 0.  1.
       -5    1    3    3    0  502  0.29194890159E+02 -0.33496155082E+03 -0.14686232152E+04  0.15066279635E+04  0.46999998093E+01 0. -1.
</event>
<event>
 5   0  0.2456600E-06  0.2597246E+04  0.7818609E-02  0.8369137E-01
       -1   -1    0    0    0  501  0.00000000000E+00  0.00000000000E+00  0.96457139829E+03  0.96457139831E+03  0.50400001928E-02 0. -1.
        1   -1    0    0  501    0  0.00000000000E+00  0.00000000000E+00 -0.17483634446E+04  0.17483634446E+04  0.50400001928E-02 0.  1.
    10030    2    1    2    0    0  0.00000000000E+00  0.00000000000E+00 -0.78379204634E+03  0.27129348429E+04  0.25972457508E+04 0.  0.
        5    1    3    3  502    0  0.10855878844E+04 -0.71263717915E+03 -0.39901722762E+03  0.13585248035E+04  0.46999998093E+01 0.  1.
       -5    1    3    3    0  502 -0.10855878844E+04  0.71263717915E+03 -0.38477481872E+03  0.13544100394E+04  0.46999998093E+01 0. -1.
</event>
<event>
 5   0  0.6161834E-06  0.2601060E+04  0.7818609E-02  0.8367841E-01
       -2   -1    0    0    0  501  0.00000000000E+00  0.00000000000E+00  0.98068655429E+03  0.98068655429E+03  0.25500000920E-02 0. -1.
        2   -1    0    0  501    0  0.00000000000E+00  0.00000000000E+00 -0.17246879082E+04  0.17246879082E+04  0.25500000920E-02 0.  1.
    10030    2    1    2    0    0  0.00000000000E+00  0.00000000000E+00 -0.74400135388E+03  0.27053744625E+04  0.26010599700E+04 0.  0.
        5    1    3    3  502    0 -0.85289638311E+02 -0.30938148504E+03  0.93884680766E+03  0.99219284614E+03  0.46999998093E+01 0. -1.
       -5    1    3    3    0  502  0.85289638311E+02  0.30938148504E+03 -0.16828481615E+04  0.17131816163E+04  0.46999998093E+01 0.  1.
</event>
<event>
 5   0  0.6161834E-06  0.2599436E+04  0.7818609E-02  0.8368393E-01
        2   -1    0    0  501    0  0.00000000000E+00  0.00000000000E+00  0.22707309111E+04  0.22707309111E+04  0.25500000920E-02 0. -1.
       -2   -1    0    0    0  501  0.00000000000E+00  0.00000000000E+00 -0.74393064905E+03  0.74393064906E+03  0.25500000920E-02 0.  1.
    10030    2    1    2    0    0  0.00000000000E+00  0.00000000000E+00  0.15268002621E+04  0.30146615602E+04  0.25994355699E+04 0.  0.
        5    1    3    3  502    0  0.20355254227E+03  0.53697095685E+03  0.21156120660E+04  0.21921696900E+04  0.46999998093E+01 0. -1.
       -5    1    3    3    0  502 -0.20355254227E+03 -0.53697095685E+03 -0.58881180397E+03  0.82249187015E+03  0.46999998093E+01 0.  1.
</event>
<event>
 5   0  0.5942229E-06  0.2618322E+04  0.7818609E-02  0.8362004E-01
        2   -1    0    0  501    0  0.00000000000E+00  0.00000000000E+00  0.12371407109E+04  0.12371407109E+04  0.25500000920E-02 0. -1.
       -2   -1    0    0    0  501  0.00000000000E+00  0.00000000000E+00 -0.13853735660E+04  0.13853735660E+04  0.25500000920E-02 0.  1.
    10030    2    1    2    0    0  0.00000000000E+00  0.00000000000E+00 -0.14823285504E+03  0.26225142769E+04  0.26183216291E+04 0.  0.
        4    1    3    3  502    0  0.81451298375E+02  0.98694789606E+03  0.78352565899E+03  0.12627804777E+04  0.12699999809E+01 0. -1.
       -4    1    3    3    0  502 -0.81451298375E+02 -0.98694789606E+03 -0.93175851403E+03  0.13597337993E+04  0.12699999809E+01 0.  1.
</event>
<event>
 5   0  0.2440590E-06  0.2604200E+04  0.7818609E-02  0.8366776E-01
        1   -1    0    0  501    0  0.00000000000E+00  0.00000000000E+00  0.25237656214E+04  0.25237656214E+04  0.50400001928E-02 0. -1.
       -1   -1    0    0    0  501  0.00000000000E+00  0.00000000000E+00 -0.67179926935E+03  0.67179926937E+03  0.50400001928E-02 0.  1.
    10030    2    1    2    0    0  0.00000000000E+00  0.00000000000E+00  0.18519663521E+04  0.31955648908E+04  0.26041996087E+04 0.  0.
        1    1    3    3  502    0  0.11897385050E+03  0.10833289980E+04  0.51643632092E+02  0.10910653325E+04  0.50400001928E-02 0.  1.
       -1    1    3    3    0  502 -0.11897385050E+03 -0.10833289980E+04  0.18003227200E+04  0.21044995583E+04  0.50400001928E-02 0. -1.
</event>
<event>
 5   0  0.6161834E-06  0.2596087E+04  0.7818609E-02  0.8369531E-01
        2   -1    0    0  501    0  0.00000000000E+00  0.00000000000E+00  0.22881812006E+04  0.22881812006E+04  0.25500000920E-02 0.  1.
       -2   -1    0    0    0  501  0.00000000000E+00  0.00000000000E+00 -0.73635666786E+03  0.73635666787E+03  0.25500000920E-02 0. -1.
    10030    2    1    2    0    0  0.00000000000E+00  0.00000000000E+00  0.15518245327E+04  0.30245378684E+04  0.25960874287E+04 0.  0.
        5    1    3    3  502    0 -0.89749171465E+03  0.58511735894E+03 -0.77863284164E+02  0.10742152869E+04  0.46999998093E+01 0.  1.
       -5    1    3    3    0  502  0.89749171465E+03 -0.58511735894E+03  0.16296878169E+04  0.19503225815E+04  0.46999998093E+01 0. -1.
</event>
<event>
 5   0  0.2456600E-06  0.2620971E+04  0.7818609E-02  0.8361113E-01
        1   -1    0    0  501    0  0.00000000000E+00  0.00000000000E+00  0.93149216858E+03  0.93149216859E+03  0.50400001928E-02 0.  1.
       -1   -1    0    0    0  501  0.00000000000E+00  0.00000000000E+00 -0.18436783278E+04  0.18436783278E+04  0.50400001928E-02 0. -1.
    10030    2    1    2    0    0  0.00000000000E+00  0.00000000000E+00 -0.91218615920E+03  0.27751704964E+04  0.26209707543E+04 0.  0.
        5    1    3    3  502    0  0.21215292755E+03 -0.12161455860E+04  0.94695492338E+01  0.12345568895E+04  0.46999998093E+01 0.  1.
       -5    1    3    3    0  502 -0.21215292755E+03  0.12161455860E+04 -0.92165570843E+03  0.15406136069E+04  0.46999998093E+01 0. -1.
</event>
<event>
 5   0  0.6173140E-06  0.2600682E+04  0.7818609E-02  0.8367969E-01
        2   -1    0    0  501    0  0.00000000000E+00  0.00000000000E+00  0.16110220747E+04  0.16110220747E+04  0.25500000920E-02 0. -1.
       -2   -1    0    0    0  501  0.00000000000E+00  0.00000000000E+00 -0.10495741829E+04  0.10495741829E+04  0.25500000920E-02 0.  1.
    10030    2    1    2    0    0  0.00000000000E+00  0.00000000000E+00  0.56144789183E+03  0.26605962575E+04  0.26006823548E+04 0.  0.
        3    1    3    3  502    0 -0.63645726098E+03  0.28721875763E+02  0.14404104109E+04  0.15750190326E+04  0.10100000352E+00 0. -1.
       -3    1    3    3    0  502  0.63645726098E+03 -0.28721875763E+02 -0.87896251903E+03  0.10855772249E+04  0.10100000352E+00 0.  1.
</event>
<event>
 5   0  0.6161834E-06  0.2595900E+04  0.7818609E-02  0.8369595E-01
       -2   -1    0    0    0  501  0.00000000000E+00  0.00000000000E+00  0.13183586926E+04  0.13183586926E+04  0.25500000920E-02 0.  1.
        2   -1    0    0  501    0  0.00000000000E+00  0.00000000000E+00 -0.12778575683E+04  0.12778575683E+04  0.25500000920E-02 0. -1.
    10030    2    1    2    0    0  0.00000000000E+00  0.00000000000E+00  0.40501124357E+02  0.25962162609E+04  0.25959003318E+04 0.  0.
        5    1    3    3  502    0  0.45134786805E+03  0.50964189786E+03 -0.10849643706E+04  0.12808667134E+04  0.46999998093E+01 0. -1.
       -5    1    3    3    0  502 -0.45134786805E+03 -0.50964189786E+03  0.11254654949E+04  0.13153495476E+04  0.46999998093E+01 0.  1.
</event>
<event>
 5   0  0.2471488E-06  0.2596151E+04  0.7818609E-02  0.8369510E-01
       -1   -1    0    0    0  501  0.00000000000E+00  0.00000000000E+00  0.13431992966E+04  0.13431992966E+04  0.50400001928E-02 0.  1.
        1   -1    0    0  501    0  0.00000000000E+00  0.00000000000E+00 -0.12544679693E+04  0.12544679693E+04  0.50400001928E-02 0. -1.
    10030    2    1    2    0    0  0.00000000000E+00  0.00000000000E+00  0.88731327322E+02  0.25976672660E+04  0.25961513778E+04 0.  0.
        4    1    3    3  502    0  0.11769285558E+03 -0.44350914235E+03 -0.11706114020E+04  0.12573323487E+04  0.12699999809E+01 0. -1.
       -4    1    3    3    0  502 -0.11769285558E+03  0.44350914235E+03  0.12593427294E+04  0.13403349173E+04  0.12699999809E+01 0.  1.
</event>
<event>
 5   0  0.6173140E-06  0.2562377E+04  0.7818609E-02  0.8381094E-01
       -2   -1    0    0    0  501  0.00000000000E+00  0.00000000000E+00  0.12562739826E+04  0.12562739826E+04  0.25500000920E-02 0. -1.
        2   -1    0    0  501    0  0.00000000000E+00  0.00000000000E+00 -0.13065972655E+04  0.13065972656E+04  0.25500000920E-02 0.  1.
    10030    2    1    2    0    0  0.00000000000E+00  0.00000000000E+00 -0.50323282998E+02  0.25628712481E+04  0.25623771388E+04 0.  0.
        3    1    3    3  502    0  0.61391405256E+03 -0.93821113862E+03  0.59488816788E+03  0.12692606301E+04  0.10100000352E+00 0. -1.
       -3    1    3    3    0  502 -0.61391405256E+03  0.93821113862E+03 -0.64521145088E+03  0.12936106180E+04  0.10100000352E+00 0.  1.
</event>
<event>
 5   0  0.6158063E-06  0.2553890E+04  0.7818609E-02  0.8384034E-01
       -2   -1    0    0    0  501  0.00000000000E+00  0.00000000000E+00  0.12112752467E+04  0.12112752467E+04  0.25500000920E-02 0.  1.
        2   -1    0    0  501    0  0.00000000000E+00  0.00000000000E+00 -0.13461754978E+04  0.13461754978E+04  0.25500000920E-02 0. -1.
    10030    2    1    2    0    0  0.00000000000E+00  0.00000000000E+00 -0.13490025111E+03  0.25574507445E+04  0.25538904113E+04 0.  0.
        2    1    3    3  502    0  0.11665882850E+04 -0.14860017880E+03  0.43081645961E+03  0.12524428377E+04  0.25500000920E-02 0.  1.
       -2    1    3    3    0  502 -0.11665882850E+04  0.14860017880E+03 -0.56571671072E+03  0.13050079068E+04  0.25500000920E-02 0. -1.
</event>
<event>
 5   0  0.5942229E-06  0.2598571E+04  0.7818609E-02  0.8368687E-01
       -2   -1    0    0    0  501  0.00000000000E+00  0.00000000000E+00  0.75587761852E+03  0.75587761853E+03  0.25500000920E-02 0. -1.
        2   -1    0    0  501    0  0.00000000000E+00  0.00000000000E+00 -0.22333538281E+04  0.22333538281E+04  0.25500000920E-02 0.  1.
    10030    2    1    2    0    0  0.00000000000E+00  0.00000000000E+00 -0.14774762095E+04  0.29892314466E+04  0.25985705092E+04 0.  0.
        4    1    3    3  502    0 -0.30500309201E+03  0.64129205182E+03 -0.19903649697E+04  0.21132526369E+04  0.12699999809E+01 0.  1.
       -4    1    3    3    0  502  0.30500309201E+03 -0.64129205182E+03  0.51288876015E+03  0.87597880970E+03  0.12699999809E+01 0. -1.
</event>
<event>
 5   0  0.6173140E-06  0.2598592E+04  0.7818609E-02  0.8368680E-01
        2   -1    0    0  501    0  0.00000000000E+00  0.00000000000E+00  0.20425801242E+04  0.20425801242E+04  0.25500000920E-02 0. -1.
       -2   -1    0    0    0  501  0.00000000000E+00  0.00000000000E+00 -0.82648881720E+03  0.82648881720E+03  0.25500000920E-02 0.  1.
    10030    2    1    2    0    0  0.00000000000E+00  0.00000000000E+00  0.12160913070E+04  0.28690689414E+04  0.25985916423E+04 0.  0.
        3    1    3    3  502    0 -0.11164051511E+04  0.66236532117E+03  0.66933327905E+03  0.14605120091E+04  0.10100000352E+00 0.  1.
       -3    1    3    3    0  502  0.11164051511E+04 -0.66236532117E+03  0.54675802791E+03  0.14085569322E+04  0.10100000352E+00 0. -1.
</event>
<event>
 5   0  0.5940748E-06  0.2581346E+04  0.7818609E-02  0.8374565E-01
        2   -1    0    0  501    0  0.00000000000E+00  0.00000000000E+00  0.57558542626E+03  0.57558542626E+03  0.25500000920E-02 0. -1.
       -2   -1    0    0    0  501  0.00000000000E+00  0.00000000000E+00 -0.28941613204E+04  0.28941613204E+04  0.25500000920E-02 0.  1.
    10030    2    1    2    0    0  0.00000000000E+00  0.00000000000E+00 -0.23185758942E+04  0.34697467467E+04  0.25813462203E+04 0.  0.
        1    1    3    3  502    0 -0.10292029678E+04  0.77882783612E+03 -0.11624488666E+04  0.17369855828E+04  0.50400001928E-02 0. -1.
       -1    1    3    3    0  502  0.10292029678E+04 -0.77882783612E+03 -0.11561270276E+04  0.17327611639E+04  0.50400001928E-02 0.  1.
</event>
<event>
 5   0  0.5940748E-06  0.2595111E+04  0.7818609E-02  0.8369864E-01
       -2   -1    0    0    0  501  0.00000000000E+00  0.00000000000E+00  0.83440049341E+03  0.83440049342E+03  0.25500000920E-02 0.  1.
        2   -1    0    0  501    0  0.00000000000E+00  0.00000000000E+00 -0.20177965156E+04  0.20177965156E+04  0.25500000920E-02 0. -1.
    10030    2    1    2    0    0  0.00000000000E+00  0.00000000000E+00 -0.11833960222E+04  0.28521970090E+04  0.25951111022E+04 0.  0.
        1    1    3    3  502    0  0.31671069808E+03  0.88981945498E+03  0.38614053303E+03  0.10203866130E+04  0.50400001928E-02 0.  1.
       -1    1    3    3    0  502 -0.31671069808E+03 -0.88981945498E+03 -0.15695365552E+04  0.18318103960E+04  0.50400001928E-02 0. -1.
</event>
<event>
 5   0  0.2440590E-06  0.2597205E+04  0.7818609E-02  0.8369151E-01
       -1   -1    0    0    0  501  0.00000000000E+00  0.00000000000E+00  0.21226906903E+04  0.21226906903E+04  0.50400001928E-02 0.  1.
        1   -1    0    0  501    0  0.00000000000E+00  0.00000000000E+00 -0.79444840941E+03  0.79444840943E+03  0.50400001928E-02 0. -1.
    10030    2    1    2    0    0  0.00000000000E+00  0.00000000000E+00  0.13282422809E+04  0.29171390997E+04  0.25972048380E+04 0.  0.
        1    1    3    3  502    0 -0.10251240431E+04  0.71936131124E+03  0.10499610141E+04  0.16342515507E+04  0.50400001928E-02 0.  1.
       -1    1    3    3    0  502  0.10251240431E+04 -0.71936131124E+03  0.27828126673E+03  0.12828875490E+04  0.50400001928E-02 0. -1.
</event>
<event>
 5   0  0.2503292E-06  0.2598006E+04  0.7818609E-02  0.8368879E-01
       -1   -1    0    0    0  501  0.00000000000E+00  0.00000000000E+00  0.52439286266E+03  0.52439286269E+03  0.50400001928E-02 0. -1.
        1   -1    0    0  501    0  0.00000000000E+00  0.00000000000E+00 -0.32178343383E+04  0.32178343383E+04  0.50400001928E-02 0.  1.
    10030    2    1    2    0    0  0.00000000000E+00  0.00000000000E+00 -0.26934414756E+04  0.37422272010E+04  0.25980064359E+04 0.  0.
        2    1    3    3  502    0  0.73595537234E+03  0.31185773366E+03 -0.28216767750E+04  0.29327027430E+04  0.25500000920E-02 0.  1.
       -2    1    3    3    0  502 -0.73595537234E+03 -0.31185773366E+03  0.12823529935E+03  0.80952445802E+03  0.25500000920E-02 0. -1.
</event>
<event>
 5   0  0.5940748E-06  0.2614639E+04  0.7818609E-02  0.8363246E-01
        2   -1    0    0  501    0  0.00000000000E+00  0.00000000000E+00  0.19485455360E+04  0.19485455360E+04  0.25500000920E-02 0. -1.
       -2   -1    0    0    0  501  0.00000000000E+00  0.00000000000E+00 -0.87710740732E+03  0.87710740732E+03  0.25500000920E-02 0.  1.
    10030    2    1    2    0    0  0.00000000000E+00  0.00000000000E+00  0.10714381287E+04  0.28256529433E+04  0.26146385778E+04 0.  0.
        1    1    3    3  502    0 -0.68979697162E+03 -0.28125544877E+03  0.16967399161E+04  0.18530652532E+04  0.50400001928E-02 0. -1.
       -1    1    3    3    0  502  0.68979697162E+03  0.28125544877E+03 -0.62530178747E+03  0.97258769012E+03  0.50400001928E-02 0.  1.
</event>
<event>
 5   0  0.2333979E-06  0.2616195E+04  0.7818609E-02  0.8362721E-01
       -1   -1    0    0    0  501  0.00000000000E+00  0.00000000000E+00  0.80303648591E+03  0.80303648592E+03  0.50400001928E-02 0.  1.
        1   -1    0    0  501    0  0.00000000000E+00  0.00000000000E+00 -0.21308108206E+04  0.21308108206E+04  0.50400001928E-02 0. -1.
    10030    2    1    2    0    0  0.00000000000E+00  0.00000000000E+00 -0.13277743347E+04  0.29338473065E+04  0.26161948196E+04 0.  0.
        3    1    3    3  502    0  0.61381149980E+03 -0.13855661779E+03 -0.19499320198E+04  0.20489503131E+04  0.10100000352E+00 0. -1.
       -3    1    3    3    0  502 -0.61381149980E+03  0.13855661779E+03  0.62215768510E+03  0.88489699341E+03  0.10100000352E+00 0.  1.
</event>
<event>
 5   0  0.6161834E-06  0.2590791E+04  0.7818609E-02  0.8371336E-01
       -2   -1    0    0    0  501  0.00000000000E+00  0.00000000000E+00  0.11586305419E+04  0.11586305419E+04  0.25500000920E-02 0. -1.
        2   -1    0    0  501    0  0.00000000000E+00  0.00000000000E+00 -0.14483044610E+04  0.14483044610E+04  0.25500000920E-02 0.  1.
    10030    2    1    2    0    0  0.00000000000E+00  0.00000000000E+00 -0.28967391917E+03  0.26069350029E+04  0.25907912169E+04 0.  0.
        5    1    3    3  502    0  0.30468430792E+03 -0.10303528054E+04 -0.87292591493E+03  0.13843703168E+04  0.46999998093E+01 0.  1.
       -5    1    3    3    0  502 -0.30468430792E+03  0.10303528054E+04  0.58325199576E+03  0.12225646861E+04  0.46999998093E+01 0. -1.
</event>
<event>
 5   0  0.2333979E-06  0.2583087E+04  0.7818609E-02  0.8373969E-01
        1   -1    0    0  501    0  0.00000000000E+00  0.00000000000E+00  0.15862692601E+04  0.15862692601E+04  0.50400001928E-02 0. -1.
       -1   -1    0    0    0  501  0.00000000000E+00  0.00000000000E+00 -0.10515769650E+04  0.10515769650E+04  0.50400001928E-02 0.  1.
    10030    2    1    2    0    0  0.00000000000E+00  0.00000000000E+00  0.53469229512E+03  0.26378462251E+04  0.25830866917E+04 0.  0.
        3    1    3    3  502    0 -0.12832787120E+04  0.12694013578E+03  0.34074582287E+03  0.13338012508E+04  0.10100000352E+00 0. -1.
       -3    1    3    3    0  502  0.12832787120E+04 -0.12694013578E+03  0.19394647225E+03  0.13040449743E+04  0.10100000352E+00 0.  1.
</event>
<event>
 5   0  0.6158063E-06  0.2605722E+04  0.7818609E-02  0.8366260E-01
        2   -1    0    0  501    0  0.00000000000E+00  0.00000000000E+00  0.10724614011E+04  0.10724614011E+04  0.25500000920E-02 0. -1.
       -2   -1    0    0    0  501  0.00000000000E+00  0.00000000000E+00 -0.15827584836E+04  0.15827584836E+04  0.25500000920E-02 0.  1.
    10030    2    1    2    0    0  0.00000000000E+00  0.00000000000E+00 -0.51029708249E+03  0.26552198848E+04  0.26057224572E+04 0.  0.
        2    1    3    3  502    0 -0.11010486906E+02  0.75706907735E+03 -0.13355591166E+04  0.15352501336E+04  0.25500000920E-02 0.  1.
       -2    1    3    3    0  502  0.11010486906E+02 -0.75706907735E+03  0.82526203409E+03  0.11199697512E+04  0.25500000920E-02 0. -1.
</event>
<event>
 5   0  0.2471488E-06  0.2599919E+04  0.7818609E-02  0.8368229E-01
        1   -1    0    0  501    0  0.00000000000E+00  0.00000000000E+00  0.13269737464E+04  0.13269737464E+04  0.50400001928E-02 0. -1.
       -1   -1    0    0    0  501  0.00000000000E+00  0.00000000000E+00 -0.12734952226E+04  0.12734952226E+04  0.50400001928E-02 0.  1.
    10030    2    1    2    0    0  0.00000000000E+00  0.00000000000E+00  0.53478523772E+02  0.26004689690E+04  0.25999190192E+04 0.  0.
        4    1    3    3  502    0  0.11831646030E+04  0.53662385234E+03 -0.18541462334E+02  0.12993032885E+04  0.12699999809E+01 0. -1.
       -4    1    3    3    0  502 -0.11831646030E+04 -0.53662385234E+03  0.72019986106E+02  0.13011656805E+04  0.12699999809E+01 0.  1.
</event>
<event>
 5   0  0.2456600E-06  0.2594637E+04  0.7818609E-02  0.8370025E-01
        1   -1    0    0  501    0  0.00000000000E+00  0.00000000000E+00  0.17812060720E+04  0.17812060720E+04  0.50400001928E-02 0. -1.
       -1   -1    0    0    0  501  0.00000000000E+00  0.00000000000E+00 -0.94488519206E+03  0.94488519208E+03  0.50400001928E-02 0.  1.
    10030    2    1    2    0    0  0.00000000000E+00  0.00000000000E+00  0.83632087994E+03  0.27260912641E+04  0.25946369623E+04 0.  0.
        5    1    3    3  502    0 -0.66472767247E+03  0.31314588765E+02 -0.75188935087E+03  0.10040932068E+04  0.46999998093E+01 0. -1.
       -5    1    3    3    0  502  0.66472767247E+03 -0.31314588765E+02  0.15882102308E+04  0.17219980573E+04  0.46999998093E+01 0.  1.
</event>
<event>
 5   0  0.2440590E-06  0.2601658E+04  0.7818609E-02  0.8367638E-01
        1   -1    0    0  501    0  0.00000000000E+00  0.00000000000E+00  0.13616569497E+04  0.13616569497E+04  0.50400001928E-02 0.  1.
       -1   -1    0    0    0  501  0.00000000000E+00  0.00000000000E+00 -0.12427179607E+04  0.12427179607E+04  0.50400001928E-02 0. -1.
    10030    2    1    2    0    0  0.00000000000E+00  0.00000000000E+00  0.11893898899E+03  0.26043749105E+04  0.26016575853E+04 0.  0.
        1    1    3    3  502    0 -0.69508107827E+03  0.21691874828E+03 -0.10196007603E+04  0.12529074823E+04  0.50400001928E-02 0. -1.
       -1    1    3    3    0  502  0.69508107827E+03 -0.21691874828E+03  0.11385397493E+04  0.13514674282E+04  0.50400001928E-02 0.  1.
</event>
<event>
 5   0  0.2503292E-06  0.2614090E+04  0.7818609E-02  0.8363431E-01
        1   -1    0    0  501    0  0.00000000000E+00  0.00000000000E+00  0.14575252617E+04  0.14575252617E+04  0.50400001928E-02 0.  1.
       -1   -1    0    0    0  501  0.00000000000E+00  0.00000000000E+00 -0.11721005103E+04  0.11721005103E+04  0.50400001928E-02 0. -1.
    10030    2    1    2    0    0  0.00000000000E+00  0.00000000000E+00  0.28542475141E+03  0.26296257720E+04  0.26140895953E+04 0.  0.
        2    1    3    3  502    0 -0.12342134490E+04  0.41973303628E+03  0.47772201831E+02  0.13045078929E+04  0.25500000920E-02 0.  1.
       -2    1    3    3    0  502  0.12342134490E+04 -0.41973303628E+03  0.23765254958E+03  0.13251178792E+04  0.25500000920E-02 0. -1.
</event>
<event>
 5   0  0.6173140E-06  0.2597287E+04  0.7818609E-02  0.8369123E-01
       -2   -1    0    0    0  501  0.00000000000E+00  0.00000000000E+00  0.11154506408E+04  0.11154506408E+04  0.25500000920E-02 0. -1.
        2   -1    0    0  501    0  0.00000000000E+00  0.00000000000E+00 -0.15119222759E+04  0.15119222759E+04  0.25500000920E-02 0.  1.
    10030    2    1    2    0    0  0.00000000000E+00  0.00000000000E+00 -0.39647163504E+03  0.26273729167E+04  0.25972867932E+04 0.  0.
        3    1    3    3  502    0  0.11958395639E+04  0.84670186464E+02 -0.70329206063E+03  0.13898996496E+04  0.10100000352E+00 0.  1.
       -3    1    3    3    0  502 -0.11958395639E+04 -0.84670186464E+02  0.30682042559E+03  0.12374732672E+04  0.10100000352E+00 0. -1.
</event>
<event>
 5   0  0.5940748E-06  0.2571610E+04  0.7818609E-02  0.8377909E-01
       -2   -1    0    0    0  501  0.00000000000E+00  0.00000000000E+00  0.11182563508E+04  0.11182563508E+04  0.25500000920E-02 0.  1.
        2   -1    0    0  501    0  0.00000000000E+00  0.00000000000E+00 -0.14784577740E+04  0.14784577740E+04  0.25500000920E-02 0. -1.
    10030    2    1    2    0    0  0.00000000000E+00  0.00000000000E+00 -0.36020142317E+03  0.25967141248E+04  0.25716102311E+04 0.  0.
        1    1    3    3  502    0  0.80022604347E+03 -0.84889316306E+03  0.36583739757E+03  0.12226276311E+04  0.50400001928E-02 0.  1.
       -1    1    3    3    0  502 -0.80022604347E+03  0.84889316306E+03 -0.72603882074E+03  0.13740864937E+04  0.50400001928E-02 0. -1.
</event>
<event>
 5   0  0.2503292E-06  0.2597384E+04  0.7818609E-02  0.8369090E-01
       -1   -1    0    0    0  501  0.00000000000E+00  0.00000000000E+00  0.12640445527E+04  0.12640445527E+04  0.50400001928E-02 0. -1.
        1   -1    0    0  501    0  0.00000000000E+00  0.00000000000E+00 -0.13342888617E+04  0.13342888617E+04  0.50400001928E-02 0.  1.
    10030    2    1    2    0    0  0.00000000000E+00  0.00000000000E+00 -0.70244309000E+02  0.25983334144E+04  0.25973837355E+04 0.  0.
        2    1    3    3  502    0 -0.99121843873E+03  0.73568557946E+03 -0.43882057143E+03  0.13100804399E+04  0.25500000920E-02 0.  1.
       -2    1    3    3    0  502  0.99121843873E+03 -0.73568557946E+03  0.36857626243E+03  0.12882529745E+04  0.25500000920E-02 0. -1.
</event>
<event>
 5   0  0.2471488E-06  0.2602624E+04  0.7818609E-02  0.8367311E-01
        1   -1    0    0  501    0  0.00000000000E+00  0.00000000000E+00  0.13376975413E+04  0.13376975413E+04  0.50400001928E-02 0. -1.
       -1   -1    0    0    0  501  0.00000000000E+00  0.00000000000E+00 -0.12659158882E+04  0.12659158883E+04  0.50400001928E-02 0.  1.
    10030    2    1    2    0    0  0.00000000000E+00  0.00000000000E+00  0.71781653074E+02  0.26036134296E+04  0.26026237310E+04 0.  0.
        4    1    3    3  502    0 -0.95201780427E+03 -0.44776979720E+03  0.80206408743E+03  0.13229301207E+04  0.12699999809E+01 0. -1.
       -4    1    3    3    0  502  0.95201780427E+03  0.44776979720E+03 -0.73028243435E+03  0.12806833089E+04  0.12699999809E+01 0.  1.
</event>
<event>
 5   0  0.2333979E-06  0.2584257E+04  0.7818609E-02  0.8373568E-01
       -1   -1    0    0    0  501  0.00000000000E+00  0.00000000000E+00  0.10102504102E+04  0.10102504102E+04  0.50400001928E-02 0.  1.
        1   -1    0    0  501    0  0.00000000000E+00  0.00000000000E+00 -0.16526561262E+04  0.16526561262E+04  0.50400001928E-02 0. -1.
    10030    2    1    2    0    0  0.00000000000E+00  0.00000000000E+00 -0.64240571604E+03  0.26629065364E+04  0.25842573629E+04 0.  0.
        3    1    3    3  502    0  0.33617410181E+03 -0.66089423763E+02  0.96259366338E+03  0.10217472337E+04  0.10100000352E+00 0.  1.
       -3    1    3    3    0  502 -0.33617410181E+03  0.66089423763E+02 -0.16049993794E+04  0.16411593027E+04  0.10100000352E+00 0. -1.
</event>
<event>
 5   0  0.2471488E-06  0.2623513E+04  0.7818609E-02  0.8360258E-01
       -1   -1    0    0    0  501  0.00000000000E+00  0.00000000000E+00  0.98241230200E+03  0.98241230201E+03  0.50400001928E-02 0.  1.
        1   -1    0    0  501    0  0.00000000000E+00  0.00000000000E+00 -0.17515108028E+04  0.17515108028E+04  0.50400001928E-02 0. -1.
    10030    2    1    2    0    0  0.00000000000E+00  0.00000000000E+00 -0.76909850078E+03  0.27339231048E+04  0.26235134913E+04 0.  0.
        4    1    3    3  502    0  0.31479536197E+03 -0.10394310890E+04 -0.11511659784E+04  0.15826237176E+04  0.12699999809E+01 0. -1.
       -4    1    3    3    0  502 -0.31479536197E+03  0.10394310890E+04  0.38206747761E+03  0.11512993872E+04  0.12699999809E+01 0.  1.
</event>
<event>
 5   0  0.6158063E-06  0.2602335E+04  0.7818609E-02  0.8367409E-01
       -2   -1    0    0    0  501  0.00000000000E+00  0.00000000000E+00  0.65500726700E+03  0.65500726701E+03  0.25500000920E-02 0. -1.
        2   -1    0    0  501    0  0.00000000000E+00  0.00000000000E+00 -0.25847596253E+04  0.25847596253E+04  0.25500000920E-02 0.  1.
    10030    2    1    2    0    0  0.00000000000E+00  0.00000000000E+00 -0.19297523583E+04  0.32397668923E+04  0.26023345965E+04 0.  0.
        2    1    3    3  502    0 -0.79459966234E+03 -0.89198066020E+03 -0.16069815702E+04  0.20023505908E+04  0.25500000920E-02 0. -1.
       -2    1    3    3    0  502  0.79459966234E+03  0.89198066020E+03 -0.32277078809E+03  0.12374163015E+04  0.25500000920E-02 0.  1.
</event>
<event>
 5   0  0.5940748E-06  0.2598146E+04  0.7818609E-02  0.8368831E-01
       -2   -1    0    0    0  501  0.00000000000E+00  0.00000000000E+00  0.94169641544E+03  0.94169641545E+03  0.25500000920E-02 0.  1.
        2   -1    0    0  501    0  0.00000000000E+00  0.00000000000E+00 -0.17920752167E+04  0.17920752167E+04  0.25500000920E-02 0. -1.
    10030    2    1    2    0    0  0.00000000000E+00  0.00000000000E+00 -0.85037880126E+03  0.27337716321E+04  0.25981461143E+04 0.  0.
        1    1    3    3  502    0 -0.53534836045E+02  0.12219014430E+04 -0.88585839121E+03  0.15101835003E+04  0.50400001928E-02 0. -1.
       -1    1    3    3    0  502  0.53534836045E+02 -0.12219014430E+04  0.35479589956E+02  0.12235881319E+04  0.50400001928E-02 0.  1.
</event>
<event>
 5   0  0.2440590E-06  0.2602025E+04  0.7818609E-02  0.8367514E-01
       -1   -1    0    0    0  501  0.00000000000E+00  0.00000000000E+00  0.91001467347E+03  0.91001467348E+03  0.50400001928E-02 0. -1.
        1   -1    0    0  501    0  0.00000000000E+00  0.00000000000E+00 -0.18600070407E+04  0.18600070407E+04  0.50400001928E-02 0.  1.
    10030    2    1    2    0    0  0.00000000000E+00  0.00000000000E+00 -0.94999236725E+03  0.27700217142E+04  0.26020251343E+04 0.  0.
        1    1    3    3  502    0  0.50997537562E+03  0.34643618867E+03 -0.16946261586E+04  0.18032888660E+04  0.50400001928E-02 0.  1.
       -1    1    3    3    0  502 -0.50997537562E+03 -0.34643618867E+03  0.74463379139E+03  0.96673284824E+03  0.50400001928E-02 0. -1.
</event>
<event>
 5   0  0.6158063E-06  0.2610059E+04  0.7818609E-02  0.8364793E-01
        2   -1    0    0  501    0  0.00000000000E+00  0.00000000000E+00  0.16441944813E+04  0.16441944813E+04  0.25500000920E-02 0. -1.
       -2   -1    0    0    0  501  0.00000000000E+00  0.00000000000E+00 -0.10358272287E+04  0.10358272287E+04  0.25500000920E-02 0.  1.
    10030    2    1    2    0    0  0.00000000000E+00  0.00000000000E+00  0.60836725260E+03  0.26800217099E+04  0.26100585533E+04 0.  0.
        2    1    3    3  502    0  0.12379419139E+04 -0.24304959221E+03 -0.38726464333E+02  0.12621699670E+04  0.25500000920E-02 0.  1.
       -2    1    3    3    0  502 -0.12379419139E+04  0.24304959221E+03  0.64709371693E+03  0.14178517430E+04  0.25500000920E-02 0. -1.
</event>
<event>
 5   0  0.2333979E-06  0.2541330E+04  0.7818609E-02  0.8388408E-01
        1   -1    0    0  501    0  0.00000000000E+00  0.00000000000E+00  0.12374632463E+04  0.12374632463E+04  0.50400001928E-02 0. -1.
       -1   -1    0    0    0  501  0.00000000000E+00  0.00000000000E+00 -0.13047577418E+04  0.13047577418E+04  0.50400001928E-02 0.  1.
    10030    2    1    2    0    0  0.00000000000E+00  0.00000000000E+00 -0.67294495447E+02  0.25422209881E+04  0.25413301642E+04 0.  0.
        3    1    3    3  502    0  0.10229248396E+04 -0.19317345747E+03  0.69523600093E+03  0.12518164080E+04  0.10100000352E+00 0. -1.
       -3    1    3    3    0  502 -0.10229248396E+04  0.19317345747E+03 -0.76253049637E+03  0.12904045801E+04  0.10100000352E+00 0.  1.
</event>
<event>
 5   0  0.5940748E-06  0.2606265E+04  0.7818609E-02  0.8366076E-01
       -2   -1    0    0    0  501  0.00000000000E+00  0.00000000000E+00  0.10924103956E+04  0.10924103956E+04  0.25500000920E-02 0.  1.
        2   -1    0    0  501    0  0.00000000000E+00  0.00000000000E+00 -0.15545017817E+04  0.15545017817E+04  0.25500000920E-02 0. -1.
    10030    2    1    2    0    0  0.00000000000E+00  0.00000000000E+00 -0.46209138614E+03  0.26469121772E+04  0.26062646882E+04 0.  0.
        1    1    3    3  502    0  0.48656573885E+03 -0.28186058926E+03  0.96285748779E+03  0.11150274220E+04  0.50400001928E-02 0.  1.
       -1    1    3    3    0  502 -0.48656573885E+03  0.28186058926E+03 -0.14249488739E+04  0.15318847552E+04  0.50400001928E-02 0. -1.
</event>
<event>
 5   0  0.2333979E-06  0.2615461E+04  0.7818609E-02  0.8362968E-01
        1   -1    0    0  501    0  0.00000000000E+00  0.00000000000E+00  0.10431250025E+04  0.10431250025E+04  0.50400001928E-02 0. -1.
       -1   -1    0    0    0  501  0.00000000000E+00  0.00000000000E+00 -0.16394574751E+04  0.16394574751E+04  0.50400001928E-02 0.  1.
    10030    2    1    2    0    0  0.00000000000E+00  0.00000000000E+00 -0.59633247254E+03  0.26825824776E+04  0.26154610170E+04 0.  0.
        3    1    3    3  502    0  0.90700512559E+03  0.44233779741E+03  0.55494773308E+03  0.11516457882E+04  0.10100000352E+00 0. -1.
       -3    1    3    3    0  502 -0.90700512559E+03 -0.44233779741E+03 -0.11512802056E+04  0.15309366894E+04  0.10100000352E+00 0.  1.
</event>
<event>
 5   0  0.6161834E-06  0.2602626E+04  0.7818609E-02  0.8367310E-01
       -2   -1    0    0    0  501  0.00000000000E+00  0.00000000000E+00  0.71048482493E+03  0.71048482494E+03  0.25500000920E-02 0. -1.
        2   -1    0    0  501    0  0.00000000000E+00  0.00000000000E+00 -0.23834656380E+04  0.23834656380E+04  0.25500000920E-02 0.  1.
    10030    2    1    2    0    0  0.00000000000E+00  0.00000000000E+00 -0.16729808131E+04  0.30939504629E+04  0.26026264938E+04 0.  0.
        5    1    3    3  502    0 -0.10883300329E+04 -0.49706660554E+02 -0.16824985452E+04  0.20044341988E+04  0.46999998093E+01 0.  1.
       -5    1    3    3    0  502  0.10883300329E+04  0.49706660554E+02  0.95177321418E+01  0.10895162641E+04  0.46999998093E+01 0. -1.
</event>
<event>
 5   0  0.5940748E-06  0.2603035E+04  0.7818609E-02  0.8367171E-01
        2   -1    0    0  501    0  0.00000000000E+00  0.00000000000E+00  0.23283765256E+04  0.23283765256E+04  0.25500000920E-02 0. -1.
       -2   -1    0    0    0  501  0.00000000000E+00  0.00000000000E+00 -0.72752319384E+03  0.72752319385E+03  0.25500000920E-02 0.  1.
    10030    2    1    2    0    0  0.00000000000E+00  0.00000000000E+00  0.16008533318E+04  0.30558997195E+04  0.26030350950E+04 0.  0.
        1    1    3    3  502    0  0.66269108523E+03  0.32939136370E+03  0.20573427555E+04  0.21863936879E+04  0.50400001928E-02 0. -1.
       -1    1    3    3    0  502 -0.66269108523E+03 -0.32939136370E+03 -0.45648942372E+03  0.86950603156E+03  0.50400001928E-02 0.  1.
</event>
<event>
 5   0  0.2503292E-06  0.2612043E+04  0.7818609E-02  0.8364122E-01
       -1   -1    0    0    0  501  0.00000000000E+00  0.00000000000E+00  0.17755141196E+04  0.17755141196E+04  0.50400001928E-02 0. -1.
        1   -1    0    0  501    0  0.00000000000E+00  0.00000000000E+00 -0.96067539663E+03  0.96067539664E+03  0.50400001928E-02 0.  1.
    10030    2    1    2    0    0  0.00000000000E+00  0.00000000000E+00  0.81483872298E+03  0.27361895163E+04  0.26120434385E+04 0.  0.
        2    1    3    3  502    0 -0.12762318147E+04 -0.27643417342E+03  0.38378061404E+03  0.13610551263E+04  0.25500000920E-02 0.  1.
       -2    1    3    3    0  502  0.12762318147E+04  0.27643417342E+03  0.43105810894E+03  0.13751343899E+04  0.25500000920E-02 0. -1.
</event>
<event>
 5   0  0.6158063E-06  0.2599158E+04  0.7818609E-02  0.8368487E-01
        2   -1    0    0  501    0  0.00000000000E+00  0.00000000000E+00  0.11360874668E+04  0.11360874668E+04  0.25500000920E-02 0. -1.
       -2   -1    0    0    0  501  0.00000000000E+00  0.00000000000E+00 -0.14865984691E+04  0.14865984691E+04  0.25500000920E-02 0.  1.
    10030    2    1    2    0    0  0.00000000000E+00  0.00000000000E+00 -0.35051100230E+03  0.26226859358E+04  0.25991582397E+04 0.  0.
        2    1    3    3  502    0  0.84688698789E+03 -0.86320062461E+03 -0.65556109476E+03  0.13755338009E+04  0.25500000920E-02 0.  1.
       -2    1    3    3    0  502 -0.84688698789E+03  0.86320062461E+03  0.30505009246E+03  0.12471521349E+04  0.25500000920E-02 0. -1.
</event>
<event>
 5   0  0.5940748E-06  0.2605963E+04  0.7818609E-02  0.8366178E-01
        2   -1    0    0  501    0  0.00000000000E+00  0.00000000000E+00  0.17369427381E+04  0.17369427381E+04  0.25500000920E-02 0. -1.
       -2   -1    0    0    0  501  0.00000000000E+00  0.00000000000E+00 -0.97744212810E+03  0.97744212810E+03  0.25500000920E-02 0.  1.
    10030    2    1    2    0    0  0.00000000000E+00  0.00000000000E+00  0.75950060996E+03  0.27143848662E+04  0.26059631665E+04 0.  0.
        1    1    3    3  502    0  0.27535498483E+02  0.77356691549E+03  0.14714981983E+04  0.16626698181E+04  0.50400001928E-02 0. -1.
       -1    1    3    3    0  502 -0.27535498483E+02 -0.77356691549E+03 -0.71199758836E+03  0.10517150480E+04  0.50400001928E-02 0.  1.
</event>
<event>
 5   0  0.2503292E-06  0.2606825E+04  0.7818609E-02  0.8365887E-01
        1   -1    0    0  501    0  0.00000000000E+00  0.00000000000E+00  0.10683963165E+04  0.10683963165E+04  0.50400001928E-02 0. -1.
       -1   -1    0    0    0  501  0.00000000000E+00  0.00000000000E+00 -0.15901248984E+04  0.15901248984E+04  0.50400001928E-02 0.  1.
    10030    2    1    2    0    0  0.00000000000E+00  0.00000000000E+00 -0.52172858198E+03  0.26585212149E+04  0.26068245696E+04 0.  0.
        2    1    3    3  502    0 -0.27251451154E+03 -0.11296025101E+04  0.34128333098E+03  0.12110905424E+04  0.25500000920E-02 0. -1.
       -2    1    3    3    0  502  0.27251451154E+03  0.11296025101E+04 -0.86301191296E+03  0.14474306725E+04  0.25500000920E-02 0.  1.
</event>
<event>
 5   0  0.2471488E-06  0.2590494E+04  0.7818609E-02  0.8371437E-01
       -1   -1    0    0    0  501  0.00000000000E+00  0.00000000000E+00  0.69999204180E+03  0.69999204182E+03  0.50400001928E-02 0.  1.
        1   -1    0    0  501    0  0.00000000000E+00  0.00000000000E+00 -0.23966913614E+04  0.23966913614E+04  0.50400001928E-02 0. -1.
    10030    2    1    2    0    0  0.00000000000E+00  0.00000000000E+00 -0.16966993196E+04  0.30966834032E+04  0.25904940685E+04 0.  0.
        4    1    3    3  502    0 -0.94179735287E+03 -0.84032376013E+03 -0.50078341056E+03  0.13579071813E+04  0.12699999809E+01 0. -1.
       -4    1    3    3    0  502  0.94179735287E+03  0.84032376013E+03 -0.11959159091E+04  0.17387762220E+04  0.12699999809E+01 0.  1.
</event>
<event>
 5   0  0.6161834E-06  0.2595120E+04  0.7818609E-02  0.8369861E-01
       -2   -1    0    0    0  501  0.00000000000E+00  0.00000000000E+00  0.72268003696E+03  0.72268003697E+03  0.25500000920E-02 0. -1.
        2   -1    0    0  501    0  0.00000000000E+00  0.00000000000E+00 -0.23297480786E+04  0.23297480786E+04  0.25500000920E-02 0.  1.
    10030    2    1    2    0    0  0.00000000000E+00  0.00000000000E+00 -0.16070680416E+04  0.30524281155E+04  0.25951203652E+04 0.  0.
        5    1    3    3  502    0  0.43951116357E+03 -0.28202852896E+03  0.59360847173E+03  0.79063472081E+03  0.46999998093E+01 0. -1.
       -5    1    3    3    0  502 -0.43951116357E+03  0.28202852896E+03 -0.22006765133E+04  0.22617933947E+04  0.46999998093E+01 0.  1.
</event>
<event>
 5   0  0.2333979E-06  0.2590385E+04  0.7818609E-02  0.8371475E-01
       -1   -1    0    0    0  501  0.00000000000E+00  0.00000000000E+00  0.74108302880E+03  0.74108302881E+03  0.50400001928E-02 0. -1.
        1   -1    0    0  501    0  0.00000000000E+00  0.00000000000E+00 -0.22636102511E+04  0.22636102511E+04  0.50400001928E-02 0.  1.
    10030    2    1    2    0    0  0.00000000000E+00  0.00000000000E+00 -0.15225272223E+04  0.30046932799E+04  0.25903846363E+04 0.  0.
        3    1    3    3  502    0 -0.72576852602E+03  0.10710925767E+04 -0.69221185135E+03  0.14673569840E+04  0.10100000352E+00 0.  1.
       -3    1    3    3    0  502  0.72576852602E+03 -0.10710925767E+04 -0.83031537095E+03  0.15373362959E+04  0.10100000352E+00 0. -1.
</event>
<event>
 5   0  0.2333979E-06  0.2600299E+04  0.7818609E-02  0.8368100E-01
       -1   -1    0    0    0  501  0.00000000000E+00  0.00000000000E+00  0.10443066386E+04  0.10443066386E+04  0.50400001928E-02 0. -1.
        1   -1    0    0  501    0  0.00000000000E+00  0.00000000000E+00 -0.16186708121E+04  0.16186708121E+04  0.50400001928E-02 0.  1.
    10030    2    1    2    0    0  0.00000000000E+00  0.00000000000E+00 -0.57436417348E+03  0.26629774506E+04  0.26002989634E+04 0.  0.
        3    1    3    3  502    0 -0.11479172922E+04  0.73775562895E+02  0.33342152708E+03  0.11976338624E+04  0.10100000352E+00 0.  1.
       -3    1    3    3    0  502  0.11479172922E+04 -0.73775562895E+02 -0.90778570056E+03  0.14653435883E+04  0.10100000352E+00 0. -1.
</event>
<event>
 5   0  0.6173140E-06  0.2587349E+04  0.7818609E-02  0.8372511E-01
        2   -1    0    0  501    0  0.00000000000E+00  0.00000000000E+00  0.87839912205E+03  0.87839912205E+03  0.25500000920E-02 0.  1.
       -2   -1    0    0    0  501  0.00000000000E+00  0.00000000000E+00 -0.19052764013E+04  0.19052764013E+04  0.25500000920E-02 0. -1.
    10030    2    1    2    0    0  0.00000000000E+00  0.00000000000E+00 -0.10268772792E+04  0.27836755233E+04  0.25873485410E+04 0.  0.
        3    1    3    3  502    0 -0.10157288109E+04  0.75128750600E+03 -0.81286421394E+03  0.15022936379E+04  0.10100000352E+00 0. -1.
       -3    1    3    3    0  502  0.10157288109E+04 -0.75128750600E+03 -0.21401306527E+03  0.12813818854E+04  0.10100000352E+00 0.  1.
</event>
<event>
 5   0  0.6161834E-06  0.2617191E+04  0.7818609E-02  0.8362385E-01
       -2   -1    0    0    0  501  0.00000000000E+00  0.00000000000E+00  0.10860732248E+04  0.10860732248E+04  0.25500000920E-02 0.  1.
        2   -1    0    0  501    0  0.00000000000E+00  0.00000000000E+00 -0.15767100858E+04  0.15767100858E+04  0.25500000920E-02 0. -1.
    10030    2    1    2    0    0  0.00000000000E+00  0.00000000000E+00 -0.49063686096E+03  0.26627833106E+04  0.26171913246E+04 0.  0.
        5    1    3    3  502    0 -0.49307574743E+03 -0.11368457630E+04 -0.67318993776E+03  0.14102300393E+04  0.46999998093E+01 0. -1.
       -5    1    3    3    0  502  0.49307574743E+03  0.11368457630E+04  0.18255307680E+03  0.12525532713E+04  0.46999998093E+01 0.  1.
</event>
<event>
 5   0  0.2456600E-06  0.2593060E+04  0.7818609E-02  0.8370562E-01
        1   -1    0    0  501    0  0.00000000000E+00  0.00000000000E+00  0.15796848516E+04  0.15796848516E+04  0.50400001928E-02 0.  1.
       -1   -1    0    0    0  501  0.00000000000E+00  0.00000000000E+00 -0.10641297836E+04  0.10641297836E+04  0.50400001928E-02 0. -1.
    10030    2    1    2    0    0  0.00000000000E+00  0.00000000000E+00  0.51555506801E+03  0.26438146352E+04  0.25930597366E+04 0.  0.
        5    1    3    3  502    0 -0.12641353697E+04  0.26491566772E+03  0.37289935679E+03  0.13443565614E+04  0.46999998093E+01 0.  1.
       -5    1    3    3    0  502  0.12641353697E+04 -0.26491566772E+03  0.14265571121E+03  0.12994580739E+04  0.46999998093E+01 0. -1.
</event>
<event>
 5   0  0.2503292E-06  0.2597565E+04  0.7818609E-02  0.8369029E-01
        1   -1    0    0  501    0  0.00000000000E+00  0.00000000000E+00  0.14274392804E+04  0.14274392804E+04  0.50400001928E-02 0. -1.
       -1   -1    0    0    0  501  0.00000000000E+00  0.00000000000E+00 -0.11817213691E+04  0.11817213691E+04  0.50400001928E-02 0.  1.
    10030    2    1    2    0    0  0.00000000000E+00  0.00000000000E+00  0.24571791130E+03  0.26091606496E+04  0.25975646293E+04 0.  0.
        2    1    3    3  502    0 -0.62047343675E+03  0.61237457058E+03  0.10898849636E+04  0.13956500759E+04  0.25500000920E-02 0. -1.
       -2    1    3    3    0  502  0.62047343675E+03 -0.61237457058E+03 -0.84416705227E+03  0.12135105737E+04  0.25500000920E-02 0.  1.
</event>
<event>
 5   0  0.5942229E-06  0.2622769E+04  0.7818609E-02  0.8360508E-01
       -2   -1    0    0    0  501  0.00000000000E+00  0.00000000000E+00  0.86331006124E+03  0.86331006125E+03  0.25500000920E-02 0.  1.
        2   -1    0    0  501    0  0.00000000000E+00  0.00000000000E+00 -0.19920184708E+04  0.19920184708E+04  0.25500000920E-02 0. -1.
    10030    2    1    2    0    0  0.00000000000E+00  0.00000000000E+00 -0.11287084095E+04  0.28553285320E+04  0.26227692144E+04 0.  0.
        4    1    3    3  502    0  0.11524255104E+04  0.12695753388E+03  0.10278360120E+03  0.11639453827E+04  0.12699999809E+01 0.  1.
       -4    1    3    3    0  502 -0.11524255104E+04 -0.12695753388E+03 -0.12314920107E+04  0.16913831493E+04  0.12699999809E+01 0. -1.
</event>
<event>
 5   0  0.6161834E-06  0.2588145E+04  0.7818609E-02  0.8372239E-01
       -2   -1    0    0    0  501  0.00000000000E+00  0.00000000000E+00  0.92590429417E+03  0.92590429418E+03  0.25500000920E-02 0.  1.
        2   -1    0    0  501    0  0.00000000000E+00  0.00000000000E+00 -0.18086353277E+04  0.18086353277E+04  0.25500000920E-02 0. -1.
    10030    2    1    2    0    0  0.00000000000E+00  0.00000000000E+00 -0.88273103355E+03  0.27345396219E+04  0.25881446764E+04 0.  0.
        5    1    3    3  502    0  0.63924983956E+03 -0.19702942220E+03  0.72905724275E+03  0.98944808040E+03  0.46999998093E+01 0.  1.
       -5    1    3    3    0  502 -0.63924983956E+03  0.19702942220E+03 -0.16117882763E+04  0.17450915415E+04  0.46999998093E+01 0. -1.
</event>
<event>
 5   0  0.2440590E-06  0.2616298E+04  0.7818609E-02  0.8362686E-01
        1   -1    0    0  501    0  0.00000000000E+00  0.00000000000E+00  0.11563438139E+04  0.11563438139E+04  0.50400001928E-02 0.  1.
       -1   -1    0    0    0  501  0.00000000000E+00  0.00000000000E+00 -0.14798832190E+04  0.14798832190E+04  0.50400001928E-02 0. -1.
    10030    2    1    2    0    0  0.00000000000E+00  0.00000000000E+00 -0.32353940513E+03  0.26362270329E+04  0.26162979995E+04 0.  0.
        1    1    3    3  502    0 -0.11082720155E+04 -0.52774791271E+03 -0.61739667699E+03  0.13740317960E+04  0.50400001928E-02 0. -1.
       -1    1    3    3    0  502  0.11082720155E+04  0.52774791271E+03  0.29385727186E+03  0.12621952369E+04  0.50400001928E-02 0.  1.
</event>
<event>
 5   0  0.6158063E-06  0.2596042E+04  0.7818609E-02  0.8369547E-01
       -2   -1    0    0    0  501  0.00000000000E+00  0.00000000000E+00  0.90051713076E+03  0.90051713076E+03  0.25500000920E-02 0. -1.
        2   -1    0    0  501    0  0.00000000000E+00  0.00000000000E+00 -0.18709898795E+04  0.18709898795E+04  0.25500000920E-02 0.  1.
    10030    2    1    2    0    0  0.00000000000E+00  0.00000000000E+00 -0.97047274874E+03  0.27715070103E+04  0.25960419396E+04 0.  0.
        2    1    3    3  502    0  0.27030803227E+03  0.14719677315E+03  0.86099567585E+03  0.91435598985E+03  0.25500000920E-02 0. -1.
       -2    1    3    3    0  502 -0.27030803227E+03 -0.14719677315E+03 -0.18314684246E+04  0.18571510204E+04  0.25500000920E-02 0.  1.
</event>
<event>
 5   0  0.2503292E-06  0.2609047E+04  0.7818609E-02  0.8365135E-01
        1   -1    0    0  501    0  0.00000000000E+00  0.00000000000E+00  0.12076815671E+04  0.12076815671E+04  0.50400001928E-02 0.  1.
       -1   -1    0    0    0  501  0.00000000000E+00  0.00000000000E+00 -0.14091307136E+04  0.14091307136E+04  0.50400001928E-02 0. -1.
    10030    2    1    2    0    0  0.00000000000E+00  0.00000000000E+00 -0.20144914649E+03  0.26168122808E+04  0.26090467137E+04 0.  0.
        2    1    3    3  502    0  0.69782778760E+03  0.41675144527E+01 -0.12061848503E+04  0.13935074031E+04  0.25500000920E-02 0. -1.
       -2    1    3    3    0  502 -0.69782778760E+03 -0.41675144527E+01  0.10047357038E+04  0.12233048777E+04  0.25500000920E-02 0.  1.
</event>
<event>
 5   0  0.5940748E-06  0.2607488E+04  0.7818609E-02  0.8365662E-01
        2   -1    0    0  501    0  0.00000000000E+00  0.00000000000E+00  0.24837991947E+04  0.24837991947E+04  0.25500000920E-02 0. -1.
       -2   -1    0    0    0  501  0.00000000000E+00  0.00000000000E+00 -0.68433425538E+03  0.68433425539E+03  0.25500000920E-02 0.  1.
    10030    2    1    2    0    0  0.00000000000E+00  0.00000000000E+00  0.17994649393E+04  0.31681334501E+04  0.26074883489E+04 0.  0.
        1    1    3    3  502    0  0.28526560818E+03  0.44876100503E+03  0.23460507148E+04  0.24055595738E+04  0.50400001928E-02 0. -1.
       -1    1    3    3    0  502 -0.28526560818E+03 -0.44876100503E+03 -0.54658577545E+03  0.76257387628E+03  0.50400001928E-02 0.  1.
</event>
<event>
 5   0  0.2333979E-06  0.2601261E+04  0.7818609E-02  0.8367773E-01
        1   -1    0    0  501    0  0.00000000000E+00  0.00000000000E+00  0.17135595899E+04  0.17135595899E+04  0.50400001928E-02 0. -1.
       -1   -1    0    0    0  501  0.00000000000E+00  0.00000000000E+00 -0.98720824240E+03  0.98720824241E+03  0.50400001928E-02 0.  1.
    10030    2    1    2    0    0  0.00000000000E+00  0.00000000000E+00  0.72635134752E+03  0.27007678323E+04  0.26012613487E+04 0.  0.
        3    1    3    3  502    0 -0.26134611556E+03  0.10646793298E+04  0.10898017890E+04  0.15458045857E+04  0.10100000352E+00 0. -1.
       -3    1    3    3    0  502  0.26134611556E+03 -0.10646793298E+04 -0.36345044152E+03  0.11549632467E+04  0.10100000352E+00 0.  1.
</event>
<event>
 5   0  0.2333979E-06  0.2602557E+04  0.7818609E-02  0.8367333E-01
       -1   -1    0    0    0  501  0.00000000000E+00  0.00000000000E+00  0.10310380620E+04  0.10310380620E+04  0.50400001928E-02 0.  1.
        1   -1    0    0  501    0  0.00000000000E+00  0.00000000000E+00 -0.16423504494E+04  0.16423504494E+04  0.50400001928E-02 0. -1.
    10030    2    1    2    0    0  0.00000000000E+00  0.00000000000E+00 -0.61131238740E+03  0.26733885114E+04  0.26025570691E+04 0.  0.
        3    1    3    3  502    0  0.32078708050E+03 -0.48573001203E+03  0.88984322060E+03  0.10633244862E+04  0.10100000352E+00 0.  1.
       -3    1    3    3    0  502 -0.32078708050E+03  0.48573001203E+03 -0.15011556080E+04  0.16100640252E+04  0.10100000352E+00 0. -1.
</event>
<event>
 5   0  0.5942229E-06  0.2624982E+04  0.7818609E-02  0.8359765E-01
        2   -1    0    0  501    0  0.00000000000E+00  0.00000000000E+00  0.11590633181E+04  0.11590633181E+04  0.25500000920E-02 0. -1.
       -2   -1    0    0    0  501  0.00000000000E+00  0.00000000000E+00 -0.14862278351E+04  0.14862278351E+04  0.25500000920E-02 0.  1.
    10030    2    1    2    0    0  0.00000000000E+00  0.00000000000E+00 -0.32716451696E+03  0.26452911532E+04  0.26249816502E+04 0.  0.
        4    1    3    3  502    0 -0.13424142198E+02  0.12654587089E+04  0.18705317039E+03  0.12792796618E+04  0.12699999809E+01 0. -1.
       -4    1    3    3    0  502  0.13424142198E+02 -0.12654587089E+04 -0.51421768736E+03  0.13660114914E+04  0.12699999809E+01 0.  1.
</event>
<event>
 5   0  0.5940748E-06  0.2456111E+04  0.7818609E-02  0.8418790E-01
       -2   -1    0    0    0  501  0.00000000000E+00  0.00000000000E+00  0.10261638594E+04  0.10261638594E+04  0.25500000920E-02 0. -1.
        2   -1    0    0  501    0  0.00000000000E+00  0.00000000000E+00 -0.14696682710E+04  0.14696682710E+04  0.25500000920E-02 0.  1.
    10030    2    1    2    0    0  0.00000000000E+00  0.00000000000E+00 -0.44350441157E+03  0.24958321304E+04  0.24561111253E+04 0.  0.
        1    1    3    3  502    0  0.79375918781E+02  0.30689085837E+03 -0.14273788558E+04  0.14621535259E+04  0.50400001928E-02 0.  1.
       -1    1    3    3    0  502 -0.79375918781E+02 -0.30689085837E+03  0.98387444419E+03  0.10336786045E+04  0.50400001928E-02 0. -1.
</event>
<event>
 5   0  0.2072125E-06  0.2600587E+04  0.7818609E-02  0.8368002E-01
        4   -1    0    0  501    0  0.00000000000E+00  0.00000000000E+00  0.19948471941E+04  0.19948475984E+04  0.12699999809E+01 0. -1.
       -4   -1    0    0    0  501  0.00000000000E+00  0.00000000000E+00 -0.84756417194E+03  0.84756512343E+03  0.12699999809E+01 0.  1.
    10030    2    1    2    0    0  0.00000000000E+00  0.00000000000E+00  0.11472830222E+04  0.28424127218E+04  0.26005868084E+04 0.  0.
        1    1    3    3  502    0  0.90004844194E+03 -0.63885838619E+03  0.13249756043E+04  0.17244673344E+04  0.50400001928E-02 0. -1.
       -1    1    3    3    0  502 -0.90004844194E+03  0.63885838619E+03 -0.17769258213E+03  0.11179453874E+04  0.50400001928E-02 0.  1.
</event>
<event>
 5   0  0.2471488E-06  0.2602192E+04  0.7818609E-02  0.8367457E-01
       -1   -1    0    0    0  501  0.00000000000E+00  0.00000000000E+00  0.88619932862E+03  0.88619932864E+03  0.50400001928E-02 0. -1.
        1   -1    0    0  501    0  0.00000000000E+00  0.00000000000E+00 -0.19102363415E+04  0.19102363415E+04  0.50400001928E-02 0.  1.
    10030    2    1    2    0    0  0.00000000000E+00  0.00000000000E+00 -0.10240370129E+04  0.27964356702E+04  0.26021915098E+04 0.  0.
        4    1    3    3  502    0  0.61807347045E+02  0.13631449962E+02 -0.19085803218E+04  0.19096299176E+04  0.12699999809E+01 0.  1.
       -4    1    3    3    0  502 -0.61807347045E+02 -0.13631449962E+02  0.88454330889E+03  0.88680575256E+03  0.12699999809E+01 0. -1.
</event>
<event>
 5   0  0.2456600E-06  0.2601368E+04  0.7818609E-02  0.8367737E-01
        1   -1    0    0  501    0  0.00000000000E+00  0.00000000000E+00  0.24455016603E+04  0.24455016604E+04  0.50400001928E-02 0.  1.
       -1   -1    0    0    0  501  0.00000000000E+00  0.00000000000E+00 -0.69179215976E+03  0.69179215977E+03  0.50400001928E-02 0. -1.
    10030    2    1    2    0    0  0.00000000000E+00  0.00000000000E+00  0.17537095006E+04  0.31372938201E+04  0.26013680058E+04 0.  0.
        5    1    3    3  502    0 -0.51435735658E+03 -0.11303851319E+04  0.41066603136E+03  0.13080530249E+04  0.46999998093E+01 0. -1.
       -5    1    3    3    0  502  0.51435735658E+03  0.11303851319E+04  0.13430434692E+04  0.18292407952E+04  0.46999998093E+01 0.  1.
</event>
<event>
 5   0  0.6158063E-06  0.2620199E+04  0.7818609E-02  0.8361372E-01
        2   -1    0    0  501    0  0.00000000000E+00  0.00000000000E+00  0.86313489651E+03  0.86313489651E+03  0.25500000920E-02 0. -1.
       -2   -1    0    0    0  501  0.00000000000E+00  0.00000000000E+00 -0.19885189991E+04  0.19885189991E+04  0.25500000920E-02 0.  1.
    10030    2    1    2    0    0  0.00000000000E+00  0.00000000000E+00 -0.11253841026E+04  0.28516538957E+04  0.26201985730E+04 0.  0.
        2    1    3    3  502    0 -0.11440700007E+04 -0.49225452876E+03 -0.10049759999E+04  0.16003710344E+04  0.25500000920E-02 0.  1.
       -2    1    3    3    0  502  0.11440700007E+04  0.49225452876E+03 -0.12040810276E+03  0.12512828612E+04  0.25500000920E-02 0. -1.
</event>
<event>
 5   0  0.2471488E-06  0.2600432E+04  0.7818609E-02  0.8368055E-01
        1   -1    0    0  501    0  0.00000000000E+00  0.00000000000E+00  0.13488649483E+04  0.13488649483E+04  0.50400001928E-02 0.  1.
       -1   -1    0    0    0  501  0.00000000000E+00  0.00000000000E+00 -0.12533214466E+04  0.12533214467E+04  0.50400001928E-02 0. -1.
    10030    2    1    2    0    0  0.00000000000E+00  0.00000000000E+00  0.95543501643E+02  0.26021863949E+04  0.26004317859E+04 0.  0.
        4    1    3    3  502    0 -0.14390647379E+03  0.49058914570E+03  0.12440586129E+04  0.13450168134E+04  0.12699999809E+01 0.  1.
       -4    1    3    3    0  502  0.14390647379E+03 -0.49058914570E+03 -0.11485151113E+04  0.12571695815E+04  0.12699999809E+01 0. -1.
</event>
<event>
 5   0  0.6161834E-06  0.2612527E+04  0.7818609E-02  0.8363958E-01
        2   -1    0    0  501    0  0.00000000000E+00  0.00000000000E+00  0.17207088443E+04  0.17207088443E+04  0.25500000920E-02 0.  1.
       -2   -1    0    0    0  501  0.00000000000E+00  0.00000000000E+00 -0.99164066783E+03  0.99164066784E+03  0.25500000920E-02 0. -1.
    10030    2    1    2    0    0  0.00000000000E+00  0.00000000000E+00  0.72906817642E+03  0.27123495121E+04  0.26125274104E+04 0.  0.
        5    1    3    3  502    0 -0.43223793659E+03  0.50257157735E+03 -0.80403689767E+03  0.10420677747E+04  0.46999998093E+01 0. -1.
       -5    1    3    3    0  502  0.43223793659E+03 -0.50257157735E+03  0.15331050741E+04  0.16702817374E+04  0.46999998093E+01 0.  1.
</event>
<event>
 5   0  0.2456600E-06  0.2589317E+04  0.7818609E-02  0.8371839E-01
       -1   -1    0    0    0  501  0.00000000000E+00  0.00000000000E+00  0.12351574970E+04  0.12351574970E+04  0.50400001928E-02 0. -1.
        1   -1    0    0  501    0  0.00000000000E+00  0.00000000000E+00 -0.13570262415E+04  0.13570262415E+04  0.50400001928E-02 0.  1.
    10030    2    1    2    0    0  0.00000000000E+00  0.00000000000E+00 -0.12186874453E+03  0.25921837385E+04  0.25893173895E+04 0.  0.
        5    1    3    3  502    0  0.61533744657E+03 -0.97981518668E+02  0.10751692369E+04  0.12426791738E+04  0.46999998093E+01 0. -1.
       -5    1    3    3    0  502 -0.61533744657E+03  0.97981518668E+02 -0.11970379814E+04  0.13495045647E+04  0.46999998093E+01 0.  1.
</event>
<event>
 5   0  0.2440590E-06  0.2599737E+04  0.7818609E-02  0.8368291E-01
        1   -1    0    0  501    0  0.00000000000E+00  0.00000000000E+00  0.13868023394E+04  0.13868023394E+04  0.50400001928E-02 0.  1.
       -1   -1    0    0    0  501  0.00000000000E+00  0.00000000000E+00 -0.12183838538E+04  0.12183838538E+04  0.50400001928E-02 0. -1.
    10030    2    1    2    0    0  0.00000000000E+00  0.00000000000E+00  0.16841848560E+03  0.26051861932E+04  0.25997365857E+04 0.  0.
        1    1    3    3  502    0  0.18873097072E+03  0.10197990875E+04  0.86946402464E+03  0.13533577680E+04  0.50400001928E-02 0.  1.
       -1    1    3    3    0  502 -0.18873097072E+03 -0.10197990875E+04 -0.70104553904E+03  0.12518284251E+04  0.50400001928E-02 0. -1.
</event>
<event>
 5   0  0.6158063E-06  0.2595590E+04  0.7818609E-02  0.8369701E-01
       -2   -1    0    0    0  501  0.00000000000E+00  0.00000000000E+00  0.11766032031E+04  0.11766032031E+04  0.25500000920E-02 0.  1.
        2   -1    0    0  501    0  0.00000000000E+00  0.00000000000E+00 -0.14314693867E+04  0.14314693867E+04  0.25500000920E-02 0. -1.
    10030    2    1    2    0    0  0.00000000000E+00  0.00000000000E+00 -0.25486618355E+03  0.26080725898E+04  0.25955896945E+04 0.  0.
        2    1    3    3  502    0 -0.38477136546E+03  0.88698424368E+03  0.74245636513E+03  0.12190289194E+04  0.25500000920E-02 0.  1.
       -2    1    3    3    0  502  0.38477136546E+03 -0.88698424368E+03 -0.99732254868E+03  0.13890436704E+04  0.25500000920E-02 0. -1.
</event>
<event>
 5   0  0.2456600E-06  0.2615470E+04  0.7818609E-02  0.8362965E-01
        1   -1    0    0  501    0  0.00000000000E+00  0.00000000000E+00  0.14188513181E+04  0.14188513181E+04  0.50400001928E-02 0.  1.
       -1   -1    0    0    0  501  0.00000000000E+00  0.00000000000E+00 -0.12053204542E+04  0.12053204542E+04  0.50400001928E-02 0. -1.
    10030    2    1    2    0    0  0.00000000000E+00  0.00000000000E+00  0.21353086389E+03  0.26241717723E+04  0.26154697591E+04 0.  0.
        5    1    3    3  502    0 -0.76521883526E+03 -0.23009195791E+00 -0.95722905313E+03  0.12255078412E+04  0.46999998093E+01 0. -1.
       -5    1    3    3    0  502  0.76521883526E+03  0.23009195791E+00  0.11707599170E+04  0.13986639311E+04  0.46999998093E+01 0.  1.
</event>
<event>
 5   0  0.5940748E-06  0.2606335E+04  0.7818609E-02  0.8366052E-01
        2   -1    0    0  501    0  0.00000000000E+00  0.00000000000E+00  0.23327595407E+04  0.23327595407E+04  0.25500000920E-02 0. -1.
       -2   -1    0    0    0  501  0.00000000000E+00  0.00000000000E+00 -0.72799861236E+03  0.72799861237E+03  0.25500000920E-02 0.  1.
    10030    2    1    2    0    0  0.00000000000E+00  0.00000000000E+00  0.16047609283E+04  0.30607581531E+04  0.26063351347E+04 0.  0.
        1    1    3    3  502    0  0.50646434436E+03 -0.85865554530E+02 -0.60408428249E+03  0.79296711530E+03  0.50400001928E-02 0.  1.
       -1    1    3    3    0  502 -0.50646434436E+03  0.85865554530E+02  0.22088452108E+04  0.22677910378E+04  0.50400001928E-02 0. -1.
</event>
<event>
 5   0  0.2440590E-06  0.2601275E+04  0.7818609E-02  0.8367768E-01
       -1   -1    0    0    0  501  0.00000000000E+00  0.00000000000E+00  0.12632913659E+04  0.12632913659E+04  0.50400001928E-02 0. -1.
        1   -1    0    0  501    0  0.00000000000E+00  0.00000000000E+00 -0.13390872377E+04  0.13390872377E+04  0.50400001928E-02 0.  1.
    10030    2    1    2    0    0  0.00000000000E+00  0.00000000000E+00 -0.75795871787E+02  0.26023786037E+04  0.26012745689E+04 0.  0.
        1    1    3    3  502    0  0.40846562782E+03 -0.20279492108E+02 -0.12730886778E+04  0.13371649892E+04  0.50400001928E-02 0.  1.
       -1    1    3    3    0  502 -0.40846562782E+03  0.20279492108E+02  0.11972928060E+04  0.12652136145E+04  0.50400001928E-02 0. -1.
</event>
<event>
 5   0  0.2503292E-06  0.2606236E+04  0.7818609E-02  0.8366086E-01
        1   -1    0    0  501    0  0.00000000000E+00  0.00000000000E+00  0.19792251443E+04  0.19792251443E+04  0.50400001928E-02 0.  1.
       -1   -1    0    0    0  501  0.00000000000E+00  0.00000000000E+00 -0.85797041180E+03  0.85797041182E+03  0.50400001928E-02 0. -1.
    10030    2    1    2    0    0  0.00000000000E+00  0.00000000000E+00  0.11212547325E+04  0.28371955561E+04  0.26062360692E+04 0.  0.
        2    1    3    3  502    0  0.11910867036E+04  0.26716277023E+03  0.64077753207E+02  0.12223622375E+04  0.25500000920E-02 0.  1.
       -2    1    3    3    0  502 -0.11910867036E+04 -0.26716277023E+03  0.10571769793E+04  0.16148333186E+04  0.25500000920E-02 0. -1.
</event>
<event>
 5   0  0.5942229E-06  0.2583422E+04  0.7818609E-02  0.8373854E-01
        2   -1    0    0  501    0  0.00000000000E+00  0.00000000000E+00  0.12279825406E+04  0.12279825406E+04  0.25500000920E-02 0.  1.
       -2   -1    0    0    0  501  0.00000000000E+00  0.00000000000E+00 -0.13587467455E+04  0.13587467455E+04  0.25500000920E-02 0. -1.
    10030    2    1    2    0    0  0.00000000000E+00  0.00000000000E+00 -0.13076420487E+03  0.25867292862E+04  0.25834219792E+04 0.  0.
        4    1    3    3  502    0  0.50174149885E+03 -0.93058524316E+03  0.67771504543E+03  0.12557996346E+04  0.12699999809E+01 0.  1.
       -4    1    3    3    0  502 -0.50174149885E+03  0.93058524316E+03 -0.80847925030E+03  0.13309296516E+04  0.12699999809E+01 0. -1.
</event>
<event>
 5   0  0.6158063E-06  0.2595664E+04  0.7818609E-02  0.8369676E-01
        2   -1    0    0  501    0  0.00000000000E+00  0.00000000000E+00  0.13469171520E+04  0.13469171520E+04  0.25500000920E-02 0.  1.
       -2   -1    0    0    0  501  0.00000000000E+00  0.00000000000E+00 -0.12505352344E+04  0.12505352344E+04  0.25500000920E-02 0. -1.
    10030    2    1    2    0    0  0.00000000000E+00  0.00000000000E+00  0.96381917614E+02  0.25974523864E+04  0.25956635810E+04 0.  0.
        2    1    3    3  502    0  0.53066631995E+03 -0.10366230641E+04 -0.52506789570E+03  0.12774546627E+04  0.25500000920E-02 0. -1.
       -2    1    3    3    0  502 -0.53066631995E+03  0.10366230641E+04  0.62144981332E+03  0.13199977237E+04  0.25500000920E-02 0.  1.
</event>
<event>
 5   0  0.5942229E-06  0.2556965E+04  0.7818609E-02  0.8382968E-01
        2   -1    0    0  501    0  0.00000000000E+00  0.00000000000E+00  0.13796612784E+04  0.13796612784E+04  0.25500000920E-02 0. -1.
       -2   -1    0    0    0  501  0.00000000000E+00  0.00000000000E+00 -0.11847235781E+04  0.11847235781E+04  0.25500000920E-02 0.  1.
    10030    2    1    2    0    0  0.00000000000E+00  0.00000000000E+00  0.19493770031E+03  0.25643848564E+04  0.25569647993E+04 0.  0.
        4    1    3    3  502    0  0.12170087141E+04 -0.39141123827E+03  0.11174623376E+03  0.12832777569E+04  0.12699999809E+01 0.  1.
       -4    1    3    3    0  502 -0.12170087141E+04  0.39141123827E+03  0.83191466548E+02  0.12811070996E+04  0.12699999809E+01 0. -1.
</event>
<event>
 5   0  0.2503292E-06  0.2564135E+04  0.7818609E-02  0.8380487E-01
       -1   -1    0    0    0  501  0.00000000000E+00  0.00000000000E+00  0.12117846154E+04  0.12117846154E+04  0.50400001928E-02 0. -1.
        1   -1    0    0  501    0  0.00000000000E+00  0.00000000000E+00 -0.13564267480E+04  0.13564267480E+04  0.50400001928E-02 0.  1.
    10030    2    1    2    0    0  0.00000000000E+00  0.00000000000E+00 -0.14464213261E+03  0.25682113635E+04  0.25641349927E+04 0.  0.
        2    1    3    3  502    0  0.10311943319E+04  0.88721742767E+02 -0.83013725734E+03  0.13267860279E+04  0.25500000920E-02 0.  1.
       -2    1    3    3    0  502 -0.10311943319E+04 -0.88721742767E+02  0.68549512473E+03  0.12414253356E+04  0.25500000920E-02 0. -1.
</event>
<event>
 5   0  0.5940748E-06  0.2661226E+04  0.7818609E-02  0.8347697E-01
        2   -1    0    0  501    0  0.00000000000E+00  0.00000000000E+00  0.23310027029E+04  0.23310027029E+04  0.25500000920E-02 0. -1.
       -2   -1    0    0    0  501  0.00000000000E+00  0.00000000000E+00 -0.75955757438E+03  0.75955757438E+03  0.25500000920E-02 0.  1.
    10030    2    1    2    0    0  0.00000000000E+00  0.00000000000E+00  0.15714451286E+04  0.30905602773E+04  0.26612258521E+04 0.  0.
        1    1    3    3  502    0  0.71079087698E+03 -0.95151599886E+03  0.88997996971E+02  0.11910193157E+04  0.50400001928E-02 0.  1.
       -1    1    3    3    0  502 -0.71079087698E+03  0.95151599886E+03  0.14824471316E+04  0.18995409616E+04  0.50400001928E-02 0. -1.
</event>
<event>
 5   0  0.2471488E-06  0.2606905E+04  0.7818609E-02  0.8365859E-01
       -1   -1    0    0    0  501  0.00000000000E+00  0.00000000000E+00  0.72684861735E+03  0.72684861737E+03  0.50400001928E-02 0.  1.
        1   -1    0    0  501    0  0.00000000000E+00  0.00000000000E+00 -0.23374724332E+04  0.23374724332E+04  0.50400001928E-02 0. -1.
    10030    2    1    2    0    0  0.00000000000E+00  0.00000000000E+00 -0.16106238159E+04  0.30643210506E+04  0.26069051431E+04 0.  0.
        4    1    3    3  502    0 -0.94915319603E+02 -0.57925597045E+03  0.56269728827E+03  0.81312744901E+03  0.12699999809E+01 0.  1.
       -4    1    3    3    0  502  0.94915319603E+02  0.57925597045E+03 -0.21733211041E+04  0.22511936016E+04  0.12699999809E+01 0. -1.
</event>
<event>
 5   0  0.2503292E-06  0.2582932E+04  0.7818609E-02  0.8374022E-01
        1   -1    0    0  501    0  0.00000000000E+00  0.00000000000E+00  0.95071006721E+03  0.95071006723E+03  0.50400001928E-02 0. -1.
       -1   -1    0    0    0  501  0.00000000000E+00  0.00000000000E+00 -0.17543564692E+04  0.17543564692E+04  0.50400001928E-02 0.  1.
    10030    2    1    2    0    0  0.00000000000E+00  0.00000000000E+00 -0.80364640198E+03  0.27050665364E+04  0.25829319439E+04 0.  0.
        2    1    3    3  502    0  0.50987007473E+03  0.70666630623E+02  0.83863438748E+03  0.98400655570E+03  0.25500000920E-02 0. -1.
       -2    1    3    3    0  502 -0.50987007473E+03 -0.70666630623E+02 -0.16422807895E+04  0.17210599807E+04  0.25500000920E-02 0.  1.
</event>
<event>
 5   0  0.2440590E-06  0.2613191E+04  0.7818609E-02  0.8363734E-01
        1   -1    0    0  501    0  0.00000000000E+00  0.00000000000E+00  0.12745008754E+04  0.12745008754E+04  0.50400001928E-02 0.  1.
       -1   -1    0    0    0  501  0.00000000000E+00  0.00000000000E+00 -0.13394979490E+04  0.13394979490E+04  0.50400001928E-02 0. -1.
    10030    2    1    2    0    0  0.00000000000E+00  0.00000000000E+00 -0.64997073629E+02  0.26139988244E+04  0.26131906234E+04 0.  0.
        1    1    3    3  502    0 -0.88379248673E+03 -0.42400935006E+03  0.83166575902E+03  0.12855119693E+04  0.50400001928E-02 0.  1.
       -1    1    3    3    0  502  0.88379248673E+03  0.42400935006E+03 -0.89666283265E+03  0.13284868550E+04  0.50400001928E-02 0. -1.
</event>
<event>
 5   0  0.5940748E-06  0.2581965E+04  0.7818609E-02  0.8374353E-01
       -2   -1    0    0    0  501  0.00000000000E+00  0.00000000000E+00  0.97771074523E+03  0.97771074523E+03  0.25500000920E-02 0.  1.
        2   -1    0    0  501    0  0.00000000000E+00  0.00000000000E+00 -0.17046304293E+04  0.17046304293E+04  0.25500000920E-02 0. -1.
    10030    2    1    2    0    0  0.00000000000E+00  0.00000000000E+00 -0.72691968409E+03  0.26823411746E+04  0.25819647460E+04 0.  0.
        1    1    3    3  502    0 -0.90450303520E+03 -0.29641836160E+02  0.59300090539E+03  0.10819678613E+04  0.50400001928E-02 0.  1.
       -1    1    3    3    0  502  0.90450303520E+03  0.29641836160E+02 -0.13199205895E+04  0.16003733132E+04  0.50400001928E-02 0. -1.
</event>
<event>
 5   0  0.2333979E-06  0.2584875E+04  0.7818609E-02  0.8373357E-01
       -1   -1    0    0    0  501  0.00000000000E+00  0.00000000000E+00  0.15101419083E+04  0.15101419083E+04  0.50400001928E-02 0.  1.
        1   -1    0    0  501    0  0.00000000000E+00  0.00000000000E+00 -0.11061179273E+04  0.11061179274E+04  0.50400001928E-02 0. -1.
    10030    2    1    2    0    0  0.00000000000E+00  0.00000000000E+00  0.40402398093E+03  0.26162598356E+04  0.25848752679E+04 0.  0.
        3    1    3    3  502    0 -0.67481711064E+03  0.38248198811E+03 -0.84433119447E+03  0.11465451497E+04  0.10100000352E+00 0. -1.
       -3    1    3    3    0  502  0.67481711064E+03 -0.38248198811E+03  0.12483551754E+04  0.14697146860E+04  0.10100000352E+00 0.  1.
</event>
<event>
 5   0  0.2456600E-06  0.2601524E+04  0.7818609E-02  0.8367684E-01
        1   -1    0    0  501    0  0.00000000000E+00  0.00000000000E+00  0.12545450491E+04  0.12545450491E+04  0.50400001928E-02 0. -1.
       -1   -1    0    0    0  501  0.00000000000E+00  0.00000000000E+00 -0.13486811704E+04  0.13486811704E+04  0.50400001928E-02 0.  1.
    10030    2    1    2    0    0  0.00000000000E+00  0.00000000000E+00 -0.94136121292E+02  0.26032262195E+04  0.26015236191E+04 0.  0.
        5    1    3    3  502    0 -0.90148017174E+02 -0.98217762634E+03 -0.89565587282E+03  0.13322991733E+04  0.46999998093E+01 0.  1.
       -5    1    3    3    0  502  0.90148017174E+02  0.98217762634E+03  0.80151975153E+03  0.12709270462E+04  0.46999998093E+01 0. -1.
</event>
<event>
 5   0  0.2333979E-06  0.2601034E+04  0.7818609E-02  0.8367850E-01
       -1   -1    0    0    0  501  0.00000000000E+00  0.00000000000E+00  0.27944798276E+04  0.27944798276E+04  0.50400001928E-02 0. -1.
        1   -1    0    0  501    0  0.00000000000E+00  0.00000000000E+00 -0.60524502737E+03  0.60524502739E+03  0.50400001928E-02 0.  1.
    10030    2    1    2    0    0  0.00000000000E+00  0.00000000000E+00  0.21892348002E+04  0.33997248550E+04  0.26010344248E+04 0.  0.
        3    1    3    3  502    0  0.10363458198E+04 -0.52568207718E+03  0.18578711395E+04  0.21913556274E+04  0.10100000352E+00 0.  1.
       -3    1    3    3    0  502 -0.10363458198E+04  0.52568207718E+03  0.33136366071E+03  0.12083692276E+04  0.10100000352E+00 0. -1.
</event>
<event>
 5   0  0.6158063E-06  0.2600141E+04  0.7818609E-02  0.8368153E-01
       -2   -1    0    0    0  501  0.00000000000E+00  0.00000000000E+00  0.15459363633E+04  0.15459363633E+04  0.25500000920E-02 0. -1.
        2   -1    0    0  501    0  0.00000000000E+00  0.00000000000E+00 -0.10933072566E+04  0.10933072566E+04  0.25500000920E-02 0.  1.
    10030    2    1    2    0    0  0.00000000000E+00  0.00000000000E+00  0.45262910666E+03  0.26392436199E+04  0.26001411072E+04 0.  0.
        2    1    3    3  502    0  0.90495580368E+03  0.54202776920E+02 -0.71952525317E+03  0.11574107039E+04  0.25500000920E-02 0.  1.
       -2    1    3    3    0  502 -0.90495580368E+03 -0.54202776920E+02  0.11721543598E+04  0.14818329160E+04  0.25500000920E-02 0. -1.
</event>
<event>
 5   0  0.6158063E-06  0.2598850E+04  0.7818609E-02  0.8368592E-01
        2   -1    0    0  501    0  0.00000000000E+00  0.00000000000E+00  0.24094233179E+04  0.24094233179E+04  0.25500000920E-02 0. -1.
       -2   -1    0    0    0  501  0.00000000000E+00  0.00000000000E+00 -0.70079240917E+03  0.70079240918E+03  0.25500000920E-02 0.  1.
    10030    2    1    2    0    0  0.00000000000E+00  0.00000000000E+00  0.17086309087E+04  0.31102157271E+04  0.25988501855E+04 0.  0.
        2    1    3    3  502    0  0.60874113570E+02  0.12734320312E+04  0.11551082108E+04  0.17203516427E+04  0.25500000920E-02 0.  1.
       -2    1    3    3    0  502 -0.60874113570E+02 -0.12734320312E+04  0.55352269790E+03  0.13898640844E+04  0.25500000920E-02 0. -1.
</event>
<event>
 5   0  0.5942229E-06  0.2584091E+04  0.7818609E-02  0.8373625E-01
        2   -1    0    0  501    0  0.00000000000E+00  0.00000000000E+00  0.19369831636E+04  0.19369831636E+04  0.25500000920E-02 0. -1.
       -2   -1    0    0    0  501  0.00000000000E+00  0.00000000000E+00 -0.86184621779E+03  0.86184621780E+03  0.25500000920E-02 0.  1.
    10030    2    1    2    0    0  0.00000000000E+00  0.00000000000E+00  0.10751369458E+04  0.27988293814E+04  0.25840910305E+04 0.  0.
        4    1    3    3  502    0 -0.43682133987E+03  0.11348662948E+04  0.10104823095E+04  0.15810789040E+04  0.12699999809E+01 0. -1.
       -4    1    3    3    0  502  0.43682133987E+03 -0.11348662948E+04  0.64654636296E+02  0.12177504773E+04  0.12699999809E+01 0.  1.
</event>
<event>
 5   0  0.2072125E-06  0.2592191E+04  0.7818609E-02  0.8370859E-01
        3   -1    0    0  501    0  0.00000000000E+00  0.00000000000E+00  0.21343002104E+04  0.21343002128E+04  0.10100000352E+00 0.  1.
       -3   -1    0    0    0  501  0.00000000000E+00  0.00000000000E+00 -0.78707901396E+03  0.78707902044E+03  0.10100000352E+00 0. -1.
    10030    2    1    2    0    0  0.00000000000E+00  0.00000000000E+00  0.13472211965E+04  0.29213792332E+04  0.25921905162E+04 0.  0.
        2    1    3    3  502    0  0.94977221142E+03  0.84650565101E+03  0.95246745573E+03  0.15892870493E+04  0.25500000920E-02 0.  1.
       -2    1    3    3    0  502 -0.94977221142E+03 -0.84650565101E+03  0.39475374072E+03  0.13320921840E+04  0.25500000920E-02 0. -1.
</event>
<event>
 5   0  0.2333979E-06  0.2604761E+04  0.7818609E-02  0.8366586E-01
       -1   -1    0    0    0  501  0.00000000000E+00  0.00000000000E+00  0.85319577356E+03  0.85319577357E+03  0.50400001928E-02 0.  1.
        1   -1    0    0  501    0  0.00000000000E+00  0.00000000000E+00 -0.19880496685E+04  0.19880496685E+04  0.50400001928E-02 0. -1.
    10030    2    1    2    0    0  0.00000000000E+00  0.00000000000E+00 -0.11348538950E+04  0.28412454421E+04  0.26047614669E+04 0.  0.
        3    1    3    3  502    0 -0.45695865958E+03 -0.24347307141E+03  0.73610264673E+03  0.89996526032E+03  0.10100000352E+00 0.  1.
       -3    1    3    3    0  502  0.45695865958E+03  0.24347307141E+03 -0.18709565417E+04  0.19412801818E+04  0.10100000352E+00 0. -1.
</event>
<event>
 5   0  0.2471488E-06  0.2601565E+04  0.7818609E-02  0.8367670E-01
        1   -1    0    0  501    0  0.00000000000E+00  0.00000000000E+00  0.19803586542E+04  0.19803586542E+04  0.50400001928E-02 0. -1.
       -1   -1    0    0    0  501  0.00000000000E+00  0.00000000000E+00 -0.85440813004E+03  0.85440813005E+03  0.50400001928E-02 0.  1.
    10030    2    1    2    0    0  0.00000000000E+00  0.00000000000E+00  0.11259505241E+04  0.28347667842E+04  0.26015645558E+04 0.  0.
        4    1    3    3  502    0  0.84546996069E+02  0.67047294494E+03  0.17740693140E+04  0.18984218995E+04  0.12699999809E+01 0. -1.
       -4    1    3    3    0  502 -0.84546996069E+02 -0.67047294494E+03 -0.64811878993E+03  0.93634488475E+03  0.12699999809E+01 0.  1.
</event>
<event>
 5   0  0.6161834E-06  0.2597784E+04  0.7818609E-02  0.8368954E-01
        2   -1    0    0  501    0  0.00000000000E+00  0.00000000000E+00  0.13389044482E+04  0.13389044482E+04  0.25500000920E-02 0.  1.
       -2   -1    0    0    0  501  0.00000000000E+00  0.00000000000E+00 -0.12600750040E+04  0.12600750040E+04  0.25500000920E-02 0. -1.
    10030    2    1    2    0    0  0.00000000000E+00  0.00000000000E+00  0.78829444217E+02  0.25989794523E+04  0.25977836923E+04 0.  0.
        5    1    3    3  502    0  0.66667993568E+03  0.97618088977E+03 -0.49907709509E+03  0.12831567726E+04  0.46999998093E+01 0. -1.
       -5    1    3    3    0  502 -0.66667993568E+03 -0.97618088977E+03  0.57790653931E+03  0.13158226797E+04  0.46999998093E+01 0.  1.
</event>
<event>
 5   0  0.2333979E-06  0.2709449E+04  0.7818609E-02  0.8331946E-01
        1   -1    0    0  501    0  0.00000000000E+00  0.00000000000E+00  0.72521382010E+03  0.72521382012E+03  0.50400001928E-02 0. -1.
       -1   -1    0    0    0  501  0.00000000000E+00  0.00000000000E+00 -0.25306725350E+04  0.25306725350E+04  0.50400001928E-02 0.  1.
    10030    2    1    2    0    0  0.00000000000E+00  0.00000000000E+00 -0.18054587149E+04  0.32558863551E+04  0.27094491666E+04 0.  0.
        3    1    3    3  502    0 -0.12910260281E+04  0.35443739784E+03 -0.11516381401E+04  0.17659684284E+04  0.10100000352E+00 0.  1.
       -3    1    3    3    0  502  0.12910260281E+04 -0.35443739784E+03 -0.65382057476E+03  0.14899179267E+04  0.10100000352E+00 0. -1.
</event>
<event>
 5   0  0.2503292E-06  0.2591280E+04  0.7818609E-02  0.8371169E-01
       -1   -1    0    0    0  501  0.00000000000E+00  0.00000000000E+00  0.80540410317E+03  0.80540410318E+03  0.50400001928E-02 0. -1.
        1   -1    0    0  501    0  0.00000000000E+00  0.00000000000E+00 -0.20842746392E+04  0.20842746392E+04  0.50400001928E-02 0.  1.
    10030    2    1    2    0    0  0.00000000000E+00  0.00000000000E+00 -0.12788705360E+04  0.28896787424E+04  0.25912802601E+04 0.  0.
        2    1    3    3  502    0  0.11548143533E+03 -0.88212035566E+03 -0.16898206053E+04  0.19097031083E+04  0.25500000920E-02 0.  1.
       -2    1    3    3    0  502 -0.11548143533E+03  0.88212035566E+03  0.41095006934E+03  0.97997563402E+03  0.25500000920E-02 0. -1.
</event>
<event>
 5   0  0.6173140E-06  0.2601187E+04  0.7818609E-02  0.8367798E-01
        2   -1    0    0  501    0  0.00000000000E+00  0.00000000000E+00  0.18924247273E+04  0.18924247273E+04  0.25500000920E-02 0.  1.
       -2   -1    0    0    0  501  0.00000000000E+00  0.00000000000E+00 -0.89384969670E+03  0.89384969671E+03  0.25500000920E-02 0. -1.
    10030    2    1    2    0    0  0.00000000000E+00  0.00000000000E+00  0.99857503055E+03  0.27862744240E+04  0.26011868587E+04 0.  0.
        3    1    3    3  502    0  0.71494933642E+03 -0.12153119442E+03 -0.65717349479E+03  0.97867226246E+03  0.10100000352E+00 0. -1.
       -3    1    3    3    0  502 -0.71494933642E+03  0.12153119442E+03  0.16557485253E+04  0.18076021615E+04  0.10100000352E+00 0.  1.
</event>
<event>
 5   0  0.2333979E-06  0.2593272E+04  0.7818609E-02  0.8370490E-01
        1   -1    0    0  501    0  0.00000000000E+00  0.00000000000E+00  0.19213168091E+04  0.19213168091E+04  0.50400001928E-02 0. -1.
       -1   -1    0    0    0  501  0.00000000000E+00  0.00000000000E+00 -0.87505877507E+03  0.87505877508E+03  0.50400001928E-02 0.  1.
    10030    2    1    2    0    0  0.00000000000E+00  0.00000000000E+00  0.10462580340E+04  0.27963755842E+04  0.25932721674E+04 0.  0.
        3    1    3    3  502    0 -0.79601250325E+03  0.35605488030E+02  0.16261614228E+04  0.18108850431E+04  0.10100000352E+00 0. -1.
       -3    1    3    3    0  502  0.79601250325E+03 -0.35605488030E+02 -0.57990338875E+03  0.98549054110E+03  0.10100000352E+00 0.  1.
</event>
<event>
 5   0  0.2333979E-06  0.2606855E+04  0.7818609E-02  0.8365877E-01
        1   -1    0    0  501    0  0.00000000000E+00  0.00000000000E+00  0.13126374135E+04  0.13126374135E+04  0.50400001928E-02 0. -1.
       -1   -1    0    0    0  501  0.00000000000E+00  0.00000000000E+00 -0.12942818772E+04  0.12942818772E+04  0.50400001928E-02 0.  1.
    10030    2    1    2    0    0  0.00000000000E+00  0.00000000000E+00  0.18355536322E+02  0.26069192907E+04  0.26068546685E+04 0.  0.
        3    1    3    3  502    0  0.10264656407E+04 -0.78483900028E+03  0.18040945673E+03  0.13046653020E+04  0.10100000352E+00 0. -1.
       -3    1    3    3    0  502 -0.10264656407E+04  0.78483900028E+03 -0.16205392040E+03  0.13022539887E+04  0.10100000352E+00 0.  1.
</event>
<event>
 5   0  0.2333979E-06  0.2628519E+04  0.7818609E-02  0.8358578E-01
       -1   -1    0    0    0  501  0.00000000000E+00  0.00000000000E+00  0.12419253102E+04  0.12419253102E+04  0.50400001928E-02 0.  1.
        1   -1    0    0  501    0  0.00000000000E+00  0.00000000000E+00 -0.13908064200E+04  0.13908064201E+04  0.50400001928E-02 0. -1.
    10030    2    1    2    0    0  0.00000000000E+00  0.00000000000E+00 -0.14888110989E+03  0.26327317302E+04  0.26285187423E+04 0.  0.
        3    1    3    3  502    0  0.94543889026E+03 -0.47925618242E+03 -0.85269076448E+03  0.13603759531E+04  0.10100000352E+00 0. -1.
       -3    1    3    3    0  502 -0.94543889026E+03  0.47925618242E+03  0.70380965459E+03  0.12723557772E+04  0.10100000352E+00 0.  1.
</event>
<event>
 5   0  0.2072125E-06  0.2610597E+04  0.7818609E-02  0.8364611E-01
        4   -1    0    0  501    0  0.00000000000E+00  0.00000000000E+00  0.10048592025E+04  0.10048600051E+04  0.12699999809E+01 0. -1.
       -4   -1    0    0    0  501  0.00000000000E+00  0.00000000000E+00 -0.16955634240E+04  0.16955638996E+04  0.12699999809E+01 0.  1.
    10030    2    1    2    0    0  0.00000000000E+00  0.00000000000E+00 -0.69070422146E+03  0.27004239047E+04  0.26105970473E+04 0.  0.
        1    1    3    3  502    0  0.34591881166E+03  0.13793759714E+03  0.94874120266E+03  0.10192136550E+04  0.50400001928E-02 0. -1.
       -1    1    3    3    0  502 -0.34591881166E+03 -0.13793759714E+03 -0.16394454241E+04  0.16812102497E+04  0.50400001928E-02 0.  1.
</event>
<event>
 5   0  0.2471488E-06  0.2597473E+04  0.7818609E-02  0.8369060E-01
        1   -1    0    0  501    0  0.00000000000E+00  0.00000000000E+00  0.10974894602E+04  0.10974894602E+04  0.50400001928E-02 0. -1.
       -1   -1    0    0    0  501  0.00000000000E+00  0.00000000000E+00 -0.15368865631E+04  0.15368865631E+04  0.50400001928E-02 0.  1.
    10030    2    1    2    0    0  0.00000000000E+00  0.00000000000E+00 -0.43939710291E+03  0.26343760233E+04  0.25974732372E+04 0.  0.
        4    1    3    3  502    0 -0.12411406709E+04  0.35876265903E+03 -0.35415037676E+03  0.13396137178E+04  0.12699999809E+01 0. -1.
       -4    1    3    3    0  502  0.12411406709E+04 -0.35876265903E+03 -0.85246726154E+02  0.12947623055E+04  0.12699999809E+01 0.  1.
</event>
<event>
 5   0  0.2471488E-06  0.2611568E+04  0.7818609E-02  0.8364282E-01
        1   -1    0    0  501    0  0.00000000000E+00  0.00000000000E+00  0.19254573383E+04  0.19254573383E+04  0.50400001928E-02 0.  1.
       -1   -1    0    0    0  501  0.00000000000E+00  0.00000000000E+00 -0.88554141580E+03  0.88554141582E+03  0.50400001928E-02 0. -1.
    10030    2    1    2    0    0  0.00000000000E+00  0.00000000000E+00  0.10399159225E+04  0.28109987541E+04  0.26115682778E+04 0.  0.
        4    1    3    3  502    0  0.76648054217E+03 -0.15792540732E+03 -0.60515821491E+03  0.98926787766E+03  0.12699999809E+01 0. -1.
       -4    1    3    3    0  502 -0.76648054217E+03  0.15792540732E+03  0.16450741374E+04  0.18217308765E+04  0.12699999809E+01 0.  1.
</event>
<event>
 5   0  0.6173140E-06  0.2600298E+04  0.7818609E-02  0.8368100E-01
       -2   -1    0    0    0  501  0.00000000000E+00  0.00000000000E+00  0.81529301615E+03  0.81529301616E+03  0.25500000920E-02 0.  1.
        2   -1    0    0  501    0  0.00000000000E+00  0.00000000000E+00 -0.20733489047E+04  0.20733489047E+04  0.25500000920E-02 0. -1.
    10030    2    1    2    0    0  0.00000000000E+00  0.00000000000E+00 -0.12580558886E+04  0.28886419209E+04  0.26002975846E+04 0.  0.
        3    1    3    3  502    0  0.73610936151E+03 -0.77105710497E+03  0.19782039990E+03  0.10842135270E+04  0.10100000352E+00 0.  1.
       -3    1    3    3    0  502 -0.73610936151E+03  0.77105710497E+03 -0.14558762885E+04  0.18044283939E+04  0.10100000352E+00 0. -1.
</event>
<event>
 5   0  0.5942229E-06  0.2597002E+04  0.7818609E-02  0.8369220E-01
        2   -1    0    0  501    0  0.00000000000E+00  0.00000000000E+00  0.94590312888E+03  0.94590312888E+03  0.25500000920E-02 0.  1.
       -2   -1    0    0    0  501  0.00000000000E+00  0.00000000000E+00 -0.17825347439E+04  0.17825347439E+04  0.25500000920E-02 0. -1.
    10030    2    1    2    0    0  0.00000000000E+00  0.00000000000E+00 -0.83663161501E+03  0.27284378728E+04  0.25970022654E+04 0.  0.
        4    1    3    3  502    0 -0.26952648989E+02 -0.77994176494E+03  0.67202758881E+03  0.10298826608E+04  0.12699999809E+01 0.  1.
       -4    1    3    3    0  502  0.26952648989E+02  0.77994176494E+03 -0.15086592038E+04  0.16985552120E+04  0.12699999809E+01 0. -1.
</event>
<event>
 5   0  0.5942229E-06  0.2611116E+04  0.7818609E-02  0.8364435E-01
       -2   -1    0    0    0  501  0.00000000000E+00  0.00000000000E+00  0.88296468326E+03  0.88296468326E+03  0.25500000920E-02 0.  1.
        2   -1    0    0  501    0  0.00000000000E+00  0.00000000000E+00 -0.19304072738E+04  0.19304072738E+04  0.25500000920E-02 0. -1.
    10030    2    1    2    0    0  0.00000000000E+00  0.00000000000E+00 -0.10474425905E+04  0.28133719571E+04  0.26111158129E+04 0.  0.
        4    1    3    3  502    0  0.60548641411E+03 -0.22860824412E+03 -0.17453934599E+04  0.18615250387E+04  0.12699999809E+01 0. -1.
       -4    1    3    3    0  502 -0.60548641411E+03  0.22860824412E+03  0.69795086940E+03  0.95184691833E+03  0.12699999809E+01 0.  1.
</event>
<event>
 5   0  0.2456600E-06  0.2584513E+04  0.7818609E-02  0.8373481E-01
        1   -1    0    0  501    0  0.00000000000E+00  0.00000000000E+00  0.26241875662E+04  0.26241875662E+04  0.50400001928E-02 0.  1.
       -1   -1    0    0    0  501  0.00000000000E+00  0.00000000000E+00 -0.63635976806E+03  0.63635976808E+03  0.50400001928E-02 0. -1.
    10030    2    1    2    0    0  0.00000000000E+00  0.00000000000E+00  0.19878277981E+04  0.32605473343E+04  0.25845134095E+04 0.  0.
        5    1    3    3  502    0  0.80401366605E+03  0.48364764123E+03  0.21149050051E+04  0.23136979679E+04  0.46999998093E+01 0.  1.
       -5    1    3    3    0  502 -0.80401366605E+03 -0.48364764123E+03 -0.12707720698E+03  0.94684936637E+03  0.46999998093E+01 0. -1.
</event>
<event>
 5   0  0.2333979E-06  0.2606599E+04  0.7818609E-02  0.8365963E-01
        1   -1    0    0  501    0  0.00000000000E+00  0.00000000000E+00  0.29433295513E+04  0.29433295513E+04  0.50400001928E-02 0. -1.
       -1   -1    0    0    0  501  0.00000000000E+00  0.00000000000E+00 -0.57709802042E+03  0.57709802044E+03  0.50400001928E-02 0.  1.
    10030    2    1    2    0    0  0.00000000000E+00  0.00000000000E+00  0.23662315309E+04  0.35204275718E+04  0.26065990544E+04 0.  0.
        3    1    3    3  502    0  0.76304574902E+03  0.55415041111E+03  0.23980909442E+04  0.25768511172E+04  0.10100000352E+00 0. -1.
       -3    1    3    3    0  502 -0.76304574902E+03 -0.55415041111E+03 -0.31859413301E+02  0.94357645458E+03  0.10100000352E+00 0.  1.
</event>
<event>
 5   0  0.5942229E-06  0.2595530E+04  0.7818609E-02  0.8369721E-01
        2   -1    0    0  501    0  0.00000000000E+00  0.00000000000E+00  0.18158595025E+04  0.18158595025E+04  0.25500000920E-02 0.  1.
       -2   -1    0    0    0  501  0.00000000000E+00  0.00000000000E+00 -0.92749103749E+03  0.92749103749E+03  0.25500000920E-02 0. -1.
    10030    2    1    2    0    0  0.00000000000E+00  0.00000000000E+00  0.88836846504E+03  0.27433505400E+04  0.25955295521E+04 0.  0.
        4    1    3    3  502    0  0.61442764275E+03  0.41444113483E+03  0.15701776458E+04  0.17363013087E+04  0.12699999809E+01 0.  1.
       -4    1    3    3    0  502 -0.61442764275E+03 -0.41444113483E+03 -0.68180918075E+03  0.10070492313E+04  0.12699999809E+01 0. -1.
</event>
<event>
 5   0  0.6161834E-06  0.2599581E+04  0.7818609E-02  0.8368344E-01
       -2   -1    0    0    0  501  0.00000000000E+00  0.00000000000E+00  0.92502462570E+03  0.92502462571E+03  0.25500000920E-02 0.  1.
        2   -1    0    0  501    0  0.00000000000E+00  0.00000000000E+00 -0.18263895507E+04  0.18263895507E+04  0.25500000920E-02 0. -1.
    10030    2    1    2    0    0  0.00000000000E+00  0.00000000000E+00 -0.90136492503E+03  0.27514141764E+04  0.25995809744E+04 0.  0.
        5    1    3    3  502    0 -0.21360734992E+03  0.62512444385E+03  0.73408306938E+03  0.98757719343E+03  0.46999998093E+01 0.  1.
       -5    1    3    3    0  502  0.21360734992E+03 -0.62512444385E+03 -0.16354479944E+04  0.17638369830E+04  0.46999998093E+01 0. -1.
</event>
<event>
 5   0  0.2456600E-06  0.2588185E+04  0.7818609E-02  0.8372226E-01
       -1   -1    0    0    0  501  0.00000000000E+00  0.00000000000E+00  0.14865058326E+04  0.14865058326E+04  0.50400001928E-02 0.  1.
        1   -1    0    0  501    0  0.00000000000E+00  0.00000000000E+00 -0.11265851359E+04  0.11265851359E+04  0.50400001928E-02 0. -1.
    10030    2    1    2    0    0  0.00000000000E+00  0.00000000000E+00  0.35992069666E+03  0.26130909685E+04  0.25881849822E+04 0.  0.
        5    1    3    3  502    0 -0.88229945944E+03  0.57699157684E+03  0.93770350928E+03  0.14109151559E+04  0.46999998093E+01 0. -1.
       -5    1    3    3    0  502  0.88229945944E+03 -0.57699157684E+03 -0.57778281262E+03  0.12021758126E+04  0.46999998093E+01 0.  1.
</event>
<event>
 5   0  0.2333979E-06  0.2608190E+04  0.7818609E-02  0.8365425E-01
        1   -1    0    0  501    0  0.00000000000E+00  0.00000000000E+00  0.16104170434E+04  0.16104170434E+04  0.50400001928E-02 0.  1.
       -1   -1    0    0    0  501  0.00000000000E+00  0.00000000000E+00 -0.10560391214E+04  0.10560391214E+04  0.50400001928E-02 0. -1.
    10030    2    1    2    0    0  0.00000000000E+00  0.00000000000E+00  0.55437792202E+03  0.26664561647E+04  0.26081897167E+04 0.  0.
        3    1    3    3  502    0 -0.62272493355E+03  0.88577085535E+03  0.10202598506E+04  0.14877185635E+04  0.10100000352E+00 0.  1.
       -3    1    3    3    0  502  0.62272493355E+03 -0.88577085535E+03 -0.46588192862E+03  0.11787376013E+04  0.10100000352E+00 0. -1.
</event>
<event>
 5   0  0.6158063E-06  0.2569690E+04  0.7818609E-02  0.8378570E-01
       -2   -1    0    0    0  501  0.00000000000E+00  0.00000000000E+00  0.72618790621E+03  0.72618790622E+03  0.25500000920E-02 0. -1.
        2   -1    0    0  501    0  0.00000000000E+00  0.00000000000E+00 -0.22732782344E+04  0.22732782344E+04  0.25500000920E-02 0.  1.
    10030    2    1    2    0    0  0.00000000000E+00  0.00000000000E+00 -0.15470903282E+04  0.29994661406E+04  0.25696903792E+04 0.  0.
        2    1    3    3  502    0  0.54219430460E+03 -0.10756432615E+04 -0.12953508408E+04  0.17688744701E+04  0.25500000920E-02 0.  1.
       -2    1    3    3    0  502 -0.54219430460E+03  0.10756432615E+04 -0.25173948733E+03  0.12305916705E+04  0.25500000920E-02 0. -1.
</event>
<event>
 5   0  0.6161834E-06  0.2611329E+04  0.7818609E-02  0.8364363E-01
        2   -1    0    0  501    0  0.00000000000E+00  0.00000000000E+00  0.89389565914E+03  0.89389565914E+03  0.25500000920E-02 0.  1.
       -2   -1    0    0    0  501  0.00000000000E+00  0.00000000000E+00 -0.19071128550E+04  0.19071128550E+04  0.25500000920E-02 0. -1.
    10030    2    1    2    0    0  0.00000000000E+00  0.00000000000E+00 -0.10132171959E+04  0.28010085142E+04  0.26113290889E+04 0.  0.
        5    1    3    3  502    0 -0.95389369132E+03  0.80643735907E+03 -0.98888767294E+02  0.12530185421E+04  0.46999998093E+01 0.  1.
       -5    1    3    3    0  502  0.95389369132E+03 -0.80643735907E+03 -0.91432842859E+03  0.15479899721E+04  0.46999998093E+01 0. -1.
</event>
<event>
 5   0  0.5940748E-06  0.2600149E+04  0.7818609E-02  0.8368151E-01
        2   -1    0    0  501    0  0.00000000000E+00  0.00000000000E+00  0.14234423859E+04  0.14234423860E+04  0.25500000920E-02 0.  1.
       -2   -1    0    0    0  501  0.00000000000E+00  0.00000000000E+00 -0.11873983965E+04  0.11873983965E+04  0.25500000920E-02 0. -1.
    10030    2    1    2    0    0  0.00000000000E+00  0.00000000000E+00  0.23604398946E+03  0.26108407824E+04  0.26001486162E+04 0.  0.
        1    1    3    3  502    0 -0.10998479725E+04 -0.68813298411E+03  0.34008105357E+02  0.12978247639E+04  0.50400001928E-02 0.  1.
       -1    1    3    3    0  502  0.10998479725E+04  0.68813298411E+03  0.20203588410E+03  0.13130160186E+04  0.50400001928E-02 0. -1.
</event>
<event>
 5   0  0.5942229E-06  0.2633303E+04  0.7818609E-02  0.8356976E-01
       -2   -1    0    0    0  501  0.00000000000E+00  0.00000000000E+00  0.18808508476E+04  0.18808508476E+04  0.25500000920E-02 0. -1.
        2   -1    0    0  501    0  0.00000000000E+00  0.00000000000E+00 -0.92169505240E+03  0.92169505241E+03  0.25500000920E-02 0.  1.
    10030    2    1    2    0    0  0.00000000000E+00  0.00000000000E+00  0.95915579523E+03  0.28025459000E+04  0.26333028087E+04 0.  0.
        4    1    3    3  502    0  0.81224324551E+03 -0.36827988475E+03  0.15104378770E+04  0.17540790622E+04  0.12699999809E+01 0. -1.
       -4    1    3    3    0  502 -0.81224324551E+03  0.36827988475E+03 -0.55128208178E+03  0.10484668378E+04  0.12699999809E+01 0.  1.
</event>
<event>
 5   0  0.6161834E-06  0.2648624E+04  0.7818609E-02  0.8351870E-01
        2   -1    0    0  501    0  0.00000000000E+00  0.00000000000E+00  0.14992354412E+04  0.14992354412E+04  0.25500000920E-02 0. -1.
       -2   -1    0    0    0  501  0.00000000000E+00  0.00000000000E+00 -0.11697977893E+04  0.11697977893E+04  0.25500000920E-02 0.  1.
    10030    2    1    2    0    0  0.00000000000E+00  0.00000000000E+00  0.32943765193E+03  0.26690332305E+04  0.26486240237E+04 0.  0.
        5    1    3    3  502    0  0.25581182182E+03 -0.53363864780E+03 -0.10291338992E+04  0.11871598742E+04  0.46999998093E+01 0.  1.
       -5    1    3    3    0  502 -0.25581182182E+03  0.53363864780E+03  0.13585715511E+04  0.14818733563E+04  0.46999998093E+01 0. -1.
</event>
<event>
 5   0  0.6173140E-06  0.2610752E+04  0.7818609E-02  0.8364558E-01
       -2   -1    0    0    0  501  0.00000000000E+00  0.00000000000E+00  0.74220825893E+03  0.74220825894E+03  0.25500000920E-02 0. -1.
        2   -1    0    0  501    0  0.00000000000E+00  0.00000000000E+00 -0.22958603972E+04  0.22958603972E+04  0.25500000920E-02 0.  1.
    10030    2    1    2    0    0  0.00000000000E+00  0.00000000000E+00 -0.15536521383E+04  0.30380686562E+04  0.26107520359E+04 0.  0.
        3    1    3    3  502    0  0.38782149657E+03  0.65805618714E+03 -0.20086541875E+04  0.21489846705E+04  0.10100000352E+00 0.  1.
       -3    1    3    3    0  502 -0.38782149657E+03 -0.65805618714E+03  0.45500204923E+03  0.88908398570E+03  0.10100000352E+00 0. -1.
</event>
<event>
 5   0  0.2471488E-06  0.2587914E+04  0.7818609E-02  0.8372318E-01
       -1   -1    0    0    0  501  0.00000000000E+00  0.00000000000E+00  0.13176561521E+04  0.13176561521E+04  0.50400001928E-02 0.  1.
        1   -1    0    0  501    0  0.00000000000E+00  0.00000000000E+00 -0.12706837948E+04  0.12706837948E+04  0.50400001928E-02 0. -1.
    10030    2    1    2    0    0  0.00000000000E+00  0.00000000000E+00  0.46972357358E+02  0.25883399469E+04  0.25879136922E+04 0.  0.
        4    1    3    3  502    0 -0.79099435516E+03 -0.41933834186E+03  0.95788092123E+03  0.13111270675E+04  0.12699999809E+01 0.  1.
       -4    1    3    3    0  502  0.79099435516E+03  0.41933834186E+03 -0.91090856387E+03  0.12772128795E+04  0.12699999809E+01 0. -1.
</event>
<event>
 5   0  0.6161834E-06  0.2589323E+04  0.7818609E-02  0.8371837E-01
       -2   -1    0    0    0  501  0.00000000000E+00  0.00000000000E+00  0.97912639338E+03  0.97912639338E+03  0.25500000920E-02 0. -1.
        2   -1    0    0  501    0  0.00000000000E+00  0.00000000000E+00 -0.17118817523E+04  0.17118817523E+04  0.25500000920E-02 0.  1.
    10030    2    1    2    0    0  0.00000000000E+00  0.00000000000E+00 -0.73275535888E+03  0.26910081456E+04  0.25893231594E+04 0.  0.
        5    1    3    3  502    0  0.66968779443E+03  0.10833103041E+04 -0.12468617336E+03  0.12796920289E+04  0.46999998093E+01 0. -1.
       -5    1    3    3    0  502 -0.66968779443E+03 -0.10833103041E+04 -0.60806918552E+03  0.14113161167E+04  0.46999998093E+01 0.  1.
</event>
<event>
 5   0  0.2456600E-06  0.2589598E+04  0.7818609E-02  0.8371743E-01
       -1   -1    0    0    0  501  0.00000000000E+00  0.00000000000E+00  0.14437360366E+04  0.14437360366E+04  0.50400001928E-02 0.  1.
        1   -1    0    0  501    0  0.00000000000E+00  0.00000000000E+00 -0.11612263467E+04  0.11612263467E+04  0.50400001928E-02 0. -1.
    10030    2    1    2    0    0  0.00000000000E+00  0.00000000000E+00  0.28250968990E+03  0.26049623833E+04  0.25895979019E+04 0.  0.
        5    1    3    3  502    0 -0.21395628277E+03  0.12234749149E+04 -0.22672160066E+03  0.12625739315E+04  0.46999998093E+01 0. -1.
       -5    1    3    3    0  502  0.21395628277E+03 -0.12234749149E+04  0.50923129056E+03  0.13423884518E+04  0.46999998093E+01 0.  1.
</event>
<event>
 5   0  0.2456600E-06  0.2604643E+04  0.7818609E-02  0.8366626E-01
       -1   -1    0    0    0  501  0.00000000000E+00  0.00000000000E+00  0.14863247567E+04  0.14863247567E+04  0.50400001928E-02 0.  1.
        1   -1    0    0  501    0  0.00000000000E+00  0.00000000000E+00 -0.11410971587E+04  0.11410971587E+04  0.50400001928E-02 0. -1.
    10030    2    1    2    0    0  0.00000000000E+00  0.00000000000E+00  0.34522759793E+03  0.26274219154E+04  0.26046427447E+04 0.  0.
        5    1    3    3  502    0  0.78251927906E+03  0.70149196248E+03 -0.60326271667E+03  0.12117654026E+04  0.46999998093E+01 0. -1.
       -5    1    3    3    0  502 -0.78251927906E+03 -0.70149196248E+03  0.94849031460E+03  0.14156565129E+04  0.46999998093E+01 0.  1.
</event>
<event>
 5   0  0.2456600E-06  0.2609424E+04  0.7818609E-02  0.8365007E-01
        1   -1    0    0  501    0  0.00000000000E+00  0.00000000000E+00  0.13187152386E+04  0.13187152386E+04  0.50400001928E-02 0. -1.
       -1   -1    0    0    0  501  0.00000000000E+00  0.00000000000E+00 -0.12908572042E+04  0.12908572042E+04  0.50400001928E-02 0.  1.
    10030    2    1    2    0    0  0.00000000000E+00  0.00000000000E+00  0.27858034402E+02  0.26095724427E+04  0.26094237417E+04 0.  0.
        5    1    3    3  502    0  0.12176161856E+04  0.72392692437E+02  0.47701166348E+03  0.13097297792E+04  0.46999998093E+01 0. -1.
       -5    1    3    3    0  502 -0.12176161856E+04 -0.72392692437E+02 -0.44915362908E+03  0.12998426635E+04  0.46999998093E+01 0.  1.
</event>
<event>
 5   0  0.2440590E-06  0.2610177E+04  0.7818609E-02  0.8364753E-01
        1   -1    0    0  501    0  0.00000000000E+00  0.00000000000E+00  0.24471833105E+04  0.24471833105E+04  0.50400001928E-02 0.  1.
       -1   -1    0    0    0  501  0.00000000000E+00  0.00000000000E+00 -0.69600650408E+03  0.69600650410E+03  0.50400001928E-02 0. -1.
    10030    2    1    2    0    0  0.00000000000E+00  0.00000000000E+00  0.17511768064E+04  0.31431898146E+04  0.26101766230E+04 0.  0.
        1    1    3    3  502    0  0.37499421259E+03  0.90894274150E+03 -0.15782641671E+03  0.99584473923E+03  0.50400001928E-02 0. -1.
       -1    1    3    3    0  502 -0.37499421259E+03 -0.90894274150E+03  0.19090032231E+04  0.21473450753E+04  0.50400001928E-02 0.  1.
</event>
<event>
 5   0  0.6173140E-06  0.2538326E+04  0.7818609E-02  0.8389457E-01
       -2   -1    0    0    0  501  0.00000000000E+00  0.00000000000E+00  0.91344171391E+03  0.91344171391E+03  0.25500000920E-02 0. -1.
        2   -1    0    0  501    0  0.00000000000E+00  0.00000000000E+00 -0.17634133858E+04  0.17634133858E+04  0.25500000920E-02 0.  1.
    10030    2    1    2    0    0  0.00000000000E+00  0.00000000000E+00 -0.84997167193E+03  0.26768550998E+04  0.25383264924E+04 0.  0.
        3    1    3    3  502    0  0.71886924303E+02  0.20383386290E+03  0.89389025918E+03  0.91964981336E+03  0.10100000352E+00 0. -1.
       -3    1    3    3    0  502 -0.71886924303E+02 -0.20383386290E+03 -0.17438619311E+04  0.17572052864E+04  0.10100000352E+00 0.  1.
</event>
<event>
 5   0  0.6161834E-06  0.2574486E+04  0.7818609E-02  0.8376920E-01
       -2   -1    0    0    0  501  0.00000000000E+00  0.00000000000E+00  0.19701618816E+04  0.19701618816E+04  0.25500000920E-02 0. -1.
        2   -1    0    0  501    0  0.00000000000E+00  0.00000000000E+00 -0.84104516958E+03  0.84104516959E+03  0.25500000920E-02 0.  1.
    10030    2    1    2    0    0  0.00000000000E+00  0.00000000000E+00  0.11291167121E+04  0.28112070512E+04  0.25744864605E+04 0.  0.
        5    1    3    3  502    0 -0.13125558897E+03  0.90211793911E+03 -0.42781107701E+03  0.10070199667E+04  0.46999998093E+01 0.  1.
       -5    1    3    3    0  502  0.13125558897E+03 -0.90211793911E+03  0.15569277891E+04  0.18041870846E+04  0.46999998093E+01 0. -1.
</event>
<event>
 5   0  0.2471488E-06  0.2600261E+04  0.7818609E-02  0.8368113E-01
        1   -1    0    0  501    0  0.00000000000E+00  0.00000000000E+00  0.23682797394E+04  0.23682797395E+04  0.50400001928E-02 0. -1.
       -1   -1    0    0    0  501  0.00000000000E+00  0.00000000000E+00 -0.71374135154E+03  0.71374135156E+03  0.50400001928E-02 0.  1.
    10030    2    1    2    0    0  0.00000000000E+00  0.00000000000E+00  0.16545383879E+04  0.30820210910E+04  0.26002608962E+04 0.  0.
        4    1    3    3  502    0 -0.16940753843E+03 -0.91346479863E+02 -0.69676176309E+03  0.72285659772E+03  0.12699999809E+01 0.  1.
       -4    1    3    3    0  502  0.16940753843E+03  0.91346479863E+02  0.23513001510E+04  0.23591644933E+04  0.12699999809E+01 0. -1.
</event>
<event>
 5   0  0.6158063E-06  0.2631847E+04  0.7818609E-02  0.8357463E-01
       -2   -1    0    0    0  501  0.00000000000E+00  0.00000000000E+00  0.72265917480E+03  0.72265917480E+03  0.25500000920E-02 0.  1.
        2   -1    0    0  501    0  0.00000000000E+00  0.00000000000E+00 -0.23962252881E+04  0.23962252881E+04  0.25500000920E-02 0. -1.
    10030    2    1    2    0    0  0.00000000000E+00  0.00000000000E+00 -0.16735661133E+04  0.31188844629E+04  0.26318466440E+04 0.  0.
        2    1    3    3  502    0  0.98356760236E+03  0.87420010759E+03 -0.83108334376E+03  0.15563838154E+04  0.25500000920E-02 0.  1.
       -2    1    3    3    0  502 -0.98356760236E+03 -0.87420010759E+03 -0.84248276955E+03  0.15625006475E+04  0.25500000920E-02 0. -1.
</event>
<event>
 5   0  0.6158063E-06  0.2637359E+04  0.7818609E-02  0.8355621E-01
        2   -1    0    0  501    0  0.00000000000E+00  0.00000000000E+00  0.56218027713E+03  0.56218027714E+03  0.25500000920E-02 0.  1.
       -2   -1    0    0    0  501  0.00000000000E+00  0.00000000000E+00 -0.30931625942E+04  0.30931625942E+04  0.25500000920E-02 0. -1.
    10030    2    1    2    0    0  0.00000000000E+00  0.00000000000E+00 -0.25309823171E+04  0.36553428713E+04  0.26373585304E+04 0.  0.
        2    1    3    3  502    0  0.81215659205E+02 -0.73666591747E+03  0.24621420704E+03  0.78095716465E+03  0.25500000920E-02 0.  1.
       -2    1    3    3    0  502 -0.81215659205E+02  0.73666591747E+03 -0.27771965241E+04  0.28743857067E+04  0.25500000920E-02 0. -1.
</event>
<event>
 5   0  0.2440590E-06  0.2603042E+04  0.7818609E-02  0.8367169E-01
       -1   -1    0    0    0  501  0.00000000000E+00  0.00000000000E+00  0.10411477858E+04  0.10411477858E+04  0.50400001928E-02 0.  1.
        1   -1    0    0  501    0  0.00000000000E+00  0.00000000000E+00 -0.16270094287E+04  0.16270094287E+04  0.50400001928E-02 0. -1.
    10030    2    1    2    0    0  0.00000000000E+00  0.00000000000E+00 -0.58586164288E+03  0.26681572144E+04  0.26030422694E+04 0.  0.
        1    1    3    3  502    0  0.10670332322E+03  0.24150862472E+03  0.10134084949E+04  0.10472386512E+04  0.50400001928E-02 0.  1.
       -1    1    3    3    0  502 -0.10670332322E+03 -0.24150862472E+03 -0.15992701378E+04  0.16209185632E+04  0.50400001928E-02 0. -1.
</event>
<event>
 5   0  0.6161834E-06  0.2600008E+04  0.7818609E-02  0.8368199E-01
       -2   -1    0    0    0  501  0.00000000000E+00  0.00000000000E+00  0.91115024704E+03  0.91115024705E+03  0.25500000920E-02 0.  1.
        2   -1    0    0  501    0  0.00000000000E+00  0.00000000000E+00 -0.18548094797E+04  0.18548094797E+04  0.25500000920E-02 0. -1.
    10030    2    1    2    0    0  0.00000000000E+00  0.00000000000E+00 -0.94365923263E+03  0.27659597267E+04  0.26000077812E+04 0.  0.
        5    1    3    3  502    0  0.65309986749E+03 -0.75728503962E+03  0.41183133846E+03  0.10815022929E+04  0.46999998093E+01 0.  1.
       -5    1    3    3    0  502 -0.65309986749E+03  0.75728503962E+03 -0.13554905711E+04  0.16844574338E+04  0.46999998093E+01 0. -1.
</event>
<event>
 5   0  0.2333979E-06  0.2615350E+04  0.7818609E-02  0.8363006E-01
        1   -1    0    0  501    0  0.00000000000E+00  0.00000000000E+00  0.18208724736E+04  0.18208724736E+04  0.50400001928E-02 0. -1.
       -1   -1    0    0    0  501  0.00000000000E+00  0.00000000000E+00 -0.93911757211E+03  0.93911757213E+03  0.50400001928E-02 0.  1.
    10030    2    1    2    0    0  0.00000000000E+00  0.00000000000E+00  0.88175490147E+03  0.27599900457E+04  0.26153495648E+04 0.  0.
        3    1    3    3  502    0 -0.28274215821E+02 -0.89427007390E+03  0.14472943312E+04  0.17015226380E+04  0.10100000352E+00 0. -1.
       -3    1    3    3    0  502  0.28274215821E+02  0.89427007390E+03 -0.56553942974E+03  0.10584674077E+04  0.10100000352E+00 0.  1.
</event>
<event>
 5   0  0.5942229E-06  0.2597739E+04  0.7818609E-02  0.8368970E-01
        2   -1    0    0  501    0  0.00000000000E+00  0.00000000000E+00  0.23212246505E+04  0.23212246506E+04  0.25500000920E-02 0. -1.
       -2   -1    0    0    0  501  0.00000000000E+00  0.00000000000E+00 -0.72679827003E+03  0.72679827003E+03  0.25500000920E-02 0.  1.
    10030    2    1    2    0    0  0.00000000000E+00  0.00000000000E+00  0.15944263805E+04  0.30480229206E+04  0.25977390634E+04 0.  0.
        4    1    3    3  502    0 -0.25887466513E+03 -0.27386693426E+03  0.22556672170E+04  0.22869314368E+04  0.12699999809E+01 0. -1.
       -4    1    3    3    0  502  0.25887466513E+03  0.27386693426E+03 -0.66124083649E+03  0.76109148377E+03  0.12699999809E+01 0.  1.
</event>
<event>
 5   0  0.2072125E-06  0.2598620E+04  0.7818609E-02  0.8368670E-01
        3   -1    0    0  501    0  0.00000000000E+00  0.00000000000E+00  0.15576825233E+04  0.15576825265E+04  0.10100000352E+00 0.  1.
       -3   -1    0    0    0  501  0.00000000000E+00  0.00000000000E+00 -0.10837934560E+04  0.10837934607E+04  0.10100000352E+00 0. -1.
    10030    2    1    2    0    0  0.00000000000E+00  0.00000000000E+00  0.47388906725E+03  0.26414759872E+04  0.25986197381E+04 0.  0.
        5    1    3    3  502    0  0.97717130952E+03  0.29092299805E+03  0.10556365518E+04  0.14676139065E+04  0.46999998093E+01 0.  1.
       -5    1    3    3    0  502 -0.97717130952E+03 -0.29092299805E+03 -0.58174748453E+03  0.11738620808E+04  0.46999998093E+01 0. -1.
</event>
<event>
 5   0  0.6161834E-06  0.2572694E+04  0.7818609E-02  0.8377536E-01
       -2   -1    0    0    0  501  0.00000000000E+00  0.00000000000E+00  0.76056386276E+03  0.76056386276E+03  0.25500000920E-02 0.  1.
        2   -1    0    0  501    0  0.00000000000E+00  0.00000000000E+00 -0.21756072719E+04  0.21756072719E+04  0.25500000920E-02 0. -1.
    10030    2    1    2    0    0  0.00000000000E+00  0.00000000000E+00 -0.14150434092E+04  0.29361711347E+04  0.25726937405E+04 0.  0.
        5    1    3    3  502    0 -0.37772978605E+03 -0.68817728626E+03  0.45546642672E+03  0.90760097205E+03  0.46999998093E+01 0.  1.
       -5    1    3    3    0  502  0.37772978605E+03  0.68817728626E+03 -0.18705098359E+04  0.20285701626E+04  0.46999998093E+01 0. -1.
</event>
<event>
 5   0  0.2440590E-06  0.2590145E+04  0.7818609E-02  0.8371556E-01
        1   -1    0    0  501    0  0.00000000000E+00  0.00000000000E+00  0.10760759234E+04  0.10760759234E+04  0.50400001928E-02 0.  1.
       -1   -1    0    0    0  501  0.00000000000E+00  0.00000000000E+00 -0.15586381106E+04  0.15586381106E+04  0.50400001928E-02 0. -1.
    10030    2    1    2    0    0  0.00000000000E+00  0.00000000000E+00 -0.48256218720E+03  0.26347140340E+04  0.25901451265E+04 0.  0.
        1    1    3    3  502    0 -0.11050502437E+03  0.71528422062E+03 -0.13337113612E+04  0.15174415546E+04  0.50400001928E-02 0. -1.
       -1    1    3    3    0  502  0.11050502437E+03 -0.71528422062E+03  0.85114917403E+03  0.11172724794E+04  0.50400001928E-02 0.  1.
</event>
<event>
 5   0  0.2440590E-06  0.2599551E+04  0.7818609E-02  0.8368354E-01
       -1   -1    0    0    0  501  0.00000000000E+00  0.00000000000E+00  0.19774035756E+04  0.19774035756E+04  0.50400001928E-02 0.  1.
        1   -1    0    0  501    0  0.00000000000E+00  0.00000000000E+00 -0.85436080874E+03  0.85436080876E+03  0.50400001928E-02 0. -1.
    10030    2    1    2    0    0  0.00000000000E+00  0.00000000000E+00  0.11230427669E+04  0.28317643844E+04  0.25995508213E+04 0.  0.
        1    1    3    3  502    0  0.13003949357E+03 -0.12688468048E+04  0.83392673609E+03  0.15239147893E+04  0.50400001928E-02 0. -1.
       -1    1    3    3    0  502 -0.13003949357E+03  0.12688468048E+04  0.28911603079E+03  0.13078495950E+04  0.50400001928E-02 0.  1.
</event>
<event>
 5   0  0.2333979E-06  0.2626478E+04  0.7818609E-02  0.8359263E-01
        1   -1    0    0  501    0  0.00000000000E+00  0.00000000000E+00  0.11268070424E+04  0.11268070424E+04  0.50400001928E-02 0. -1.
       -1   -1    0    0    0  501  0.00000000000E+00  0.00000000000E+00 -0.15305162959E+04  0.15305162959E+04  0.50400001928E-02 0.  1.
    10030    2    1    2    0    0  0.00000000000E+00  0.00000000000E+00 -0.40370925346E+03  0.26573233383E+04  0.26264779007E+04 0.  0.
        3    1    3    3  502    0 -0.11795321371E+04 -0.48786592658E+03 -0.51416626920E+03  0.13761090754E+04  0.10100000352E+00 0.  1.
       -3    1    3    3    0  502  0.11795321371E+04  0.48786592658E+03  0.11045701574E+03  0.12812142629E+04  0.10100000352E+00 0. -1.
</event>
<event>
 5   0  0.5942229E-06  0.2601844E+04  0.7818609E-02  0.8367575E-01
       -2   -1    0    0    0  501  0.00000000000E+00  0.00000000000E+00  0.18597666438E+04  0.18597666438E+04  0.25500000920E-02 0. -1.
        2   -1    0    0  501    0  0.00000000000E+00  0.00000000000E+00 -0.91000557965E+03  0.91000557965E+03  0.25500000920E-02 0.  1.
    10030    2    1    2    0    0  0.00000000000E+00  0.00000000000E+00  0.94976106417E+03  0.27697722235E+04  0.26018439790E+04 0.  0.
        4    1    3    3  502    0  0.22488154138E+03  0.15866732414E+03  0.18284193823E+04  0.18490175980E+04  0.12699999809E+01 0. -1.
       -4    1    3    3    0  502 -0.22488154138E+03 -0.15866732414E+03 -0.87865831811E+03  0.92075462545E+03  0.12699999809E+01 0.  1.
</event>
<event>
 5   0  0.5940748E-06  0.2609302E+04  0.7818609E-02  0.8365048E-01
       -2   -1    0    0    0  501  0.00000000000E+00  0.00000000000E+00  0.12654194169E+04  0.12654194169E+04  0.25500000920E-02 0.  1.
        2   -1    0    0  501    0  0.00000000000E+00  0.00000000000E+00 -0.13450987248E+04  0.13450987248E+04  0.25500000920E-02 0. -1.
    10030    2    1    2    0    0  0.00000000000E+00  0.00000000000E+00 -0.79679307918E+02  0.26105181417E+04  0.26093018560E+04 0.  0.
        1    1    3    3  502    0  0.78061463782E+03  0.73815809289E+03  0.70069282292E+03  0.12826562341E+04  0.50400001928E-02 0.  1.
       -1    1    3    3    0  502 -0.78061463782E+03 -0.73815809289E+03 -0.78037213084E+03  0.13278619075E+04  0.50400001928E-02 0. -1.
</event>
<event>
 5   0  0.2072125E-06  0.2607234E+04  0.7818609E-02  0.8365748E-01
        4   -1    0    0  501    0  0.00000000000E+00  0.00000000000E+00  0.12354020975E+04  0.12354027503E+04  0.12699999809E+01 0.  1.
       -4   -1    0    0    0  501  0.00000000000E+00  0.00000000000E+00 -0.13755967145E+04  0.13755973008E+04  0.12699999809E+01 0. -1.
    10030    2    1    2    0    0  0.00000000000E+00  0.00000000000E+00 -0.14019461704E+03  0.26110000511E+04  0.26072335407E+04 0.  0.
        2    1    3    3  502    0  0.35986317061E+03 -0.10650979147E+04  0.59076633130E+03  0.12700157195E+04  0.25500000920E-02 0.  1.
       -2    1    3    3    0  502 -0.35986317061E+03  0.10650979147E+04 -0.73096094834E+03  0.13409843316E+04  0.25500000920E-02 0. -1.
</event>
<event>
 5   0  0.2503292E-06  0.2606154E+04  0.7818609E-02  0.8366114E-01
       -1   -1    0    0    0  501  0.00000000000E+00  0.00000000000E+00  0.15156903386E+04  0.15156903386E+04  0.50400001928E-02 0. -1.
        1   -1    0    0  501    0  0.00000000000E+00  0.00000000000E+00 -0.11202881838E+04  0.11202881838E+04  0.50400001928E-02 0.  1.
    10030    2    1    2    0    0  0.00000000000E+00  0.00000000000E+00  0.39540215480E+03  0.26359785225E+04  0.26061542370E+04 0.  0.
        2    1    3    3  502    0 -0.41637367910E+03  0.75058790417E+03 -0.79395791434E+03  0.11692383898E+04  0.25500000920E-02 0.  1.
       -2    1    3    3    0  502  0.41637367910E+03 -0.75058790417E+03  0.11893600691E+04  0.14667401326E+04  0.25500000920E-02 0. -1.
</event>
<event>
 5   0  0.2456600E-06  0.2595327E+04  0.7818609E-02  0.8369790E-01
       -1   -1    0    0    0  501  0.00000000000E+00  0.00000000000E+00  0.15619706794E+04  0.15619706794E+04  0.50400001928E-02 0.  1.
        1   -1    0    0  501    0  0.00000000000E+00  0.00000000000E+00 -0.10780803678E+04  0.10780803678E+04  0.50400001928E-02 0. -1.
    10030    2    1    2    0    0  0.00000000000E+00  0.00000000000E+00  0.48389031162E+03  0.26400510472E+04  0.25953265109E+04 0.  0.
        5    1    3    3  502    0  0.89265147179E+03 -0.71560118350E+03  0.86486722073E+03  0.14341998129E+04  0.46999998093E+01 0.  1.
       -5    1    3    3    0  502 -0.89265147179E+03  0.71560118350E+03 -0.38097690911E+03  0.12058512343E+04  0.46999998093E+01 0. -1.
</event>
<event>
 5   0  0.5942229E-06  0.2603030E+04  0.7818609E-02  0.8367173E-01
       -2   -1    0    0    0  501  0.00000000000E+00  0.00000000000E+00  0.17552760686E+04  0.17552760686E+04  0.25500000920E-02 0. -1.
        2   -1    0    0  501    0  0.00000000000E+00  0.00000000000E+00 -0.96505711943E+03  0.96505711943E+03  0.25500000920E-02 0.  1.
    10030    2    1    2    0    0  0.00000000000E+00  0.00000000000E+00  0.79021894916E+03  0.27203331880E+04  0.26030302853E+04 0.  0.
        4    1    3    3  502    0 -0.87268835058E+03 -0.95186881734E+03  0.56459311328E+03  0.14093992334E+04  0.12699999809E+01 0. -1.
       -4    1    3    3    0  502  0.87268835058E+03  0.95186881734E+03  0.22562583588E+03  0.13109339546E+04  0.12699999809E+01 0.  1.
</event>
<event>
 5   0  0.2333979E-06  0.2603514E+04  0.7818609E-02  0.8367008E-01
        1   -1    0    0  501    0  0.00000000000E+00  0.00000000000E+00  0.15327383300E+04  0.15327383300E+04  0.50400001928E-02 0. -1.
       -1   -1    0    0    0  501  0.00000000000E+00  0.00000000000E+00 -0.11055844308E+04  0.11055844308E+04  0.50400001928E-02 0.  1.
    10030    2    1    2    0    0  0.00000000000E+00  0.00000000000E+00  0.42715389918E+03  0.26383227608E+04  0.26035142667E+04 0.  0.
        3    1    3    3  502    0 -0.51115481628E+03 -0.25308006608E+03  0.13993680988E+04  0.15111452122E+04  0.10100000352E+00 0. -1.
       -3    1    3    3    0  502  0.51115481628E+03  0.25308006608E+03 -0.97221419963E+03  0.11271775487E+04  0.10100000352E+00 0.  1.
</event>
<event>
 5   0  0.5942229E-06  0.2598786E+04  0.7818609E-02  0.8368614E-01
       -2   -1    0    0    0  501  0.00000000000E+00  0.00000000000E+00  0.14515337163E+04  0.14515337163E+04  0.25500000920E-02 0. -1.
        2   -1    0    0  501    0  0.00000000000E+00  0.00000000000E+00 -0.11631987446E+04  0.11631987446E+04  0.25500000920E-02 0.  1.
    10030    2    1    2    0    0  0.00000000000E+00  0.00000000000E+00  0.28833497175E+03  0.26147324609E+04  0.25987860217E+04 0.  0.
        4    1    3    3  502    0 -0.95643481088E+03  0.48929931495E+02  0.10277697706E+04  0.14048039009E+04  0.12699999809E+01 0. -1.
       -4    1    3    3    0  502  0.95643481088E+03 -0.48929931495E+02 -0.73943479889E+03  0.12099285600E+04  0.12699999809E+01 0.  1.
</event>
<event>
 5   0  0.2333979E-06  0.2738044E+04  0.7818609E-02  0.8322765E-01
       -1   -1    0    0    0  501  0.00000000000E+00  0.00000000000E+00  0.11847278701E+04  0.11847278701E+04  0.50400001928E-02 0. -1.
        1   -1    0    0  501    0  0.00000000000E+00  0.00000000000E+00 -0.15819851430E+04  0.15819851430E+04  0.50400001928E-02 0.  1.
    10030    2    1    2    0    0  0.00000000000E+00  0.00000000000E+00 -0.39725727295E+03  0.27667130131E+04  0.27380444767E+04 0.  0.
        3    1    3    3  502    0  0.67928829839E+03  0.24053687894E+03  0.97757427860E+03  0.12144719276E+04  0.10100000352E+00 0. -1.
       -3    1    3    3    0  502 -0.67928829839E+03 -0.24053687894E+03 -0.13748315515E+04  0.15522410856E+04  0.10100000352E+00 0.  1.
</event>
<event>
 5   0  0.2333979E-06  0.2582353E+04  0.7818609E-02  0.8374220E-01
       -1   -1    0    0    0  501  0.00000000000E+00  0.00000000000E+00  0.14307084153E+04  0.14307084153E+04  0.50400001928E-02 0.  1.
        1   -1    0    0  501    0  0.00000000000E+00  0.00000000000E+00 -0.11652528309E+04  0.11652528309E+04  0.50400001928E-02 0. -1.
    10030    2    1    2    0    0  0.00000000000E+00  0.00000000000E+00  0.26545558438E+03  0.25959612462E+04  0.25823532145E+04 0.  0.
        3    1    3    3  502    0 -0.28770518442E+03 -0.49448171695E+03  0.12963466320E+04  0.14169689630E+04  0.10100000352E+00 0.  1.
       -3    1    3    3    0  502  0.28770518442E+03  0.49448171695E+03 -0.10308910476E+04  0.11789922832E+04  0.10100000352E+00 0. -1.
</event>
<event>
 5   0  0.5942229E-06  0.2596072E+04  0.7818609E-02  0.8369537E-01
       -2   -1    0    0    0  501  0.00000000000E+00  0.00000000000E+00  0.12253559918E+04  0.12253559918E+04  0.25500000920E-02 0.  1.
        2   -1    0    0  501    0  0.00000000000E+00  0.00000000000E+00 -0.13750272923E+04  0.13750272923E+04  0.25500000920E-02 0. -1.
    10030    2    1    2    0    0  0.00000000000E+00  0.00000000000E+00 -0.14967130051E+03  0.26003832841E+04  0.25960723653E+04 0.  0.
        4    1    3    3  502    0 -0.79136350416E+03  0.41800440429E+03 -0.10165630244E+04  0.13543950211E+04  0.12699999809E+01 0. -1.
       -4    1    3    3    0  502  0.79136350416E+03 -0.41800440429E+03  0.86689172389E+03  0.12459882630E+04  0.12699999809E+01 0.  1.
</event>
<event>
 5   0  0.5940748E-06  0.2569643E+04  0.7818609E-02  0.8378587E-01
        2   -1    0    0  501    0  0.00000000000E+00  0.00000000000E+00  0.11850077967E+04  0.11850077967E+04  0.25500000920E-02 0. -1.
       -2   -1    0    0    0  501  0.00000000000E+00  0.00000000000E+00 -0.13930420306E+04  0.13930420306E+04  0.25500000920E-02 0.  1.
    10030    2    1    2    0    0  0.00000000000E+00  0.00000000000E+00 -0.20803423387E+03  0.25780498273E+04  0.25696425178E+04 0.  0.
        1    1    3    3  502    0 -0.64601974300E+03 -0.10405965222E+04  0.28530280114E+03  0.12576089689E+04  0.50400001928E-02 0. -1.
       -1    1    3    3    0  502  0.64601974300E+03  0.10405965222E+04 -0.49333703501E+03  0.13204408584E+04  0.50400001928E-02 0.  1.
</event>
<event>
 5   0  0.6158063E-06  0.2668877E+04  0.7818609E-02  0.8345174E-01
        2   -1    0    0  501    0  0.00000000000E+00  0.00000000000E+00  0.14372746773E+04  0.14372746773E+04  0.25500000920E-02 0. -1.
       -2   -1    0    0    0  501  0.00000000000E+00  0.00000000000E+00 -0.12389602925E+04  0.12389602925E+04  0.25500000920E-02 0.  1.
    10030    2    1    2    0    0  0.00000000000E+00  0.00000000000E+00  0.19831438481E+03  0.26762349698E+04  0.26688771081E+04 0.  0.
        2    1    3    3  502    0 -0.19258199422E+03  0.81700936358E+03 -0.94107159262E+03  0.12610344433E+04  0.25500000920E-02 0.  1.
       -2    1    3    3    0  502  0.19258199422E+03 -0.81700936358E+03  0.11393859774E+04  0.14152005265E+04  0.25500000920E-02 0. -1.
</event>
<event>
 5   0  0.5942229E-06  0.2603833E+04  0.7818609E-02  0.8366901E-01
        2   -1    0    0  501    0  0.00000000000E+00  0.00000000000E+00  0.18195457221E+04  0.18195457221E+04  0.25500000920E-02 0.  1.
       -2   -1    0    0    0  501  0.00000000000E+00  0.00000000000E+00 -0.93154351932E+03  0.93154351933E+03  0.25500000920E-02 0. -1.
    10030    2    1    2    0    0  0.00000000000E+00  0.00000000000E+00  0.88800220273E+03  0.27510892414E+04  0.26038325795E+04 0.  0.
        4    1    3    3  502    0 -0.11504811175E+04  0.34993400078E+02  0.10868106234E+04  0.15830319908E+04  0.12699999809E+01 0.  1.
       -4    1    3    3    0  502  0.11504811175E+04 -0.34993400078E+02 -0.19880842067E+03  0.11680572506E+04  0.12699999809E+01 0. -1.
</event>
<event>
 5   0  0.2440590E-06  0.2599304E+04  0.7818609E-02  0.8368438E-01
       -1   -1    0    0    0  501  0.00000000000E+00  0.00000000000E+00  0.15205267558E+04  0.15205267558E+04  0.50400001928E-02 0. -1.
        1   -1    0    0  501    0  0.00000000000E+00  0.00000000000E+00 -0.11108623165E+04  0.11108623165E+04  0.50400001928E-02 0.  1.
    10030    2    1    2    0    0  0.00000000000E+00  0.00000000000E+00  0.40966443930E+03  0.26313890722E+04  0.25993044255E+04 0.  0.
        1    1    3    3  502    0  0.77974507122E+03 -0.84685459822E+03 -0.40588099754E+03  0.12206164307E+04  0.50400001928E-02 0.  1.
       -1    1    3    3    0  502 -0.77974507122E+03  0.84685459822E+03  0.81554543685E+03  0.14107726416E+04  0.50400001928E-02 0. -1.
</event>
<event>
 5   0  0.2333979E-06  0.2607595E+04  0.7818609E-02  0.8365626E-01
       -1   -1    0    0    0  501  0.00000000000E+00  0.00000000000E+00  0.94704101336E+03  0.94704101337E+03  0.50400001928E-02 0.  1.
        1   -1    0    0  501    0  0.00000000000E+00  0.00000000000E+00 -0.17949461228E+04  0.17949461228E+04  0.50400001928E-02 0. -1.
    10030    2    1    2    0    0  0.00000000000E+00  0.00000000000E+00 -0.84790510941E+03  0.27419871362E+04  0.26075947500E+04 0.  0.
        3    1    3    3  502    0 -0.29692365994E+02 -0.94816249641E+03  0.51656874079E+03  0.10801560213E+04  0.10100000352E+00 0.  1.
       -3    1    3    3    0  502  0.29692365994E+02  0.94816249641E+03 -0.13644738502E+04  0.16618311148E+04  0.10100000352E+00 0. -1.
</event>
<event>
 5   0  0.6158063E-06  0.2599870E+04  0.7818609E-02  0.8368245E-01
        2   -1    0    0  501    0  0.00000000000E+00  0.00000000000E+00  0.13202956099E+04  0.13202956099E+04  0.25500000920E-02 0.  1.
       -2   -1    0    0    0  501  0.00000000000E+00  0.00000000000E+00 -0.12798881819E+04  0.12798881819E+04  0.25500000920E-02 0. -1.
    10030    2    1    2    0    0  0.00000000000E+00  0.00000000000E+00  0.40407428007E+02  0.26001837917E+04  0.25998698026E+04 0.  0.
        2    1    3    3  502    0 -0.64099268533E+03 -0.54255679513E+03 -0.97218183796E+03  0.12846700061E+04  0.25500000920E-02 0. -1.
       -2    1    3    3    0  502  0.64099268533E+03  0.54255679513E+03  0.10125892660E+04  0.13155137856E+04  0.25500000920E-02 0.  1.
</event>
<event>
 5   0  0.2503292E-06  0.2611248E+04  0.7818609E-02  0.8364390E-01
        1   -1    0    0  501    0  0.00000000000E+00  0.00000000000E+00  0.20577824839E+04  0.20577824839E+04  0.50400001928E-02 0. -1.
       -1   -1    0    0    0  501  0.00000000000E+00  0.00000000000E+00 -0.82839383247E+03  0.82839383248E+03  0.50400001928E-02 0.  1.
    10030    2    1    2    0    0  0.00000000000E+00  0.00000000000E+00  0.12293886514E+04  0.28861763164E+04  0.26112482213E+04 0.  0.
        2    1    3    3  502    0 -0.73741698467E+03 -0.94858421154E+03  0.11794279192E+04  0.16836407076E+04  0.25500000920E-02 0.  1.
       -2    1    3    3    0  502  0.73741698467E+03  0.94858421154E+03  0.49960732224E+02  0.12025356088E+04  0.25500000920E-02 0. -1.
</event>
<event>
 5   0  0.2471488E-06  0.2618467E+04  0.7818609E-02  0.8361955E-01
        1   -1    0    0  501    0  0.00000000000E+00  0.00000000000E+00  0.98354279129E+03  0.98354279130E+03  0.50400001928E-02 0. -1.
       -1   -1    0    0    0  501  0.00000000000E+00  0.00000000000E+00 -0.17427740712E+04  0.17427740712E+04  0.50400001928E-02 0.  1.
    10030    2    1    2    0    0  0.00000000000E+00  0.00000000000E+00 -0.75923127989E+03  0.27263168625E+04  0.26184673949E+04 0.  0.
        4    1    3    3  502    0  0.11207756230E+04  0.12175779899E+03 -0.10727124566E+04  0.15561737005E+04  0.12699999809E+01 0.  1.
       -4    1    3    3    0  502 -0.11207756230E+04 -0.12175779899E+03  0.31348117667E+03  0.11701431620E+04  0.12699999809E+01 0. -1.
</event>
<event>
 5   0  0.2471488E-06  0.2628890E+04  0.7818609E-02  0.8358454E-01
        1   -1    0    0  501    0  0.00000000000E+00  0.00000000000E+00  0.13513505134E+04  0.13513505134E+04  0.50400001928E-02 0.  1.
       -1   -1    0    0    0  501  0.00000000000E+00  0.00000000000E+00 -0.12785475296E+04  0.12785475296E+04  0.50400001928E-02 0. -1.
    10030    2    1    2    0    0  0.00000000000E+00  0.00000000000E+00  0.72802983747E+02  0.26298980430E+04  0.26288901541E+04 0.  0.
        4    1    3    3  502    0 -0.12914141535E+04  0.46288251110E+02 -0.20425492801E+03  0.13082869741E+04  0.12699999809E+01 0. -1.
       -4    1    3    3    0  502  0.12914141535E+04 -0.46288251110E+02  0.27705791176E+03  0.13216110689E+04  0.12699999809E+01 0.  1.
</event>
<event>
 5   0  0.6158063E-06  0.2605731E+04  0.7818609E-02  0.8366257E-01
       -2   -1    0    0    0  501  0.00000000000E+00  0.00000000000E+00  0.86797770053E+03  0.86797770053E+03  0.25500000920E-02 0. -1.
        2   -1    0    0  501    0  0.00000000000E+00  0.00000000000E+00 -0.19556477603E+04  0.19556477603E+04  0.25500000920E-02 0.  1.
    10030    2    1    2    0    0  0.00000000000E+00  0.00000000000E+00 -0.10876700597E+04  0.28236254608E+04  0.26057311035E+04 0.  0.
        2    1    3    3  502    0  0.10755406597E+04  0.39061836322E+03  0.13122551851E+03  0.11517771282E+04  0.25500000920E-02 0. -1.
       -2    1    3    3    0  502 -0.10755406597E+04 -0.39061836322E+03 -0.12188955782E+04  0.16718483326E+04  0.25500000920E-02 0.  1.
</event>
<event>
 5   0  0.2440590E-06  0.2596265E+04  0.7818609E-02  0.8369471E-01
       -1   -1    0    0    0  501  0.00000000000E+00  0.00000000000E+00  0.75823521894E+03  0.75823521896E+03  0.50400001928E-02 0.  1.
        1   -1    0    0  501    0  0.00000000000E+00  0.00000000000E+00 -0.22224608905E+04  0.22224608905E+04  0.50400001928E-02 0. -1.
    10030    2    1    2    0    0  0.00000000000E+00  0.00000000000E+00 -0.14642256716E+04  0.29806961095E+04  0.25962651020E+04 0.  0.
        1    1    3    3  502    0  0.70119434908E+00 -0.24293349597E+03 -0.21961308552E+04  0.22095266254E+04  0.50400001928E-02 0. -1.
       -1    1    3    3    0  502 -0.70119434908E+00  0.24293349597E+03  0.73190518370E+03  0.77116948402E+03  0.50400001928E-02 0.  1.
</event>
<event>
 5   0  0.6158063E-06  0.2586069E+04  0.7818609E-02  0.8372949E-01
       -2   -1    0    0    0  501  0.00000000000E+00  0.00000000000E+00  0.11375107171E+04  0.11375107171E+04  0.25500000920E-02 0. -1.
        2   -1    0    0  501    0  0.00000000000E+00  0.00000000000E+00 -0.14698218873E+04  0.14698218873E+04  0.25500000920E-02 0.  1.
    10030    2    1    2    0    0  0.00000000000E+00  0.00000000000E+00 -0.33231117017E+03  0.26073326044E+04  0.25860689465E+04 0.  0.
        2    1    3    3  502    0 -0.50669638610E+03  0.61919374855E+03 -0.11902812763E+04  0.14341937256E+04  0.25500000920E-02 0.  1.
       -2    1    3    3    0  502  0.50669638610E+03 -0.61919374855E+03  0.85797010609E+03  0.11731388788E+04  0.25500000920E-02 0. -1.
</event>
<event>
 5   0  0.6158063E-06  0.2591603E+04  0.7818609E-02  0.8371059E-01
       -2   -1    0    0    0  501  0.00000000000E+00  0.00000000000E+00  0.14544695021E+04  0.14544695021E+04  0.25500000920E-02 0.  1.
        2   -1    0    0  501    0  0.00000000000E+00  0.00000000000E+00 -0.11544427311E+04  0.11544427311E+04  0.25500000920E-02 0. -1.
    10030    2    1    2    0    0  0.00000000000E+00  0.00000000000E+00  0.30002677104E+03  0.26089122332E+04  0.25916031673E+04 0.  0.
        2    1    3    3  502    0 -0.27641679331E+03  0.86193782478E+03 -0.78341123824E+03  0.11971116179E+04  0.25500000920E-02 0. -1.
       -2    1    3    3    0  502  0.27641679331E+03 -0.86193782478E+03  0.10834380093E+04  0.14118006153E+04  0.25500000920E-02 0.  1.
</event>
<event>
 5   0  0.6158063E-06  0.2600889E+04  0.7818609E-02  0.8367899E-01
        2   -1    0    0  501    0  0.00000000000E+00  0.00000000000E+00  0.22511727368E+04  0.22511727368E+04  0.25500000920E-02 0.  1.
       -2   -1    0    0    0  501  0.00000000000E+00  0.00000000000E+00 -0.75123347087E+03  0.75123347088E+03  0.25500000920E-02 0. -1.
    10030    2    1    2    0    0  0.00000000000E+00  0.00000000000E+00  0.14999392659E+04  0.30024062076E+04  0.26008893161E+04 0.  0.
        2    1    3    3  502    0 -0.10715600641E+04  0.31220831974E+03 -0.20477459410E+02  0.11163038709E+04  0.25500000920E-02 0. -1.
       -2    1    3    3    0  502  0.10715600641E+04 -0.31220831974E+03  0.15204167253E+04  0.18861023367E+04  0.25500000920E-02 0.  1.
</event>
<event>
 5   0  0.5940748E-06  0.2619810E+04  0.7818609E-02  0.8361503E-01
       -2   -1    0    0    0  501  0.00000000000E+00  0.00000000000E+00  0.69228553997E+03  0.69228553997E+03  0.25500000920E-02 0.  1.
        2   -1    0    0  501    0  0.00000000000E+00  0.00000000000E+00 -0.24785301640E+04  0.24785301640E+04  0.25500000920E-02 0. -1.
    10030    2    1    2    0    0  0.00000000000E+00  0.00000000000E+00 -0.17862446240E+04  0.31708157040E+04  0.26198096060E+04 0.  0.
        1    1    3    3  502    0 -0.12029190760E+04  0.31185921814E+03 -0.39177954840E+03  0.13029818456E+04  0.50400001928E-02 0.  1.
       -1    1    3    3    0  502  0.12029190760E+04 -0.31185921814E+03 -0.13944650756E+04  0.18678338584E+04  0.50400001928E-02 0. -1.
</event>
<event>
 5   0  0.2503292E-06  0.2580226E+04  0.7818609E-02  0.8374949E-01
        1   -1    0    0  501    0  0.00000000000E+00  0.00000000000E+00  0.16089858810E+04  0.16089858810E+04  0.50400001928E-02 0. -1.
       -1   -1    0    0    0  501  0.00000000000E+00  0.00000000000E+00 -0.10344352935E+04  0.10344352935E+04  0.50400001928E-02 0.  1.
    10030    2    1    2    0    0  0.00000000000E+00  0.00000000000E+00  0.57455058751E+03  0.26434211745E+04  0.25802261777E+04 0.  0.
        2    1    3    3  502    0 -0.95966063937E+03 -0.83948287420E+03  0.48884717619E+03  0.13655224643E+04  0.25500000920E-02 0. -1.
       -2    1    3    3    0  502  0.95966063937E+03  0.83948287420E+03  0.85703411323E+02  0.12778987102E+04  0.25500000920E-02 0.  1.
</event>
<event>
 5   0  0.5942229E-06  0.2599149E+04  0.7818609E-02  0.8368490E-01
        2   -1    0    0  501    0  0.00000000000E+00  0.00000000000E+00  0.12139648633E+04  0.12139648633E+04  0.25500000920E-02 0. -1.
       -2   -1    0    0    0  501  0.00000000000E+00  0.00000000000E+00 -0.13912209655E+04  0.13912209655E+04  0.25500000920E-02 0.  1.
    10030    2    1    2    0    0  0.00000000000E+00  0.00000000000E+00 -0.17725610221E+03  0.26051858288E+04  0.25991486062E+04 0.  0.
        4    1    3    3  502    0 -0.85215286659E+03  0.35404857664E+03  0.82858045197E+03  0.12401863090E+04  0.12699999809E+01 0. -1.
       -4    1    3    3    0  502  0.85215286659E+03 -0.35404857664E+03 -0.10058365542E+04  0.13649995199E+04  0.12699999809E+01 0.  1.
</event>
<event>
 5   0  0.6161834E-06  0.2605281E+04  0.7818609E-02  0.8366410E-01
       -2   -1    0    0    0  501  0.00000000000E+00  0.00000000000E+00  0.16776938852E+04  0.16776938852E+04  0.25500000920E-02 0. -1.
        2   -1    0    0  501    0  0.00000000000E+00  0.00000000000E+00 -0.10114313914E+04  0.10114313914E+04  0.25500000920E-02 0.  1.
    10030    2    1    2    0    0  0.00000000000E+00  0.00000000000E+00  0.66626249378E+03  0.26891252766E+04  0.26052809911E+04 0.  0.
        5    1    3    3  502    0  0.11731935555E+04 -0.17950485589E+03 -0.22103159221E+03  0.12072622610E+04  0.46999998093E+01 0.  1.
       -5    1    3    3    0  502 -0.11731935555E+04  0.17950485589E+03  0.88729408599E+03  0.14818630156E+04  0.46999998093E+01 0. -1.
</event>
<event>
 5   0  0.2333979E-06  0.2641289E+04  0.7818609E-02  0.8354310E-01
       -1   -1    0    0    0  501  0.00000000000E+00  0.00000000000E+00  0.71369813865E+03  0.71369813866E+03  0.50400001928E-02 0.  1.
        1   -1    0    0  501    0  0.00000000000E+00  0.00000000000E+00 -0.24437527809E+04  0.24437527809E+04  0.50400001928E-02 0. -1.
    10030    2    1    2    0    0  0.00000000000E+00  0.00000000000E+00 -0.17300546423E+04  0.31574509196E+04  0.26412889362E+04 0.  0.
        3    1    3    3  502    0  0.60579256910E+03 -0.79634965243E+03  0.16535607474E+03  0.10141499137E+04  0.10100000352E+00 0.  1.
       -3    1    3    3    0  502 -0.60579256910E+03  0.79634965243E+03 -0.18954107170E+04  0.21433010060E+04  0.10100000352E+00 0. -1.
</event>
<event>
 5   0  0.6161834E-06  0.2595332E+04  0.7818609E-02  0.8369789E-01
       -2   -1    0    0    0  501  0.00000000000E+00  0.00000000000E+00  0.56072213860E+03  0.56072213860E+03  0.25500000920E-02 0.  1.
        2   -1    0    0  501    0  0.00000000000E+00  0.00000000000E+00 -0.30031575712E+04  0.30031575712E+04  0.25500000920E-02 0. -1.
    10030    2    1    2    0    0  0.00000000000E+00  0.00000000000E+00 -0.24424354326E+04  0.35638797098E+04  0.25953319139E+04 0.  0.
        5    1    3    3  502    0  0.66348053282E+03 -0.10719872401E+04 -0.16434631846E+04  0.20713175492E+04  0.46999998093E+01 0. -1.
       -5    1    3    3    0  502 -0.66348053282E+03  0.10719872401E+04 -0.79897224795E+03  0.14925621606E+04  0.46999998093E+01 0.  1.
</event>
<event>
 5   0  0.2456600E-06  0.2592369E+04  0.7818609E-02  0.8370798E-01
        1   -1    0    0  501    0  0.00000000000E+00  0.00000000000E+00  0.31559163929E+04  0.31559163929E+04  0.50400001928E-02 0. -1.
       -1   -1    0    0    0  501  0.00000000000E+00  0.00000000000E+00 -0.53236355885E+03  0.53236355887E+03  0.50400001928E-02 0.  1.
    10030    2    1    2    0    0  0.00000000000E+00  0.00000000000E+00  0.26235528340E+04  0.36882799518E+04  0.25923694817E+04 0.  0.
        5    1    3    3  502    0 -0.11456222657E+04 -0.23759951297E+03  0.51813365149E+03  0.12796048121E+04  0.46999998093E+01 0.  1.
       -5    1    3    3    0  502  0.11456222657E+04  0.23759951297E+03  0.21054191825E+04  0.24086751397E+04  0.46999998093E+01 0. -1.
</event>
<event>
 5   0  0.6161834E-06  0.2604154E+04  0.7818609E-02  0.8366791E-01
       -2   -1    0    0    0  501  0.00000000000E+00  0.00000000000E+00  0.74437753066E+03  0.74437753066E+03  0.25500000920E-02 0. -1.
        2   -1    0    0  501    0  0.00000000000E+00  0.00000000000E+00 -0.22776143675E+04  0.22776143675E+04  0.25500000920E-02 0.  1.
    10030    2    1    2    0    0  0.00000000000E+00  0.00000000000E+00 -0.15332368369E+04  0.30219918982E+04  0.26041543416E+04 0.  0.
        5    1    3    3  502    0  0.11803028974E+04  0.15966041568E+03 -0.13771261591E+04  0.18207429599E+04  0.46999998093E+01 0.  1.
       -5    1    3    3    0  502 -0.11803028974E+04 -0.15966041568E+03 -0.15611067771E+03  0.12012489382E+04  0.46999998093E+01 0. -1.
</event>
<event>
 5   0  0.6158063E-06  0.2586196E+04  0.7818609E-02  0.8372905E-01
        2   -1    0    0  501    0  0.00000000000E+00  0.00000000000E+00  0.12925012457E+04  0.12925012457E+04  0.25500000920E-02 0.  1.
       -2   -1    0    0    0  501  0.00000000000E+00  0.00000000000E+00 -0.12936950841E+04  0.12936950841E+04  0.25500000920E-02 0. -1.
    10030    2    1    2    0    0  0.00000000000E+00  0.00000000000E+00 -0.11938384011E+01  0.25861963298E+04  0.25861960543E+04 0.  0.
        2    1    3    3  502    0  0.31272612917E+03 -0.11686444709E+04  0.45610322416E+03  0.12928873433E+04  0.25500000920E-02 0.  1.
       -2    1    3    3    0  502 -0.31272612917E+03  0.11686444709E+04 -0.45729706256E+03  0.12933089866E+04  0.25500000920E-02 0. -1.
</event>
<event>
 5   0  0.2440590E-06  0.2598043E+04  0.7818609E-02  0.8368866E-01
       -1   -1    0    0    0  501  0.00000000000E+00  0.00000000000E+00  0.82031998387E+03  0.82031998389E+03  0.50400001928E-02 0. -1.
        1   -1    0    0  501    0  0.00000000000E+00  0.00000000000E+00 -0.20570711588E+04  0.20570711588E+04  0.50400001928E-02 0.  1.
    10030    2    1    2    0    0  0.00000000000E+00  0.00000000000E+00 -0.12367511749E+04  0.28773911427E+04  0.25980427863E+04 0.  0.
        1    1    3    3  502    0  0.33119983759E+03  0.78807217599E+03  0.46490693681E+03  0.97308249748E+03  0.50400001928E-02 0. -1.
       -1    1    3    3    0  502 -0.33119983759E+03 -0.78807217599E+03 -0.17016581117E+04  0.19043086452E+04  0.50400001928E-02 0.  1.
</event>
<event>
 5   0  0.2333979E-06  0.2617094E+04  0.7818609E-02  0.8362418E-01
       -1   -1    0    0    0  501  0.00000000000E+00  0.00000000000E+00  0.15212200660E+04  0.15212200660E+04  0.50400001928E-02 0. -1.
        1   -1    0    0  501    0  0.00000000000E+00  0.00000000000E+00 -0.11256062741E+04  0.11256062741E+04  0.50400001928E-02 0.  1.
    10030    2    1    2    0    0  0.00000000000E+00  0.00000000000E+00  0.39561379191E+03  0.26468263401E+04  0.26170936939E+04 0.  0.
        3    1    3    3  502    0 -0.76819634893E+03 -0.14656152630E+03 -0.86324952065E+03  0.11648200104E+04  0.10100000352E+00 0.  1.
       -3    1    3    3    0  502  0.76819634893E+03  0.14656152630E+03  0.12588633126E+04  0.14820063297E+04  0.10100000352E+00 0. -1.
</event>
<event>
 5   0  0.5942229E-06  0.2599238E+04  0.7818609E-02  0.8368460E-01
       -2   -1    0    0    0  501  0.00000000000E+00  0.00000000000E+00  0.11263417668E+04  0.11263417668E+04  0.25500000920E-02 0. -1.
        2   -1    0    0  501    0  0.00000000000E+00  0.00000000000E+00 -0.14995528044E+04  0.14995528044E+04  0.25500000920E-02 0.  1.
    10030    2    1    2    0    0  0.00000000000E+00  0.00000000000E+00 -0.37321103760E+03  0.26258945711E+04  0.25992375459E+04 0.  0.
        4    1    3    3  502    0 -0.10055634768E+04  0.93071008739E+02 -0.10130337299E+04  0.14304052115E+04  0.12699999809E+01 0.  1.
       -4    1    3    3    0  502  0.10055634768E+04 -0.93071008739E+02  0.63982269226E+03  0.11954893596E+04  0.12699999809E+01 0. -1.
</event>
<event>
 5   0  0.5942229E-06  0.2594302E+04  0.7818609E-02  0.8370139E-01
        2   -1    0    0  501    0  0.00000000000E+00  0.00000000000E+00  0.17808420195E+04  0.17808420195E+04  0.25500000920E-02 0. -1.
       -2   -1    0    0    0  501  0.00000000000E+00  0.00000000000E+00 -0.94483415196E+03  0.94483415197E+03  0.25500000920E-02 0.  1.
    10030    2    1    2    0    0  0.00000000000E+00  0.00000000000E+00  0.83600786753E+03  0.27256761715E+04  0.25943017244E+04 0.  0.
        4    1    3    3  502    0  0.86150401093E+03  0.96968776222E+03  0.42928201650E+03  0.13662972516E+04  0.12699999809E+01 0.  1.
       -4    1    3    3    0  502 -0.86150401093E+03 -0.96968776222E+03  0.40672585103E+03  0.13593789199E+04  0.12699999809E+01 0. -1.
</event>
<event>
 5   0  0.5940748E-06  0.2590869E+04  0.7818609E-02  0.8371309E-01
       -2   -1    0    0    0  501  0.00000000000E+00  0.00000000000E+00  0.16328742978E+04  0.16328742978E+04  0.25500000920E-02 0. -1.
        2   -1    0    0  501    0  0.00000000000E+00  0.00000000000E+00 -0.10277280699E+04  0.10277280699E+04  0.25500000920E-02 0.  1.
    10030    2    1    2    0    0  0.00000000000E+00  0.00000000000E+00  0.60514622789E+03  0.26606023678E+04  0.25908691596E+04 0.  0.
        1    1    3    3  502    0  0.68348996309E+03  0.80701288591E+03  0.10708554434E+04  0.15050447530E+04  0.50400001928E-02 0. -1.
       -1    1    3    3    0  502 -0.68348996309E+03 -0.80701288591E+03 -0.46570921556E+03  0.11555576148E+04  0.50400001928E-02 0.  1.
</event>
<event>
 5   0  0.6161834E-06  0.2581601E+04  0.7818609E-02  0.8374478E-01
       -2   -1    0    0    0  501  0.00000000000E+00  0.00000000000E+00  0.16324480294E+04  0.16324480294E+04  0.25500000920E-02 0. -1.
        2   -1    0    0  501    0  0.00000000000E+00  0.00000000000E+00 -0.10206551287E+04  0.10206551287E+04  0.25500000920E-02 0.  1.
    10030    2    1    2    0    0  0.00000000000E+00  0.00000000000E+00  0.61179290069E+03  0.26531031581E+04  0.25816014050E+04 0.  0.
        5    1    3    3  502    0  0.12548604229E+03  0.54251332216E+03  0.15026565707E+04  0.16025187397E+04  0.46999998093E+01 0. -1.
       -5    1    3    3    0  502 -0.12548604229E+03 -0.54251332216E+03 -0.89086367005E+03  0.10505844184E+04  0.46999998093E+01 0.  1.
</event>
<event>
 5   0  0.2333979E-06  0.2593075E+04  0.7818609E-02  0.8370557E-01
        1   -1    0    0  501    0  0.00000000000E+00  0.00000000000E+00  0.16750642693E+04  0.16750642694E+04  0.50400001928E-02 0.  1.
       -1   -1    0    0    0  501  0.00000000000E+00  0.00000000000E+00 -0.10035492968E+04  0.10035492968E+04  0.50400001928E-02 0. -1.
    10030    2    1    2    0    0  0.00000000000E+00  0.00000000000E+00  0.67151497258E+03  0.26786135661E+04  0.25930750622E+04 0.  0.
        3    1    3    3  502    0 -0.10826692819E+04  0.55023798079E+03 -0.13317203767E+03  0.12217485058E+04  0.10100000352E+00 0. -1.
       -3    1    3    3    0  502  0.10826692819E+04 -0.55023798079E+03  0.80468701025E+03  0.14568650604E+04  0.10100000352E+00 0.  1.
</event>
<event>
 5   0  0.2440590E-06  0.2589159E+04  0.7818609E-02  0.8371893E-01
       -1   -1    0    0    0  501  0.00000000000E+00  0.00000000000E+00  0.11603381495E+04  0.11603381495E+04  0.50400001928E-02 0.  1.
        1   -1    0    0  501    0  0.00000000000E+00  0.00000000000E+00 -0.14443513156E+04  0.14443513157E+04  0.50400001928E-02 0. -1.
    10030    2    1    2    0    0  0.00000000000E+00  0.00000000000E+00 -0.28401316611E+03  0.26046894652E+04  0.25891588850E+04 0.  0.
        1    1    3    3  502    0  0.10349335866E+04  0.73677625574E+03 -0.39251663220E+03  0.13296601394E+04  0.50400001928E-02 0. -1.
       -1    1    3    3    0  502 -0.10349335866E+04 -0.73677625574E+03  0.10850346609E+03  0.12750293258E+04  0.50400001928E-02 0.  1.
</event>
<event>
 5   0  0.6158063E-06  0.2595690E+04  0.7818609E-02  0.8369667E-01
        2   -1    0    0  501    0  0.00000000000E+00  0.00000000000E+00  0.23438470523E+04  0.23438470523E+04  0.25500000920E-02 0.  1.
       -2   -1    0    0    0  501  0.00000000000E+00  0.00000000000E+00 -0.71864837428E+03  0.71864837429E+03  0.25500000920E-02 0. -1.
    10030    2    1    2    0    0  0.00000000000E+00  0.00000000000E+00  0.16251986780E+04  0.30624954266E+04  0.25956901770E+04 0.  0.
        2    1    3    3  502    0  0.68900392922E+03 -0.10839675371E+04  0.59285194738E+03  0.14146326264E+04  0.25500000920E-02 0. -1.
       -2    1    3    3    0  502 -0.68900392922E+03  0.10839675371E+04  0.10323467306E+04  0.16478628002E+04  0.25500000920E-02 0.  1.
</event>
<event>
 5   0  0.2456600E-06  0.2598709E+04  0.7818609E-02  0.8368640E-01
        1   -1    0    0  501    0  0.00000000000E+00  0.00000000000E+00  0.22632889963E+04  0.22632889963E+04  0.50400001928E-02 0.  1.
       -1   -1    0    0    0  501  0.00000000000E+00  0.00000000000E+00 -0.74595936415E+03  0.74595936416E+03  0.50400001928E-02 0. -1.
    10030    2    1    2    0    0  0.00000000000E+00  0.00000000000E+00  0.15173296322E+04  0.30092483605E+04  0.25987086182E+04 0.  0.
        5    1    3    3  502    0  0.29237060193E+03 -0.24820697685E+03  0.21962436611E+04  0.22294832543E+04  0.46999998093E+01 0.  1.
       -5    1    3    3    0  502 -0.29237060193E+03  0.24820697685E+03 -0.67891402891E+03  0.77976510622E+03  0.46999998093E+01 0. -1.
</event>
<event>
 5   0  0.2333979E-06  0.2601371E+04  0.7818609E-02  0.8367736E-01
        1   -1    0    0  501    0  0.00000000000E+00  0.00000000000E+00  0.25589488554E+04  0.25589488554E+04  0.50400001928E-02 0. -1.
       -1   -1    0    0    0  501  0.00000000000E+00  0.00000000000E+00 -0.66112429007E+03  0.66112429009E+03  0.50400001928E-02 0.  1.
    10030    2    1    2    0    0  0.00000000000E+00  0.00000000000E+00  0.18978245653E+04  0.32200731455E+04  0.26013713656E+04 0.  0.
        3    1    3    3  502    0  0.13068818018E+03  0.93083037549E+02  0.25466519338E+04  0.25517013803E+04  0.10100000352E+00 0. -1.
       -3    1    3    3    0  502 -0.13068818018E+03 -0.93083037549E+02 -0.64882736842E+03  0.66837176521E+03  0.10100000352E+00 0.  1.
</event>
<event>
 5   0  0.2503292E-06  0.2603884E+04  0.7818609E-02  0.8366883E-01
        1   -1    0    0  501    0  0.00000000000E+00  0.00000000000E+00  0.19648735255E+04  0.19648735255E+04  0.50400001928E-02 0. -1.
       -1   -1    0    0    0  501  0.00000000000E+00  0.00000000000E+00 -0.86267795563E+03  0.86267795564E+03  0.50400001928E-02 0.  1.
    10030    2    1    2    0    0  0.00000000000E+00  0.00000000000E+00  0.11021955698E+04  0.28275514811E+04  0.26038840804E+04 0.  0.
        2    1    3    3  502    0  0.61320482670E+02  0.11380546397E+04  0.12345446138E+04  0.16801871824E+04  0.25500000920E-02 0. -1.
       -2    1    3    3    0  502 -0.61320482670E+02 -0.11380546397E+04 -0.13234904393E+03  0.11473642987E+04  0.25500000920E-02 0.  1.
</event>
<event>
 5   0  0.6158063E-06  0.2590965E+04  0.7818609E-02  0.8371277E-01
       -2   -1    0    0    0  501  0.00000000000E+00  0.00000000000E+00  0.11861503925E+04  0.11861503925E+04  0.25500000920E-02 0.  1.
        2   -1    0    0  501    0  0.00000000000E+00  0.00000000000E+00 -0.14148924823E+04  0.14148924823E+04  0.25500000920E-02 0. -1.
    10030    2    1    2    0    0  0.00000000000E+00  0.00000000000E+00 -0.22874208982E+03  0.26010428748E+04  0.25909652821E+04 0.  0.
        2    1    3    3  502    0  0.15031309459E+03 -0.55500061187E+03 -0.12797720071E+04  0.14030096563E+04  0.25500000920E-02 0. -1.
       -2    1    3    3    0  502 -0.15031309459E+03  0.55500061187E+03  0.10510299173E+04  0.11980332185E+04  0.25500000920E-02 0.  1.
</event>
<event>
 5   0  0.6173140E-06  0.2598391E+04  0.7818609E-02  0.8368748E-01
        2   -1    0    0  501    0  0.00000000000E+00  0.00000000000E+00  0.15730594706E+04  0.15730594706E+04  0.25500000920E-02 0. -1.
       -2   -1    0    0    0  501  0.00000000000E+00  0.00000000000E+00 -0.10730100686E+04  0.10730100686E+04  0.25500000920E-02 0.  1.
    10030    2    1    2    0    0  0.00000000000E+00  0.00000000000E+00  0.50004940199E+03  0.26460695392E+04  0.25983907716E+04 0.  0.
        3    1    3    3  502    0  0.10632741543E+04  0.67918622245E+03  0.56565187157E+03  0.13826814174E+04  0.10100000352E+00 0. -1.
       -3    1    3    3    0  502 -0.10632741543E+04 -0.67918622245E+03 -0.65602469583E+02  0.12633881218E+04  0.10100000352E+00 0.  1.
</event>
<event>
 5   0  0.2456600E-06  0.2582212E+04  0.7818609E-02  0.8374269E-01
       -1   -1    0    0    0  501  0.00000000000E+00  0.00000000000E+00  0.16848091429E+04  0.16848091429E+04  0.50400001928E-02 0. -1.
        1   -1    0    0  501    0  0.00000000000E+00  0.00000000000E+00 -0.98940282199E+03  0.98940282201E+03  0.50400001928E-02 0.  1.
    10030    2    1    2    0    0  0.00000000000E+00  0.00000000000E+00  0.69540632086E+03  0.26742119649E+04  0.25822121683E+04 0.  0.
        5    1    3    3  502    0  0.31682890440E+02 -0.12393804172E+04 -0.25504293784E+02  0.12400565241E+04  0.46999998093E+01 0.  1.
       -5    1    3    3    0  502 -0.31682890440E+02  0.12393804172E+04  0.72091061464E+03  0.14341554408E+04  0.46999998093E+01 0. -1.
</event>
<event>
 5   0  0.2440590E-06  0.2599081E+04  0.7818609E-02  0.8368514E-01
       -1   -1    0    0    0  501  0.00000000000E+00  0.00000000000E+00  0.15262751696E+04  0.15262751696E+04  0.50400001928E-02 0.  1.
        1   -1    0    0  501    0  0.00000000000E+00  0.00000000000E+00 -0.11064878082E+04  0.11064878082E+04  0.50400001928E-02 0. -1.
    10030    2    1    2    0    0  0.00000000000E+00  0.00000000000E+00  0.41978736143E+03  0.26327629778E+04  0.25990805045E+04 0.  0.
        1    1    3    3  502    0  0.47798530440E+03  0.11149290028E+04  0.68205472043E+03  0.13916663660E+04  0.50400001928E-02 0.  1.
       -1    1    3    3    0  502 -0.47798530440E+03 -0.11149290028E+04 -0.26226735900E+03  0.12410966119E+04  0.50400001928E-02 0. -1.
</event>
<event>
 5   0  0.2333979E-06  0.2588770E+04  0.7818609E-02  0.8372026E-01
       -1   -1    0    0    0  501  0.00000000000E+00  0.00000000000E+00  0.18403472065E+04  0.18403472065E+04  0.50400001928E-02 0. -1.
        1   -1    0    0  501    0  0.00000000000E+00  0.00000000000E+00 -0.91038952289E+03  0.91038952290E+03  0.50400001928E-02 0.  1.
    10030    2    1    2    0    0  0.00000000000E+00  0.00000000000E+00  0.92995768358E+03  0.27507367294E+04  0.25887702218E+04 0.  0.
        3    1    3    3  502    0  0.42726142852E+03  0.11719943109E+04  0.83200211400E+03  0.14994500728E+04  0.10100000352E+00 0. -1.
       -3    1    3    3    0  502 -0.42726142852E+03 -0.11719943109E+04  0.97955569586E+02  0.12512866565E+04  0.10100000352E+00 0.  1.
</event>
<event>
 5   0  0.6161834E-06  0.2616810E+04  0.7818609E-02  0.8362514E-01
        2   -1    0    0  501    0  0.00000000000E+00  0.00000000000E+00  0.18286030237E+04  0.18286030237E+04  0.25500000920E-02 0. -1.
       -2   -1    0    0    0  501  0.00000000000E+00  0.00000000000E+00 -0.93619195242E+03  0.93619195243E+03  0.25500000920E-02 0.  1.
    10030    2    1    2    0    0  0.00000000000E+00  0.00000000000E+00  0.89241107126E+03  0.27647949761E+04  0.26168098402E+04 0.  0.
        5    1    3    3  502    0  0.35278874337E+03  0.24039497133E+03  0.17529390958E+04  0.18041804797E+04  0.46999998093E+01 0. -1.
       -5    1    3    3    0  502 -0.35278874337E+03 -0.24039497133E+03 -0.86052802455E+03  0.96061449642E+03  0.46999998093E+01 0.  1.
</event>
<event>
 5   0  0.2072125E-06  0.2595110E+04  0.7818609E-02  0.8369864E-01
       -3   -1    0    0    0  501  0.00000000000E+00  0.00000000000E+00  0.15027994519E+04  0.15027994553E+04  0.10100000352E+00 0.  1.
        3   -1    0    0  501    0  0.00000000000E+00  0.00000000000E+00 -0.11203416576E+04  0.11203416621E+04  0.10100000352E+00 0. -1.
    10030    2    1    2    0    0  0.00000000000E+00  0.00000000000E+00  0.38245779434E+03  0.26231411174E+04  0.25951098931E+04 0.  0.
        4    1    3    3  502    0  0.11041283079E+04 -0.50887184945E+02 -0.49578786950E+03  0.12114025138E+04  0.12699999809E+01 0. -1.
       -4    1    3    3    0  502 -0.11041283079E+04  0.50887184945E+02  0.87824566384E+03  0.14117386036E+04  0.12699999809E+01 0.  1.
</event>
<event>
 5   0  0.6158063E-06  0.2615705E+04  0.7818609E-02  0.8362886E-01
        2   -1    0    0  501    0  0.00000000000E+00  0.00000000000E+00  0.20106854750E+04  0.20106854750E+04  0.25500000920E-02 0. -1.
       -2   -1    0    0    0  501  0.00000000000E+00  0.00000000000E+00 -0.85069428443E+03  0.85069428443E+03  0.25500000920E-02 0.  1.
    10030    2    1    2    0    0  0.00000000000E+00  0.00000000000E+00  0.11599911906E+04  0.28613797594E+04  0.26157053667E+04 0.  0.
        2    1    3    3  502    0 -0.33947002664E+03 -0.19917585932E+03 -0.78437119071E+03  0.87758138468E+03  0.25500000920E-02 0.  1.
       -2    1    3    3    0  502  0.33947002664E+03  0.19917585932E+03  0.19443623813E+04  0.19837983748E+04  0.25500000920E-02 0. -1.
</event>
<event>
 5   0  0.6158063E-06  0.2606717E+04  0.7818609E-02  0.8365923E-01
       -2   -1    0    0    0  501  0.00000000000E+00  0.00000000000E+00  0.12007429422E+04  0.12007429422E+04  0.25500000920E-02 0. -1.
        2   -1    0    0  501    0  0.00000000000E+00  0.00000000000E+00 -0.14147435255E+04  0.14147435255E+04  0.25500000920E-02 0.  1.
    10030    2    1    2    0    0  0.00000000000E+00  0.00000000000E+00 -0.21400058330E+03  0.26154864678E+04  0.26067169416E+04 0.  0.
        2    1    3    3  502    0  0.31318139409E+03  0.11697893943E+03 -0.13709909686E+04  0.14111636666E+04  0.25500000920E-02 0.  1.
       -2    1    3    3    0  502 -0.31318139409E+03 -0.11697893943E+03  0.11569903853E+04  0.12043228012E+04  0.25500000920E-02 0. -1.
</event>
<event>
 5   0  0.6161834E-06  0.2608651E+04  0.7818609E-02  0.8365268E-01
        2   -1    0    0  501    0  0.00000000000E+00  0.00000000000E+00  0.13562874523E+04  0.13562874523E+04  0.25500000920E-02 0. -1.
       -2   -1    0    0    0  501  0.00000000000E+00  0.00000000000E+00 -0.12543546539E+04  0.12543546539E+04  0.25500000920E-02 0.  1.
    10030    2    1    2    0    0  0.00000000000E+00  0.00000000000E+00  0.10193279835E+03  0.26106421062E+04  0.26086513587E+04 0.  0.
        5    1    3    3  502    0 -0.49961502507E+03  0.11574927922E+04  0.38564447012E+03  0.13183885940E+04  0.46999998093E+01 0. -1.
       -5    1    3    3    0  502  0.49961502507E+03 -0.11574927922E+04 -0.28371167177E+03  0.12922535123E+04  0.46999998093E+01 0.  1.
</event>
<event>
 5   0  0.5940748E-06  0.2605647E+04  0.7818609E-02  0.8366286E-01
       -2   -1    0    0    0  501  0.00000000000E+00  0.00000000000E+00  0.78547593343E+03  0.78547593344E+03  0.25500000920E-02 0. -1.
        2   -1    0    0  501    0  0.00000000000E+00  0.00000000000E+00 -0.21609177635E+04  0.21609177635E+04  0.25500000920E-02 0.  1.
    10030    2    1    2    0    0  0.00000000000E+00  0.00000000000E+00 -0.13754418301E+04  0.29463936969E+04  0.26056468658E+04 0.  0.
        1    1    3    3  502    0  0.68272223257E+03  0.61606697291E+03 -0.17312840552E+04  0.19603552336E+04  0.50400001928E-02 0.  1.
       -1    1    3    3    0  502 -0.68272223257E+03 -0.61606697291E+03  0.35584222517E+03  0.98603846334E+03  0.50400001928E-02 0. -1.
</event>
<event>
 5   0  0.6158063E-06  0.2606418E+04  0.7818609E-02  0.8366024E-01
       -2   -1    0    0    0  501  0.00000000000E+00  0.00000000000E+00  0.70652575936E+03  0.70652575936E+03  0.25500000920E-02 0.  1.
        2   -1    0    0  501    0  0.00000000000E+00  0.00000000000E+00 -0.24038104417E+04  0.24038104417E+04  0.25500000920E-02 0. -1.
    10030    2    1    2    0    0  0.00000000000E+00  0.00000000000E+00 -0.16972846824E+04  0.31103362011E+04  0.26064182302E+04 0.  0.
        2    1    3    3  502    0  0.20001144091E+03  0.37262239590E+03  0.62236169535E+03  0.75245339143E+03  0.25500000920E-02 0.  1.
       -2    1    3    3    0  502 -0.20001144091E+03 -0.37262239590E+03 -0.23196463777E+04  0.23578828097E+04  0.25500000920E-02 0. -1.
</event>
<event>
 5   0  0.5940748E-06  0.2602212E+04  0.7818609E-02  0.8367450E-01
        2   -1    0    0  501    0  0.00000000000E+00  0.00000000000E+00  0.85887670068E+03  0.85887670068E+03  0.25500000920E-02 0.  1.
       -2   -1    0    0    0  501  0.00000000000E+00  0.00000000000E+00 -0.19710355714E+04  0.19710355714E+04  0.25500000920E-02 0. -1.
    10030    2    1    2    0    0  0.00000000000E+00  0.00000000000E+00 -0.11121588707E+04  0.28299122721E+04  0.26022117735E+04 0.  0.
        1    1    3    3  502    0  0.12651935375E+04  0.19098749014E+03 -0.29945272091E+03  0.13141015337E+04  0.50400001928E-02 0. -1.
       -1    1    3    3    0  502 -0.12651935375E+04 -0.19098749014E+03 -0.81270614982E+03  0.15158107384E+04  0.50400001928E-02 0.  1.
</event>
<event>
 5   0  0.2471488E-06  0.2598461E+04  0.7818609E-02  0.8368724E-01
       -1   -1    0    0    0  501  0.00000000000E+00  0.00000000000E+00  0.79802759105E+03  0.79802759106E+03  0.50400001928E-02 0.  1.
        1   -1    0    0  501    0  0.00000000000E+00  0.00000000000E+00 -0.21152151266E+04  0.21152151266E+04  0.50400001928E-02 0. -1.
    10030    2    1    2    0    0  0.00000000000E+00  0.00000000000E+00 -0.13171875356E+04  0.29132427177E+04  0.25984611077E+04 0.  0.
        4    1    3    3  502    0  0.25447444496E+02  0.11613850094E+04 -0.62707703794E+01  0.11616813883E+04  0.12699999809E+01 0.  1.
       -4    1    3    3    0  502 -0.25447444496E+02 -0.11613850094E+04 -0.13109167652E+04  0.17515613294E+04  0.12699999809E+01 0. -1.
</event>
<event>
 5   0  0.2471488E-06  0.2586883E+04  0.7818609E-02  0.8372671E-01
       -1   -1    0    0    0  501  0.00000000000E+00  0.00000000000E+00  0.16122521924E+04  0.16122521924E+04  0.50400001928E-02 0. -1.
        1   -1    0    0  501    0  0.00000000000E+00  0.00000000000E+00 -0.10376728509E+04  0.10376728510E+04  0.50400001928E-02 0.  1.
    10030    2    1    2    0    0  0.00000000000E+00  0.00000000000E+00  0.57457934146E+03  0.26499250434E+04  0.25868825477E+04 0.  0.
        4    1    3    3  502    0  0.74018914422E+03  0.75709180175E+03 -0.47372887396E+03  0.11599519923E+04  0.12699999809E+01 0. -1.
       -4    1    3    3    0  502 -0.74018914422E+03 -0.75709180175E+03  0.10483082154E+04  0.14899730511E+04  0.12699999809E+01 0.  1.
</event>
<event>
 5   0  0.2471488E-06  0.2602891E+04  0.7818609E-02  0.8367220E-01
       -1   -1    0    0    0  501  0.00000000000E+00  0.00000000000E+00  0.75694164152E+03  0.75694164154E+03  0.50400001928E-02 0. -1.
        1   -1    0    0  501    0  0.00000000000E+00  0.00000000000E+00 -0.22376370958E+04  0.22376370958E+04  0.50400001928E-02 0.  1.
    10030    2    1    2    0    0  0.00000000000E+00  0.00000000000E+00 -0.14806954543E+04  0.29945787374E+04  0.26028912359E+04 0.  0.
        4    1    3    3  502    0  0.91558018412E+03  0.48642467732E+03  0.16471147798E+03  0.10497749874E+04  0.12699999809E+01 0. -1.
       -4    1    3    3    0  502 -0.91558018412E+03 -0.48642467732E+03 -0.16454069323E+04  0.19448037500E+04  0.12699999809E+01 0.  1.
</event>
<event>
 5   0  0.5942229E-06  0.2602873E+04  0.7818609E-02  0.8367226E-01
        2   -1    0    0  501    0  0.00000000000E+00  0.00000000000E+00  0.21597224788E+04  0.21597224788E+04  0.25500000920E-02 0. -1.
       -2   -1    0    0    0  501  0.00000000000E+00  0.00000000000E+00 -0.78423798070E+03  0.78423798070E+03  0.25500000920E-02 0.  1.
    10030    2    1    2    0    0  0.00000000000E+00  0.00000000000E+00  0.13754844981E+04  0.29439604595E+04  0.26028725637E+04 0.  0.
        4    1    3    3  502    0  0.44702674218E+03  0.33558943190E+02  0.20696413726E+04  0.21176345612E+04  0.12699999809E+01 0. -1.
       -4    1    3    3    0  502 -0.44702674218E+03 -0.33558943190E+02 -0.69415687447E+03  0.82632589828E+03  0.12699999809E+01 0.  1.
</event>
<event>
 5   0  0.2456600E-06  0.2613347E+04  0.7818609E-02  0.8363682E-01
        1   -1    0    0  501    0  0.00000000000E+00  0.00000000000E+00  0.19566529605E+04  0.19566529605E+04  0.50400001928E-02 0.  1.
       -1   -1    0    0    0  501  0.00000000000E+00  0.00000000000E+00 -0.87261033673E+03  0.87261033674E+03  0.50400001928E-02 0. -1.
    10030    2    1    2    0    0  0.00000000000E+00  0.00000000000E+00  0.10840426238E+04  0.28292632973E+04  0.26133469718E+04 0.  0.
        5    1    3    3  502    0  0.10395670109E+04  0.63485155660E+02  0.13962930647E+04  0.17419490083E+04  0.46999998093E+01 0.  1.
       -5    1    3    3    0  502 -0.10395670109E+04 -0.63485155660E+02 -0.31225044092E+03  0.10873142889E+04  0.46999998093E+01 0. -1.
</event>
<event>
 5   0  0.2503292E-06  0.2631966E+04  0.7818609E-02  0.8357424E-01
       -1   -1    0    0    0  501  0.00000000000E+00  0.00000000000E+00  0.10540354854E+04  0.10540354854E+04  0.50400001928E-02 0.  1.
        1   -1    0    0  501    0  0.00000000000E+00  0.00000000000E+00 -0.16430288304E+04  0.16430288305E+04  0.50400001928E-02 0. -1.
    10030    2    1    2    0    0  0.00000000000E+00  0.00000000000E+00 -0.58899334508E+03  0.26970643158E+04  0.26319655703E+04 0.  0.
        2    1    3    3  502    0 -0.36195834590E+02  0.37630635434E+03  0.99719414629E+03  0.10664486749E+04  0.25500000920E-02 0.  1.
       -2    1    3    3    0  502  0.36195834590E+02 -0.37630635434E+03 -0.15861874914E+04  0.16306156410E+04  0.25500000920E-02 0. -1.
</event>
<event>
 5   0  0.2471488E-06  0.2613195E+04  0.7818609E-02  0.8363733E-01
       -1   -1    0    0    0  501  0.00000000000E+00  0.00000000000E+00  0.10393669934E+04  0.10393669934E+04  0.50400001928E-02 0.  1.
        1   -1    0    0  501    0  0.00000000000E+00  0.00000000000E+00 -0.16425356655E+04  0.16425356655E+04  0.50400001928E-02 0. -1.
    10030    2    1    2    0    0  0.00000000000E+00  0.00000000000E+00 -0.60316867208E+03  0.26819026590E+04  0.26131952520E+04 0.  0.
        4    1    3    3  502    0 -0.42704725976E+02  0.11115525686E+04  0.40187380187E+03  0.11827412955E+04  0.12699999809E+01 0.  1.
       -4    1    3    3    0  502  0.42704725976E+02 -0.11115525686E+04 -0.10050424740E+04  0.14991613635E+04  0.12699999809E+01 0. -1.
</event>
<event>
 5   0  0.2471488E-06  0.2589279E+04  0.7818609E-02  0.8371852E-01
        1   -1    0    0  501    0  0.00000000000E+00  0.00000000000E+00  0.14191289551E+04  0.14191289551E+04  0.50400001928E-02 0. -1.
       -1   -1    0    0    0  501  0.00000000000E+00  0.00000000000E+00 -0.11810707888E+04  0.11810707888E+04  0.50400001928E-02 0.  1.
    10030    2    1    2    0    0  0.00000000000E+00  0.00000000000E+00  0.23805816631E+03  0.26001997440E+04  0.25892792468E+04 0.  0.
        4    1    3    3  502    0 -0.58192152519E+03  0.85227543106E+03  0.90404470964E+03  0.13719710353E+04  0.12699999809E+01 0. -1.
       -4    1    3    3    0  502  0.58192152519E+03 -0.85227543106E+03 -0.66598654333E+03  0.12282287086E+04  0.12699999809E+01 0.  1.
</event>
<event>
 5   0  0.6173140E-06  0.2594786E+04  0.7818609E-02  0.8369975E-01
        2   -1    0    0  501    0  0.00000000000E+00  0.00000000000E+00  0.27306997960E+04  0.27306997960E+04  0.25500000920E-02 0. -1.
       -2   -1    0    0    0  501  0.00000000000E+00  0.00000000000E+00 -0.61640906790E+03  0.61640906790E+03  0.25500000920E-02 0.  1.
    10030    2    1    2    0    0  0.00000000000E+00  0.00000000000E+00  0.21142907281E+04  0.33471088639E+04  0.25947856296E+04 0.  0.
        3    1    3    3  502    0 -0.43639804580E+03 -0.19015275675E+03  0.26139800499E+04  0.26569706503E+04  0.10100000352E+00 0. -1.
       -3    1    3    3    0  502  0.43639804580E+03  0.19015275675E+03 -0.49968932180E+03  0.69013821355E+03  0.10100000352E+00 0.  1.
</event>
<event>
 5   0  0.2503292E-06  0.2612331E+04  0.7818609E-02  0.8364025E-01
        1   -1    0    0  501    0  0.00000000000E+00  0.00000000000E+00  0.15271300244E+04  0.15271300244E+04  0.50400001928E-02 0. -1.
       -1   -1    0    0    0  501  0.00000000000E+00  0.00000000000E+00 -0.11171726421E+04  0.11171726421E+04  0.50400001928E-02 0.  1.
    10030    2    1    2    0    0  0.00000000000E+00  0.00000000000E+00  0.40995738232E+03  0.26443026665E+04  0.26123306714E+04 0.  0.
        2    1    3    3  502    0  0.12092766399E+04 -0.41053020314E+03  0.48252943177E+03  0.13651811938E+04  0.25500000920E-02 0.  1.
       -2    1    3    3    0  502 -0.12092766399E+04  0.41053020314E+03 -0.72572049453E+02  0.12791214727E+04  0.25500000920E-02 0. -1.
</event>
<event>
 5   0  0.6173140E-06  0.2629745E+04  0.7818609E-02  0.8358167E-01
        2   -1    0    0  501    0  0.00000000000E+00  0.00000000000E+00  0.24688961062E+04  0.24688961062E+04  0.25500000920E-02 0.  1.
       -2   -1    0    0    0  501  0.00000000000E+00  0.00000000000E+00 -0.70026812152E+03  0.70026812153E+03  0.25500000920E-02 0. -1.
    10030    2    1    2    0    0  0.00000000000E+00  0.00000000000E+00  0.17686279847E+04  0.31691642277E+04  0.26297446557E+04 0.  0.
        3    1    3    3  502    0  0.75606428255E+03 -0.20752139524E+03  0.21563838661E+04  0.22944911673E+04  0.10100000352E+00 0.  1.
       -3    1    3    3    0  502 -0.75606428255E+03  0.20752139524E+03 -0.38775588141E+03  0.87467306040E+03  0.10100000352E+00 0. -1.
</event>
<event>
 5   0  0.2456600E-06  0.2602733E+04  0.7818609E-02  0.8367273E-01
        1   -1    0    0  501    0  0.00000000000E+00  0.00000000000E+00  0.15020308709E+04  0.15020308709E+04  0.50400001928E-02 0.  1.
       -1   -1    0    0    0  501  0.00000000000E+00  0.00000000000E+00 -0.11275100252E+04  0.11275100252E+04  0.50400001928E-02 0. -1.
    10030    2    1    2    0    0  0.00000000000E+00  0.00000000000E+00  0.37452084562E+03  0.26295408961E+04  0.26027330752E+04 0.  0.
        5    1    3    3  502    0  0.38953322611E+03  0.52632924191E+03 -0.94894482892E+03  0.11529427494E+04  0.46999998093E+01 0. -1.
       -5    1    3    3    0  502 -0.38953322611E+03 -0.52632924191E+03  0.13234656745E+04  0.14765981467E+04  0.46999998093E+01 0.  1.
</event>
<event>
 5   0  0.6173140E-06  0.2592933E+04  0.7818609E-02  0.8370606E-01
        2   -1    0    0  501    0  0.00000000000E+00  0.00000000000E+00  0.27636895405E+04  0.27636895405E+04  0.25500000920E-02 0. -1.
       -2   -1    0    0    0  501  0.00000000000E+00  0.00000000000E+00 -0.60818176351E+03  0.60818176352E+03  0.25500000920E-02 0.  1.
    10030    2    1    2    0    0  0.00000000000E+00  0.00000000000E+00  0.21555077770E+04  0.33718713040E+04  0.25929331488E+04 0.  0.
        3    1    3    3  502    0 -0.73171393582E+03 -0.19421502156E+03  0.24463991781E+04  0.25608580021E+04  0.10100000352E+00 0. -1.
       -3    1    3    3    0  502  0.73171393582E+03  0.19421502156E+03 -0.29089140104E+03  0.81101330191E+03  0.10100000352E+00 0.  1.
</event>
<event>
 5   0  0.2333979E-06  0.2613484E+04  0.7818609E-02  0.8363635E-01
       -1   -1    0    0    0  501  0.00000000000E+00  0.00000000000E+00  0.15852352992E+04  0.15852352992E+04  0.50400001928E-02 0. -1.
        1   -1    0    0  501    0  0.00000000000E+00  0.00000000000E+00 -0.10771739790E+04  0.10771739790E+04  0.50400001928E-02 0.  1.
    10030    2    1    2    0    0  0.00000000000E+00  0.00000000000E+00  0.50806132018E+03  0.26624092782E+04  0.26134836636E+04 0.  0.
        3    1    3    3  502    0  0.12305553334E+04 -0.37773572895E+03  0.48323935687E+03  0.13749439973E+04  0.10100000352E+00 0.  1.
       -3    1    3    3    0  502 -0.12305553334E+04  0.37773572895E+03  0.24821963309E+02  0.12874652809E+04  0.10100000352E+00 0. -1.
</event>
<event>
 5   0  0.2456600E-06  0.2611084E+04  0.7818609E-02  0.8364446E-01
        1   -1    0    0  501    0  0.00000000000E+00  0.00000000000E+00  0.12107995682E+04  0.12107995682E+04  0.50400001928E-02 0.  1.
       -1   -1    0    0    0  501  0.00000000000E+00  0.00000000000E+00 -0.14076979645E+04  0.14076979646E+04  0.50400001928E-02 0. -1.
    10030    2    1    2    0    0  0.00000000000E+00  0.00000000000E+00 -0.19689839637E+03  0.26184975327E+04  0.26110841332E+04 0.  0.
        5    1    3    3  502    0 -0.21912679427E+03  0.52059834762E+03  0.10819137624E+04  0.12204911597E+04  0.46999998093E+01 0.  1.
       -5    1    3    3    0  502  0.21912679427E+03 -0.52059834762E+03 -0.12788121588E+04  0.13980063730E+04  0.46999998093E+01 0. -1.
</event>
<event>
 5   0  0.6161834E-06  0.2615601E+04  0.7818609E-02  0.8362921E-01
       -2   -1    0    0    0  501  0.00000000000E+00  0.00000000000E+00  0.12200299694E+04  0.12200299694E+04  0.25500000920E-02 0.  1.
        2   -1    0    0  501    0  0.00000000000E+00  0.00000000000E+00 -0.14018851878E+04  0.14018851878E+04  0.25500000920E-02 0. -1.
    10030    2    1    2    0    0  0.00000000000E+00  0.00000000000E+00 -0.18185521840E+03  0.26219151571E+04  0.26156008432E+04 0.  0.
        5    1    3    3  502    0  0.28793468609E+02 -0.13055246973E+04 -0.19368625896E+02  0.13059942698E+04  0.46999998093E+01 0. -1.
       -5    1    3    3    0  502 -0.28793468609E+02  0.13055246973E+04 -0.16248659250E+03  0.13159208873E+04  0.46999998093E+01 0.  1.
</event>
<event>
 5   0  0.2333979E-06  0.2597764E+04  0.7818609E-02  0.8368961E-01
       -1   -1    0    0    0  501  0.00000000000E+00  0.00000000000E+00  0.73942798925E+03  0.73942798927E+03  0.50400001928E-02 0.  1.
        1   -1    0    0  501    0  0.00000000000E+00  0.00000000000E+00 -0.22816206623E+04  0.22816206623E+04  0.50400001928E-02 0. -1.
    10030    2    1    2    0    0  0.00000000000E+00  0.00000000000E+00 -0.15421926730E+04  0.30210486516E+04  0.25977637911E+04 0.  0.
        3    1    3    3  502    0 -0.83941097469E+03  0.68069076360E+03  0.66822121438E+02  0.10827815598E+04  0.10100000352E+00 0.  1.
       -3    1    3    3    0  502  0.83941097469E+03 -0.68069076360E+03 -0.16090147945E+04  0.19382670918E+04  0.10100000352E+00 0. -1.
</event>
<event>
 5   0  0.2503292E-06  0.2606211E+04  0.7818609E-02  0.8366094E-01
        1   -1    0    0  501    0  0.00000000000E+00  0.00000000000E+00  0.14969510971E+04  0.14969510971E+04  0.50400001928E-02 0. -1.
       -1   -1    0    0    0  501  0.00000000000E+00  0.00000000000E+00 -0.11343618858E+04  0.11343618858E+04  0.50400001928E-02 0.  1.
    10030    2    1    2    0    0  0.00000000000E+00  0.00000000000E+00  0.36258921136E+03  0.26313129829E+04  0.26062112497E+04 0.  0.
        2    1    3    3  502    0  0.10008772302E+04  0.83110581760E+03  0.10579361248E+03  0.13052526187E+04  0.25500000920E-02 0. -1.
       -2    1    3    3    0  502 -0.10008772302E+04 -0.83110581760E+03  0.25679559887E+03  0.13260603643E+04  0.25500000920E-02 0.  1.
</event>
<event>
 5   0  0.6158063E-06  0.2590546E+04  0.7818609E-02  0.8371420E-01
       -2   -1    0    0    0  501  0.00000000000E+00  0.00000000000E+00  0.90405567807E+03  0.90405567807E+03  0.25500000920E-02 0.  1.
        2   -1    0    0  501    0  0.00000000000E+00  0.00000000000E+00 -0.18557833776E+04  0.18557833776E+04  0.25500000920E-02 0. -1.
    10030    2    1    2    0    0  0.00000000000E+00  0.00000000000E+00 -0.95172769954E+03  0.27598390557E+04  0.25905455022E+04 0.  0.
        2    1    3    3  502    0  0.22111661149E+03 -0.62947233772E+03 -0.16586445600E+04  0.17878002563E+04  0.25500000920E-02 0. -1.
       -2    1    3    3    0  502 -0.22111661149E+03  0.62947233772E+03  0.70691686051E+03  0.97203879938E+03  0.25500000920E-02 0.  1.
</event>
<event>
 5   0  0.6158063E-06  0.2600281E+04  0.7818609E-02  0.8368106E-01
       -2   -1    0    0    0  501  0.00000000000E+00  0.00000000000E+00  0.14057146158E+04  0.14057146158E+04  0.25500000920E-02 0. -1.
        2   -1    0    0  501    0  0.00000000000E+00  0.00000000000E+00 -0.12024958323E+04  0.12024958323E+04  0.25500000920E-02 0.  1.
    10030    2    1    2    0    0  0.00000000000E+00  0.00000000000E+00  0.20321878341E+03  0.26082104481E+04  0.26002814978E+04 0.  0.
        2    1    3    3  502    0  0.50089258580E+03  0.32144128798E+03 -0.10578340302E+04  0.12137671603E+04  0.25500000920E-02 0.  1.
       -2    1    3    3    0  502 -0.50089258580E+03 -0.32144128798E+03  0.12610528136E+04  0.13944432878E+04  0.25500000920E-02 0. -1.
</event>
<event>
 5   0  0.5942229E-06  0.2587642E+04  0.7818609E-02  0.8372411E-01
        2   -1    0    0  501    0  0.00000000000E+00  0.00000000000E+00  0.23829490622E+04  0.23829490622E+04  0.25500000920E-02 0. -1.
       -2   -1    0    0    0  501  0.00000000000E+00  0.00000000000E+00 -0.70247920562E+03  0.70247920563E+03  0.25500000920E-02 0.  1.
    10030    2    1    2    0    0  0.00000000000E+00  0.00000000000E+00  0.16804698566E+04  0.30854282678E+04  0.25876415241E+04 0.  0.
        4    1    3    3  502    0 -0.33921967677E+03 -0.63565723944E+03 -0.44112852635E+03  0.84482312044E+03  0.12699999809E+01 0.  1.
       -4    1    3    3    0  502  0.33921967677E+03  0.63565723944E+03  0.21215983829E+04  0.22406051474E+04  0.12699999809E+01 0. -1.
</event>
<event>
 5   0  0.5940748E-06  0.2597899E+04  0.7818609E-02  0.8368915E-01
       -2   -1    0    0    0  501  0.00000000000E+00  0.00000000000E+00  0.66196223271E+03  0.66196223272E+03  0.25500000920E-02 0.  1.
        2   -1    0    0  501    0  0.00000000000E+00  0.00000000000E+00 -0.25488921651E+04  0.25488921652E+04  0.25500000920E-02 0. -1.
    10030    2    1    2    0    0  0.00000000000E+00  0.00000000000E+00 -0.18869299324E+04  0.32108543979E+04  0.25978994196E+04 0.  0.
        1    1    3    3  502    0  0.35306620971E+03 -0.43761950312E+02 -0.24875027502E+04  0.25128153114E+04  0.50400001928E-02 0. -1.
       -1    1    3    3    0  502 -0.35306620971E+03  0.43761950312E+02  0.60057281780E+03  0.69803908647E+03  0.50400001928E-02 0.  1.
</event>
<event>
 5   0  0.2072125E-06  0.2602849E+04  0.7818609E-02  0.8367234E-01
        4   -1    0    0  501    0  0.00000000000E+00  0.00000000000E+00  0.12972127414E+04  0.12972133631E+04  0.12699999809E+01 0.  1.
       -4   -1    0    0    0  501  0.00000000000E+00  0.00000000000E+00 -0.13056487091E+04  0.13056493268E+04  0.12699999809E+01 0. -1.
    10030    2    1    2    0    0  0.00000000000E+00  0.00000000000E+00 -0.84359677102E+01  0.26028626899E+04  0.26028490192E+04 0.  0.
        4    1    3    3  502    0  0.22704754066E+03 -0.53697337885E+03  0.11593228908E+04  0.12976602689E+04  0.12699999809E+01 0.  1.
       -4    1    3    3    0  502 -0.22704754066E+03  0.53697337885E+03 -0.11677588585E+04  0.13052024210E+04  0.12699999809E+01 0. -1.
</event>
<event>
 5   0  0.5942229E-06  0.2595374E+04  0.7818609E-02  0.8369774E-01
        2   -1    0    0  501    0  0.00000000000E+00  0.00000000000E+00  0.15781674635E+04  0.15781674635E+04  0.25500000920E-02 0. -1.
       -2   -1    0    0    0  501  0.00000000000E+00  0.00000000000E+00 -0.10670552564E+04  0.10670552564E+04  0.25500000920E-02 0.  1.
    10030    2    1    2    0    0  0.00000000000E+00  0.00000000000E+00  0.51111220717E+03  0.26452227199E+04  0.25953742600E+04 0.  0.
        4    1    3    3  502    0 -0.91804415693E+03 -0.11168069543E+03 -0.67226496065E+03  0.11433369766E+04  0.12699999809E+01 0.  1.
       -4    1    3    3    0  502  0.91804415693E+03  0.11168069543E+03  0.11833771678E+04  0.15018857433E+04  0.12699999809E+01 0. -1.
</event>
<event>
 5   0  0.5940748E-06  0.2594531E+04  0.7818609E-02  0.8370061E-01
        2   -1    0    0  501    0  0.00000000000E+00  0.00000000000E+00  0.20758412272E+04  0.20758412272E+04  0.25500000920E-02 0.  1.
       -2   -1    0    0    0  501  0.00000000000E+00  0.00000000000E+00 -0.81070615585E+03  0.81070615585E+03  0.25500000920E-02 0. -1.
    10030    2    1    2    0    0  0.00000000000E+00  0.00000000000E+00  0.12651350713E+04  0.28865473830E+04  0.25945306022E+04 0.  0.
        1    1    3    3  502    0  0.20707090306E+03 -0.26509405996E+03  0.20264761918E+04  0.20542051931E+04  0.50400001928E-02 0.  1.
       -1    1    3    3    0  502 -0.20707090306E+03  0.26509405996E+03 -0.76134112042E+03  0.83234218996E+03  0.50400001928E-02 0. -1.
</event>
<event>
 5   0  0.2072125E-06  0.2588697E+04  0.7818609E-02  0.8372051E-01
       -3   -1    0    0    0  501  0.00000000000E+00  0.00000000000E+00  0.11678806896E+04  0.11678806940E+04  0.10100000352E+00 0.  1.
        3   -1    0    0  501    0  0.00000000000E+00  0.00000000000E+00 -0.14345114945E+04  0.14345114980E+04  0.10100000352E+00 0. -1.
    10030    2    1    2    0    0  0.00000000000E+00  0.00000000000E+00 -0.26663080485E+03  0.26023921920E+04  0.25886971887E+04 0.  0.
        1    1    3    3  502    0  0.85835039729E+03 -0.88247188342E+03 -0.53520056155E+03  0.13423716589E+04  0.50400001928E-02 0. -1.
       -1    1    3    3    0  502 -0.85835039729E+03  0.88247188342E+03  0.26856975670E+03  0.12600205331E+04  0.50400001928E-02 0.  1.
</event>
<event>
 5   0  0.2072125E-06  0.2599504E+04  0.7818609E-02  0.8368370E-01
        3   -1    0    0  501    0  0.00000000000E+00  0.00000000000E+00  0.25534446354E+04  0.25534446374E+04  0.10100000352E+00 0. -1.
       -3   -1    0    0    0  501  0.00000000000E+00  0.00000000000E+00 -0.66159832062E+03  0.66159832832E+03  0.10100000352E+00 0.  1.
    10030    2    1    2    0    0  0.00000000000E+00  0.00000000000E+00  0.18918463147E+04  0.32150429657E+04  0.25995035666E+04 0.  0.
        1    1    3    3  502    0  0.11573872684E+04  0.35283758906E+03  0.15329952816E+04  0.19529757261E+04  0.50400001928E-02 0. -1.
       -1    1    3    3    0  502 -0.11573872684E+04 -0.35283758906E+03  0.35885103312E+03  0.12620672396E+04  0.50400001928E-02 0.  1.
</event>
<event>
 5   0  0.2333979E-06  0.2610594E+04  0.7818609E-02  0.8364612E-01
        1   -1    0    0  501    0  0.00000000000E+00  0.00000000000E+00  0.23604181227E+04  0.23604181227E+04  0.50400001928E-02 0. -1.
       -1   -1    0    0    0  501  0.00000000000E+00  0.00000000000E+00 -0.72182120524E+03  0.72182120526E+03  0.50400001928E-02 0.  1.
    10030    2    1    2    0    0  0.00000000000E+00  0.00000000000E+00  0.16385969175E+04  0.30822393280E+04  0.26105936905E+04 0.  0.
        3    1    3    3  502    0 -0.74906191565E+03 -0.10004699558E+04  0.37475619966E+03  0.13047896786E+04  0.10100000352E+00 0.  1.
       -3    1    3    3    0  502  0.74906191565E+03  0.10004699558E+04  0.12638407178E+04  0.17774496494E+04  0.10100000352E+00 0. -1.
</event>
<event>
 5   0  0.6161834E-06  0.2609766E+04  0.7818609E-02  0.8364892E-01
        2   -1    0    0  501    0  0.00000000000E+00  0.00000000000E+00  0.14206703016E+04  0.14206703016E+04  0.25500000920E-02 0. -1.
       -2   -1    0    0    0  501  0.00000000000E+00  0.00000000000E+00 -0.11985321800E+04  0.11985321800E+04  0.25500000920E-02 0.  1.
    10030    2    1    2    0    0  0.00000000000E+00  0.00000000000E+00  0.22213812164E+03  0.26192024816E+04  0.26097655631E+04 0.  0.
        5    1    3    3  502    0 -0.42386563796E+03 -0.11024771228E+04  0.66767263021E+03  0.13568075459E+04  0.46999998093E+01 0. -1.
       -5    1    3    3    0  502  0.42386563796E+03  0.11024771228E+04 -0.44553450857E+03  0.12623949357E+04  0.46999998093E+01 0.  1.
</event>
<event>
 5   0  0.2471488E-06  0.2583315E+04  0.7818609E-02  0.8373891E-01
        1   -1    0    0  501    0  0.00000000000E+00  0.00000000000E+00  0.25440464649E+04  0.25440464649E+04  0.50400001928E-02 0. -1.
       -1   -1    0    0    0  501  0.00000000000E+00  0.00000000000E+00 -0.65579755877E+03  0.65579755879E+03  0.50400001928E-02 0.  1.
    10030    2    1    2    0    0  0.00000000000E+00  0.00000000000E+00  0.18882489061E+04  0.31998440237E+04  0.25833152817E+04 0.  0.
        4    1    3    3  502    0 -0.13902032285E+03 -0.11906764055E+04  0.34835586370E+03  0.12483550671E+04  0.12699999809E+01 0.  1.
       -4    1    3    3    0  502  0.13902032285E+03  0.11906764055E+04  0.15398930424E+04  0.19514889566E+04  0.12699999809E+01 0. -1.
</event>
<event>
 5   0  0.5940748E-06  0.2599779E+04  0.7818609E-02  0.8368276E-01
       -2   -1    0    0    0  501  0.00000000000E+00  0.00000000000E+00  0.22045655341E+04  0.22045655341E+04  0.25500000920E-02 0.  1.
        2   -1    0    0  501    0  0.00000000000E+00  0.00000000000E+00 -0.76646082178E+03  0.76646082178E+03  0.25500000920E-02 0. -1.
    10030    2    1    2    0    0  0.00000000000E+00  0.00000000000E+00  0.14381047123E+04  0.29710263559E+04  0.25997793067E+04 0.  0.
        1    1    3    3  502    0 -0.60033897410E+02 -0.79265604836E+03 -0.45631308742E+03  0.91658568264E+03  0.50400001928E-02 0. -1.
       -1    1    3    3    0  502  0.60033897410E+02  0.79265604836E+03  0.18944177997E+04  0.20544406732E+04  0.50400001928E-02 0.  1.
</event>
<event>
 5   0  0.6158063E-06  0.2583460E+04  0.7818609E-02  0.8373841E-01
       -2   -1    0    0    0  501  0.00000000000E+00  0.00000000000E+00  0.12257802319E+04  0.12257802319E+04  0.25500000920E-02 0. -1.
        2   -1    0    0  501    0  0.00000000000E+00  0.00000000000E+00 -0.13612279236E+04  0.13612279236E+04  0.25500000920E-02 0.  1.
    10030    2    1    2    0    0  0.00000000000E+00  0.00000000000E+00 -0.13544769171E+03  0.25870081555E+04  0.25834599125E+04 0.  0.
        2    1    3    3  502    0 -0.83906537248E+03 -0.44571276797E+03 -0.94406905855E+03  0.13393867844E+04  0.25500000920E-02 0.  1.
       -2    1    3    3    0  502  0.83906537248E+03  0.44571276797E+03  0.80862136684E+03  0.12476213711E+04  0.25500000920E-02 0. -1.
</event>
<event>
 5   0  0.2456600E-06  0.2599833E+04  0.7818609E-02  0.8368258E-01
        1   -1    0    0  501    0  0.00000000000E+00  0.00000000000E+00  0.20706461859E+04  0.20706461859E+04  0.50400001928E-02 0. -1.
       -1   -1    0    0    0  501  0.00000000000E+00  0.00000000000E+00 -0.81606532418E+03  0.81606532420E+03  0.50400001928E-02 0.  1.
    10030    2    1    2    0    0  0.00000000000E+00  0.00000000000E+00  0.12545808617E+04  0.28867115101E+04  0.25998327261E+04 0.  0.
        5    1    3    3  502    0 -0.93591387513E+03 -0.29638702146E+01 -0.37437186921E+03  0.10080277539E+04  0.46999998093E+01 0.  1.
       -5    1    3    3    0  502  0.93591387513E+03  0.29638702146E+01  0.16289527309E+04  0.18786837562E+04  0.46999998093E+01 0. -1.
</event>
<event>
 5   0  0.5942229E-06  0.2602529E+04  0.7818609E-02  0.8367343E-01
        2   -1    0    0  501    0  0.00000000000E+00  0.00000000000E+00  0.17263512541E+04  0.17263512541E+04  0.25500000920E-02 0. -1.
       -2   -1    0    0    0  501  0.00000000000E+00  0.00000000000E+00 -0.98084855446E+03  0.98084855446E+03  0.25500000920E-02 0.  1.
    10030    2    1    2    0    0  0.00000000000E+00  0.00000000000E+00  0.74550269961E+03  0.27071998085E+04  0.26025288717E+04 0.  0.
        4    1    3    3  502    0  0.55413119703E+03  0.53056470933E+03  0.14660839126E+04  0.16546794088E+04  0.12699999809E+01 0. -1.
       -4    1    3    3    0  502 -0.55413119703E+03 -0.53056470933E+03 -0.72058121301E+03  0.10525203997E+04  0.12699999809E+01 0.  1.
</event>
<event>
 5   0  0.6161834E-06  0.2600721E+04  0.7818609E-02  0.8367956E-01
        2   -1    0    0  501    0  0.00000000000E+00  0.00000000000E+00  0.19261209840E+04  0.19261209840E+04  0.25500000920E-02 0. -1.
       -2   -1    0    0    0  501  0.00000000000E+00  0.00000000000E+00 -0.87789750734E+03  0.87789750734E+03  0.25500000920E-02 0.  1.
    10030    2    1    2    0    0  0.00000000000E+00  0.00000000000E+00  0.10482234767E+04  0.28040184914E+04  0.26007205238E+04 0.  0.
        5    1    3    3  502    0  0.97799644378E+03 -0.14659678672E+03 -0.38625384181E+03  0.10616881756E+04  0.46999998093E+01 0.  1.
       -5    1    3    3    0  502 -0.97799644378E+03  0.14659678672E+03  0.14344773185E+04  0.17423303158E+04  0.46999998093E+01 0. -1.
</event>
<event>
 5   0  0.2471488E-06  0.2615517E+04  0.7818609E-02  0.8362950E-01
        1   -1    0    0  501    0  0.00000000000E+00  0.00000000000E+00  0.14754152765E+04  0.14754152765E+04  0.50400001928E-02 0. -1.
       -1   -1    0    0    0  501  0.00000000000E+00  0.00000000000E+00 -0.11591527279E+04  0.11591527279E+04  0.50400001928E-02 0.  1.
    10030    2    1    2    0    0  0.00000000000E+00  0.00000000000E+00  0.31626254860E+03  0.26345680043E+04  0.26155165015E+04 0.  0.
        4    1    3    3  502    0 -0.58162956876E+02 -0.92600334485E+03  0.10864542625E+04  0.14287230668E+04  0.12699999809E+01 0. -1.
       -4    1    3    3    0  502  0.58162956876E+02  0.92600334485E+03 -0.77019171392E+03  0.12058449375E+04  0.12699999809E+01 0.  1.
</event>
<event>
 5   0  0.5940748E-06  0.2603836E+04  0.7818609E-02  0.8366899E-01
       -2   -1    0    0    0  501  0.00000000000E+00  0.00000000000E+00  0.85480901433E+03  0.85480901434E+03  0.25500000920E-02 0.  1.
        2   -1    0    0  501    0  0.00000000000E+00  0.00000000000E+00 -0.19828880319E+04  0.19828880320E+04  0.25500000920E-02 0. -1.
    10030    2    1    2    0    0  0.00000000000E+00  0.00000000000E+00 -0.11280790176E+04  0.28376970463E+04  0.26038360656E+04 0.  0.
        1    1    3    3  502    0 -0.38938093825E+03 -0.12287163755E+04 -0.36418675968E+03  0.13394004040E+04  0.50400001928E-02 0.  1.
       -1    1    3    3    0  502  0.38938093825E+03  0.12287163755E+04 -0.76389225793E+03  0.14982966422E+04  0.50400001928E-02 0. -1.
</event>
<event>
 5   0  0.2456600E-06  0.2620506E+04  0.7818609E-02  0.8361269E-01
        1   -1    0    0  501    0  0.00000000000E+00  0.00000000000E+00  0.11178078967E+04  0.11178078967E+04  0.50400001928E-02 0.  1.
       -1   -1    0    0    0  501  0.00000000000E+00  0.00000000000E+00 -0.15358304479E+04  0.15358304479E+04  0.50400001928E-02 0. -1.
    10030    2    1    2    0    0  0.00000000000E+00  0.00000000000E+00 -0.41802255115E+03  0.26536383446E+04  0.26205063653E+04 0.  0.
        5    1    3    3  502    0 -0.40496782314E+03  0.11674406697E+04 -0.65020855690E+03  0.13963201325E+04  0.46999998093E+01 0. -1.
       -5    1    3    3    0  502  0.40496782314E+03 -0.11674406697E+04  0.23218600575E+03  0.12573182120E+04  0.46999998093E+01 0.  1.
</event>
<event>
 5   0  0.2333979E-06  0.2591087E+04  0.7818609E-02  0.8371235E-01
        1   -1    0    0  501    0  0.00000000000E+00  0.00000000000E+00  0.18634627225E+04  0.18634627225E+04  0.50400001928E-02 0. -1.
       -1   -1    0    0    0  501  0.00000000000E+00  0.00000000000E+00 -0.90070620108E+03  0.90070620110E+03  0.50400001928E-02 0.  1.
    10030    2    1    2    0    0  0.00000000000E+00  0.00000000000E+00  0.96275652143E+03  0.27641689236E+04  0.25910865904E+04 0.  0.
        3    1    3    3  502    0  0.64383696015E+03 -0.17844266704E+03 -0.70275176509E+03  0.96965347946E+03  0.10100000352E+00 0.  1.
       -3    1    3    3    0  502 -0.64383696015E+03  0.17844266704E+03  0.16655082865E+04  0.17945154442E+04  0.10100000352E+00 0. -1.
</event>
<event>
 5   0  0.2333979E-06  0.2587620E+04  0.7818609E-02  0.8372419E-01
        1   -1    0    0  501    0  0.00000000000E+00  0.00000000000E+00  0.16903608582E+04  0.16903608582E+04  0.50400001928E-02 0. -1.
       -1   -1    0    0    0  501  0.00000000000E+00  0.00000000000E+00 -0.99028790750E+03  0.99028790751E+03  0.50400001928E-02 0.  1.
    10030    2    1    2    0    0  0.00000000000E+00  0.00000000000E+00  0.70007295073E+03  0.26806487657E+04  0.25876196917E+04 0.  0.
        3    1    3    3  502    0 -0.50664450318E+03  0.54723840462E+02  0.15820179600E+04  0.16620662404E+04  0.10100000352E+00 0. -1.
       -3    1    3    3    0  502  0.50664450318E+03 -0.54723840462E+02 -0.88194500932E+03  0.10185825254E+04  0.10100000352E+00 0.  1.
</event>
<event>
 5   0  0.2440590E-06  0.2598063E+04  0.7818609E-02  0.8368859E-01
       -1   -1    0    0    0  501  0.00000000000E+00  0.00000000000E+00  0.60196160738E+03  0.60196160740E+03  0.50400001928E-02 0. -1.
        1   -1    0    0  501    0  0.00000000000E+00  0.00000000000E+00 -0.28033071268E+04  0.28033071268E+04  0.50400001928E-02 0.  1.
    10030    2    1    2    0    0  0.00000000000E+00  0.00000000000E+00 -0.22013455194E+04  0.34052687342E+04  0.25980633280E+04 0.  0.
        1    1    3    3  502    0 -0.41886872227E+03  0.79734104060E+03 -0.23276118111E+04  0.24957925564E+04  0.50400001928E-02 0.  1.
       -1    1    3    3    0  502  0.41886872227E+03 -0.79734104060E+03  0.12626629168E+03  0.90947617779E+03  0.50400001928E-02 0. -1.
</event>
<event>
 5   0  0.6173140E-06  0.2598419E+04  0.7818609E-02  0.8368738E-01
       -2   -1    0    0    0  501  0.00000000000E+00  0.00000000000E+00  0.15631767026E+04  0.15631767026E+04  0.25500000920E-02 0.  1.
        2   -1    0    0  501    0  0.00000000000E+00  0.00000000000E+00 -0.10798177407E+04  0.10798177407E+04  0.25500000920E-02 0. -1.
    10030    2    1    2    0    0  0.00000000000E+00  0.00000000000E+00  0.48335896194E+03  0.26429944433E+04  0.25984194699E+04 0.  0.
        3    1    3    3  502    0  0.11811600289E+03  0.39681008502E+03 -0.10109233594E+04  0.10924173573E+04  0.10100000352E+00 0. -1.
       -3    1    3    3    0  502 -0.11811600289E+03 -0.39681008502E+03  0.14942823213E+04  0.15505770861E+04  0.10100000352E+00 0.  1.
</event>
<event>
 5   0  0.2072125E-06  0.2605437E+04  0.7818609E-02  0.8366357E-01
        3   -1    0    0  501    0  0.00000000000E+00  0.00000000000E+00  0.68688639879E+03  0.68688640621E+03  0.10100000352E+00 0.  1.
       -3   -1    0    0    0  501  0.00000000000E+00  0.00000000000E+00 -0.24706779143E+04  0.24706779163E+04  0.10100000352E+00 0. -1.
    10030    2    1    2    0    0  0.00000000000E+00  0.00000000000E+00 -0.17837915155E+04  0.31575643226E+04  0.26054366775E+04 0.  0.
        2    1    3    3  502    0 -0.10071056252E+04  0.31507744140E+03 -0.18176736946E+04  0.21017785789E+04  0.25500000920E-02 0. -1.
       -2    1    3    3    0  502  0.10071056252E+04 -0.31507744140E+03  0.33882179157E+02  0.10557857437E+04  0.25500000920E-02 0.  1.
</event>
<event>
 5   0  0.6173140E-06  0.2606176E+04  0.7818609E-02  0.8366106E-01
       -2   -1    0    0    0  501  0.00000000000E+00  0.00000000000E+00  0.14166210171E+04  0.14166210171E+04  0.25500000920E-02 0.  1.
        2   -1    0    0  501    0  0.00000000000E+00  0.00000000000E+00 -0.11986539913E+04  0.11986539913E+04  0.25500000920E-02 0. -1.
    10030    2    1    2    0    0  0.00000000000E+00  0.00000000000E+00  0.21796702582E+03  0.26152750084E+04  0.26061760772E+04 0.  0.
        3    1    3    3  502    0 -0.37676984203E+03  0.69451102754E+03 -0.93084719536E+03  0.12209740343E+04  0.10100000352E+00 0. -1.
       -3    1    3    3    0  502  0.37676984203E+03 -0.69451102754E+03  0.11488142212E+04  0.13943009740E+04  0.10100000352E+00 0.  1.
</event>
<event>
 5   0  0.6161834E-06  0.2598054E+04  0.7818609E-02  0.8368863E-01
        2   -1    0    0  501    0  0.00000000000E+00  0.00000000000E+00  0.11853165594E+04  0.11853165594E+04  0.25500000920E-02 0. -1.
       -2   -1    0    0    0  501  0.00000000000E+00  0.00000000000E+00 -0.14236456119E+04  0.14236456119E+04  0.25500000920E-02 0.  1.
    10030    2    1    2    0    0  0.00000000000E+00  0.00000000000E+00 -0.23832905245E+03  0.26089621713E+04  0.25980536704E+04 0.  0.
        5    1    3    3  502    0  0.89039374499E+03  0.86307483785E+03 -0.50776404201E+03  0.13399797048E+04  0.46999998093E+01 0.  1.
       -5    1    3    3    0  502 -0.89039374499E+03 -0.86307483785E+03  0.26943498956E+03  0.12689824666E+04  0.46999998093E+01 0. -1.
</event>
<event>
 5   0  0.2503292E-06  0.2563275E+04  0.7818609E-02  0.8380784E-01
       -1   -1    0    0    0  501  0.00000000000E+00  0.00000000000E+00  0.70081732812E+03  0.70081732814E+03  0.50400001928E-02 0.  1.
        1   -1    0    0  501    0  0.00000000000E+00  0.00000000000E+00 -0.23438276179E+04  0.23438276179E+04  0.50400001928E-02 0. -1.
    10030    2    1    2    0    0  0.00000000000E+00  0.00000000000E+00 -0.16430102898E+04  0.30446449460E+04  0.25632752554E+04 0.  0.
        2    1    3    3  502    0  0.28453452269E+03  0.63360681733E+02  0.66091818688E+03  0.72234847570E+03  0.25500000920E-02 0.  1.
       -2    1    3    3    0  502 -0.28453452269E+03 -0.63360681733E+02 -0.23039284767E+04  0.23222964703E+04  0.25500000920E-02 0. -1.
</event>
<event>
 5   0  0.2471488E-06  0.2598972E+04  0.7818609E-02  0.8368551E-01
        1   -1    0    0  501    0  0.00000000000E+00  0.00000000000E+00  0.21050302476E+04  0.21050302476E+04  0.50400001928E-02 0.  1.
       -1   -1    0    0    0  501  0.00000000000E+00  0.00000000000E+00 -0.80220392942E+03  0.80220392944E+03  0.50400001928E-02 0. -1.
    10030    2    1    2    0    0  0.00000000000E+00  0.00000000000E+00  0.13028263182E+04  0.29072341771E+04  0.25989717476E+04 0.  0.
        4    1    3    3  502    0  0.18278675746E+03  0.49264245798E+03  0.19808908003E+04  0.20493993183E+04  0.12699999809E+01 0.  1.
       -4    1    3    3    0  502 -0.18278675746E+03 -0.49264245798E+03 -0.67806448213E+03  0.85783485877E+03  0.12699999809E+01 0. -1.
</event>
<event>
 5   0  0.6158063E-06  0.2611184E+04  0.7818609E-02  0.8364412E-01
       -2   -1    0    0    0  501  0.00000000000E+00  0.00000000000E+00  0.11464062347E+04  0.11464062347E+04  0.25500000920E-02 0.  1.
        2   -1    0    0  501    0  0.00000000000E+00  0.00000000000E+00 -0.14868818498E+04  0.14868818498E+04  0.25500000920E-02 0. -1.
    10030    2    1    2    0    0  0.00000000000E+00  0.00000000000E+00 -0.34047561513E+03  0.26332880845E+04  0.26111841167E+04 0.  0.
        2    1    3    3  502    0 -0.10868237568E+04 -0.18676089816E+03  0.53461013231E+03  0.12255094880E+04  0.25500000920E-02 0. -1.
       -2    1    3    3    0  502  0.10868237568E+04  0.18676089816E+03 -0.87508574744E+03  0.14077785965E+04  0.25500000920E-02 0.  1.
</event>
<event>
 5   0  0.6173140E-06  0.2600115E+04  0.7818609E-02  0.8368162E-01
       -2   -1    0    0    0  501  0.00000000000E+00  0.00000000000E+00  0.10010391686E+04  0.10010391686E+04  0.25500000920E-02 0. -1.
        2   -1    0    0  501    0  0.00000000000E+00  0.00000000000E+00 -0.16883952097E+04  0.16883952097E+04  0.25500000920E-02 0.  1.
    10030    2    1    2    0    0  0.00000000000E+00  0.00000000000E+00 -0.68735604107E+03  0.26894343783E+04  0.26001151797E+04 0.  0.
        3    1    3    3  502    0  0.18611800597E+03 -0.99079445076E+03 -0.11927519871E+04  0.15617204836E+04  0.10100000352E+00 0.  1.
       -3    1    3    3    0  502 -0.18611800597E+03  0.99079445076E+03  0.50539594606E+03  0.11277138947E+04  0.10100000352E+00 0. -1.
</event>
<event>
 5   0  0.2440590E-06  0.2615556E+04  0.7818609E-02  0.8362936E-01
        1   -1    0    0  501    0  0.00000000000E+00  0.00000000000E+00  0.93347813344E+03  0.93347813345E+03  0.50400001928E-02 0.  1.
       -1   -1    0    0    0  501  0.00000000000E+00  0.00000000000E+00 -0.18321622530E+04  0.18321622530E+04  0.50400001928E-02 0. -1.
    10030    2    1    2    0    0  0.00000000000E+00  0.00000000000E+00 -0.89868411959E+03  0.27656403865E+04  0.26155560787E+04 0.  0.
        1    1    3    3  502    0  0.58897588698E+02 -0.85964019865E+03  0.59089406395E+03  0.10447994984E+04  0.50400001928E-02 0.  1.
       -1    1    3    3    0  502 -0.58897588698E+02  0.85964019865E+03 -0.14895781835E+04  0.17208408881E+04  0.50400001928E-02 0. -1.
</event>
<event>
 5   0  0.6161834E-06  0.2589671E+04  0.7818609E-02  0.8371718E-01
        2   -1    0    0  501    0  0.00000000000E+00  0.00000000000E+00  0.20280755454E+04  0.20280755454E+04  0.25500000920E-02 0. -1.
       -2   -1    0    0    0  501  0.00000000000E+00  0.00000000000E+00 -0.82669461972E+03  0.82669461972E+03  0.25500000920E-02 0.  1.
    10030    2    1    2    0    0  0.00000000000E+00  0.00000000000E+00  0.12013809257E+04  0.28547701652E+04  0.25896711311E+04 0.  0.
        5    1    3    3  502    0  0.12432420934E+04 -0.35898504151E+03  0.65067392723E+03  0.14484197639E+04  0.46999998093E+01 0. -1.
       -5    1    3    3    0  502 -0.12432420934E+04  0.35898504151E+03  0.55070699848E+03  0.14063504012E+04  0.46999998093E+01 0.  1.
</event>
<event>
 5   0  0.2471488E-06  0.2592398E+04  0.7818609E-02  0.8370788E-01
        1   -1    0    0  501    0  0.00000000000E+00  0.00000000000E+00  0.12014057794E+04  0.12014057794E+04  0.50400001928E-02 0.  1.
       -1   -1    0    0    0  501  0.00000000000E+00  0.00000000000E+00 -0.13984715841E+04  0.13984715841E+04  0.50400001928E-02 0. -1.
    10030    2    1    2    0    0  0.00000000000E+00  0.00000000000E+00 -0.19706580472E+03  0.25998773635E+04  0.25923979968E+04 0.  0.
        4    1    3    3  502    0 -0.72467994483E+03  0.97347434783E+03 -0.55516721359E+03  0.13345507020E+04  0.12699999809E+01 0. -1.
       -4    1    3    3    0  502  0.72467994483E+03 -0.97347434783E+03  0.35810140887E+03  0.12653266615E+04  0.12699999809E+01 0.  1.
</event>
<event>
 5   0  0.2456600E-06  0.2591761E+04  0.7818609E-02  0.8371005E-01
       -1   -1    0    0    0  501  0.00000000000E+00  0.00000000000E+00  0.24297853310E+04  0.24297853310E+04  0.50400001928E-02 0. -1.
        1   -1    0    0  501    0  0.00000000000E+00  0.00000000000E+00 -0.69113376551E+03  0.69113376553E+03  0.50400001928E-02 0.  1.
    10030    2    1    2    0    0  0.00000000000E+00  0.00000000000E+00  0.17386515655E+04  0.31209190966E+04  0.25917613202E+04 0.  0.
        5    1    3    3  502    0  0.55997920634E+03 -0.10879993615E+04  0.13829928979E+04  0.18466214469E+04  0.46999998093E+01 0. -1.
       -5    1    3    3    0  502 -0.55997920634E+03  0.10879993615E+04  0.35565866760E+03  0.12742976497E+04  0.46999998093E+01 0.  1.
</event>
<event>
 5   0  0.6158063E-06  0.2594139E+04  0.7818609E-02  0.8370195E-01
        2   -1    0    0  501    0  0.00000000000E+00  0.00000000000E+00  0.80814273682E+03  0.80814273682E+03  0.25500000920E-02 0. -1.
       -2   -1    0    0    0  501  0.00000000000E+00  0.00000000000E+00 -0.20817970361E+04  0.20817970361E+04  0.25500000920E-02 0.  1.
    10030    2    1    2    0    0  0.00000000000E+00  0.00000000000E+00 -0.12736542992E+04  0.28899397729E+04  0.25941388970E+04 0.  0.
        2    1    3    3  502    0 -0.38990983473E+03  0.78609623322E+03 -0.17009483732E+04  0.19139494078E+04  0.25500000920E-02 0.  1.
       -2    1    3    3    0  502  0.38990983473E+03 -0.78609623322E+03  0.42729407399E+03  0.97599036511E+03  0.25500000920E-02 0. -1.
</event>
<event>
 5   0  0.2440590E-06  0.2597776E+04  0.7818609E-02  0.8368957E-01
       -1   -1    0    0    0  501  0.00000000000E+00  0.00000000000E+00  0.14442969797E+04  0.14442969798E+04  0.50400001928E-02 0.  1.
        1   -1    0    0  501    0  0.00000000000E+00  0.00000000000E+00 -0.11681182798E+04  0.11681182798E+04  0.50400001928E-02 0. -1.
    10030    2    1    2    0    0  0.00000000000E+00  0.00000000000E+00  0.27617869994E+03  0.26124152596E+04  0.25977757436E+04 0.  0.
        1    1    3    3  502    0  0.53654885474E+03 -0.99898275084E+03 -0.49893007207E+03  0.12388633608E+04  0.50400001928E-02 0. -1.
       -1    1    3    3    0  502 -0.53654885474E+03  0.99898275084E+03  0.77510877201E+03  0.13735518987E+04  0.50400001928E-02 0.  1.
</event>
<event>
 5   0  0.2503292E-06  0.2601892E+04  0.7818609E-02  0.8367559E-01
        1   -1    0    0  501    0  0.00000000000E+00  0.00000000000E+00  0.25716635860E+04  0.25716635860E+04  0.50400001928E-02 0.  1.
       -1   -1    0    0    0  501  0.00000000000E+00  0.00000000000E+00 -0.65811900510E+03  0.65811900512E+03  0.50400001928E-02 0. -1.
    10030    2    1    2    0    0  0.00000000000E+00  0.00000000000E+00  0.19135445809E+04  0.32297825912E+04  0.26018921428E+04 0.  0.
        2    1    3    3  502    0 -0.11323703816E+03 -0.78506869095E+03  0.22367811319E+04  0.23732562669E+04  0.25500000920E-02 0.  1.
       -2    1    3    3    0  502  0.11323703816E+03  0.78506869095E+03 -0.32323655094E+03  0.85652632429E+03  0.25500000920E-02 0. -1.
</event>
<event>
 5   0  0.6161834E-06  0.2602325E+04  0.7818609E-02  0.8367412E-01
        2   -1    0    0  501    0  0.00000000000E+00  0.00000000000E+00  0.19353643012E+04  0.19353643012E+04  0.25500000920E-02 0. -1.
       -2   -1    0    0    0  501  0.00000000000E+00  0.00000000000E+00 -0.87478298178E+03  0.87478298178E+03  0.25500000920E-02 0.  1.
    10030    2    1    2    0    0  0.00000000000E+00  0.00000000000E+00  0.10605813194E+04  0.28101472830E+04  0.26023249253E+04 0.  0.
        5    1    3    3  502    0 -0.45678768821E+03  0.12157309753E+04  0.61630658220E+03  0.14375370220E+04  0.46999998093E+01 0.  1.
       -5    1    3    3    0  502  0.45678768821E+03 -0.12157309753E+04  0.44427473724E+03  0.13726102610E+04  0.46999998093E+01 0. -1.
</event>
<event>
 5   0  0.5942229E-06  0.2604700E+04  0.7818609E-02  0.8366607E-01
        2   -1    0    0  501    0  0.00000000000E+00  0.00000000000E+00  0.97451039864E+03  0.97451039864E+03  0.25500000920E-02 0.  1.
       -2   -1    0    0    0  501  0.00000000000E+00  0.00000000000E+00 -0.17404791181E+04  0.17404791181E+04  0.25500000920E-02 0. -1.
    10030    2    1    2    0    0  0.00000000000E+00  0.00000000000E+00 -0.76596871943E+03  0.27149895167E+04  0.26046995982E+04 0.  0.
        4    1    3    3  502    0  0.11065172022E+04  0.23336312978E+03  0.29033569442E+03  0.11675337672E+04  0.12699999809E+01 0. -1.
       -4    1    3    3    0  502 -0.11065172022E+04 -0.23336312978E+03 -0.10563044138E+04  0.15474557495E+04  0.12699999809E+01 0.  1.
</event>
<event>
 5   0  0.2503292E-06  0.2640979E+04  0.7818609E-02  0.8354413E-01
        1   -1    0    0  501    0  0.00000000000E+00  0.00000000000E+00  0.13668050234E+04  0.13668050234E+04  0.50400001928E-02 0.  1.
       -1   -1    0    0    0  501  0.00000000000E+00  0.00000000000E+00 -0.12757431618E+04  0.12757431618E+04  0.50400001928E-02 0. -1.
    10030    2    1    2    0    0  0.00000000000E+00  0.00000000000E+00  0.91061861628E+02  0.26425481852E+04  0.26409787292E+04 0.  0.
        2    1    3    3  502    0 -0.29915628701E+03  0.10168589146E+04  0.83352393386E+03  0.13484282274E+04  0.25500000920E-02 0.  1.
       -2    1    3    3    0  502  0.29915628701E+03 -0.10168589146E+04 -0.74246207223E+03  0.12941199577E+04  0.25500000920E-02 0. -1.
</event>
<event>
 5   0  0.2333979E-06  0.2524971E+04  0.7818609E-02  0.8394143E-01
        1   -1    0    0  501    0  0.00000000000E+00  0.00000000000E+00  0.28681370539E+04  0.28681370539E+04  0.50400001928E-02 0. -1.
       -1   -1    0    0    0  501  0.00000000000E+00  0.00000000000E+00 -0.55571591514E+03  0.55571591516E+03  0.50400001928E-02 0.  1.
    10030    2    1    2    0    0  0.00000000000E+00  0.00000000000E+00  0.23124211388E+04  0.34238529691E+04  0.25249708178E+04 0.  0.
        3    1    3    3  502    0 -0.97047897027E+02 -0.63309838934E+03 -0.31904786842E+03  0.71555811606E+03  0.10100000352E+00 0.  1.
       -3    1    3    3    0  502  0.97047897027E+02  0.63309838934E+03  0.26314690072E+04  0.27082948531E+04  0.10100000352E+00 0. -1.
</event>
<event>
 5   0  0.2503292E-06  0.2604321E+04  0.7818609E-02  0.8366735E-01
        1   -1    0    0  501    0  0.00000000000E+00  0.00000000000E+00  0.88003273272E+03  0.88003273274E+03  0.50400001928E-02 0.  1.
       -1   -1    0    0    0  501  0.00000000000E+00  0.00000000000E+00 -0.19267718921E+04  0.19267718921E+04  0.50400001928E-02 0. -1.
    10030    2    1    2    0    0  0.00000000000E+00  0.00000000000E+00 -0.10467391594E+04  0.28068046248E+04  0.26043212809E+04 0.  0.
        2    1    3    3  502    0  0.77475957389E+03 -0.94487804307E+03 -0.10084469312E+04  0.15843017789E+04  0.25500000920E-02 0. -1.
       -2    1    3    3    0  502 -0.77475957389E+03  0.94487804307E+03 -0.38292228199E+02  0.12225028459E+04  0.25500000920E-02 0.  1.
</event>
<event>
 5   0  0.6173140E-06  0.2595031E+04  0.7818609E-02  0.8369891E-01
       -2   -1    0    0    0  501  0.00000000000E+00  0.00000000000E+00  0.11410209384E+04  0.11410209384E+04  0.25500000920E-02 0.  1.
        2   -1    0    0  501    0  0.00000000000E+00  0.00000000000E+00 -0.14754735521E+04  0.14754735521E+04  0.25500000920E-02 0. -1.
    10030    2    1    2    0    0  0.00000000000E+00  0.00000000000E+00 -0.33445261371E+03  0.26164944905E+04  0.25950308029E+04 0.  0.
        3    1    3    3  502    0  0.45854380833E+03 -0.47543296851E+03  0.95881309966E+03  0.11643116000E+04  0.10100000352E+00 0.  1.
       -3    1    3    3    0  502 -0.45854380833E+03  0.47543296851E+03 -0.12932657134E+04  0.14521828904E+04  0.10100000352E+00 0. -1.
</event>
<event>
 5   0  0.2456600E-06  0.2586565E+04  0.7818609E-02  0.8372779E-01
       -1   -1    0    0    0  501  0.00000000000E+00  0.00000000000E+00  0.17367779422E+04  0.17367779422E+04  0.50400001928E-02 0. -1.
        1   -1    0    0  501    0  0.00000000000E+00  0.00000000000E+00 -0.96303598540E+03  0.96303598541E+03  0.50400001928E-02 0.  1.
    10030    2    1    2    0    0  0.00000000000E+00  0.00000000000E+00  0.77374195682E+03  0.26998139276E+04  0.25865650249E+04 0.  0.
        5    1    3    3  502    0 -0.35149149192E+03  0.69143950246E+03 -0.69329252013E+03  0.10403419932E+04  0.46999998093E+01 0.  1.
       -5    1    3    3    0  502  0.35149149192E+03 -0.69143950246E+03  0.14670344769E+04  0.16594719344E+04  0.46999998093E+01 0. -1.
</event>
<event>
 5   0  0.2471488E-06  0.2602336E+04  0.7818609E-02  0.8367408E-01
       -1   -1    0    0    0  501  0.00000000000E+00  0.00000000000E+00  0.20272485712E+04  0.20272485712E+04  0.50400001928E-02 0. -1.
        1   -1    0    0  501    0  0.00000000000E+00  0.00000000000E+00 -0.83514081143E+03  0.83514081145E+03  0.50400001928E-02 0.  1.
    10030    2    1    2    0    0  0.00000000000E+00  0.00000000000E+00  0.11921077597E+04  0.28623893826E+04  0.26023358867E+04 0.  0.
        4    1    3    3  502    0  0.76162441524E+03 -0.88681243026E+03 -0.32475842960E+02  0.11694290614E+04  0.12699999809E+01 0. -1.
       -4    1    3    3    0  502 -0.76162441524E+03  0.88681243026E+03  0.12245836027E+04  0.16929603212E+04  0.12699999809E+01 0.  1.
</event>
<event>
 5   0  0.2333979E-06  0.2608384E+04  0.7818609E-02  0.8365359E-01
       -1   -1    0    0    0  501  0.00000000000E+00  0.00000000000E+00  0.15023439576E+04  0.15023439576E+04  0.50400001928E-02 0.  1.
        1   -1    0    0  501    0  0.00000000000E+00  0.00000000000E+00 -0.11321755782E+04  0.11321755782E+04  0.50400001928E-02 0. -1.
    10030    2    1    2    0    0  0.00000000000E+00  0.00000000000E+00  0.37016837937E+03  0.26345195358E+04  0.26083842807E+04 0.  0.
        3    1    3    3  502    0 -0.21241567176E+03  0.11266025906E+04  0.81305602638E+03  0.14054941932E+04  0.10100000352E+00 0.  1.
       -3    1    3    3    0  502  0.21241567176E+03 -0.11266025906E+04 -0.44288764702E+03  0.12290253427E+04  0.10100000352E+00 0. -1.
</event>
<event>
 5   0  0.5940748E-06  0.2597916E+04  0.7818609E-02  0.8368910E-01
        2   -1    0    0  501    0  0.00000000000E+00  0.00000000000E+00  0.24221313633E+04  0.24221313633E+04  0.25500000920E-02 0.  1.
       -2   -1    0    0    0  501  0.00000000000E+00  0.00000000000E+00 -0.69661430001E+03  0.69661430002E+03  0.25500000920E-02 0. -1.
    10030    2    1    2    0    0  0.00000000000E+00  0.00000000000E+00  0.17255170633E+04  0.31187456633E+04  0.25979155831E+04 0.  0.
        1    1    3    3  502    0  0.97541348714E+03  0.63889991865E+03  0.17557756454E+03  0.11791743120E+04  0.50400001928E-02 0. -1.
       -1    1    3    3    0  502 -0.97541348714E+03 -0.63889991865E+03  0.15499394987E+04  0.19395713513E+04  0.50400001928E-02 0.  1.
</event>
<event>
 5   0  0.2440590E-06  0.2600888E+04  0.7818609E-02  0.8367900E-01
       -1   -1    0    0    0  501  0.00000000000E+00  0.00000000000E+00  0.11027705335E+04  0.11027705335E+04  0.50400001928E-02 0.  1.
        1   -1    0    0  501    0  0.00000000000E+00  0.00000000000E+00 -0.15335504605E+04  0.15335504605E+04  0.50400001928E-02 0. -1.
    10030    2    1    2    0    0  0.00000000000E+00  0.00000000000E+00 -0.43077992694E+03  0.26363209940E+04  0.26008877404E+04 0.  0.
        1    1    3    3  502    0 -0.78655634128E+03 -0.39695055718E+03 -0.11849321950E+04  0.14765855646E+04  0.50400001928E-02 0. -1.
       -1    1    3    3    0  502  0.78655634128E+03  0.39695055718E+03  0.75415226804E+03  0.11597354294E+04  0.50400001928E-02 0.  1.
</event>
<event>
 5   0  0.6173140E-06  0.2600489E+04  0.7818609E-02  0.8368035E-01
        2   -1    0    0  501    0  0.00000000000E+00  0.00000000000E+00  0.25263370176E+04  0.25263370176E+04  0.25500000920E-02 0.  1.
       -2   -1    0    0    0  501  0.00000000000E+00  0.00000000000E+00 -0.66920418786E+03  0.66920418787E+03  0.25500000920E-02 0. -1.
    10030    2    1    2    0    0  0.00000000000E+00  0.00000000000E+00  0.18571328297E+04  0.31955412055E+04  0.26004886557E+04 0.  0.
        3    1    3    3  502    0 -0.71812295029E+02 -0.74234091243E+03 -0.38023618680E+03  0.83714192580E+03  0.10100000352E+00 0. -1.
       -3    1    3    3    0  502  0.71812295029E+02  0.74234091243E+03  0.22373690165E+04  0.23583992797E+04  0.10100000352E+00 0.  1.
</event>
<event>
 5   0  0.6173140E-06  0.2603738E+04  0.7818609E-02  0.8366933E-01
       -2   -1    0    0    0  501  0.00000000000E+00  0.00000000000E+00  0.83047525034E+03  0.83047525034E+03  0.25500000920E-02 0. -1.
        2   -1    0    0  501    0  0.00000000000E+00  0.00000000000E+00 -0.20408352556E+04  0.20408352556E+04  0.25500000920E-02 0.  1.
    10030    2    1    2    0    0  0.00000000000E+00  0.00000000000E+00 -0.12103600052E+04  0.28713105059E+04  0.26037382125E+04 0.  0.
        3    1    3    3  502    0 -0.33907130195E+03  0.97821368021E+02  0.77672308370E+03  0.85313370980E+03  0.10100000352E+00 0. -1.
       -3    1    3    3    0  502  0.33907130195E+03 -0.97821368021E+02 -0.19870830889E+04  0.20181767961E+04  0.10100000352E+00 0.  1.
</event>
<event>
 5   0  0.5942229E-06  0.2600452E+04  0.7818609E-02  0.8368048E-01
        2   -1    0    0  501    0  0.00000000000E+00  0.00000000000E+00  0.29084544462E+04  0.29084544462E+04  0.25500000920E-02 0.  1.
       -2   -1    0    0    0  501  0.00000000000E+00  0.00000000000E+00 -0.58126688480E+03  0.58126688481E+03  0.25500000920E-02 0. -1.
    10030    2    1    2    0    0  0.00000000000E+00  0.00000000000E+00  0.23271875614E+04  0.34897213310E+04  0.26004524649E+04 0.  0.
        4    1    3    3  502    0  0.20710477988E+03 -0.58326489260E+02 -0.55720994093E+03  0.59730971896E+03  0.12699999809E+01 0. -1.
       -4    1    3    3    0  502 -0.20710477988E+03  0.58326489260E+02  0.28843975023E+04  0.28924116121E+04  0.12699999809E+01 0.  1.
</event>
<event>
 5   0  0.2333979E-06  0.2599912E+04  0.7818609E-02  0.8368231E-01
       -1   -1    0    0    0  501  0.00000000000E+00  0.00000000000E+00  0.87709013351E+03  0.87709013352E+03  0.50400001928E-02 0.  1.
        1   -1    0    0  501    0  0.00000000000E+00  0.00000000000E+00 -0.19266958182E+04  0.19266958182E+04  0.50400001928E-02 0. -1.
    10030    2    1    2    0    0  0.00000000000E+00  0.00000000000E+00 -0.10496056847E+04  0.28037859517E+04  0.25999122235E+04 0.  0.
        3    1    3    3  502    0 -0.62049396730E+03 -0.31176690181E+01  0.70707797999E+03  0.94073469337E+03  0.10100000352E+00 0.  1.
       -3    1    3    3    0  502  0.62049396730E+03  0.31176690181E+01 -0.17566836647E+04  0.18630512583E+04  0.10100000352E+00 0. -1.
</event>
<event>
 5   0  0.5942229E-06  0.2601168E+04  0.7818609E-02  0.8367805E-01
       -2   -1    0    0    0  501  0.00000000000E+00  0.00000000000E+00  0.12669512897E+04  0.12669512897E+04  0.25500000920E-02 0.  1.
        2   -1    0    0  501    0  0.00000000000E+00  0.00000000000E+00 -0.13351094172E+04  0.13351094172E+04  0.25500000920E-02 0. -1.
    10030    2    1    2    0    0  0.00000000000E+00  0.00000000000E+00 -0.68158127473E+02  0.26020607069E+04  0.26011678900E+04 0.  0.
        4    1    3    3  502    0 -0.62286147069E+03  0.71424514693E+03  0.85696481579E+03  0.12776904359E+04  0.12699999809E+01 0.  1.
       -4    1    3    3    0  502  0.62286147069E+03 -0.71424514693E+03 -0.92512294327E+03  0.13243702710E+04  0.12699999809E+01 0. -1.
</event>
<event>
 5   0  0.2456600E-06  0.2589562E+04  0.7818609E-02  0.8371755E-01
        1   -1    0    0  501    0  0.00000000000E+00  0.00000000000E+00  0.17364212079E+04  0.17364212079E+04  0.50400001928E-02 0.  1.
       -1   -1    0    0    0  501  0.00000000000E+00  0.00000000000E+00 -0.96546736095E+03  0.96546736097E+03  0.50400001928E-02 0. -1.
    10030    2    1    2    0    0  0.00000000000E+00  0.00000000000E+00  0.77095384695E+03  0.27018885689E+04  0.25895621260E+04 0.  0.
        5    1    3    3  502    0  0.30938044678E+03 -0.21526112534E+03  0.16779094789E+04  0.17197255369E+04  0.46999998093E+01 0.  1.
       -5    1    3    3    0  502 -0.30938044678E+03  0.21526112534E+03 -0.90695563198E+03  0.98216303194E+03  0.46999998093E+01 0. -1.
</event>
<event>
 5   0  0.5940748E-06  0.2618705E+04  0.7818609E-02  0.8361875E-01
       -2   -1    0    0    0  501  0.00000000000E+00  0.00000000000E+00  0.67692364052E+03  0.67692364052E+03  0.25500000920E-02 0. -1.
        2   -1    0    0  501    0  0.00000000000E+00  0.00000000000E+00 -0.25326403920E+04  0.25326403920E+04  0.25500000920E-02 0.  1.
    10030    2    1    2    0    0  0.00000000000E+00  0.00000000000E+00 -0.18557167515E+04  0.32095640325E+04  0.26187051413E+04 0.  0.
        1    1    3    3  502    0 -0.10238000647E+04  0.37478324383E+03 -0.18165671168E+04  0.21186186873E+04  0.50400001928E-02 0.  1.
       -1    1    3    3    0  502  0.10238000647E+04 -0.37478324383E+03 -0.39149634619E+02  0.10909453452E+04  0.50400001928E-02 0. -1.
</event>
<event>
 5   0  0.2503292E-06  0.2602984E+04  0.7818609E-02  0.8367188E-01
        1   -1    0    0  501    0  0.00000000000E+00  0.00000000000E+00  0.16712127390E+04  0.16712127390E+04  0.50400001928E-02 0. -1.
       -1   -1    0    0    0  501  0.00000000000E+00  0.00000000000E+00 -0.10135643635E+04  0.10135643635E+04  0.50400001928E-02 0.  1.
    10030    2    1    2    0    0  0.00000000000E+00  0.00000000000E+00  0.65764837545E+03  0.26847771025E+04  0.26029841921E+04 0.  0.
        2    1    3    3  502    0  0.58651942154E+03 -0.84270758994E+03 -0.49613385254E+03  0.11403113231E+04  0.25500000920E-02 0.  1.
       -2    1    3    3    0  502 -0.58651942154E+03  0.84270758994E+03  0.11537822280E+04  0.15444657794E+04  0.25500000920E-02 0. -1.
</event>
<event>
 5   0  0.6161834E-06  0.2592356E+04  0.7818609E-02  0.8370802E-01
        2   -1    0    0  501    0  0.00000000000E+00  0.00000000000E+00  0.21949180933E+04  0.21949180933E+04  0.25500000920E-02 0. -1.
       -2   -1    0    0    0  501  0.00000000000E+00  0.00000000000E+00 -0.76543940898E+03  0.76543940899E+03  0.25500000920E-02 0.  1.
    10030    2    1    2    0    0  0.00000000000E+00  0.00000000000E+00  0.14294786843E+04  0.29603575023E+04  0.25923555374E+04 0.  0.
        5    1    3    3  502    0 -0.21854389966E+03  0.11734766058E+04  0.12916771716E+04  0.17587668368E+04  0.46999998093E+01 0. -1.
       -5    1    3    3    0  502  0.21854389966E+03 -0.11734766058E+04  0.13780151273E+03  0.12015906655E+04  0.46999998093E+01 0.  1.
</event>
<event>
 5   0  0.2333979E-06  0.2599560E+04  0.7818609E-02  0.8368351E-01
        1   -1    0    0  501    0  0.00000000000E+00  0.00000000000E+00  0.17458818675E+04  0.17458818675E+04  0.50400001928E-02 0.  1.
       -1   -1    0    0    0  501  0.00000000000E+00  0.00000000000E+00 -0.96766432133E+03  0.96766432134E+03  0.50400001928E-02 0. -1.
    10030    2    1    2    0    0  0.00000000000E+00  0.00000000000E+00  0.77821754614E+03  0.27135461888E+04  0.25995596492E+04 0.  0.
        3    1    3    3  502    0 -0.92786575227E+03 -0.89032180931E+03  0.58666878009E+03  0.14134313022E+04  0.10100000352E+00 0. -1.
       -3    1    3    3    0  502  0.92786575227E+03  0.89032180931E+03  0.19154876605E+03  0.13001148866E+04  0.10100000352E+00 0.  1.
</event>
<event>
 5   0  0.2333979E-06  0.2564267E+04  0.7818609E-02  0.8380441E-01
       -1   -1    0    0    0  501  0.00000000000E+00  0.00000000000E+00  0.11661566862E+04  0.11661566862E+04  0.50400001928E-02 0.  1.
        1   -1    0    0  501    0  0.00000000000E+00  0.00000000000E+00 -0.14096443621E+04  0.14096443621E+04  0.50400001928E-02 0. -1.
    10030    2    1    2    0    0  0.00000000000E+00  0.00000000000E+00 -0.24348767585E+03  0.25758010483E+04  0.25642669113E+04 0.  0.
        3    1    3    3  502    0 -0.11796475208E+04 -0.12979473147E+03  0.36567193650E+03  0.12418256403E+04  0.10100000352E+00 0.  1.
       -3    1    3    3    0  502  0.11796475208E+04  0.12979473147E+03 -0.60915961235E+03  0.13339754080E+04  0.10100000352E+00 0. -1.
</event>
<event>
 5   0  0.2072125E-06  0.2589348E+04  0.7818609E-02  0.8371829E-01
       -3   -1    0    0    0  501  0.00000000000E+00  0.00000000000E+00  0.71544947302E+03  0.71544948015E+03  0.10100000352E+00 0.  1.
        3   -1    0    0  501    0  0.00000000000E+00  0.00000000000E+00 -0.23428352073E+04  0.23428352095E+04  0.10100000352E+00 0. -1.
    10030    2    1    2    0    0  0.00000000000E+00  0.00000000000E+00 -0.16273857343E+04  0.30582846896E+04  0.25893475847E+04 0.  0.
        4    1    3    3  502    0  0.80910179231E+03  0.99618578194E+03 -0.10153357736E+04  0.16364413123E+04  0.12699999809E+01 0. -1.
       -4    1    3    3    0  502 -0.80910179231E+03 -0.99618578194E+03 -0.61204996067E+03  0.14218433773E+04  0.12699999809E+01 0.  1.
</event>
<event>
 5   0  0.2333979E-06  0.2601046E+04  0.7818609E-02  0.8367846E-01
        1   -1    0    0  501    0  0.00000000000E+00  0.00000000000E+00  0.13020672591E+04  0.13020672591E+04  0.50400001928E-02 0.  1.
       -1   -1    0    0    0  501  0.00000000000E+00  0.00000000000E+00 -0.12989810221E+04  0.12989810222E+04  0.50400001928E-02 0. -1.
    10030    2    1    2    0    0  0.00000000000E+00  0.00000000000E+00  0.30862369140E+01  0.26010482812E+04  0.26010464502E+04 0.  0.
        3    1    3    3  502    0  0.11396081227E+04 -0.77670259829E+02 -0.62024611477E+03  0.12997863654E+04  0.10100000352E+00 0. -1.
       -3    1    3    3    0  502 -0.11396081227E+04  0.77670259829E+02  0.62333235168E+03  0.13012619158E+04  0.10100000352E+00 0.  1.
</event>
<event>
 5   0  0.2503292E-06  0.2595872E+04  0.7818609E-02  0.8369605E-01
       -1   -1    0    0    0  501  0.00000000000E+00  0.00000000000E+00  0.14412229905E+04  0.14412229905E+04  0.50400001928E-02 0. -1.
        1   -1    0    0  501    0  0.00000000000E+00  0.00000000000E+00 -0.11688943677E+04  0.11688943677E+04  0.50400001928E-02 0.  1.
    10030    2    1    2    0    0  0.00000000000E+00  0.00000000000E+00  0.27232862280E+03  0.26101173581E+04  0.25958716733E+04 0.  0.
        2    1    3    3  502    0 -0.75109312796E+03 -0.96050034215E+03  0.58350542805E+03  0.13517323621E+04  0.25500000920E-02 0. -1.
       -2    1    3    3    0  502  0.75109312796E+03  0.96050034215E+03 -0.31117680525E+03  0.12583849960E+04  0.25500000920E-02 0.  1.
</event>
<event>
 5   0  0.2456600E-06  0.2556305E+04  0.7818609E-02  0.8383197E-01
        1   -1    0    0  501    0  0.00000000000E+00  0.00000000000E+00  0.19277120185E+04  0.19277120185E+04  0.50400001928E-02 0. -1.
       -1   -1    0    0    0  501  0.00000000000E+00  0.00000000000E+00 -0.84746789103E+03  0.84746789104E+03  0.50400001928E-02 0.  1.
    10030    2    1    2    0    0  0.00000000000E+00  0.00000000000E+00  0.10802441275E+04  0.27751799095E+04  0.25563051765E+04 0.  0.
        5    1    3    3  502    0  0.38989253661E+03 -0.12162236304E+04  0.59370207346E+03  0.14084460768E+04  0.46999998093E+01 0.  1.
       -5    1    3    3    0  502 -0.38989253661E+03  0.12162236304E+04  0.48654205400E+03  0.13667338327E+04  0.46999998093E+01 0. -1.
</event>
<event>
 5   0  0.6161834E-06  0.2575430E+04  0.7818609E-02  0.8376595E-01
       -2   -1    0    0    0  501  0.00000000000E+00  0.00000000000E+00  0.94798014592E+03  0.94798014592E+03  0.25500000920E-02 0. -1.
        2   -1    0    0  501    0  0.00000000000E+00  0.00000000000E+00 -0.17492035750E+04  0.17492035750E+04  0.25500000920E-02 0.  1.
    10030    2    1    2    0    0  0.00000000000E+00  0.00000000000E+00 -0.80122342912E+03  0.26971837210E+04  0.25754302633E+04 0.  0.
        5    1    3    3  502    0  0.11336808304E+04 -0.38701283679E+02  0.23767482248E+03  0.11589829273E+04  0.46999998093E+01 0. -1.
       -5    1    3    3    0  502 -0.11336808304E+04  0.38701283679E+02 -0.10388982516E+04  0.15382007937E+04  0.46999998093E+01 0.  1.
</event>
<event>
 5   0  0.2456600E-06  0.2611646E+04  0.7818609E-02  0.8364256E-01
        1   -1    0    0  501    0  0.00000000000E+00  0.00000000000E+00  0.91448977192E+03  0.91448977193E+03  0.50400001928E-02 0. -1.
       -1   -1    0    0    0  501  0.00000000000E+00  0.00000000000E+00 -0.18646173464E+04  0.18646173464E+04  0.50400001928E-02 0.  1.
    10030    2    1    2    0    0  0.00000000000E+00  0.00000000000E+00 -0.95012757445E+03  0.27791071183E+04  0.26116458350E+04 0.  0.
        5    1    3    3  502    0  0.90377535411E+03 -0.77681414113E+03  0.92922984300E+02  0.11953689270E+04  0.46999998093E+01 0. -1.
       -5    1    3    3    0  502 -0.90377535411E+03  0.77681414113E+03 -0.10430505587E+04  0.15837381913E+04  0.46999998093E+01 0.  1.
</event>
<event>
 5   0  0.5940748E-06  0.2574066E+04  0.7818609E-02  0.8377064E-01
        2   -1    0    0  501    0  0.00000000000E+00  0.00000000000E+00  0.74723694815E+03  0.74723694816E+03  0.25500000920E-02 0. -1.
       -2   -1    0    0    0  501  0.00000000000E+00  0.00000000000E+00 -0.22167723215E+04  0.22167723215E+04  0.25500000920E-02 0.  1.
    10030    2    1    2    0    0  0.00000000000E+00  0.00000000000E+00 -0.14695353734E+04  0.29640092697E+04  0.25740661874E+04 0.  0.
        1    1    3    3  502    0 -0.49273126344E+03 -0.65620038704E+03  0.40693315367E+03  0.91595722471E+03  0.50400001928E-02 0. -1.
       -1    1    3    3    0  502  0.49273126344E+03  0.65620038704E+03 -0.18764685270E+04  0.20480520450E+04  0.50400001928E-02 0.  1.
</event>
<event>
 5   0  0.2440590E-06  0.2601430E+04  0.7818609E-02  0.8367716E-01
        1   -1    0    0  501    0  0.00000000000E+00  0.00000000000E+00  0.10347703292E+04  0.10347703292E+04  0.50400001928E-02 0.  1.
       -1   -1    0    0    0  501  0.00000000000E+00  0.00000000000E+00 -0.16350098611E+04  0.16350098611E+04  0.50400001928E-02 0. -1.
    10030    2    1    2    0    0  0.00000000000E+00  0.00000000000E+00 -0.60023953189E+03  0.26697801903E+04  0.26014301391E+04 0.  0.
        1    1    3    3  502    0  0.72449703995E+03 -0.82175252343E+03 -0.10197468338E+04  0.14966819220E+04  0.50400001928E-02 0. -1.
       -1    1    3    3    0  502 -0.72449703995E+03  0.82175252343E+03  0.41950730189E+03  0.11730982683E+04  0.50400001928E-02 0.  1.
</event>
<event>
 5   0  0.5942229E-06  0.2582769E+04  0.7818609E-02  0.8374078E-01
        2   -1    0    0  501    0  0.00000000000E+00  0.00000000000E+00  0.62947262850E+03  0.62947262851E+03  0.25500000920E-02 0.  1.
       -2   -1    0    0    0  501  0.00000000000E+00  0.00000000000E+00 -0.26493189508E+04  0.26493189508E+04  0.25500000920E-02 0. -1.
    10030    2    1    2    0    0  0.00000000000E+00  0.00000000000E+00 -0.20198463223E+04  0.32787915793E+04  0.25827688737E+04 0.  0.
        4    1    3    3  502    0  0.11315769184E+04 -0.25241515035E+03 -0.17319616055E+04  0.20841958512E+04  0.12699999809E+01 0.  1.
       -4    1    3    3    0  502 -0.11315769184E+04  0.25241515035E+03 -0.28788471679E+03  0.11945957281E+04  0.12699999809E+01 0. -1.
</event>
<event>
 5   0  0.6173140E-06  0.2596080E+04  0.7818609E-02  0.8369534E-01
        2   -1    0    0  501    0  0.00000000000E+00  0.00000000000E+00  0.13586527633E+04  0.13586527633E+04  0.25500000920E-02 0.  1.
       -2   -1    0    0    0  501  0.00000000000E+00  0.00000000000E+00 -0.12401313685E+04  0.12401313685E+04  0.25500000920E-02 0. -1.
    10030    2    1    2    0    0  0.00000000000E+00  0.00000000000E+00  0.11852139475E+03  0.25987841318E+04  0.25960800532E+04 0.  0.
        3    1    3    3  502    0 -0.62023654389E+03 -0.48428592336E+03 -0.97413315790E+03  0.12522626104E+04  0.10100000352E+00 0. -1.
       -3    1    3    3    0  502  0.62023654389E+03  0.48428592336E+03  0.10926545526E+04  0.13465215214E+04  0.10100000352E+00 0.  1.
</event>
<event>
 5   0  0.2333979E-06  0.2532372E+04  0.7818609E-02  0.8391543E-01
       -1   -1    0    0    0  501  0.00000000000E+00  0.00000000000E+00  0.17258179294E+04  0.17258179294E+04  0.50400001928E-02 0. -1.
        1   -1    0    0  501    0  0.00000000000E+00  0.00000000000E+00 -0.92896660586E+03  0.92896660587E+03  0.50400001928E-02 0.  1.
    10030    2    1    2    0    0  0.00000000000E+00  0.00000000000E+00  0.79685132353E+03  0.26547845353E+04  0.25323721877E+04 0.  0.
        3    1    3    3  502    0  0.10833230896E+04  0.51788393228E+03  0.81963691075E+03  0.14538216395E+04  0.10100000352E+00 0.  1.
       -3    1    3    3    0  502 -0.10833230896E+04 -0.51788393228E+03 -0.22785587225E+02  0.12009628958E+04  0.10100000352E+00 0. -1.
</event>
<event>
 5   0  0.2456600E-06  0.2592163E+04  0.7818609E-02  0.8370868E-01
        1   -1    0    0  501    0  0.00000000000E+00  0.00000000000E+00  0.17741440400E+04  0.17741440400E+04  0.50400001928E-02 0.  1.
       -1   -1    0    0    0  501  0.00000000000E+00  0.00000000000E+00 -0.94683794785E+03  0.94683794787E+03  0.50400001928E-02 0. -1.
    10030    2    1    2    0    0  0.00000000000E+00  0.00000000000E+00  0.82730609210E+03  0.27209819878E+04  0.25921627279E+04 0.  0.
        5    1    3    3  502    0  0.83650584741E+01 -0.65197638527E+03  0.15894347924E+04  0.17179837690E+04  0.46999998093E+01 0.  1.
       -5    1    3    3    0  502 -0.83650584741E+01  0.65197638527E+03 -0.76212870032E+03  0.10029982188E+04  0.46999998093E+01 0. -1.
</event>
<event>
 5   0  0.2072125E-06  0.2594554E+04  0.7818609E-02  0.8370053E-01
        3   -1    0    0  501    0  0.00000000000E+00  0.00000000000E+00  0.10432113790E+04  0.10432113839E+04  0.10100000352E+00 0.  1.
       -3   -1    0    0    0  501  0.00000000000E+00  0.00000000000E+00 -0.16132186825E+04  0.16132186857E+04  0.10100000352E+00 0. -1.
    10030    2    1    2    0    0  0.00000000000E+00  0.00000000000E+00 -0.57000730353E+03  0.26564300695E+04  0.25945543718E+04 0.  0.
        3    1    3    3  502    0 -0.11768286021E+04 -0.11799112664E+03  0.26069944275E+03  0.12111200082E+04  0.10100000352E+00 0.  1.
       -3    1    3    3    0  502  0.11768286021E+04  0.11799112664E+03 -0.83070674628E+03  0.14453100613E+04  0.10100000352E+00 0. -1.
</event>
<event>
 5   0  0.2471488E-06  0.2601461E+04  0.7818609E-02  0.8367705E-01
       -1   -1    0    0    0  501  0.00000000000E+00  0.00000000000E+00  0.14405699564E+04  0.14405699564E+04  0.50400001928E-02 0.  1.
        1   -1    0    0  501    0  0.00000000000E+00  0.00000000000E+00 -0.11744656205E+04  0.11744656205E+04  0.50400001928E-02 0. -1.
    10030    2    1    2    0    0  0.00000000000E+00  0.00000000000E+00  0.26610433589E+03  0.26150355770E+04  0.26014610416E+04 0.  0.
        4    1    3    3  502    0 -0.62475721545E+03  0.52215229173E+03 -0.88660450801E+03  0.12037581819E+04  0.12699999809E+01 0. -1.
       -4    1    3    3    0  502  0.62475721545E+03 -0.52215229173E+03  0.11527088439E+04  0.14112773950E+04  0.12699999809E+01 0.  1.
</event>
<event>
 5   0  0.6173140E-06  0.2600322E+04  0.7818609E-02  0.8368092E-01
       -2   -1    0    0    0  501  0.00000000000E+00  0.00000000000E+00  0.52195536979E+03  0.52195536980E+03  0.25500000920E-02 0.  1.
        2   -1    0    0  501    0  0.00000000000E+00  0.00000000000E+00 -0.32386278002E+04  0.32386278002E+04  0.25500000920E-02 0. -1.
    10030    2    1    2    0    0  0.00000000000E+00  0.00000000000E+00 -0.27166724304E+04  0.37605831700E+04  0.26003224193E+04 0.  0.
        3    1    3    3  502    0 -0.17575081240E+03 -0.12872178629E+04 -0.12845802715E+04  0.18270097588E+04  0.10100000352E+00 0.  1.
       -3    1    3    3    0  502  0.17575081240E+03  0.12872178629E+04 -0.14320921589E+04  0.19335734112E+04  0.10100000352E+00 0. -1.
</event>
<event>
 5   0  0.6158063E-06  0.2596428E+04  0.7818609E-02  0.8369416E-01
        2   -1    0    0  501    0  0.00000000000E+00  0.00000000000E+00  0.11418397302E+04  0.11418397302E+04  0.25500000920E-02 0.  1.
       -2   -1    0    0    0  501  0.00000000000E+00  0.00000000000E+00 -0.14760035246E+04  0.14760035246E+04  0.25500000920E-02 0. -1.
    10030    2    1    2    0    0  0.00000000000E+00  0.00000000000E+00 -0.33416379437E+03  0.26178432548E+04  0.25964279049E+04 0.  0.
        2    1    3    3  502    0 -0.10660019811E+04  0.37543703475E+03  0.47697180399E+03  0.12267091312E+04  0.25500000920E-02 0.  1.
       -2    1    3    3    0  502  0.10660019811E+04 -0.37543703475E+03 -0.81113559836E+03  0.13911341236E+04  0.25500000920E-02 0. -1.
</event>
<event>
 5   0  0.6173140E-06  0.2660781E+04  0.7818609E-02  0.8347843E-01
        2   -1    0    0  501    0  0.00000000000E+00  0.00000000000E+00  0.15718219329E+04  0.15718219329E+04  0.25500000920E-02 0. -1.
       -2   -1    0    0    0  501  0.00000000000E+00  0.00000000000E+00 -0.11260428702E+04  0.11260428702E+04  0.25500000920E-02 0.  1.
    10030    2    1    2    0    0  0.00000000000E+00  0.00000000000E+00  0.44577906271E+03  0.26978648031E+04  0.26607809987E+04 0.  0.
        3    1    3    3  502    0 -0.16034330021E+03 -0.13067238485E+04  0.28642662459E+02  0.13168362094E+04  0.10100000352E+00 0.  1.
       -3    1    3    3    0  502  0.16034330021E+03  0.13067238485E+04  0.41713640025E+03  0.13810285937E+04  0.10100000352E+00 0. -1.
</event>
<event>
 5   0  0.6158063E-06  0.2600829E+04  0.7818609E-02  0.8367920E-01
        2   -1    0    0  501    0  0.00000000000E+00  0.00000000000E+00  0.13901589186E+04  0.13901589186E+04  0.25500000920E-02 0. -1.
       -2   -1    0    0    0  501  0.00000000000E+00  0.00000000000E+00 -0.12164633502E+04  0.12164633502E+04  0.25500000920E-02 0.  1.
    10030    2    1    2    0    0  0.00000000000E+00  0.00000000000E+00  0.17369556839E+03  0.26066222689E+04  0.26008286184E+04 0.  0.
        2    1    3    3  502    0 -0.10171885371E+03  0.11459334582E+04 -0.52077593283E+03  0.12628213603E+04  0.25500000920E-02 0.  1.
       -2    1    3    3    0  502  0.10171885371E+03 -0.11459334582E+04  0.69447150122E+03  0.13438009086E+04  0.25500000920E-02 0. -1.
</event>
<event>
 5   0  0.6173140E-06  0.2563267E+04  0.7818609E-02  0.8380787E-01
       -2   -1    0    0    0  501  0.00000000000E+00  0.00000000000E+00  0.63896029615E+03  0.63896029615E+03  0.25500000920E-02 0.  1.
        2   -1    0    0  501    0  0.00000000000E+00  0.00000000000E+00 -0.25707137058E+04  0.25707137058E+04  0.25500000920E-02 0. -1.
    10030    2    1    2    0    0  0.00000000000E+00  0.00000000000E+00 -0.19317534097E+04  0.32096740020E+04  0.25632666586E+04 0.  0.
        3    1    3    3  502    0  0.22942685594E+02  0.76118809513E+03  0.32493329166E+03  0.82795853593E+03  0.10100000352E+00 0.  1.
       -3    1    3    3    0  502 -0.22942685594E+02 -0.76118809513E+03 -0.22566867013E+04  0.23817154660E+04  0.10100000352E+00 0. -1.
</event>
<event>
 5   0  0.6161834E-06  0.2572846E+04  0.7818609E-02  0.8377484E-01
        2   -1    0    0  501    0  0.00000000000E+00  0.00000000000E+00  0.11990443551E+04  0.11990443551E+04  0.25500000920E-02 0. -1.
       -2   -1    0    0    0  501  0.00000000000E+00  0.00000000000E+00 -0.13801691293E+04  0.13801691293E+04  0.25500000920E-02 0.  1.
    10030    2    1    2    0    0  0.00000000000E+00  0.00000000000E+00 -0.18112477416E+03  0.25792134845E+04  0.25728458979E+04 0.  0.
        5    1    3    3  502    0  0.18711965481E+03  0.24891737235E+03  0.11606806464E+04  0.12017384393E+04  0.46999998093E+01 0. -1.
       -5    1    3    3    0  502 -0.18711965481E+03 -0.24891737235E+03 -0.13418054206E+04  0.13774750452E+04  0.46999998093E+01 0.  1.
</event>
<event>
 5   0  0.5942229E-06  0.2602135E+04  0.7818609E-02  0.8367476E-01
       -2   -1    0    0    0  501  0.00000000000E+00  0.00000000000E+00  0.96230496135E+03  0.96230496135E+03  0.25500000920E-02 0.  1.
        2   -1    0    0  501    0  0.00000000000E+00  0.00000000000E+00 -0.17590860159E+04  0.17590860159E+04  0.25500000920E-02 0. -1.
    10030    2    1    2    0    0  0.00000000000E+00  0.00000000000E+00 -0.79678105456E+03  0.27213909773E+04  0.26021354312E+04 0.  0.
        4    1    3    3  502    0  0.10052061406E+04 -0.46901782873E+03 -0.11095229134E+04  0.15689040177E+04  0.12699999809E+01 0.  1.
       -4    1    3    3    0  502 -0.10052061406E+04  0.46901782873E+03  0.31274185883E+03  0.11524869595E+04  0.12699999809E+01 0. -1.
</event>
<event>
 5   0  0.5942229E-06  0.2596873E+04  0.7818609E-02  0.8369264E-01
        2   -1    0    0  501    0  0.00000000000E+00  0.00000000000E+00  0.17480604945E+04  0.17480604945E+04  0.25500000920E-02 0. -1.
       -2   -1    0    0    0  501  0.00000000000E+00  0.00000000000E+00 -0.96446168014E+03  0.96446168015E+03  0.25500000920E-02 0.  1.
    10030    2    1    2    0    0  0.00000000000E+00  0.00000000000E+00  0.78359881438E+03  0.27125221747E+04  0.25968730131E+04 0.  0.
        4    1    3    3  502    0 -0.11238225429E+04  0.64209719233E+03  0.49969444250E+03  0.13874300203E+04  0.12699999809E+01 0. -1.
       -4    1    3    3    0  502  0.11238225429E+04 -0.64209719233E+03  0.28390437189E+03  0.13250921544E+04  0.12699999809E+01 0.  1.
</event>
<event>
 5   0  0.2440590E-06  0.2607939E+04  0.7818609E-02  0.8365510E-01
        1   -1    0    0  501    0  0.00000000000E+00  0.00000000000E+00  0.19619543716E+04  0.19619543716E+04  0.50400001928E-02 0.  1.
       -1   -1    0    0    0  501  0.00000000000E+00  0.00000000000E+00 -0.86665425193E+03  0.86665425194E+03  0.50400001928E-02 0. -1.
    10030    2    1    2    0    0  0.00000000000E+00  0.00000000000E+00  0.10953001197E+04  0.28286086235E+04  0.26079387249E+04 0.  0.
        1    1    3    3  502    0 -0.18743298113E+03  0.99261799486E+03  0.14419900014E+04  0.17606126122E+04  0.50400001928E-02 0.  1.
       -1    1    3    3    0  502  0.18743298113E+03 -0.99261799486E+03 -0.34668988171E+03  0.10679960113E+04  0.50400001928E-02 0. -1.
</event>
<event>
 5   0  0.6158063E-06  0.2560527E+04  0.7818609E-02  0.8381734E-01
        2   -1    0    0  501    0  0.00000000000E+00  0.00000000000E+00  0.16617109044E+04  0.16617109044E+04  0.25500000920E-02 0. -1.
       -2   -1    0    0    0  501  0.00000000000E+00  0.00000000000E+00 -0.98637789242E+03  0.98637789242E+03  0.25500000920E-02 0.  1.
    10030    2    1    2    0    0  0.00000000000E+00  0.00000000000E+00  0.67533301196E+03  0.26480887968E+04  0.25605272111E+04 0.  0.
        2    1    3    3  502    0 -0.23905062656E+03 -0.16207217387E+03  0.16275806746E+04  0.16530067888E+04  0.25500000920E-02 0. -1.
       -2    1    3    3    0  502  0.23905062656E+03  0.16207217387E+03 -0.95224766263E+03  0.99508200797E+03  0.25500000920E-02 0.  1.
</event>
<event>
 5   0  0.2456600E-06  0.2597375E+04  0.7818609E-02  0.8369093E-01
        1   -1    0    0  501    0  0.00000000000E+00  0.00000000000E+00  0.16466679480E+04  0.16466679480E+04  0.50400001928E-02 0. -1.
       -1   -1    0    0    0  501  0.00000000000E+00  0.00000000000E+00 -0.10242436457E+04  0.10242436458E+04  0.50400001928E-02 0.  1.
    10030    2    1    2    0    0  0.00000000000E+00  0.00000000000E+00  0.62242430230E+03  0.26709115938E+04  0.25973749690E+04 0.  0.
        5    1    3    3  502    0 -0.47364145119E+02 -0.81596209009E+03  0.13490074266E+04  0.15773016902E+04  0.46999998093E+01 0. -1.
       -5    1    3    3    0  502  0.47364145119E+02  0.81596209009E+03 -0.72658312435E+03  0.10936099036E+04  0.46999998093E+01 0.  1.
</event>
<event>
 5   0  0.2471488E-06  0.2593696E+04  0.7818609E-02  0.8370346E-01
       -1   -1    0    0    0  501  0.00000000000E+00  0.00000000000E+00  0.72787365072E+03  0.72787365074E+03  0.50400001928E-02 0.  1.
        1   -1    0    0  501    0  0.00000000000E+00  0.00000000000E+00 -0.23105860276E+04  0.23105860276E+04  0.50400001928E-02 0. -1.
    10030    2    1    2    0    0  0.00000000000E+00  0.00000000000E+00 -0.15827123769E+04  0.30384596784E+04  0.25936959631E+04 0.  0.
        4    1    3    3  502    0  0.70533823646E+03  0.56788137213E+03 -0.18788909501E+04  0.20857190837E+04  0.12699999809E+01 0. -1.
       -4    1    3    3    0  502 -0.70533823646E+03 -0.56788137213E+03  0.29617857323E+03  0.95274059469E+03  0.12699999809E+01 0.  1.
</event>
<event>
 5   0  0.2456600E-06  0.2595322E+04  0.7818609E-02  0.8369792E-01
        1   -1    0    0  501    0  0.00000000000E+00  0.00000000000E+00  0.18325068804E+04  0.18325068804E+04  0.50400001928E-02 0.  1.
       -1   -1    0    0    0  501  0.00000000000E+00  0.00000000000E+00 -0.91891795100E+03  0.91891795102E+03  0.50400001928E-02 0. -1.
    10030    2    1    2    0    0  0.00000000000E+00  0.00000000000E+00  0.91358892936E+03  0.27514248314E+04  0.25953215352E+04 0.  0.
        5    1    3    3  502    0  0.10756835605E+02 -0.10009419625E+04  0.13322359032E+04  0.16663958454E+04  0.46999998093E+01 0.  1.
       -5    1    3    3    0  502 -0.10756835605E+02  0.10009419625E+04 -0.41864697382E+03  0.10850289860E+04  0.46999998093E+01 0. -1.
</event>
<event>
 5   0  0.5940748E-06  0.2603252E+04  0.7818609E-02  0.8367098E-01
       -2   -1    0    0    0  501  0.00000000000E+00  0.00000000000E+00  0.11741798095E+04  0.11741798095E+04  0.25500000920E-02 0.  1.
        2   -1    0    0  501    0  0.00000000000E+00  0.00000000000E+00 -0.14429049127E+04  0.14429049127E+04  0.25500000920E-02 0. -1.
    10030    2    1    2    0    0  0.00000000000E+00  0.00000000000E+00 -0.26872510329E+03  0.26170847222E+04  0.26032516709E+04 0.  0.
        1    1    3    3  502    0 -0.73048929917E+03 -0.10205673215E+04 -0.48124320742E+03  0.13441604438E+04  0.50400001928E-02 0. -1.
       -1    1    3    3    0  502  0.73048929917E+03  0.10205673215E+04  0.21251810413E+03  0.12729242784E+04  0.50400001928E-02 0.  1.
</event>
<event>
 5   0  0.6173140E-06  0.2599943E+04  0.7818609E-02  0.8368220E-01
        2   -1    0    0  501    0  0.00000000000E+00  0.00000000000E+00  0.19689262881E+04  0.19689262881E+04  0.25500000920E-02 0. -1.
       -2   -1    0    0    0  501  0.00000000000E+00  0.00000000000E+00 -0.85829836179E+03  0.85829836180E+03  0.25500000920E-02 0.  1.
    10030    2    1    2    0    0  0.00000000000E+00  0.00000000000E+00  0.11106279263E+04  0.28272246499E+04  0.25999432360E+04 0.  0.
        3    1    3    3  502    0 -0.50233951808E+03 -0.66785418531E+03 -0.52750087496E+03  0.98824662284E+03  0.10100000352E+00 0.  1.
       -3    1    3    3    0  502  0.50233951808E+03  0.66785418531E+03  0.16381288013E+04  0.18389780271E+04  0.10100000352E+00 0. -1.
</event>
<event>
 5   0  0.6161834E-06  0.2601504E+04  0.7818609E-02  0.8367690E-01
        2   -1    0    0  501    0  0.00000000000E+00  0.00000000000E+00  0.13718866927E+04  0.13718866927E+04  0.25500000920E-02 0.  1.
       -2   -1    0    0    0  501  0.00000000000E+00  0.00000000000E+00 -0.12333060061E+04  0.12333060061E+04  0.25500000920E-02 0. -1.
    10030    2    1    2    0    0  0.00000000000E+00  0.00000000000E+00  0.13858068660E+03  0.26051926987E+04  0.26015042554E+04 0.  0.
        5    1    3    3  502    0 -0.12556370818E+03  0.99545874288E+03 -0.75966929678E+03  0.12585006492E+04  0.46999998093E+01 0. -1.
       -5    1    3    3    0  502  0.12556370818E+03 -0.99545874288E+03  0.89824998338E+03  0.13466920495E+04  0.46999998093E+01 0.  1.
</event>
<event>
 5   0  0.2456600E-06  0.2594429E+04  0.7818609E-02  0.8370096E-01
        1   -1    0    0  501    0  0.00000000000E+00  0.00000000000E+00  0.87849464934E+03  0.87849464935E+03  0.50400001928E-02 0. -1.
       -1   -1    0    0    0  501  0.00000000000E+00  0.00000000000E+00 -0.19155102075E+04  0.19155102075E+04  0.50400001928E-02 0.  1.
    10030    2    1    2    0    0  0.00000000000E+00  0.00000000000E+00 -0.10370155581E+04  0.27940048568E+04  0.25944290069E+04 0.  0.
        5    1    3    3  502    0 -0.37540418745E+03 -0.26441594152E+03  0.78803734166E+03  0.91206854783E+03  0.46999998093E+01 0. -1.
       -5    1    3    3    0  502  0.37540418745E+03  0.26441594152E+03 -0.18250528998E+04  0.18819363090E+04  0.46999998093E+01 0.  1.
</event>
<event>
 5   0  0.6173140E-06  0.2588954E+04  0.7818609E-02  0.8371963E-01
        2   -1    0    0  501    0  0.00000000000E+00  0.00000000000E+00  0.15271853119E+04  0.15271853119E+04  0.25500000920E-02 0. -1.
       -2   -1    0    0    0  501  0.00000000000E+00  0.00000000000E+00 -0.10972280246E+04  0.10972280246E+04  0.25500000920E-02 0.  1.
    10030    2    1    2    0    0  0.00000000000E+00  0.00000000000E+00  0.42995728730E+03  0.26244133364E+04  0.25889538604E+04 0.  0.
        3    1    3    3  502    0 -0.33914471544E+03  0.11557644329E+04 -0.26571013123E+03  0.12334554903E+04  0.10100000352E+00 0.  1.
       -3    1    3    3    0  502  0.33914471544E+03 -0.11557644329E+04  0.69566741853E+03  0.13909578462E+04  0.10100000352E+00 0. -1.
</event>
<event>
 5   0  0.5942229E-06  0.2596068E+04  0.7818609E-02  0.8369538E-01
       -2   -1    0    0    0  501  0.00000000000E+00  0.00000000000E+00  0.15396455453E+04  0.15396455453E+04  0.25500000920E-02 0. -1.
        2   -1    0    0  501    0  0.00000000000E+00  0.00000000000E+00 -0.10943375179E+04  0.10943375179E+04  0.25500000920E-02 0.  1.
    10030    2    1    2    0    0  0.00000000000E+00  0.00000000000E+00  0.44530802743E+03  0.26339830632E+04  0.25960677067E+04 0.  0.
        4    1    3    3  502    0 -0.12050175604E+04 -0.40901385655E+03  0.48238220319E+03  0.13609018548E+04  0.12699999809E+01 0. -1.
       -4    1    3    3    0  502  0.12050175604E+04  0.40901385655E+03 -0.37074175764E+02  0.12730812083E+04  0.12699999809E+01 0.  1.
</event>
<event>
 5   0  0.6161834E-06  0.2612737E+04  0.7818609E-02  0.8363888E-01
       -2   -1    0    0    0  501  0.00000000000E+00  0.00000000000E+00  0.10746612481E+04  0.10746612481E+04  0.25500000920E-02 0.  1.
        2   -1    0    0  501    0  0.00000000000E+00  0.00000000000E+00 -0.15880336519E+04  0.15880336519E+04  0.25500000920E-02 0. -1.
    10030    2    1    2    0    0  0.00000000000E+00  0.00000000000E+00 -0.51337240376E+03  0.26626949000E+04  0.26127366698E+04 0.  0.
        5    1    3    3  502    0 -0.71776181299E+03 -0.12303134414E+02 -0.13689963536E+04  0.15458028637E+04  0.46999998093E+01 0. -1.
       -5    1    3    3    0  502  0.71776181299E+03  0.12303134414E+02  0.85562394980E+03  0.11168920363E+04  0.46999998093E+01 0.  1.
</event>
<event>
 5   0  0.2456600E-06  0.2610656E+04  0.7818609E-02  0.8364591E-01
       -1   -1    0    0    0  501  0.00000000000E+00  0.00000000000E+00  0.89830928609E+03  0.89830928610E+03  0.50400001928E-02 0. -1.
        1   -1    0    0  501    0  0.00000000000E+00  0.00000000000E+00 -0.18967645936E+04  0.18967645936E+04  0.50400001928E-02 0.  1.
    10030    2    1    2    0    0  0.00000000000E+00  0.00000000000E+00 -0.99845530750E+03  0.27950738797E+04  0.26106560463E+04 0.  0.
        5    1    3    3  502    0  0.38373444717E+01  0.12101592288E+04  0.24576070629E+02  0.12104239578E+04  0.46999998093E+01 0. -1.
       -5    1    3    3    0  502 -0.38373444717E+01 -0.12101592288E+04 -0.10230313781E+04  0.15846499219E+04  0.46999998093E+01 0.  1.
</event>
<event>
 5   0  0.6173140E-06  0.2610712E+04  0.7818609E-02  0.8364572E-01
        2   -1    0    0  501    0  0.00000000000E+00  0.00000000000E+00  0.11135770423E+04  0.11135770423E+04  0.25500000920E-02 0.  1.
       -2   -1    0    0    0  501  0.00000000000E+00  0.00000000000E+00 -0.15301627380E+04  0.15301627380E+04  0.25500000920E-02 0. -1.
    10030    2    1    2    0    0  0.00000000000E+00  0.00000000000E+00 -0.41658569565E+03  0.26437397803E+04  0.26107118539E+04 0.  0.
        3    1    3    3  502    0 -0.40076269641E+03  0.24376001246E+03 -0.14418681149E+04  0.15162497662E+04  0.10100000352E+00 0. -1.
       -3    1    3    3    0  502  0.40076269641E+03 -0.24376001246E+03  0.10252824192E+04  0.11274900141E+04  0.10100000352E+00 0.  1.
</event>
<event>
 5   0  0.5940748E-06  0.2591198E+04  0.7818609E-02  0.8371197E-01
       -2   -1    0    0    0  501  0.00000000000E+00  0.00000000000E+00  0.10683191954E+04  0.10683191954E+04  0.25500000920E-02 0.  1.
        2   -1    0    0  501    0  0.00000000000E+00  0.00000000000E+00 -0.15712309860E+04  0.15712309860E+04  0.25500000920E-02 0. -1.
    10030    2    1    2    0    0  0.00000000000E+00  0.00000000000E+00 -0.50291179052E+03  0.26395501814E+04  0.25911975785E+04 0.  0.
        1    1    3    3  502    0  0.89356730055E+03  0.27617572909E+03 -0.11647578373E+04  0.14937859196E+04  0.50400001928E-02 0. -1.
       -1    1    3    3    0  502 -0.89356730055E+03 -0.27617572909E+03  0.66184604680E+03  0.11457642618E+04  0.50400001928E-02 0.  1.
</event>
<event>
 5   0  0.5942229E-06  0.2601026E+04  0.7818609E-02  0.8367853E-01
        2   -1    0    0  501    0  0.00000000000E+00  0.00000000000E+00  0.17850105143E+04  0.17850105143E+04  0.25500000920E-02 0. -1.
       -2   -1    0    0    0  501  0.00000000000E+00  0.00000000000E+00 -0.94752031007E+03  0.94752031008E+03  0.25500000920E-02 0.  1.
    10030    2    1    2    0    0  0.00000000000E+00  0.00000000000E+00  0.83749020419E+03  0.27325308243E+04  0.26010257330E+04 0.  0.
        4    1    3    3  502    0 -0.16658920383E+03  0.11006071042E+04 -0.28774632472E+03  0.11497336739E+04  0.12699999809E+01 0.  1.
       -4    1    3    3    0  502  0.16658920383E+03 -0.11006071042E+04  0.11252365289E+04  0.15827971504E+04  0.12699999809E+01 0. -1.
</event>
<event>
 5   0  0.5940748E-06  0.2598876E+04  0.7818609E-02  0.8368583E-01
       -2   -1    0    0    0  501  0.00000000000E+00  0.00000000000E+00  0.94242714598E+03  0.94242714598E+03  0.25500000920E-02 0.  1.
        2   -1    0    0  501    0  0.00000000000E+00  0.00000000000E+00 -0.17916922084E+04  0.17916922084E+04  0.25500000920E-02 0. -1.
    10030    2    1    2    0    0  0.00000000000E+00  0.00000000000E+00 -0.84926506239E+03  0.27341193543E+04  0.25988761990E+04 0.  0.
        1    1    3    3  502    0 -0.56798935942E+03 -0.21955561492E+03  0.78302531301E+03  0.99194012990E+03  0.50400001928E-02 0.  1.
       -1    1    3    3    0  502  0.56798935942E+03  0.21955561492E+03 -0.16322903754E+04  0.17421792244E+04  0.50400001928E-02 0. -1.
</event>
<event>
 5   0  0.6173140E-06  0.2602407E+04  0.7818609E-02  0.8367384E-01
        2   -1    0    0  501    0  0.00000000000E+00  0.00000000000E+00  0.28765018680E+04  0.28765018680E+04  0.25500000920E-02 0. -1.
       -2   -1    0    0    0  501  0.00000000000E+00  0.00000000000E+00 -0.58860755660E+03  0.58860755660E+03  0.25500000920E-02 0.  1.
    10030    2    1    2    0    0  0.00000000000E+00  0.00000000000E+00  0.22878943114E+04  0.34651094246E+04  0.26024071442E+04 0.  0.
        3    1    3    3  502    0  0.61097374848E+03 -0.66946100269E+03 -0.99181875970E+02  0.91175874560E+03  0.10100000352E+00 0.  1.
       -3    1    3    3    0  502 -0.61097374848E+03  0.66946100269E+03  0.23870761874E+04  0.25533506790E+04  0.10100000352E+00 0. -1.
</event>
<event>
 5   0  0.6158063E-06  0.2601938E+04  0.7818609E-02  0.8367543E-01
       -2   -1    0    0    0  501  0.00000000000E+00  0.00000000000E+00  0.10481108047E+04  0.10481108047E+04  0.25500000920E-02 0.  1.
        2   -1    0    0  501    0  0.00000000000E+00  0.00000000000E+00 -0.16148292306E+04  0.16148292306E+04  0.25500000920E-02 0. -1.
    10030    2    1    2    0    0  0.00000000000E+00  0.00000000000E+00 -0.56671842598E+03  0.26629400353E+04  0.26019377120E+04 0.  0.
        2    1    3    3  502    0 -0.54429112962E+02 -0.64745114568E+03 -0.14368885847E+04  0.15769604685E+04  0.25500000920E-02 0. -1.
       -2    1    3    3    0  502  0.54429112962E+02  0.64745114568E+03  0.87017015871E+03  0.10859795668E+04  0.25500000920E-02 0.  1.
</event>
<event>
 5   0  0.5940748E-06  0.2596367E+04  0.7818609E-02  0.8369436E-01
       -2   -1    0    0    0  501  0.00000000000E+00  0.00000000000E+00  0.89177025467E+03  0.89177025468E+03  0.25500000920E-02 0.  1.
        2   -1    0    0  501    0  0.00000000000E+00  0.00000000000E+00 -0.18898152657E+04  0.18898152657E+04  0.25500000920E-02 0. -1.
    10030    2    1    2    0    0  0.00000000000E+00  0.00000000000E+00 -0.99804501107E+03  0.27815855204E+04  0.25963674939E+04 0.  0.
        1    1    3    3  502    0 -0.93012972144E+03 -0.73852121111E+03 -0.10605567727E+04  0.15922737033E+04  0.50400001928E-02 0. -1.
       -1    1    3    3    0  502  0.93012972144E+03  0.73852121111E+03  0.62511761671E+02  0.11893118171E+04  0.50400001928E-02 0.  1.
</event>
<event>
 5   0  0.6158063E-06  0.2602160E+04  0.7818609E-02  0.8367468E-01
        2   -1    0    0  501    0  0.00000000000E+00  0.00000000000E+00  0.24973520553E+04  0.24973520553E+04  0.25500000920E-02 0.  1.
       -2   -1    0    0    0  501  0.00000000000E+00  0.00000000000E+00 -0.67784159353E+03  0.67784159354E+03  0.25500000920E-02 0. -1.
    10030    2    1    2    0    0  0.00000000000E+00  0.00000000000E+00  0.18195104618E+04  0.31751936489E+04  0.26021599465E+04 0.  0.
        2    1    3    3  502    0 -0.43068492241E+02 -0.12900925175E+04  0.11088241825E+04  0.17016711393E+04  0.25500000920E-02 0.  1.
       -2    1    3    3    0  502  0.43068492241E+02  0.12900925175E+04  0.71068627929E+03  0.14735225096E+04  0.25500000920E-02 0. -1.
</event>
<event>
 5   0  0.2440590E-06  0.2598328E+04  0.7818609E-02  0.8368769E-01
        1   -1    0    0  501    0  0.00000000000E+00  0.00000000000E+00  0.13865048594E+04  0.13865048594E+04  0.50400001928E-02 0. -1.
       -1   -1    0    0    0  501  0.00000000000E+00  0.00000000000E+00 -0.12173250271E+04  0.12173250271E+04  0.50400001928E-02 0.  1.
    10030    2    1    2    0    0  0.00000000000E+00  0.00000000000E+00  0.16917983233E+03  0.26038298864E+04  0.25983279743E+04 0.  0.
        1    1    3    3  502    0 -0.25389290414E+03 -0.75002519640E+03  0.11167357326E+04  0.13689770263E+04  0.50400001928E-02 0. -1.
       -1    1    3    3    0  502  0.25389290414E+03  0.75002519640E+03 -0.94755590029E+03  0.12348528601E+04  0.50400001928E-02 0.  1.
</event>
<event>
 5   0  0.2503292E-06  0.2599497E+04  0.7818609E-02  0.8368372E-01
        1   -1    0    0  501    0  0.00000000000E+00  0.00000000000E+00  0.19865867738E+04  0.19865867738E+04  0.50400001928E-02 0.  1.
       -1   -1    0    0    0  501  0.00000000000E+00  0.00000000000E+00 -0.85037633083E+03  0.85037633084E+03  0.50400001928E-02 0. -1.
    10030    2    1    2    0    0  0.00000000000E+00  0.00000000000E+00  0.11362104430E+04  0.28369631046E+04  0.25994971603E+04 0.  0.
        2    1    3    3  502    0 -0.82779390947E+03 -0.51382030627E+03  0.15069791635E+04  0.17945027899E+04  0.25500000920E-02 0.  1.
       -2    1    3    3    0  502  0.82779390947E+03  0.51382030627E+03 -0.37076872054E+03  0.10424603147E+04  0.25500000920E-02 0. -1.
</event>
<event>
 5   0  0.2471488E-06  0.2601141E+04  0.7818609E-02  0.8367814E-01
        1   -1    0    0  501    0  0.00000000000E+00  0.00000000000E+00  0.18209115167E+04  0.18209115167E+04  0.50400001928E-02 0. -1.
       -1   -1    0    0    0  501  0.00000000000E+00  0.00000000000E+00 -0.92892133901E+03  0.92892133902E+03  0.50400001928E-02 0.  1.
    10030    2    1    2    0    0  0.00000000000E+00  0.00000000000E+00  0.89199017768E+03  0.27498328557E+04  0.26011409530E+04 0.  0.
        4    1    3    3  502    0  0.20142697996E+03 -0.95872500318E+03  0.13503218964E+04  0.16682617590E+04  0.12699999809E+01 0. -1.
       -4    1    3    3    0  502 -0.20142697996E+03  0.95872500318E+03 -0.45833171867E+03  0.10815710967E+04  0.12699999809E+01 0.  1.
</event>
<event>
 5   0  0.2456600E-06  0.2590436E+04  0.7818609E-02  0.8371457E-01
        1   -1    0    0  501    0  0.00000000000E+00  0.00000000000E+00  0.13750982651E+04  0.13750982651E+04  0.50400001928E-02 0.  1.
       -1   -1    0    0    0  501  0.00000000000E+00  0.00000000000E+00 -0.12199777014E+04  0.12199777014E+04  0.50400001928E-02 0. -1.
    10030    2    1    2    0    0  0.00000000000E+00  0.00000000000E+00  0.15512056371E+03  0.25950759665E+04  0.25904356549E+04 0.  0.
        5    1    3    3  502    0 -0.19390677065E+03 -0.10295247720E+04 -0.68541154054E+03  0.12519313726E+04  0.46999998093E+01 0. -1.
       -5    1    3    3    0  502  0.19390677065E+03  0.10295247720E+04  0.84053210425E+03  0.13431445939E+04  0.46999998093E+01 0.  1.
</event>
<event>
 5   0  0.6173140E-06  0.2598616E+04  0.7818609E-02  0.8368672E-01
        2   -1    0    0  501    0  0.00000000000E+00  0.00000000000E+00  0.10133510492E+04  0.10133510492E+04  0.25500000920E-02 0.  1.
       -2   -1    0    0    0  501  0.00000000000E+00  0.00000000000E+00 -0.16659584206E+04  0.16659584206E+04  0.25500000920E-02 0. -1.
    10030    2    1    2    0    0  0.00000000000E+00  0.00000000000E+00 -0.65260737139E+03  0.26793094698E+04  0.25986155648E+04 0.  0.
        3    1    3    3  502    0 -0.48820930131E+03  0.11079340125E+04 -0.81246945316E+03  0.14580715759E+04  0.10100000352E+00 0. -1.
       -3    1    3    3    0  502  0.48820930131E+03 -0.11079340125E+04  0.15986208177E+03  0.12212378938E+04  0.10100000352E+00 0.  1.
</event>
<event>
 5   0  0.2072125E-06  0.2596888E+04  0.7818609E-02  0.8369259E-01
       -3   -1    0    0    0  501  0.00000000000E+00  0.00000000000E+00  0.12150928250E+04  0.12150928291E+04  0.10100000352E+00 0.  1.
        3   -1    0    0  501    0  0.00000000000E+00  0.00000000000E+00 -0.13875122759E+04  0.13875122795E+04  0.10100000352E+00 0. -1.
    10030    2    1    2    0    0  0.00000000000E+00  0.00000000000E+00 -0.17241945090E+03  0.26026051087E+04  0.25968875379E+04 0.  0.
        5    1    3    3  502    0  0.58843887447E+03  0.10060534682E+04  0.48735289231E+03  0.12633047224E+04  0.46999998093E+01 0.  1.
       -5    1    3    3    0  502 -0.58843887447E+03 -0.10060534682E+04 -0.65977234321E+03  0.13393003863E+04  0.46999998093E+01 0. -1.
</event>
<event>
 5   0  0.6173140E-06  0.2600659E+04  0.7818609E-02  0.8367977E-01
        2   -1    0    0  501    0  0.00000000000E+00  0.00000000000E+00  0.16813411917E+04  0.16813411917E+04  0.25500000920E-02 0. -1.
       -2   -1    0    0    0  501  0.00000000000E+00  0.00000000000E+00 -0.10056596629E+04  0.10056596629E+04  0.25500000920E-02 0.  1.
    10030    2    1    2    0    0  0.00000000000E+00  0.00000000000E+00  0.67568152887E+03  0.26870008546E+04  0.26006591596E+04 0.  0.
        3    1    3    3  502    0  0.70200700666E+02 -0.42171003822E+03  0.16066546612E+04  0.16625602862E+04  0.10100000352E+00 0. -1.
       -3    1    3    3    0  502 -0.70200700666E+02  0.42171003822E+03 -0.93097313237E+03  0.10244405684E+04  0.10100000352E+00 0.  1.
</event>
<event>
 5   0  0.2333979E-06  0.2595457E+04  0.7818609E-02  0.8369746E-01
       -1   -1    0    0    0  501  0.00000000000E+00  0.00000000000E+00  0.13748756712E+04  0.13748756712E+04  0.50400001928E-02 0. -1.
        1   -1    0    0  501    0  0.00000000000E+00  0.00000000000E+00 -0.12249105550E+04  0.12249105550E+04  0.50400001928E-02 0.  1.
    10030    2    1    2    0    0  0.00000000000E+00  0.00000000000E+00  0.14996511614E+03  0.25997862262E+04  0.25954573558E+04 0.  0.
        3    1    3    3  502    0  0.46919986999E+03  0.76302928352E+03 -0.86559237005E+03  0.12456373336E+04  0.10100000352E+00 0.  1.
       -3    1    3    3    0  502 -0.46919986999E+03 -0.76302928352E+03  0.10155574862E+04  0.13541488926E+04  0.10100000352E+00 0. -1.
</event>
<event>
 5   0  0.2471488E-06  0.2601716E+04  0.7818609E-02  0.8367618E-01
       -1   -1    0    0    0  501  0.00000000000E+00  0.00000000000E+00  0.18201437596E+04  0.18201437596E+04  0.50400001928E-02 0. -1.
        1   -1    0    0  501    0  0.00000000000E+00  0.00000000000E+00 -0.92972433764E+03  0.92972433765E+03  0.50400001928E-02 0.  1.
    10030    2    1    2    0    0  0.00000000000E+00  0.00000000000E+00  0.89041942195E+03  0.27498680972E+04  0.26017163191E+04 0.  0.
        4    1    3    3  502    0 -0.11849098698E+04 -0.86504195369E+01  0.10125672030E+04  0.15586469076E+04  0.12699999809E+01 0.  1.
       -4    1    3    3    0  502  0.11849098698E+04  0.86504195369E+01 -0.12214778101E+03  0.11912211896E+04  0.12699999809E+01 0. -1.
</event>
<event>
 5   0  0.2456600E-06  0.2603702E+04  0.7818609E-02  0.8366945E-01
        1   -1    0    0  501    0  0.00000000000E+00  0.00000000000E+00  0.16186481016E+04  0.16186481016E+04  0.50400001928E-02 0. -1.
       -1   -1    0    0    0  501  0.00000000000E+00  0.00000000000E+00 -0.10470568344E+04  0.10470568344E+04  0.50400001928E-02 0.  1.
    10030    2    1    2    0    0  0.00000000000E+00  0.00000000000E+00  0.57159126714E+03  0.26657049360E+04  0.26037024080E+04 0.  0.
        5    1    3    3  502    0 -0.67249883228E+01 -0.53489265042E+03  0.15009196374E+04  0.15934042867E+04  0.46999998093E+01 0. -1.
       -5    1    3    3    0  502  0.67249883228E+01  0.53489265042E+03 -0.92932837021E+03  0.10723006494E+04  0.46999998093E+01 0.  1.
</event>
<event>
 5   0  0.5942229E-06  0.2609984E+04  0.7818609E-02  0.8364818E-01
        2   -1    0    0  501    0  0.00000000000E+00  0.00000000000E+00  0.18595379165E+04  0.18595379165E+04  0.25500000920E-02 0.  1.
       -2   -1    0    0    0  501  0.00000000000E+00  0.00000000000E+00 -0.91582084549E+03  0.91582084549E+03  0.25500000920E-02 0. -1.
    10030    2    1    2    0    0  0.00000000000E+00  0.00000000000E+00  0.94371707101E+03  0.27753587620E+04  0.26099835915E+04 0.  0.
        4    1    3    3  502    0 -0.22666875107E+02 -0.93845179707E+02  0.18557345949E+04  0.18582446569E+04  0.12699999809E+01 0.  1.
       -4    1    3    3    0  502  0.22666875107E+02  0.93845179707E+02 -0.91201752393E+03  0.91711410513E+03  0.12699999809E+01 0. -1.
</event>
<event>
 5   0  0.5942229E-06  0.2596671E+04  0.7818609E-02  0.8369333E-01
        2   -1    0    0  501    0  0.00000000000E+00  0.00000000000E+00  0.18060992086E+04  0.18060992086E+04  0.25500000920E-02 0.  1.
       -2   -1    0    0    0  501  0.00000000000E+00  0.00000000000E+00 -0.93332358680E+03  0.93332358680E+03  0.25500000920E-02 0. -1.
    10030    2    1    2    0    0  0.00000000000E+00  0.00000000000E+00  0.87277562182E+03  0.27394227954E+04  0.25966709391E+04 0.  0.
        4    1    3    3  502    0 -0.83768898055E+03  0.18582183064E+03  0.14643366924E+04  0.16972142300E+04  0.12699999809E+01 0.  1.
       -4    1    3    3    0  502  0.83768898055E+03 -0.18582183064E+03 -0.59156107053E+03  0.10422085655E+04  0.12699999809E+01 0. -1.
</event>
<event>
 5   0  0.6173140E-06  0.2622956E+04  0.7818609E-02  0.8360445E-01
        2   -1    0    0  501    0  0.00000000000E+00  0.00000000000E+00  0.16268381150E+04  0.16268381150E+04  0.25500000920E-02 0.  1.
       -2   -1    0    0    0  501  0.00000000000E+00  0.00000000000E+00 -0.10572500200E+04  0.10572500200E+04  0.25500000920E-02 0. -1.
    10030    2    1    2    0    0  0.00000000000E+00  0.00000000000E+00  0.56958809497E+03  0.26840881350E+04  0.26229560649E+04 0.  0.
        3    1    3    3  502    0 -0.51305612488E+03 -0.10001202957E+04  0.97619453206E+03  0.14887655852E+04  0.10100000352E+00 0.  1.
       -3    1    3    3    0  502  0.51305612488E+03  0.10001202957E+04 -0.40660643708E+03  0.11953225498E+04  0.10100000352E+00 0. -1.
</event>
<event>
 5   0  0.2440590E-06  0.2635509E+04  0.7818609E-02  0.8356239E-01
       -1   -1    0    0    0  501  0.00000000000E+00  0.00000000000E+00  0.14201332309E+04  0.14201332309E+04  0.50400001928E-02 0. -1.
        1   -1    0    0  501    0  0.00000000000E+00  0.00000000000E+00 -0.12227566312E+04  0.12227566312E+04  0.50400001928E-02 0.  1.
    10030    2    1    2    0    0  0.00000000000E+00  0.00000000000E+00  0.19737659973E+03  0.26428898621E+04  0.26355093058E+04 0.  0.
        1    1    3    3  502    0 -0.11538954281E+04  0.16476444436E+03 -0.51773251539E+03  0.12754093220E+04  0.50400001928E-02 0.  1.
       -1    1    3    3    0  502  0.11538954281E+04 -0.16476444436E+03  0.71510911513E+03  0.13674805401E+04  0.50400001928E-02 0. -1.
</event>
<event>
 5   0  0.5942229E-06  0.2594703E+04  0.7818609E-02  0.8370003E-01
       -2   -1    0    0    0  501  0.00000000000E+00  0.00000000000E+00  0.22685547774E+04  0.22685547774E+04  0.25500000920E-02 0.  1.
        2   -1    0    0  501    0  0.00000000000E+00  0.00000000000E+00 -0.74193531395E+03  0.74193531396E+03  0.25500000920E-02 0. -1.
    10030    2    1    2    0    0  0.00000000000E+00  0.00000000000E+00  0.15266194634E+04  0.30104900914E+04  0.25947029896E+04 0.  0.
        4    1    3    3  502    0  0.45130314249E+03 -0.78708593165E+03 -0.31261960895E+03  0.95964129914E+03  0.12699999809E+01 0. -1.
       -4    1    3    3    0  502 -0.45130314249E+03  0.78708593165E+03  0.18392390724E+04  0.20508487922E+04  0.12699999809E+01 0.  1.
</event>
<event>
 5   0  0.2471488E-06  0.2607665E+04  0.7818609E-02  0.8365602E-01
       -1   -1    0    0    0  501  0.00000000000E+00  0.00000000000E+00  0.30136243970E+04  0.30136243970E+04  0.50400001928E-02 0. -1.
        1   -1    0    0  501    0  0.00000000000E+00  0.00000000000E+00 -0.56409810325E+03  0.56409810327E+03  0.50400001928E-02 0.  1.
    10030    2    1    2    0    0  0.00000000000E+00  0.00000000000E+00  0.24495262938E+04  0.35777225003E+04  0.26076654742E+04 0.  0.
        4    1    3    3  502    0  0.90093025037E+03  0.76771716879E+03  0.47464902578E+03  0.12752875275E+04  0.12699999809E+01 0.  1.
       -4    1    3    3    0  502 -0.90093025037E+03 -0.76771716879E+03  0.19748772680E+04  0.23024349728E+04  0.12699999809E+01 0. -1.
</event>
<event>
 5   0  0.5940748E-06  0.2606176E+04  0.7818609E-02  0.8366107E-01
        2   -1    0    0  501    0  0.00000000000E+00  0.00000000000E+00  0.17204141445E+04  0.17204141445E+04  0.25500000920E-02 0.  1.
       -2   -1    0    0    0  501  0.00000000000E+00  0.00000000000E+00 -0.98699362943E+03  0.98699362944E+03  0.25500000920E-02 0. -1.
    10030    2    1    2    0    0  0.00000000000E+00  0.00000000000E+00  0.73342051502E+03  0.27074077739E+04  0.26061755893E+04 0.  0.
        1    1    3    3  502    0  0.10681552568E+04  0.64290982799E+03 -0.27159438257E+02  0.12470069505E+04  0.50400001928E-02 0. -1.
       -1    1    3    3    0  502 -0.10681552568E+04 -0.64290982799E+03  0.76057995328E+03  0.14604008234E+04  0.50400001928E-02 0.  1.
</event>
<event>
 5   0  0.6161834E-06  0.2547206E+04  0.7818609E-02  0.8386358E-01
       -2   -1    0    0    0  501  0.00000000000E+00  0.00000000000E+00  0.14202554544E+04  0.14202554544E+04  0.25500000920E-02 0.  1.
        2   -1    0    0  501    0  0.00000000000E+00  0.00000000000E+00 -0.11420939642E+04  0.11420939642E+04  0.25500000920E-02 0. -1.
    10030    2    1    2    0    0  0.00000000000E+00  0.00000000000E+00  0.27816149019E+03  0.25623494186E+04  0.25472064558E+04 0.  0.
        5    1    3    3  502    0 -0.87979037501E+03  0.38104629615E+02  0.10646375634E+04  0.13816505702E+04  0.46999998093E+01 0.  1.
       -5    1    3    3    0  502  0.87979037501E+03 -0.38104629615E+02 -0.78647607322E+03  0.11806988484E+04  0.46999998093E+01 0. -1.
</event>
<event>
 5   0  0.2440590E-06  0.2612838E+04  0.7818609E-02  0.8363854E-01
       -1   -1    0    0    0  501  0.00000000000E+00  0.00000000000E+00  0.14831613162E+04  0.14831613162E+04  0.50400001928E-02 0.  1.
        1   -1    0    0  501    0  0.00000000000E+00  0.00000000000E+00 -0.11507381121E+04  0.11507381121E+04  0.50400001928E-02 0. -1.
    10030    2    1    2    0    0  0.00000000000E+00  0.00000000000E+00  0.33242320406E+03  0.26338994284E+04  0.26128377317E+04 0.  0.
        1    1    3    3  502    0  0.91290392843E+00 -0.48325909033E+03 -0.10573226752E+04  0.11625280304E+04  0.50400001928E-02 0. -1.
       -1    1    3    3    0  502 -0.91290392843E+00  0.48325909033E+03  0.13897458793E+04  0.14713713980E+04  0.50400001928E-02 0.  1.
</event>
<event>
 5   0  0.2440590E-06  0.2598976E+04  0.7818609E-02  0.8368549E-01
       -1   -1    0    0    0  501  0.00000000000E+00  0.00000000000E+00  0.78670399450E+03  0.78670399451E+03  0.50400001928E-02 0. -1.
        1   -1    0    0  501    0  0.00000000000E+00  0.00000000000E+00 -0.21465113647E+04  0.21465113647E+04  0.50400001928E-02 0.  1.
    10030    2    1    2    0    0  0.00000000000E+00  0.00000000000E+00 -0.13598073702E+04  0.29332153593E+04  0.25989760021E+04 0.  0.
        1    1    3    3  502    0 -0.11712567479E+03  0.16423658445E+03  0.76892572149E+03  0.79494581235E+03  0.50400001928E-02 0. -1.
       -1    1    3    3    0  502  0.11712567479E+03 -0.16423658445E+03 -0.21287330917E+04  0.21382695469E+04  0.50400001928E-02 0.  1.
</event>
<event>
 5   0  0.2471488E-06  0.2610955E+04  0.7818609E-02  0.8364489E-01
        1   -1    0    0  501    0  0.00000000000E+00  0.00000000000E+00  0.19584290081E+04  0.19584290081E+04  0.50400001928E-02 0. -1.
       -1   -1    0    0    0  501  0.00000000000E+00  0.00000000000E+00 -0.87022387983E+03  0.87022387984E+03  0.50400001928E-02 0.  1.
    10030    2    1    2    0    0  0.00000000000E+00  0.00000000000E+00  0.10882051283E+04  0.28286528879E+04  0.26109551431E+04 0.  0.
        4    1    3    3  502    0  0.86987616515E+03 -0.91714848022E+03  0.19067497955E+03  0.12783600581E+04  0.12699999809E+01 0.  1.
       -4    1    3    3    0  502 -0.86987616515E+03  0.91714848022E+03  0.89753014871E+03  0.15502928298E+04  0.12699999809E+01 0. -1.
</event>
<event>
 5   0  0.5942229E-06  0.2613166E+04  0.7818609E-02  0.8363743E-01
        2   -1    0    0  501    0  0.00000000000E+00  0.00000000000E+00  0.19113424260E+04  0.19113424260E+04  0.25500000920E-02 0.  1.
       -2   -1    0    0    0  501  0.00000000000E+00  0.00000000000E+00 -0.89317257093E+03  0.89317257094E+03  0.25500000920E-02 0. -1.
    10030    2    1    2    0    0  0.00000000000E+00  0.00000000000E+00  0.10181698550E+04  0.28045149969E+04  0.26131656117E+04 0.  0.
        4    1    3    3  502    0 -0.54579232627E+02  0.74762854319E+03  0.16576011411E+04  0.18192224953E+04  0.12699999809E+01 0.  1.
       -4    1    3    3    0  502  0.54579232627E+02 -0.74762854319E+03 -0.63943128612E+03  0.98529250164E+03  0.12699999809E+01 0. -1.
</event>
<event>
 5   0  0.2440590E-06  0.2595669E+04  0.7818609E-02  0.8369674E-01
        1   -1    0    0  501    0  0.00000000000E+00  0.00000000000E+00  0.19586156643E+04  0.19586156643E+04  0.50400001928E-02 0.  1.
       -1   -1    0    0    0  501  0.00000000000E+00  0.00000000000E+00 -0.85998220007E+03  0.85998220009E+03  0.50400001928E-02 0. -1.
    10030    2    1    2    0    0  0.00000000000E+00  0.00000000000E+00  0.10986334643E+04  0.28185978644E+04  0.25956691685E+04 0.  0.
        1    1    3    3  502    0 -0.67382475429E+03  0.10460565179E+04  0.94991932140E+03  0.15654458647E+04  0.50400001928E-02 0.  1.
       -1    1    3    3    0  502  0.67382475429E+03 -0.10460565179E+04  0.14871414285E+03  0.12531519997E+04  0.50400001928E-02 0. -1.
</event>
<event>
 5   0  0.5940748E-06  0.2587346E+04  0.7818609E-02  0.8372512E-01
       -2   -1    0    0    0  501  0.00000000000E+00  0.00000000000E+00  0.14129247557E+04  0.14129247557E+04  0.25500000920E-02 0. -1.
        2   -1    0    0  501    0  0.00000000000E+00  0.00000000000E+00 -0.11844865352E+04  0.11844865352E+04  0.25500000920E-02 0.  1.
    10030    2    1    2    0    0  0.00000000000E+00  0.00000000000E+00  0.22843822050E+03  0.25974112909E+04  0.25873464000E+04 0.  0.
        1    1    3    3  502    0  0.12877194900E+04  0.40302817940E+02 -0.34740841406E+01  0.12883547149E+04  0.50400001928E-02 0. -1.
       -1    1    3    3    0  502 -0.12877194900E+04 -0.40302817940E+02  0.23191230464E+03  0.13090565760E+04  0.50400001928E-02 0.  1.
</event>
<event>
 5   0  0.2072125E-06  0.2622030E+04  0.7818609E-02  0.8360756E-01
       -3   -1    0    0    0  501  0.00000000000E+00  0.00000000000E+00  0.33528835399E+04  0.33528835414E+04  0.10100000352E+00 0. -1.
        3   -1    0    0  501    0  0.00000000000E+00  0.00000000000E+00 -0.51262145094E+03  0.51262146089E+03  0.10100000352E+00 0.  1.
    10030    2    1    2    0    0  0.00000000000E+00  0.00000000000E+00  0.28402620889E+04  0.38655050023E+04  0.26220297841E+04 0.  0.
        1    1    3    3  502    0  0.91256620097E+03 -0.11182013491E+03  0.27979587430E+04  0.29451407337E+04  0.50400001928E-02 0. -1.
       -1    1    3    3    0  502 -0.91256620097E+03  0.11182013491E+03  0.42303345889E+02  0.92036426855E+03  0.50400001928E-02 0.  1.
</event>
<event>
 5   0  0.2456600E-06  0.2611758E+04  0.7818609E-02  0.8364218E-01
        1   -1    0    0  501    0  0.00000000000E+00  0.00000000000E+00  0.14455659090E+04  0.14455659090E+04  0.50400001928E-02 0. -1.
       -1   -1    0    0    0  501  0.00000000000E+00  0.00000000000E+00 -0.11796902674E+04  0.11796902674E+04  0.50400001928E-02 0.  1.
    10030    2    1    2    0    0  0.00000000000E+00  0.00000000000E+00  0.26587564161E+03  0.26252561764E+04  0.26117580544E+04 0.  0.
        5    1    3    3  502    0  0.71633762679E+03 -0.10622556854E+04  0.38677256384E+03  0.13383354747E+04  0.46999998093E+01 0. -1.
       -5    1    3    3    0  502 -0.71633762679E+03  0.10622556854E+04 -0.12089692223E+03  0.12869207017E+04  0.46999998093E+01 0.  1.
</event>
<event>
 5   0  0.6173140E-06  0.2602313E+04  0.7818609E-02  0.8367416E-01
        2   -1    0    0  501    0  0.00000000000E+00  0.00000000000E+00  0.22454062029E+04  0.22454062029E+04  0.25500000920E-02 0.  1.
       -2   -1    0    0    0  501  0.00000000000E+00  0.00000000000E+00 -0.75398726858E+03  0.75398726859E+03  0.25500000920E-02 0. -1.
    10030    2    1    2    0    0  0.00000000000E+00  0.00000000000E+00  0.14914189343E+04  0.29993934715E+04  0.26023125790E+04 0.  0.
        3    1    3    3  502    0  0.47850415500E+02 -0.12975766692E+04  0.84223003226E+03  0.15476906384E+04  0.10100000352E+00 0. -1.
       -3    1    3    3    0  502 -0.47850415500E+02  0.12975766692E+04  0.64918890202E+03  0.14517028330E+04  0.10100000352E+00 0.  1.
</event>
<event>
 5   0  0.2440590E-06  0.2598510E+04  0.7818609E-02  0.8368707E-01
        1   -1    0    0  501    0  0.00000000000E+00  0.00000000000E+00  0.29117537516E+04  0.29117537517E+04  0.50400001928E-02 0. -1.
       -1   -1    0    0    0  501  0.00000000000E+00  0.00000000000E+00 -0.57974133993E+03  0.57974133995E+03  0.50400001928E-02 0.  1.
    10030    2    1    2    0    0  0.00000000000E+00  0.00000000000E+00  0.23320124117E+04  0.34914950916E+04  0.25985103591E+04 0.  0.
        1    1    3    3  502    0  0.65240217529E+03 -0.63838070037E+03  0.24083621438E+04  0.25755323202E+04  0.50400001928E-02 0. -1.
       -1    1    3    3    0  502 -0.65240217529E+03  0.63838070037E+03 -0.76349732062E+02  0.91596277138E+03  0.50400001928E-02 0.  1.
</event>
<event>
 5   0  0.2456600E-06  0.2613314E+04  0.7818609E-02  0.8363693E-01
       -1   -1    0    0    0  501  0.00000000000E+00  0.00000000000E+00  0.73942895779E+03  0.73942895781E+03  0.50400001928E-02 0. -1.
        1   -1    0    0  501    0  0.00000000000E+00  0.00000000000E+00 -0.23090149773E+04  0.23090149773E+04  0.50400001928E-02 0.  1.
    10030    2    1    2    0    0  0.00000000000E+00  0.00000000000E+00 -0.15695860195E+04  0.30484439351E+04  0.26133140173E+04 0.  0.
        5    1    3    3  502    0  0.85725064419E+03 -0.43270643122E+03  0.24887586788E+03  0.99200544868E+03  0.46999998093E+01 0. -1.
       -5    1    3    3    0  502 -0.85725064419E+03  0.43270643122E+03 -0.18184618874E+04  0.20564384864E+04  0.46999998093E+01 0.  1.
</event>
<event>
 5   0  0.6161834E-06  0.2622078E+04  0.7818609E-02  0.8360740E-01
       -2   -1    0    0    0  501  0.00000000000E+00  0.00000000000E+00  0.10414944907E+04  0.10414944907E+04  0.25500000920E-02 0.  1.
        2   -1    0    0  501    0  0.00000000000E+00  0.00000000000E+00 -0.16503428641E+04  0.16503428641E+04  0.25500000920E-02 0. -1.
    10030    2    1    2    0    0  0.00000000000E+00  0.00000000000E+00 -0.60884837347E+03  0.26918373548E+04  0.26220778026E+04 0.  0.
        5    1    3    3  502    0 -0.18394121338E+03 -0.11315099285E+03 -0.16319488474E+04  0.16461824466E+04  0.46999998093E+01 0. -1.
       -5    1    3    3    0  502  0.18394121338E+03  0.11315099285E+03  0.10231004739E+04  0.10456549081E+04  0.46999998093E+01 0.  1.
</event>
<event>
 5   0  0.2440590E-06  0.2608289E+04  0.7818609E-02  0.8365391E-01
        1   -1    0    0  501    0  0.00000000000E+00  0.00000000000E+00  0.14902458693E+04  0.14902458693E+04  0.50400001928E-02 0. -1.
       -1   -1    0    0    0  501  0.00000000000E+00  0.00000000000E+00 -0.11412832016E+04  0.11412832016E+04  0.50400001928E-02 0.  1.
    10030    2    1    2    0    0  0.00000000000E+00  0.00000000000E+00  0.34896266768E+03  0.26315290709E+04  0.26082887700E+04 0.  0.
        1    1    3    3  502    0 -0.95497519876E+03  0.42223823809E+03  0.96280749645E+03  0.14203031490E+04  0.50400001928E-02 0.  1.
       -1    1    3    3    0  502  0.95497519876E+03 -0.42223823809E+03 -0.61384482876E+03  0.12112259219E+04  0.50400001928E-02 0. -1.
</event>
<event>
 5   0  0.2456600E-06  0.2583652E+04  0.7818609E-02  0.8373776E-01
       -1   -1    0    0    0  501  0.00000000000E+00  0.00000000000E+00  0.11016404840E+04  0.11016404840E+04  0.50400001928E-02 0.  1.
        1   -1    0    0  501    0  0.00000000000E+00  0.00000000000E+00 -0.15148442909E+04  0.15148442909E+04  0.50400001928E-02 0. -1.
    10030    2    1    2    0    0  0.00000000000E+00  0.00000000000E+00 -0.41320380685E+03  0.26164847749E+04  0.25836515228E+04 0.  0.
        5    1    3    3  502    0  0.94774293678E+03 -0.79731837423E+03  0.16529567218E+03  0.12495111097E+04  0.46999998093E+01 0.  1.
       -5    1    3    3    0  502 -0.94774293678E+03  0.79731837423E+03 -0.57849947903E+03  0.13669736652E+04  0.46999998093E+01 0. -1.
</event>
<event>
 5   0  0.2333979E-06  0.2604607E+04  0.7818609E-02  0.8366638E-01
        1   -1    0    0  501    0  0.00000000000E+00  0.00000000000E+00  0.16939660063E+04  0.16939660063E+04  0.50400001928E-02 0. -1.
       -1   -1    0    0    0  501  0.00000000000E+00  0.00000000000E+00 -0.10011976466E+04  0.10011976466E+04  0.50400001928E-02 0.  1.
    10030    2    1    2    0    0  0.00000000000E+00  0.00000000000E+00  0.69276835964E+03  0.26951636529E+04  0.26046072863E+04 0.  0.
        3    1    3    3  502    0  0.22091903489E+03  0.88822340761E+03 -0.61224241636E+03  0.11011752033E+04  0.10100000352E+00 0.  1.
       -3    1    3    3    0  502 -0.22091903489E+03 -0.88822340761E+03  0.13050107760E+04  0.15939884496E+04  0.10100000352E+00 0. -1.
</event>
<event>
 5   0  0.5942229E-06  0.2584129E+04  0.7818609E-02  0.8373612E-01
        2   -1    0    0  501    0  0.00000000000E+00  0.00000000000E+00  0.13995662868E+04  0.13995662868E+04  0.25500000920E-02 0. -1.
       -2   -1    0    0    0  501  0.00000000000E+00  0.00000000000E+00 -0.11928196139E+04  0.11928196139E+04  0.25500000920E-02 0.  1.
    10030    2    1    2    0    0  0.00000000000E+00  0.00000000000E+00  0.20674667285E+03  0.25923859007E+04  0.25841285710E+04 0.  0.
        4    1    3    3  502    0 -0.11472652803E+04  0.18017860986E+03 -0.46478126712E+03  0.12508817666E+04  0.12699999809E+01 0.  1.
       -4    1    3    3    0  502  0.11472652803E+04 -0.18017860986E+03  0.67152793997E+03  0.13415041341E+04  0.12699999809E+01 0. -1.
</event>
<event>
 5   0  0.2503292E-06  0.2605176E+04  0.7818609E-02  0.8366445E-01
       -1   -1    0    0    0  501  0.00000000000E+00  0.00000000000E+00  0.10719058997E+04  0.10719058997E+04  0.50400001928E-02 0.  1.
        1   -1    0    0  501    0  0.00000000000E+00  0.00000000000E+00 -0.15829146935E+04  0.15829146935E+04  0.50400001928E-02 0. -1.
    10030    2    1    2    0    0  0.00000000000E+00  0.00000000000E+00 -0.51100879382E+03  0.26548205932E+04  0.26051760775E+04 0.  0.
        2    1    3    3  502    0 -0.86888500170E+03  0.72528689887E+03  0.40155637179E+03  0.12009370307E+04  0.25500000920E-02 0.  1.
       -2    1    3    3    0  502  0.86888500170E+03 -0.72528689887E+03 -0.91256516562E+03  0.14538835625E+04  0.25500000920E-02 0. -1.
</event>
<event>
 5   0  0.2072125E-06  0.2599744E+04  0.7818609E-02  0.8368288E-01
       -3   -1    0    0    0  501  0.00000000000E+00  0.00000000000E+00  0.16840610116E+04  0.16840610147E+04  0.10100000352E+00 0.  1.
        3   -1    0    0  501    0  0.00000000000E+00  0.00000000000E+00 -0.10033292244E+04  0.10033292295E+04  0.10100000352E+00 0. -1.
    10030    2    1    2    0    0  0.00000000000E+00  0.00000000000E+00  0.68073178723E+03  0.26873902442E+04  0.25997443256E+04 0.  0.
        4    1    3    3  502    0 -0.18823107903E+03 -0.65174619954E+03 -0.80582683416E+03  0.10533577489E+04  0.12699999809E+01 0. -1.
       -4    1    3    3    0  502  0.18823107903E+03  0.65174619954E+03  0.14865586214E+04  0.16340324952E+04  0.12699999809E+01 0.  1.
</event>
<event>
 5   0  0.5940748E-06  0.2599589E+04  0.7818609E-02  0.8368341E-01
        2   -1    0    0  501    0  0.00000000000E+00  0.00000000000E+00  0.11432473365E+04  0.11432473365E+04  0.25500000920E-02 0.  1.
       -2   -1    0    0    0  501  0.00000000000E+00  0.00000000000E+00 -0.14777785113E+04  0.14777785113E+04  0.25500000920E-02 0. -1.
    10030    2    1    2    0    0  0.00000000000E+00  0.00000000000E+00 -0.33453117474E+03  0.26210258478E+04  0.25995894653E+04 0.  0.
        1    1    3    3  502    0  0.26966523999E+03  0.10268126766E+04 -0.92338475327E+03  0.14070191957E+04  0.50400001928E-02 0. -1.
       -1    1    3    3    0  502 -0.26966523999E+03 -0.10268126766E+04  0.58885357853E+03  0.12140066521E+04  0.50400001928E-02 0.  1.
</event>
<event>
 5   0  0.5942229E-06  0.2593592E+04  0.7818609E-02  0.8370381E-01
       -2   -1    0    0    0  501  0.00000000000E+00  0.00000000000E+00  0.21138778721E+04  0.21138778721E+04  0.25500000920E-02 0. -1.
        2   -1    0    0  501    0  0.00000000000E+00  0.00000000000E+00 -0.79554277990E+03  0.79554277990E+03  0.25500000920E-02 0.  1.
    10030    2    1    2    0    0  0.00000000000E+00  0.00000000000E+00  0.13183350922E+04  0.29094206520E+04  0.25935923186E+04 0.  0.
        4    1    3    3  502    0 -0.58963599882E+03 -0.10177993691E+04  0.12716312127E+04  0.17322337373E+04  0.12699999809E+01 0. -1.
       -4    1    3    3    0  502  0.58963599882E+03  0.10177993691E+04  0.46703879490E+02  0.11771869146E+04  0.12699999809E+01 0.  1.
</event>
<event>
 5   0  0.5942229E-06  0.2601236E+04  0.7818609E-02  0.8367781E-01
        2   -1    0    0  501    0  0.00000000000E+00  0.00000000000E+00  0.14930985873E+04  0.14930985873E+04  0.25500000920E-02 0. -1.
       -2   -1    0    0    0  501  0.00000000000E+00  0.00000000000E+00 -0.11329508286E+04  0.11329508286E+04  0.25500000920E-02 0.  1.
    10030    2    1    2    0    0  0.00000000000E+00  0.00000000000E+00  0.36014775866E+03  0.26260494159E+04  0.26012360767E+04 0.  0.
        4    1    3    3  502    0  0.62537292789E+02  0.44205414557E+03 -0.10531692514E+04  0.11438924187E+04  0.12699999809E+01 0.  1.
       -4    1    3    3    0  502 -0.62537292789E+02 -0.44205414557E+03  0.14133170100E+04  0.14821569972E+04  0.12699999809E+01 0. -1.
</event>
<event>
 5   0  0.6158063E-06  0.2636457E+04  0.7818609E-02  0.8355922E-01
        2   -1    0    0  501    0  0.00000000000E+00  0.00000000000E+00  0.16630345336E+04  0.16630345336E+04  0.25500000920E-02 0.  1.
       -2   -1    0    0    0  501  0.00000000000E+00  0.00000000000E+00 -0.10449131995E+04  0.10449131995E+04  0.25500000920E-02 0. -1.
    10030    2    1    2    0    0  0.00000000000E+00  0.00000000000E+00  0.61812133417E+03  0.27079477331E+04  0.26364572709E+04 0.  0.
        2    1    3    3  502    0 -0.37844458028E+02 -0.27663378784E+03 -0.10141935013E+04  0.10519253366E+04  0.25500000920E-02 0. -1.
       -2    1    3    3    0  502  0.37844458028E+02  0.27663378784E+03  0.16323148355E+04  0.16560223965E+04  0.25500000920E-02 0.  1.
</event>
<event>
 5   0  0.6173140E-06  0.2592513E+04  0.7818609E-02  0.8370749E-01
       -2   -1    0    0    0  501  0.00000000000E+00  0.00000000000E+00  0.11720369550E+04  0.11720369550E+04  0.25500000920E-02 0. -1.
        2   -1    0    0  501    0  0.00000000000E+00  0.00000000000E+00 -0.14336418384E+04  0.14336418384E+04  0.25500000920E-02 0.  1.
    10030    2    1    2    0    0  0.00000000000E+00  0.00000000000E+00 -0.26160488343E+03  0.26056787934E+04  0.25925132322E+04 0.  0.
        3    1    3    3  502    0 -0.51211793465E+03  0.16239638800E+03 -0.13164727581E+04  0.14218782996E+04  0.10100000352E+00 0.  1.
       -3    1    3    3    0  502  0.51211793465E+03 -0.16239638800E+03  0.10548678747E+04  0.11838004938E+04  0.10100000352E+00 0. -1.
</event>
<event>
 5   0  0.2333979E-06  0.2601897E+04  0.7818609E-02  0.8367557E-01
       -1   -1    0    0    0  501  0.00000000000E+00  0.00000000000E+00  0.19284543207E+04  0.19284543207E+04  0.50400001928E-02 0. -1.
        1   -1    0    0  501    0  0.00000000000E+00  0.00000000000E+00 -0.87762862651E+03  0.87762862652E+03  0.50400001928E-02 0.  1.
    10030    2    1    2    0    0  0.00000000000E+00  0.00000000000E+00  0.10508256942E+04  0.28060829472E+04  0.26018967826E+04 0.  0.
        3    1    3    3  502    0 -0.89659570373E+03 -0.94033675634E+03  0.45428545853E+03  0.13764055940E+04  0.10100000352E+00 0.  1.
       -3    1    3    3    0  502  0.89659570373E+03  0.94033675634E+03  0.59654023567E+03  0.14296773532E+04  0.10100000352E+00 0. -1.
</event>
<event>
 5   0  0.2471488E-06  0.2602848E+04  0.7818609E-02  0.8367235E-01
        1   -1    0    0  501    0  0.00000000000E+00  0.00000000000E+00  0.12988982251E+04  0.12988982251E+04  0.50400001928E-02 0. -1.
       -1   -1    0    0    0  501  0.00000000000E+00  0.00000000000E+00 -0.13039543849E+04  0.13039543849E+04  0.50400001928E-02 0.  1.
    10030    2    1    2    0    0  0.00000000000E+00  0.00000000000E+00 -0.50561598653E+01  0.26028526100E+04  0.26028476991E+04 0.  0.
        4    1    3    3  502    0 -0.36044039344E+03 -0.53623548945E+03 -0.11322366538E+04  0.13036208154E+04  0.12699999809E+01 0.  1.
       -4    1    3    3    0  502  0.36044039344E+03  0.53623548945E+03  0.11271804939E+04  0.12992317946E+04  0.12699999809E+01 0. -1.
</event>
<event>
 5   0  0.6173140E-06  0.2597777E+04  0.7818609E-02  0.8368957E-01
       -2   -1    0    0    0  501  0.00000000000E+00  0.00000000000E+00  0.15191912262E+04  0.15191912262E+04  0.25500000920E-02 0. -1.
        2   -1    0    0  501    0  0.00000000000E+00  0.00000000000E+00 -0.11105328296E+04  0.11105328296E+04  0.25500000920E-02 0.  1.
    10030    2    1    2    0    0  0.00000000000E+00  0.00000000000E+00  0.40865839657E+03  0.26297240559E+04  0.25977773047E+04 0.  0.
        3    1    3    3  502    0 -0.55618694005E+03  0.23573792886E+03  0.13683375276E+04  0.14957486029E+04  0.10100000352E+00 0. -1.
       -3    1    3    3    0  502  0.55618694005E+03 -0.23573792886E+03 -0.95967913100E+03  0.11339754530E+04  0.10100000352E+00 0.  1.
</event>
<event>
 5   0  0.6158063E-06  0.2618932E+04  0.7818609E-02  0.8361799E-01
       -2   -1    0    0    0  501  0.00000000000E+00  0.00000000000E+00  0.93102239728E+03  0.93102239728E+03  0.25500000920E-02 0. -1.
        2   -1    0    0  501    0  0.00000000000E+00  0.00000000000E+00 -0.18417403832E+04  0.18417403832E+04  0.25500000920E-02 0.  1.
    10030    2    1    2    0    0  0.00000000000E+00  0.00000000000E+00 -0.91071798591E+03  0.27727627805E+04  0.26189322608E+04 0.  0.
        2    1    3    3  502    0 -0.11217413452E+04  0.43466278840E+03  0.92189859238E+02  0.12065381698E+04  0.25500000920E-02 0. -1.
       -2    1    3    3    0  502  0.11217413452E+04 -0.43466278840E+03 -0.10029078452E+04  0.15662246106E+04  0.25500000920E-02 0.  1.
</event>
<event>
 5   0  0.2440590E-06  0.2599219E+04  0.7818609E-02  0.8368466E-01
        1   -1    0    0  501    0  0.00000000000E+00  0.00000000000E+00  0.15616070646E+04  0.15616070646E+04  0.50400001928E-02 0.  1.
       -1   -1    0    0    0  501  0.00000000000E+00  0.00000000000E+00 -0.10815687832E+04  0.10815687832E+04  0.50400001928E-02 0. -1.
    10030    2    1    2    0    0  0.00000000000E+00  0.00000000000E+00  0.48003828141E+03  0.26431758478E+04  0.25992194619E+04 0.  0.
        1    1    3    3  502    0  0.95586168664E+03 -0.44857453069E+03  0.10105231551E+04  0.14615223983E+04  0.50400001928E-02 0.  1.
       -1    1    3    3    0  502 -0.95586168664E+03  0.44857453069E+03 -0.53048487373E+03  0.11816534496E+04  0.50400001928E-02 0. -1.
</event>
<event>
 5   0  0.5940748E-06  0.2591577E+04  0.7818609E-02  0.8371068E-01
       -2   -1    0    0    0  501  0.00000000000E+00  0.00000000000E+00  0.11868016873E+04  0.11868016873E+04  0.25500000920E-02 0. -1.
        2   -1    0    0  501    0  0.00000000000E+00  0.00000000000E+00 -0.14147834475E+04  0.14147834475E+04  0.25500000920E-02 0.  1.
    10030    2    1    2    0    0  0.00000000000E+00  0.00000000000E+00 -0.22798176026E+03  0.26015851348E+04  0.25915766496E+04 0.  0.
        1    1    3    3  502    0  0.18332392502E+03  0.88948266939E+03 -0.10418332067E+04  0.13821011220E+04  0.50400001928E-02 0.  1.
       -1    1    3    3    0  502 -0.18332392502E+03 -0.88948266939E+03  0.81385144647E+03  0.12194840128E+04  0.50400001928E-02 0. -1.
</event>
<event>
 5   0  0.2503292E-06  0.2599335E+04  0.7818609E-02  0.8368427E-01
       -1   -1    0    0    0  501  0.00000000000E+00  0.00000000000E+00  0.94767649465E+03  0.94767649466E+03  0.50400001928E-02 0.  1.
        1   -1    0    0  501    0  0.00000000000E+00  0.00000000000E+00 -0.17823962773E+04  0.17823962773E+04  0.50400001928E-02 0. -1.
    10030    2    1    2    0    0  0.00000000000E+00  0.00000000000E+00 -0.83471978266E+03  0.27300727720E+04  0.25993345734E+04 0.  0.
        2    1    3    3  502    0  0.23412825408E+03  0.12452280981E+04 -0.11345183458E+03  0.12721164940E+04  0.25500000920E-02 0.  1.
       -2    1    3    3    0  502 -0.23412825408E+03 -0.12452280981E+04 -0.72126794808E+03  0.14579562780E+04  0.25500000920E-02 0. -1.
</event>
<event>
 5   0  0.6161834E-06  0.2594799E+04  0.7818609E-02  0.8369970E-01
        2   -1    0    0  501    0  0.00000000000E+00  0.00000000000E+00  0.17499716884E+04  0.17499716884E+04  0.25500000920E-02 0. -1.
       -2   -1    0    0    0  501  0.00000000000E+00  0.00000000000E+00 -0.96187024907E+03  0.96187024907E+03  0.25500000920E-02 0.  1.
    10030    2    1    2    0    0  0.00000000000E+00  0.00000000000E+00  0.78810143931E+03  0.27118419374E+04  0.25947991859E+04 0.  0.
        5    1    3    3  502    0 -0.84047495162E+03  0.28228778731E+03 -0.59584741516E+03  0.10682419067E+04  0.46999998093E+01 0.  1.
       -5    1    3    3    0  502  0.84047495162E+03 -0.28228778731E+03  0.13839488545E+04  0.16436000307E+04  0.46999998093E+01 0. -1.
</event>
<event>
 5   0  0.2503292E-06  0.2607565E+04  0.7818609E-02  0.8365636E-01
       -1   -1    0    0    0  501  0.00000000000E+00  0.00000000000E+00  0.16948892874E+04  0.16948892874E+04  0.50400001928E-02 0. -1.
        1   -1    0    0  501    0  0.00000000000E+00  0.00000000000E+00 -0.10029259549E+04  0.10029259549E+04  0.50400001928E-02 0.  1.
    10030    2    1    2    0    0  0.00000000000E+00  0.00000000000E+00  0.69196333251E+03  0.26978152423E+04  0.26075647314E+04 0.  0.
        2    1    3    3  502    0 -0.53032032014E+03 -0.97257108901E+02 -0.88218045305E+03  0.10338960001E+04  0.25500000920E-02 0.  1.
       -2    1    3    3    0  502  0.53032032014E+03  0.97257108901E+02  0.15741437856E+04  0.16639192423E+04  0.25500000920E-02 0. -1.
</event>
<event>
 5   0  0.2333979E-06  0.2604514E+04  0.7818609E-02  0.8366670E-01
        1   -1    0    0  501    0  0.00000000000E+00  0.00000000000E+00  0.13102413110E+04  0.13102413110E+04  0.50400001928E-02 0.  1.
       -1   -1    0    0    0  501  0.00000000000E+00  0.00000000000E+00 -0.12943212550E+04  0.12943212550E+04  0.50400001928E-02 0. -1.
    10030    2    1    2    0    0  0.00000000000E+00  0.00000000000E+00  0.15920055945E+02  0.26045625660E+04  0.26045139109E+04 0.  0.
        3    1    3    3  502    0  0.57015002297E+03 -0.96814385277E+03  0.66637919237E+03  0.13063057860E+04  0.10100000352E+00 0.  1.
       -3    1    3    3    0  502 -0.57015002297E+03  0.96814385277E+03 -0.65045913643E+03  0.12982567800E+04  0.10100000352E+00 0. -1.
</event>
<event>
 5   0  0.2456600E-06  0.2598176E+04  0.7818609E-02  0.8368821E-01
        1   -1    0    0  501    0  0.00000000000E+00  0.00000000000E+00  0.21649273759E+04  0.21649273760E+04  0.50400001928E-02 0. -1.
       -1   -1    0    0    0  501  0.00000000000E+00  0.00000000000E+00 -0.77953201622E+03  0.77953201624E+03  0.50400001928E-02 0.  1.
    10030    2    1    2    0    0  0.00000000000E+00  0.00000000000E+00  0.13853953597E+04  0.29444593922E+04  0.25981764393E+04 0.  0.
        5    1    3    3  502    0 -0.22985104563E+03 -0.94487676675E+02  0.21377281058E+04  0.21521298679E+04  0.46999998093E+01 0. -1.
       -5    1    3    3    0  502  0.22985104563E+03  0.94487676675E+02 -0.75233274606E+03  0.79232952425E+03  0.46999998093E+01 0.  1.
</event>
<event>
 5   0  0.5940748E-06  0.2613379E+04  0.7818609E-02  0.8363671E-01
       -2   -1    0    0    0  501  0.00000000000E+00  0.00000000000E+00  0.75811975086E+03  0.75811975087E+03  0.25500000920E-02 0.  1.
        2   -1    0    0  501    0  0.00000000000E+00  0.00000000000E+00 -0.22522002224E+04  0.22522002224E+04  0.25500000920E-02 0. -1.
    10030    2    1    2    0    0  0.00000000000E+00  0.00000000000E+00 -0.14940804715E+04  0.30103199733E+04  0.26133790169E+04 0.  0.
        1    1    3    3  502    0 -0.32402116629E+03 -0.40227276440E+03  0.63552502452E+03  0.81896590283E+03  0.50400001928E-02 0.  1.
       -1    1    3    3    0  502  0.32402116629E+03  0.40227276440E+03 -0.21296054961E+04  0.21913540704E+04  0.50400001928E-02 0. -1.
</event>
<event>
 5   0  0.2333979E-06  0.2617324E+04  0.7818609E-02  0.8362340E-01
       -1   -1    0    0    0  501  0.00000000000E+00  0.00000000000E+00  0.10146081231E+04  0.10146081231E+04  0.50400001928E-02 0. -1.
        1   -1    0    0  501    0  0.00000000000E+00  0.00000000000E+00 -0.16879381128E+04  0.16879381128E+04  0.50400001928E-02 0.  1.
    10030    2    1    2    0    0  0.00000000000E+00  0.00000000000E+00 -0.67332998973E+03  0.27025462360E+04  0.26173236106E+04 0.  0.
        3    1    3    3  502    0 -0.58226169308E+03 -0.56338743425E+03  0.72449508238E+03  0.10868887776E+04  0.10100000352E+00 0. -1.
       -3    1    3    3    0  502  0.58226169308E+03  0.56338743425E+03 -0.13978250721E+04  0.16156574584E+04  0.10100000352E+00 0.  1.
</event>
<event>
 5   0  0.6158063E-06  0.2535732E+04  0.7818609E-02  0.8390365E-01
       -2   -1    0    0    0  501  0.00000000000E+00  0.00000000000E+00  0.11186496157E+04  0.11186496157E+04  0.25500000920E-02 0.  1.
        2   -1    0    0  501    0  0.00000000000E+00  0.00000000000E+00 -0.14369859431E+04  0.14369859431E+04  0.25500000920E-02 0. -1.
    10030    2    1    2    0    0  0.00000000000E+00  0.00000000000E+00 -0.31833632741E+03  0.25556355588E+04  0.25357316679E+04 0.  0.
        2    1    3    3  502    0 -0.50581818267E+03 -0.87887831323E+03 -0.92619692239E+03  0.13733607911E+04  0.25500000920E-02 0. -1.
       -2    1    3    3    0  502  0.50581818267E+03  0.87887831323E+03  0.60786059498E+03  0.11822747677E+04  0.25500000920E-02 0.  1.
</event>
<event>
 5   0  0.2471488E-06  0.2590420E+04  0.7818609E-02  0.8371463E-01
        1   -1    0    0  501    0  0.00000000000E+00  0.00000000000E+00  0.13045244337E+04  0.13045244338E+04  0.50400001928E-02 0.  1.
       -1   -1    0    0    0  501  0.00000000000E+00  0.00000000000E+00 -0.12859621839E+04  0.12859621839E+04  0.50400001928E-02 0. -1.
    10030    2    1    2    0    0  0.00000000000E+00  0.00000000000E+00  0.18562249865E+02  0.25904866177E+04  0.25904201125E+04 0.  0.
        4    1    3    3  502    0 -0.64594930194E+03 -0.62632253779E+03  0.94099010661E+03  0.13019195120E+04  0.12699999809E+01 0.  1.
       -4    1    3    3    0  502  0.64594930194E+03  0.62632253779E+03 -0.92242785675E+03  0.12885671057E+04  0.12699999809E+01 0. -1.
</event>
<event>
 5   0  0.2456600E-06  0.2605442E+04  0.7818609E-02  0.8366355E-01
        1   -1    0    0  501    0  0.00000000000E+00  0.00000000000E+00  0.15191749212E+04  0.15191749212E+04  0.50400001928E-02 0.  1.
       -1   -1    0    0    0  501  0.00000000000E+00  0.00000000000E+00 -0.11171081015E+04  0.11171081015E+04  0.50400001928E-02 0. -1.
    10030    2    1    2    0    0  0.00000000000E+00  0.00000000000E+00  0.40206681968E+03  0.26362830227E+04  0.26054424669E+04 0.  0.
        5    1    3    3  502    0 -0.93093505371E+03  0.73357095193E+03 -0.34600846842E+03  0.12347106406E+04  0.46999998093E+01 0. -1.
       -5    1    3    3    0  502  0.93093505371E+03 -0.73357095193E+03  0.74807528810E+03  0.14015723822E+04  0.46999998093E+01 0.  1.
</event>
<event>
 5   0  0.6161834E-06  0.2585984E+04  0.7818609E-02  0.8372978E-01
        2   -1    0    0  501    0  0.00000000000E+00  0.00000000000E+00  0.19243463895E+04  0.19243463895E+04  0.25500000920E-02 0. -1.
       -2   -1    0    0    0  501  0.00000000000E+00  0.00000000000E+00 -0.86877705664E+03  0.86877705664E+03  0.25500000920E-02 0.  1.
    10030    2    1    2    0    0  0.00000000000E+00  0.00000000000E+00  0.10555693328E+04  0.27931234461E+04  0.25859837526E+04 0.  0.
        5    1    3    3  502    0  0.76778541904E+03  0.10306500024E+04  0.68080880179E+03  0.14543921726E+04  0.46999998093E+01 0. -1.
       -5    1    3    3    0  502 -0.76778541904E+03 -0.10306500024E+04  0.37476053102E+03  0.13387312735E+04  0.46999998093E+01 0.  1.
</event>
<event>
 5   0  0.2456600E-06  0.2584966E+04  0.7818609E-02  0.8373326E-01
       -1   -1    0    0    0  501  0.00000000000E+00  0.00000000000E+00  0.90716413393E+03  0.90716413394E+03  0.50400001928E-02 0.  1.
        1   -1    0    0  501    0  0.00000000000E+00  0.00000000000E+00 -0.18414667727E+04  0.18414667727E+04  0.50400001928E-02 0. -1.
    10030    2    1    2    0    0  0.00000000000E+00  0.00000000000E+00 -0.93430263874E+03  0.27486309066E+04  0.25849662358E+04 0.  0.
        5    1    3    3  502    0 -0.12083959371E+02 -0.32127752198E+03  0.86395702238E+03  0.92185090699E+03  0.46999998093E+01 0.  1.
       -5    1    3    3    0  502  0.12083959371E+02  0.32127752198E+03 -0.17982596611E+04  0.18267799996E+04  0.46999998093E+01 0. -1.
</event>
<event>
 5   0  0.2503292E-06  0.2600106E+04  0.7818609E-02  0.8368165E-01
        1   -1    0    0  501    0  0.00000000000E+00  0.00000000000E+00  0.14294182742E+04  0.14294182742E+04  0.50400001928E-02 0.  1.
       -1   -1    0    0    0  501  0.00000000000E+00  0.00000000000E+00 -0.11823951057E+04  0.11823951057E+04  0.50400001928E-02 0. -1.
    10030    2    1    2    0    0  0.00000000000E+00  0.00000000000E+00  0.24702316850E+03  0.26118133799E+04  0.26001055144E+04 0.  0.
        2    1    3    3  502    0 -0.65310959408E+03  0.11224089179E+04  0.18529667952E+03  0.13117502736E+04  0.25500000920E-02 0. -1.
       -2    1    3    3    0  502  0.65310959408E+03 -0.11224089179E+04  0.61726488974E+02  0.13000631063E+04  0.25500000920E-02 0.  1.
</event>
<event>
 5   0  0.5940748E-06  0.2595858E+04  0.7818609E-02  0.8369610E-01
        2   -1    0    0  501    0  0.00000000000E+00  0.00000000000E+00  0.10419141243E+04  0.10419141243E+04  0.25500000920E-02 0. -1.
       -2   -1    0    0    0  501  0.00000000000E+00  0.00000000000E+00 -0.16168507786E+04  0.16168507786E+04  0.25500000920E-02 0.  1.
    10030    2    1    2    0    0  0.00000000000E+00  0.00000000000E+00 -0.57493665425E+03  0.26587649029E+04  0.25958579801E+04 0.  0.
        1    1    3    3  502    0  0.75546968942E+03  0.41784798689E+03  0.70518695641E+03  0.11147286824E+04  0.50400001928E-02 0. -1.
       -1    1    3    3    0  502 -0.75546968942E+03 -0.41784798689E+03 -0.12801236107E+04  0.15440362206E+04  0.50400001928E-02 0.  1.
</event>
<event>
 5   0  0.2471488E-06  0.2599819E+04  0.7818609E-02  0.8368263E-01
       -1   -1    0    0    0  501  0.00000000000E+00  0.00000000000E+00  0.12869610089E+04  0.12869610089E+04  0.50400001928E-02 0. -1.
        1   -1    0    0  501    0  0.00000000000E+00  0.00000000000E+00 -0.13129880563E+04  0.13129880563E+04  0.50400001928E-02 0.  1.
    10030    2    1    2    0    0  0.00000000000E+00  0.00000000000E+00 -0.26027047477E+02  0.25999490652E+04  0.25998187888E+04 0.  0.
        4    1    3    3  502    0 -0.89862451481E+03  0.55256757200E+03 -0.77259478944E+03  0.13075783961E+04  0.12699999809E+01 0.  1.
       -4    1    3    3    0  502  0.89862451481E+03 -0.55256757200E+03  0.74656774196E+03  0.12923706692E+04  0.12699999809E+01 0. -1.
</event>
<event>
 5   0  0.5940748E-06  0.2593870E+04  0.7818609E-02  0.8370286E-01
        2   -1    0    0  501    0  0.00000000000E+00  0.00000000000E+00  0.91565344385E+03  0.91565344385E+03  0.25500000920E-02 0.  1.
       -2   -1    0    0    0  501  0.00000000000E+00  0.00000000000E+00 -0.18369838370E+04  0.18369838370E+04  0.25500000920E-02 0. -1.
    10030    2    1    2    0    0  0.00000000000E+00  0.00000000000E+00 -0.92133039317E+03  0.27526372809E+04  0.25938701407E+04 0.  0.
        1    1    3    3  502    0  0.10588983261E+04 -0.59073740272E+03 -0.94905667217E+03  0.15397872941E+04  0.50400001928E-02 0. -1.
       -1    1    3    3    0  502 -0.10588983261E+04  0.59073740272E+03  0.27726279002E+02  0.12128499868E+04  0.50400001928E-02 0.  1.
</event>
<event>
 5   0  0.5940748E-06  0.2528420E+04  0.7818609E-02  0.8392930E-01
        2   -1    0    0  501    0  0.00000000000E+00  0.00000000000E+00  0.11936541202E+04  0.11936541202E+04  0.25500000920E-02 0.  1.
       -2   -1    0    0    0  501  0.00000000000E+00  0.00000000000E+00 -0.13389365573E+04  0.13389365573E+04  0.25500000920E-02 0. -1.
    10030    2    1    2    0    0  0.00000000000E+00  0.00000000000E+00 -0.14528243712E+03  0.25325906775E+04  0.25284201695E+04 0.  0.
        1    1    3    3  502    0 -0.86307530199E+03 -0.40727997673E+03  0.75785314504E+03  0.12186539073E+04  0.50400001928E-02 0.  1.
       -1    1    3    3    0  502  0.86307530199E+03  0.40727997673E+03 -0.90313558216E+03  0.13139367702E+04  0.50400001928E-02 0. -1.
</event>
<event>
 5   0  0.2471488E-06  0.2604073E+04  0.7818609E-02  0.8366819E-01
       -1   -1    0    0    0  501  0.00000000000E+00  0.00000000000E+00  0.10040392190E+04  0.10040392190E+04  0.50400001928E-02 0.  1.
        1   -1    0    0  501    0  0.00000000000E+00  0.00000000000E+00 -0.16884784463E+04  0.16884784463E+04  0.50400001928E-02 0. -1.
    10030    2    1    2    0    0  0.00000000000E+00  0.00000000000E+00 -0.68443922732E+03  0.26925176654E+04  0.26040726415E+04 0.  0.
        4    1    3    3  502    0  0.30709711824E+03  0.75248234399E+03  0.70956060649E+03  0.10788958176E+04  0.12699999809E+01 0.  1.
       -4    1    3    3    0  502 -0.30709711824E+03 -0.75248234399E+03 -0.13939998338E+04  0.16136218478E+04  0.12699999809E+01 0. -1.
</event>
<event>
 5   0  0.2333979E-06  0.2596919E+04  0.7818609E-02  0.8369249E-01
       -1   -1    0    0    0  501  0.00000000000E+00  0.00000000000E+00  0.12965904950E+04  0.12965904950E+04  0.50400001928E-02 0.  1.
        1   -1    0    0  501    0  0.00000000000E+00  0.00000000000E+00 -0.13003311488E+04  0.13003311488E+04  0.50400001928E-02 0. -1.
    10030    2    1    2    0    0  0.00000000000E+00  0.00000000000E+00 -0.37406537807E+01  0.25969216438E+04  0.25969189497E+04 0.  0.
        3    1    3    3  502    0 -0.12678879425E+04  0.34844281150E+02  0.27605628080E+03  0.12980604913E+04  0.10100000352E+00 0.  1.
       -3    1    3    3    0  502  0.12678879425E+04 -0.34844281150E+02 -0.27979693458E+03  0.12988611525E+04  0.10100000352E+00 0. -1.
</event>
<event>
 5   0  0.5942229E-06  0.2609495E+04  0.7818609E-02  0.8364983E-01
        2   -1    0    0  501    0  0.00000000000E+00  0.00000000000E+00  0.11639809831E+04  0.11639809831E+04  0.25500000920E-02 0.  1.
       -2   -1    0    0    0  501  0.00000000000E+00  0.00000000000E+00 -0.14625375623E+04  0.14625375623E+04  0.25500000920E-02 0. -1.
    10030    2    1    2    0    0  0.00000000000E+00  0.00000000000E+00 -0.29855657912E+03  0.26265185454E+04  0.26094949010E+04 0.  0.
        4    1    3    3  502    0 -0.81366922301E+03  0.55804694010E+03 -0.10085986578E+04  0.14109382896E+04  0.12699999809E+01 0. -1.
       -4    1    3    3    0  502  0.81366922301E+03 -0.55804694010E+03  0.71004207867E+03  0.12155802558E+04  0.12699999809E+01 0.  1.
</event>
<event>
 5   0  0.2471488E-06  0.2596436E+04  0.7818609E-02  0.8369413E-01
        1   -1    0    0  501    0  0.00000000000E+00  0.00000000000E+00  0.14597880277E+04  0.14597880277E+04  0.50400001928E-02 0.  1.
       -1   -1    0    0    0  501  0.00000000000E+00  0.00000000000E+00 -0.11545302788E+04  0.11545302788E+04  0.50400001928E-02 0. -1.
    10030    2    1    2    0    0  0.00000000000E+00  0.00000000000E+00  0.30525774885E+03  0.26143183065E+04  0.25964356173E+04 0.  0.
        4    1    3    3  502    0 -0.51229676419E+03  0.55135687838E+03 -0.91244930817E+03  0.11827965737E+04  0.12699999809E+01 0. -1.
       -4    1    3    3    0  502  0.51229676419E+03 -0.55135687838E+03  0.12177070570E+04  0.14315217328E+04  0.12699999809E+01 0.  1.
</event>
<event>
 5   0  0.2440590E-06  0.2597353E+04  0.7818609E-02  0.8369101E-01
       -1   -1    0    0    0  501  0.00000000000E+00  0.00000000000E+00  0.12355758809E+04  0.12355758809E+04  0.50400001928E-02 0.  1.
        1   -1    0    0  501    0  0.00000000000E+00  0.00000000000E+00 -0.13649991693E+04  0.13649991693E+04  0.50400001928E-02 0. -1.
    10030    2    1    2    0    0  0.00000000000E+00  0.00000000000E+00 -0.12942328845E+03  0.26005750502E+04  0.25973525375E+04 0.  0.
        1    1    3    3  502    0  0.68448362442E+02 -0.28938419217E+03  0.12010291263E+04  0.12372951754E+04  0.50400001928E-02 0.  1.
       -1    1    3    3    0  502 -0.68448362442E+02  0.28938419217E+03 -0.13304524147E+04  0.13632798747E+04  0.50400001928E-02 0. -1.
</event>
<event>
 5   0  0.2456600E-06  0.2597785E+04  0.7818609E-02  0.8368954E-01
       -1   -1    0    0    0  501  0.00000000000E+00  0.00000000000E+00  0.96074573140E+03  0.96074573141E+03  0.50400001928E-02 0. -1.
        1   -1    0    0  501    0  0.00000000000E+00  0.00000000000E+00 -0.17560546263E+04  0.17560546263E+04  0.50400001928E-02 0.  1.
    10030    2    1    2    0    0  0.00000000000E+00  0.00000000000E+00 -0.79530889494E+03  0.27168003578E+04  0.25977852000E+04 0.  0.
        5    1    3    3  502    0  0.91212178605E+03 -0.75464722203E+03  0.16128530556E+03  0.11947776455E+04  0.46999998093E+01 0. -1.
       -5    1    3    3    0  502 -0.91212178605E+03  0.75464722203E+03 -0.95659420050E+03  0.15220227123E+04  0.46999998093E+01 0.  1.
</event>
<event>
 5   0  0.5942229E-06  0.2621749E+04  0.7818609E-02  0.8360851E-01
        2   -1    0    0  501    0  0.00000000000E+00  0.00000000000E+00  0.17951653190E+04  0.17951653190E+04  0.25500000920E-02 0.  1.
       -2   -1    0    0    0  501  0.00000000000E+00  0.00000000000E+00 -0.95723340787E+03  0.95723340787E+03  0.25500000920E-02 0. -1.
    10030    2    1    2    0    0  0.00000000000E+00  0.00000000000E+00  0.83793191114E+03  0.27523987269E+04  0.26217491993E+04 0.  0.
        4    1    3    3  502    0  0.58003703823E+03  0.10314348058E+04 -0.17313413773E+03  0.11959422089E+04  0.12699999809E+01 0.  1.
       -4    1    3    3    0  502 -0.58003703823E+03 -0.10314348058E+04  0.10110660489E+04  0.15564565180E+04  0.12699999809E+01 0. -1.
</event>
<event>
 5   0  0.6158063E-06  0.2611291E+04  0.7818609E-02  0.8364376E-01
        2   -1    0    0  501    0  0.00000000000E+00  0.00000000000E+00  0.10970090182E+04  0.10970090182E+04  0.25500000920E-02 0. -1.
       -2   -1    0    0    0  501  0.00000000000E+00  0.00000000000E+00 -0.15539617667E+04  0.15539617667E+04  0.25500000920E-02 0.  1.
    10030    2    1    2    0    0  0.00000000000E+00  0.00000000000E+00 -0.45695274842E+03  0.26509707849E+04  0.26112909237E+04 0.  0.
        2    1    3    3  502    0  0.12346960827E+04  0.40842605825E+03 -0.11085463839E+03  0.13052107158E+04  0.25500000920E-02 0.  1.
       -2    1    3    3    0  502 -0.12346960827E+04 -0.40842605825E+03 -0.34609811003E+03  0.13457600691E+04  0.25500000920E-02 0. -1.
</event>
<event>
 5   0  0.2456600E-06  0.2585521E+04  0.7818609E-02  0.8373136E-01
        1   -1    0    0  501    0  0.00000000000E+00  0.00000000000E+00  0.12674054393E+04  0.12674054393E+04  0.50400001928E-02 0. -1.
       -1   -1    0    0    0  501  0.00000000000E+00  0.00000000000E+00 -0.13186230498E+04  0.13186230498E+04  0.50400001928E-02 0.  1.
    10030    2    1    2    0    0  0.00000000000E+00  0.00000000000E+00 -0.51217610440E+02  0.25860284891E+04  0.25855212440E+04 0.  0.
        5    1    3    3  502    0  0.58955976603E+03 -0.10094566006E+04  0.52642754140E+03  0.12820808837E+04  0.46999998093E+01 0.  1.
       -5    1    3    3    0  502 -0.58955976603E+03  0.10094566006E+04 -0.57764515184E+03  0.13039476054E+04  0.46999998093E+01 0. -1.
</event>
<event>
 5   0  0.2440590E-06  0.2596922E+04  0.7818609E-02  0.8369247E-01
       -1   -1    0    0    0  501  0.00000000000E+00  0.00000000000E+00  0.12697801634E+04  0.12697801634E+04  0.50400001928E-02 0.  1.
        1   -1    0    0  501    0  0.00000000000E+00  0.00000000000E+00 -0.13277900556E+04  0.13277900556E+04  0.50400001928E-02 0. -1.
    10030    2    1    2    0    0  0.00000000000E+00  0.00000000000E+00 -0.58009892142E+02  0.25975702190E+04  0.25969223891E+04 0.  0.
        1    1    3    3  502    0 -0.27450222304E+03 -0.29525397569E+03  0.12055942934E+04  0.12712135859E+04  0.50400001928E-02 0.  1.
       -1    1    3    3    0  502  0.27450222304E+03  0.29525397569E+03 -0.12636041855E+04  0.13263566332E+04  0.50400001928E-02 0. -1.
</event>
<event>
 5   0  0.6173140E-06  0.2609649E+04  0.7818609E-02  0.8364931E-01
       -2   -1    0    0    0  501  0.00000000000E+00  0.00000000000E+00  0.10189774023E+04  0.10189774023E+04  0.25500000920E-02 0.  1.
        2   -1    0    0  501    0  0.00000000000E+00  0.00000000000E+00 -0.16708581297E+04  0.16708581297E+04  0.25500000920E-02 0. -1.
    10030    2    1    2    0    0  0.00000000000E+00  0.00000000000E+00 -0.65188072734E+03  0.26898355320E+04  0.26096487708E+04 0.  0.
        3    1    3    3  502    0  0.94964772770E+03 -0.39498939819E+03  0.50167583009E+03  0.11443452626E+04  0.10100000352E+00 0.  1.
       -3    1    3    3    0  502 -0.94964772770E+03  0.39498939819E+03 -0.11535565574E+04  0.15454902694E+04  0.10100000352E+00 0. -1.
</event>
<event>
 5   0  0.5942229E-06  0.2649775E+04  0.7818609E-02  0.8351488E-01
       -2   -1    0    0    0  501  0.00000000000E+00  0.00000000000E+00  0.11252598567E+04  0.11252598567E+04  0.25500000920E-02 0. -1.
        2   -1    0    0  501    0  0.00000000000E+00  0.00000000000E+00 -0.15599299659E+04  0.15599299659E+04  0.25500000920E-02 0.  1.
    10030    2    1    2    0    0  0.00000000000E+00  0.00000000000E+00 -0.43467010914E+03  0.26851898226E+04  0.26497747601E+04 0.  0.
        4    1    3    3  502    0  0.36465820038E+03 -0.86971752435E+03 -0.11603316616E+04  0.14952442453E+04  0.12699999809E+01 0.  1.
       -4    1    3    3    0  502 -0.36465820038E+03  0.86971752435E+03  0.72566155246E+03  0.11899455773E+04  0.12699999809E+01 0. -1.
</event>
<event>
 5   0  0.5942229E-06  0.2598919E+04  0.7818609E-02  0.8368568E-01
        2   -1    0    0  501    0  0.00000000000E+00  0.00000000000E+00  0.13612614027E+04  0.13612614027E+04  0.25500000920E-02 0.  1.
       -2   -1    0    0    0  501  0.00000000000E+00  0.00000000000E+00 -0.12404635003E+04  0.12404635003E+04  0.25500000920E-02 0. -1.
    10030    2    1    2    0    0  0.00000000000E+00  0.00000000000E+00  0.12079790247E+03  0.26017249030E+04  0.25989190710E+04 0.  0.
        4    1    3    3  502    0 -0.10489180067E+04 -0.73505256762E+03  0.27986658663E+03  0.13110523182E+04  0.12699999809E+01 0.  1.
       -4    1    3    3    0  502  0.10489180067E+04  0.73505256762E+03 -0.15906868416E+03  0.12906725848E+04  0.12699999809E+01 0. -1.
</event>
<event>
 5   0  0.2333979E-06  0.2603776E+04  0.7818609E-02  0.8366920E-01
        1   -1    0    0  501    0  0.00000000000E+00  0.00000000000E+00  0.20557935650E+04  0.20557935650E+04  0.50400001928E-02 0.  1.
       -1   -1    0    0    0  501  0.00000000000E+00  0.00000000000E+00 -0.82445678067E+03  0.82445678068E+03  0.50400001928E-02 0. -1.
    10030    2    1    2    0    0  0.00000000000E+00  0.00000000000E+00  0.12313367843E+04  0.28802503457E+04  0.26037764453E+04 0.  0.
        3    1    3    3  502    0  0.12097889539E+04 -0.41068078413E+03  0.33875830898E+03  0.13217432510E+04  0.10100000352E+00 0. -1.
       -3    1    3    3    0  502 -0.12097889539E+04  0.41068078413E+03  0.89257847533E+03  0.15585070947E+04  0.10100000352E+00 0.  1.
</event>
<event>
 5   0  0.2333979E-06  0.2600173E+04  0.7818609E-02  0.8368142E-01
        1   -1    0    0  501    0  0.00000000000E+00  0.00000000000E+00  0.32258015862E+04  0.32258015862E+04  0.50400001928E-02 0.  1.
       -1   -1    0    0    0  501  0.00000000000E+00  0.00000000000E+00 -0.52397049793E+03  0.52397049796E+03  0.50400001928E-02 0. -1.
    10030    2    1    2    0    0  0.00000000000E+00  0.00000000000E+00  0.27018310883E+04  0.37497720842E+04  0.26001729661E+04 0.  0.
        3    1    3    3  502    0 -0.84687968221E+01 -0.12158944157E+04  0.20145338300E+04  0.23530443075E+04  0.10100000352E+00 0. -1.
       -3    1    3    3    0  502  0.84687968221E+01  0.12158944157E+04  0.68729725831E+03  0.13967277767E+04  0.10100000352E+00 0.  1.
</event>
<event>
 5   0  0.2440590E-06  0.2596058E+04  0.7818609E-02  0.8369541E-01
        1   -1    0    0  501    0  0.00000000000E+00  0.00000000000E+00  0.20725925008E+04  0.20725925008E+04  0.50400001928E-02 0. -1.
       -1   -1    0    0    0  501  0.00000000000E+00  0.00000000000E+00 -0.81293316740E+03  0.81293316741E+03  0.50400001928E-02 0.  1.
    10030    2    1    2    0    0  0.00000000000E+00  0.00000000000E+00  0.12596593334E+04  0.28855256682E+04  0.25960579242E+04 0.  0.
        1    1    3    3  502    0  0.30871918153E+03 -0.93414691984E+03  0.15709655414E+04  0.18536101891E+04  0.50400001928E-02 0. -1.
       -1    1    3    3    0  502 -0.30871918153E+03  0.93414691984E+03 -0.31130620798E+03  0.10319154791E+04  0.50400001928E-02 0.  1.
</event>
<event>
 5   0  0.2503292E-06  0.2598660E+04  0.7818609E-02  0.8368657E-01
        1   -1    0    0  501    0  0.00000000000E+00  0.00000000000E+00  0.23226613169E+04  0.23226613169E+04  0.50400001928E-02 0. -1.
       -1   -1    0    0    0  501  0.00000000000E+00  0.00000000000E+00 -0.72686377839E+03  0.72686377841E+03  0.50400001928E-02 0.  1.
    10030    2    1    2    0    0  0.00000000000E+00  0.00000000000E+00  0.15957975385E+04  0.30495250953E+04  0.25986599475E+04 0.  0.
        2    1    3    3  502    0 -0.16119829099E+02  0.11253080460E+04  0.35864623110E+02  0.11259948128E+04  0.25500000920E-02 0.  1.
       -2    1    3    3    0  502  0.16119829099E+02 -0.11253080460E+04  0.15599329153E+04  0.19235302825E+04  0.25500000920E-02 0. -1.
</event>
<event>
 5   0  0.6173140E-06  0.2589849E+04  0.7818609E-02  0.8371658E-01
        2   -1    0    0  501    0  0.00000000000E+00  0.00000000000E+00  0.12542469247E+04  0.12542469247E+04  0.25500000920E-02 0. -1.
       -2   -1    0    0    0  501  0.00000000000E+00  0.00000000000E+00 -0.13369210963E+04  0.13369210963E+04  0.25500000920E-02 0.  1.
    10030    2    1    2    0    0  0.00000000000E+00  0.00000000000E+00 -0.82674171539E+02  0.25911680210E+04  0.25898487783E+04 0.  0.
        3    1    3    3  502    0 -0.75480948460E+03  0.14862492064E+03 -0.10835021871E+04  0.13288354769E+04  0.10100000352E+00 0.  1.
       -3    1    3    3    0  502  0.75480948460E+03 -0.14862492064E+03  0.10008280155E+04  0.12623325441E+04  0.10100000352E+00 0. -1.
</event>
<event>
 5   0  0.6173140E-06  0.2578476E+04  0.7818609E-02  0.8375549E-01
       -2   -1    0    0    0  501  0.00000000000E+00  0.00000000000E+00  0.11240829795E+04  0.11240829795E+04  0.25500000920E-02 0. -1.
        2   -1    0    0  501    0  0.00000000000E+00  0.00000000000E+00 -0.14786582345E+04  0.14786582345E+04  0.25500000920E-02 0.  1.
    10030    2    1    2    0    0  0.00000000000E+00  0.00000000000E+00 -0.35457525494E+03  0.26027412140E+04  0.25784759483E+04 0.  0.
        3    1    3    3  502    0 -0.34844131389E+03 -0.43228675407E+03 -0.13517886431E+04  0.14613746039E+04  0.10100000352E+00 0.  1.
       -3    1    3    3    0  502  0.34844131389E+03  0.43228675407E+03  0.99721338820E+03  0.11413666101E+04  0.10100000352E+00 0. -1.
</event>
<event>
 5   0  0.2333979E-06  0.2603222E+04  0.7818609E-02  0.8367108E-01
        1   -1    0    0  501    0  0.00000000000E+00  0.00000000000E+00  0.14709338403E+04  0.14709338403E+04  0.50400001928E-02 0. -1.
       -1   -1    0    0    0  501  0.00000000000E+00  0.00000000000E+00 -0.11517791133E+04  0.11517791134E+04  0.50400001928E-02 0.  1.
    10030    2    1    2    0    0  0.00000000000E+00  0.00000000000E+00  0.31915472696E+03  0.26227129537E+04  0.26032217534E+04 0.  0.
        3    1    3    3  502    0 -0.18869954865E+02 -0.19248763127E+03  0.14563757180E+04  0.14691622802E+04  0.10100000352E+00 0. -1.
       -3    1    3    3    0  502  0.18869954865E+02  0.19248763127E+03 -0.11372209911E+04  0.11535506734E+04  0.10100000352E+00 0.  1.
</event>
<event>
 5   0  0.6158063E-06  0.2601741E+04  0.7818609E-02  0.8367610E-01
        2   -1    0    0  501    0  0.00000000000E+00  0.00000000000E+00  0.14337196583E+04  0.14337196583E+04  0.25500000920E-02 0. -1.
       -2   -1    0    0    0  501  0.00000000000E+00  0.00000000000E+00 -0.11803310858E+04  0.11803310858E+04  0.25500000920E-02 0.  1.
    10030    2    1    2    0    0  0.00000000000E+00  0.00000000000E+00  0.25338857247E+03  0.26140507441E+04  0.26017408642E+04 0.  0.
        2    1    3    3  502    0  0.12326024960E+04 -0.40705561711E+03  0.41081427526E+02  0.12987266349E+04  0.25500000920E-02 0. -1.
       -2    1    3    3    0  502 -0.12326024960E+04  0.40705561711E+03  0.21230714494E+03  0.13153241092E+04  0.25500000920E-02 0.  1.
</event>
<event>
 5   0  0.5940748E-06  0.2568193E+04  0.7818609E-02  0.8379086E-01
        2   -1    0    0  501    0  0.00000000000E+00  0.00000000000E+00  0.20696821819E+04  0.20696821819E+04  0.25500000920E-02 0. -1.
       -2   -1    0    0    0  501  0.00000000000E+00  0.00000000000E+00 -0.79669407772E+03  0.79669407772E+03  0.25500000920E-02 0.  1.
    10030    2    1    2    0    0  0.00000000000E+00  0.00000000000E+00  0.12729881042E+04  0.28663762596E+04  0.25681927787E+04 0.  0.
        1    1    3    3  502    0  0.31382374610E+03  0.25535946457E+03 -0.72369561600E+03  0.82911346896E+03  0.50400001928E-02 0.  1.
       -1    1    3    3    0  502 -0.31382374610E+03 -0.25535946457E+03  0.19966837202E+04  0.20372627907E+04  0.50400001928E-02 0. -1.
</event>
<event>
 5   0  0.5942229E-06  0.2597950E+04  0.7818609E-02  0.8368898E-01
       -2   -1    0    0    0  501  0.00000000000E+00  0.00000000000E+00  0.73588045721E+03  0.73588045721E+03  0.25500000920E-02 0. -1.
        2   -1    0    0  501    0  0.00000000000E+00  0.00000000000E+00 -0.22929490921E+04  0.22929490921E+04  0.25500000920E-02 0.  1.
    10030    2    1    2    0    0  0.00000000000E+00  0.00000000000E+00 -0.15570686349E+04  0.30288295493E+04  0.25979502892E+04 0.  0.
        4    1    3    3  502    0  0.24113541372E+03 -0.44455188595E+03  0.61638503642E+03  0.79731097639E+03  0.12699999809E+01 0. -1.
       -4    1    3    3    0  502 -0.24113541372E+03  0.44455188595E+03 -0.21734536713E+04  0.22315185730E+04  0.12699999809E+01 0.  1.
</event>
<event>
 5   0  0.2456600E-06  0.2601333E+04  0.7818609E-02  0.8367749E-01
       -1   -1    0    0    0  501  0.00000000000E+00  0.00000000000E+00  0.71845475402E+03  0.71845475403E+03  0.50400001928E-02 0.  1.
        1   -1    0    0  501    0  0.00000000000E+00  0.00000000000E+00 -0.23546827020E+04  0.23546827020E+04  0.50400001928E-02 0. -1.
    10030    2    1    2    0    0  0.00000000000E+00  0.00000000000E+00 -0.16362279480E+04  0.30731374560E+04  0.26013327211E+04 0.  0.
        5    1    3    3  502    0 -0.12067711950E+04  0.43660810372E+03 -0.56809977278E+03  0.14034538806E+04  0.46999998093E+01 0. -1.
       -5    1    3    3    0  502  0.12067711950E+04 -0.43660810372E+03 -0.10681281752E+04  0.16696835754E+04  0.46999998093E+01 0.  1.
</event>
<event>
 5   0  0.5940748E-06  0.2604767E+04  0.7818609E-02  0.8366584E-01
       -2   -1    0    0    0  501  0.00000000000E+00  0.00000000000E+00  0.67080898642E+03  0.67080898642E+03  0.25500000920E-02 0.  1.
        2   -1    0    0  501    0  0.00000000000E+00  0.00000000000E+00 -0.25285931815E+04  0.25285931815E+04  0.25500000920E-02 0. -1.
    10030    2    1    2    0    0  0.00000000000E+00  0.00000000000E+00 -0.18577841951E+04  0.31994021679E+04  0.26047671905E+04 0.  0.
        1    1    3    3  502    0  0.12809795584E+04  0.12706846305E+03 -0.68586497588E+03  0.14585834870E+04  0.50400001928E-02 0.  1.
       -1    1    3    3    0  502 -0.12809795584E+04 -0.12706846305E+03 -0.11719192192E+04  0.17408186809E+04  0.50400001928E-02 0. -1.
</event>
<event>
 5   0  0.6173140E-06  0.2608159E+04  0.7818609E-02  0.8365435E-01
       -2   -1    0    0    0  501  0.00000000000E+00  0.00000000000E+00  0.94296620198E+03  0.94296620199E+03  0.25500000920E-02 0.  1.
        2   -1    0    0  501    0  0.00000000000E+00  0.00000000000E+00 -0.18034823374E+04  0.18034823374E+04  0.25500000920E-02 0. -1.
    10030    2    1    2    0    0  0.00000000000E+00  0.00000000000E+00 -0.86051613541E+03  0.27464485394E+04  0.26081586532E+04 0.  0.
        3    1    3    3  502    0 -0.16634046492E+02  0.98098703007E+02  0.93896330330E+03  0.94422038857E+03  0.10100000352E+00 0.  1.
       -3    1    3    3    0  502  0.16634046492E+02 -0.98098703007E+02 -0.17994794387E+04  0.18022281508E+04  0.10100000352E+00 0. -1.
</event>
<event>
 5   0  0.2471488E-06  0.2514084E+04  0.7818609E-02  0.8397985E-01
        1   -1    0    0  501    0  0.00000000000E+00  0.00000000000E+00  0.11157103915E+04  0.11157103915E+04  0.50400001928E-02 0. -1.
       -1   -1    0    0    0  501  0.00000000000E+00  0.00000000000E+00 -0.14162770770E+04  0.14162770770E+04  0.50400001928E-02 0.  1.
    10030    2    1    2    0    0  0.00000000000E+00  0.00000000000E+00 -0.30056668557E+03  0.25319874685E+04  0.25140843678E+04 0.  0.
        4    1    3    3  502    0  0.34233774568E+03  0.10831233418E+04 -0.69244961056E+03  0.13303531042E+04  0.12699999809E+01 0.  1.
       -4    1    3    3    0  502 -0.34233774568E+03 -0.10831233418E+04  0.39188292499E+03  0.12016343643E+04  0.12699999809E+01 0. -1.
</event>
<event>
 5   0  0.6161834E-06  0.2571805E+04  0.7818609E-02  0.8377842E-01
        2   -1    0    0  501    0  0.00000000000E+00  0.00000000000E+00  0.17013940289E+04  0.17013940289E+04  0.25500000920E-02 0.  1.
       -2   -1    0    0    0  501  0.00000000000E+00  0.00000000000E+00 -0.97187678612E+03  0.97187678612E+03  0.25500000920E-02 0. -1.
    10030    2    1    2    0    0  0.00000000000E+00  0.00000000000E+00  0.72951724277E+03  0.26732708150E+04  0.25718050943E+04 0.  0.
        5    1    3    3  502    0 -0.66985544024E+03 -0.95540679865E+03  0.92646239696E+03  0.14899205095E+04  0.46999998093E+01 0.  1.
       -5    1    3    3    0  502  0.66985544024E+03  0.95540679865E+03 -0.19694515420E+03  0.11833503055E+04  0.46999998093E+01 0. -1.
</event>
<event>
 5   0  0.6158063E-06  0.2600106E+04  0.7818609E-02  0.8368165E-01
       -2   -1    0    0    0  501  0.00000000000E+00  0.00000000000E+00  0.69182018963E+03  0.69182018963E+03  0.25500000920E-02 0.  1.
        2   -1    0    0  501    0  0.00000000000E+00  0.00000000000E+00 -0.24430306695E+04  0.24430306695E+04  0.25500000920E-02 0. -1.
    10030    2    1    2    0    0  0.00000000000E+00  0.00000000000E+00 -0.17512104799E+04  0.31348508591E+04  0.26001061063E+04 0.  0.
        2    1    3    3  502    0  0.46818575667E+03  0.52459475144E+03  0.44278585683E+03  0.83093734481E+03  0.25500000920E-02 0.  1.
       -2    1    3    3    0  502 -0.46818575667E+03 -0.52459475144E+03 -0.21939963367E+04  0.23039135143E+04  0.25500000920E-02 0. -1.
</event>
<event>
 5   0  0.6158063E-06  0.2609336E+04  0.7818609E-02  0.8365037E-01
       -2   -1    0    0    0  501  0.00000000000E+00  0.00000000000E+00  0.17992181558E+04  0.17992181558E+04  0.25500000920E-02 0. -1.
        2   -1    0    0  501    0  0.00000000000E+00  0.00000000000E+00 -0.94605471840E+03  0.94605471841E+03  0.25500000920E-02 0.  1.
    10030    2    1    2    0    0  0.00000000000E+00  0.00000000000E+00  0.85316343744E+03  0.27452728743E+04  0.26093361805E+04 0.  0.
        2    1    3    3  502    0  0.77149631511E+02  0.12930009147E+04  0.59077412553E+03  0.14236634077E+04  0.25500000920E-02 0.  1.
       -2    1    3    3    0  502 -0.77149631511E+02 -0.12930009147E+04  0.26238931190E+03  0.13216094665E+04  0.25500000920E-02 0. -1.
</event>
<event>
 5   0  0.2333979E-06  0.2592031E+04  0.7818609E-02  0.8370913E-01
       -1   -1    0    0    0  501  0.00000000000E+00  0.00000000000E+00  0.11924653568E+04  0.11924653568E+04  0.50400001928E-02 0. -1.
        1   -1    0    0  501    0  0.00000000000E+00  0.00000000000E+00 -0.14085575704E+04  0.14085575704E+04  0.50400001928E-02 0.  1.
    10030    2    1    2    0    0  0.00000000000E+00  0.00000000000E+00 -0.21609221353E+03  0.26010229272E+04  0.25920309456E+04 0.  0.
        3    1    3    3  502    0 -0.20349940033E+02 -0.41328507634E+03  0.11243991767E+04  0.11981202749E+04  0.10100000352E+00 0. -1.
       -3    1    3    3    0  502  0.20349940033E+02  0.41328507634E+03 -0.13404913902E+04  0.14029026523E+04  0.10100000352E+00 0.  1.
</event>
<event>
 5   0  0.2503292E-06  0.2599926E+04  0.7818609E-02  0.8368227E-01
        1   -1    0    0  501    0  0.00000000000E+00  0.00000000000E+00  0.22875313515E+04  0.22875313515E+04  0.50400001928E-02 0.  1.
       -1   -1    0    0    0  501  0.00000000000E+00  0.00000000000E+00 -0.73874535573E+03  0.73874535574E+03  0.50400001928E-02 0. -1.
    10030    2    1    2    0    0  0.00000000000E+00  0.00000000000E+00  0.15487859957E+04  0.30262767072E+04  0.25999255082E+04 0.  0.
        2    1    3    3  502    0  0.37398259153E+03 -0.12192136325E+04  0.48094316131E+03  0.13629567802E+04  0.25500000920E-02 0. -1.
       -2    1    3    3    0  502 -0.37398259153E+03  0.12192136325E+04  0.10678428344E+04  0.16633199270E+04  0.25500000920E-02 0.  1.
</event>
<event>
 5   0  0.5940748E-06  0.2597669E+04  0.7818609E-02  0.8368993E-01
        2   -1    0    0  501    0  0.00000000000E+00  0.00000000000E+00  0.16134483711E+04  0.16134483711E+04  0.25500000920E-02 0.  1.
       -2   -1    0    0    0  501  0.00000000000E+00  0.00000000000E+00 -0.10455688751E+04  0.10455688751E+04  0.25500000920E-02 0. -1.
    10030    2    1    2    0    0  0.00000000000E+00  0.00000000000E+00  0.56787949601E+03  0.26590172463E+04  0.25976692619E+04 0.  0.
        1    1    3    3  502    0 -0.10718291173E+04 -0.67727099266E+03 -0.45998446774E+01  0.12678859621E+04  0.50400001928E-02 0. -1.
       -1    1    3    3    0  502  0.10718291173E+04  0.67727099266E+03  0.57247934069E+03  0.13911312842E+04  0.50400001928E-02 0.  1.
</event>
<event>
 5   0  0.2503292E-06  0.2637201E+04  0.7818609E-02  0.8355674E-01
        1   -1    0    0  501    0  0.00000000000E+00  0.00000000000E+00  0.21573058937E+04  0.21573058937E+04  0.50400001928E-02 0.  1.
       -1   -1    0    0    0  501  0.00000000000E+00  0.00000000000E+00 -0.80596228422E+03  0.80596228423E+03  0.50400001928E-02 0. -1.
    10030    2    1    2    0    0  0.00000000000E+00  0.00000000000E+00  0.13513436095E+04  0.29632681779E+04  0.26372009297E+04 0.  0.
        2    1    3    3  502    0  0.70348592534E+02  0.92888431579E+02 -0.80016606798E+03  0.80860554137E+03  0.25500000920E-02 0. -1.
       -2    1    3    3    0  502 -0.70348592534E+02 -0.92888431579E+02  0.21515096775E+04  0.21546626366E+04  0.25500000920E-02 0.  1.
</event>
<event>
 5   0  0.2456600E-06  0.2535504E+04  0.7818609E-02  0.8390445E-01
       -1   -1    0    0    0  501  0.00000000000E+00  0.00000000000E+00  0.12814108721E+04  0.12814108721E+04  0.50400001928E-02 0. -1.
        1   -1    0    0  501    0  0.00000000000E+00  0.00000000000E+00 -0.12542391495E+04  0.12542391495E+04  0.50400001928E-02 0.  1.
    10030    2    1    2    0    0  0.00000000000E+00  0.00000000000E+00  0.27171722662E+02  0.25356500216E+04  0.25355044329E+04 0.  0.
        5    1    3    3  502    0 -0.71393883183E+03  0.32231573499E+03  0.10104266758E+04  0.12785070379E+04  0.46999998093E+01 0. -1.
       -5    1    3    3    0  502  0.71393883183E+03 -0.32231573499E+03 -0.98325495317E+03  0.12571429837E+04  0.46999998093E+01 0.  1.
</event>
<event>
 5   0  0.6161834E-06  0.2603618E+04  0.7818609E-02  0.8366973E-01
       -2   -1    0    0    0  501  0.00000000000E+00  0.00000000000E+00  0.18295280861E+04  0.18295280861E+04  0.25500000920E-02 0.  1.
        2   -1    0    0  501    0  0.00000000000E+00  0.00000000000E+00 -0.92630799187E+03  0.92630799188E+03  0.25500000920E-02 0. -1.
    10030    2    1    2    0    0  0.00000000000E+00  0.00000000000E+00  0.90322009426E+03  0.27558360780E+04  0.26036178579E+04 0.  0.
        5    1    3    3  502    0 -0.11675921913E+04  0.49029982550E+02 -0.15551756471E+03  0.11789331055E+04  0.46999998093E+01 0. -1.
       -5    1    3    3    0  502  0.11675921913E+04 -0.49029982550E+02  0.10587376590E+04  0.15769029725E+04  0.46999998093E+01 0.  1.
</event>
<event>
 5   0  0.2503292E-06  0.2602381E+04  0.7818609E-02  0.8367393E-01
       -1   -1    0    0    0  501  0.00000000000E+00  0.00000000000E+00  0.78067976250E+03  0.78067976252E+03  0.50400001928E-02 0.  1.
        1   -1    0    0  501    0  0.00000000000E+00  0.00000000000E+00 -0.21687472689E+04  0.21687472689E+04  0.50400001928E-02 0. -1.
    10030    2    1    2    0    0  0.00000000000E+00  0.00000000000E+00 -0.13880675064E+04  0.29494270314E+04  0.26023812963E+04 0.  0.
        2    1    3    3  502    0  0.46537596116E+03  0.84836033533E+03 -0.16799937946E+04  0.19387287571E+04  0.25500000920E-02 0. -1.
       -2    1    3    3    0  502 -0.46537596116E+03 -0.84836033533E+03  0.29192628825E+03  0.10106982742E+04  0.25500000920E-02 0.  1.
</event>
<event>
 5   0  0.2333979E-06  0.2596726E+04  0.7818609E-02  0.8369314E-01
       -1   -1    0    0    0  501  0.00000000000E+00  0.00000000000E+00  0.95395489907E+03  0.95395489908E+03  0.50400001928E-02 0.  1.
        1   -1    0    0  501    0  0.00000000000E+00  0.00000000000E+00 -0.17671132166E+04  0.17671132166E+04  0.50400001928E-02 0. -1.
    10030    2    1    2    0    0  0.00000000000E+00  0.00000000000E+00 -0.81315831755E+03  0.27210681157E+04  0.25967258694E+04 0.  0.
        3    1    3    3  502    0 -0.61916087000E+02 -0.20431661370E+03  0.93543593164E+03  0.95948906866E+03  0.10100000352E+00 0.  1.
       -3    1    3    3    0  502  0.61916087000E+02  0.20431661370E+03 -0.17485942492E+04  0.17615790470E+04  0.10100000352E+00 0. -1.
</event>
<event>
 5   0  0.2333979E-06  0.2550992E+04  0.7818609E-02  0.8385041E-01
        1   -1    0    0  501    0  0.00000000000E+00  0.00000000000E+00  0.21978610860E+04  0.21978610860E+04  0.50400001928E-02 0. -1.
       -1   -1    0    0    0  501  0.00000000000E+00  0.00000000000E+00 -0.74021492702E+03  0.74021492703E+03  0.50400001928E-02 0.  1.
    10030    2    1    2    0    0  0.00000000000E+00  0.00000000000E+00  0.14576461590E+04  0.29380760131E+04  0.25509916373E+04 0.  0.
        3    1    3    3  502    0 -0.76140467168E+03 -0.42522806166E+03  0.18008274860E+04  0.20008837105E+04  0.10100000352E+00 0. -1.
       -3    1    3    3    0  502  0.76140467168E+03  0.42522806166E+03 -0.34318132702E+03  0.93719230252E+03  0.10100000352E+00 0.  1.
</event>
<event>
 5   0  0.6158063E-06  0.2629016E+04  0.7818609E-02  0.8358411E-01
        2   -1    0    0  501    0  0.00000000000E+00  0.00000000000E+00  0.26596844019E+04  0.26596844019E+04  0.25500000920E-02 0.  1.
       -2   -1    0    0    0  501  0.00000000000E+00  0.00000000000E+00 -0.64967550523E+03  0.64967550524E+03  0.25500000920E-02 0. -1.
    10030    2    1    2    0    0  0.00000000000E+00  0.00000000000E+00  0.20100088966E+04  0.33093599071E+04  0.26290163998E+04 0.  0.
        2    1    3    3  502    0 -0.64509972362E+03 -0.43672001572E+02 -0.43566701769E+03  0.77965803237E+03  0.25500000920E-02 0. -1.
       -2    1    3    3    0  502  0.64509972362E+03  0.43672001572E+02  0.24456759143E+04  0.25297018747E+04  0.25500000920E-02 0.  1.
</event>
<event>
 5   0  0.5940748E-06  0.2618596E+04  0.7818609E-02  0.8361912E-01
        2   -1    0    0  501    0  0.00000000000E+00  0.00000000000E+00  0.16775943519E+04  0.16775943519E+04  0.25500000920E-02 0. -1.
       -2   -1    0    0    0  501  0.00000000000E+00  0.00000000000E+00 -0.10218564649E+04  0.10218564649E+04  0.25500000920E-02 0.  1.
    10030    2    1    2    0    0  0.00000000000E+00  0.00000000000E+00  0.65573788703E+03  0.26994508169E+04  0.26185955274E+04 0.  0.
        1    1    3    3  502    0 -0.11264859164E+04  0.62475722944E+03  0.86175976266E+02  0.12910144904E+04  0.50400001928E-02 0.  1.
       -1    1    3    3    0  502  0.11264859164E+04 -0.62475722944E+03  0.56956191077E+03  0.14084363265E+04  0.50400001928E-02 0. -1.
</event>
<event>
 5   0  0.2333979E-06  0.2599920E+04  0.7818609E-02  0.8368228E-01
       -1   -1    0    0    0  501  0.00000000000E+00  0.00000000000E+00  0.13174113470E+04  0.13174113470E+04  0.50400001928E-02 0. -1.
        1   -1    0    0  501    0  0.00000000000E+00  0.00000000000E+00 -0.12827401483E+04  0.12827401483E+04  0.50400001928E-02 0.  1.
    10030    2    1    2    0    0  0.00000000000E+00  0.00000000000E+00  0.34671198717E+02  0.26001514954E+04  0.25999203270E+04 0.  0.
        3    1    3    3  502    0 -0.65469909372E+03  0.11220823266E+04 -0.29538233536E+02  0.12994507180E+04  0.10100000352E+00 0.  1.
       -3    1    3    3    0  502  0.65469909372E+03 -0.11220823266E+04  0.64209432253E+02  0.13007007774E+04  0.10100000352E+00 0. -1.
</event>
<event>
 5   0  0.5940748E-06  0.2582536E+04  0.7818609E-02  0.8374157E-01
        2   -1    0    0  501    0  0.00000000000E+00  0.00000000000E+00  0.30989981874E+04  0.30989981874E+04  0.25500000920E-02 0.  1.
       -2   -1    0    0    0  501  0.00000000000E+00  0.00000000000E+00 -0.53803633407E+03  0.53803633408E+03  0.25500000920E-02 0. -1.
    10030    2    1    2    0    0  0.00000000000E+00  0.00000000000E+00  0.25609618534E+04  0.36370345215E+04  0.25825364463E+04 0.  0.
        1    1    3    3  502    0  0.57098079510E+03  0.11622752606E+03 -0.34235559430E+03  0.67582191379E+03  0.50400001928E-02 0. -1.
       -1    1    3    3    0  502 -0.57098079510E+03 -0.11622752606E+03  0.29033174477E+04  0.29612126077E+04  0.50400001928E-02 0.  1.
</event>
<event>
 5   0  0.5940748E-06  0.2598339E+04  0.7818609E-02  0.8368766E-01
       -2   -1    0    0    0  501  0.00000000000E+00  0.00000000000E+00  0.10398123204E+04  0.10398123204E+04  0.25500000920E-02 0.  1.
        2   -1    0    0  501    0  0.00000000000E+00  0.00000000000E+00 -0.16232175446E+04  0.16232175446E+04  0.25500000920E-02 0. -1.
    10030    2    1    2    0    0  0.00000000000E+00  0.00000000000E+00 -0.58340522426E+03  0.26630298650E+04  0.25983391630E+04 0.  0.
        1    1    3    3  502    0  0.48474704857E+03 -0.43926381626E+03 -0.14421051241E+04  0.15835402080E+04  0.50400001928E-02 0. -1.
       -1    1    3    3    0  502 -0.48474704857E+03  0.43926381626E+03  0.85869989987E+03  0.10794896569E+04  0.50400001928E-02 0.  1.
</event>
<event>
 5   0  0.6161834E-06  0.2599209E+04  0.7818609E-02  0.8368470E-01
        2   -1    0    0  501    0  0.00000000000E+00  0.00000000000E+00  0.22681931241E+04  0.22681931241E+04  0.25500000920E-02 0.  1.
       -2   -1    0    0    0  501  0.00000000000E+00  0.00000000000E+00 -0.74463334645E+03  0.74463334645E+03  0.25500000920E-02 0. -1.
    10030    2    1    2    0    0  0.00000000000E+00  0.00000000000E+00  0.15235597776E+04  0.30128264705E+04  0.25992092923E+04 0.  0.
        5    1    3    3  502    0 -0.83002642815E+02  0.12460098154E+04  0.34462080957E+03  0.12954595676E+04  0.46999998093E+01 0. -1.
       -5    1    3    3    0  502  0.83002642815E+02 -0.12460098154E+04  0.11789389680E+04  0.17173669029E+04  0.46999998093E+01 0.  1.
</event>
<event>
 5   0  0.5940748E-06  0.2595400E+04  0.7818609E-02  0.8369765E-01
        2   -1    0    0  501    0  0.00000000000E+00  0.00000000000E+00  0.25644993871E+04  0.25644993871E+04  0.25500000920E-02 0.  1.
       -2   -1    0    0    0  501  0.00000000000E+00  0.00000000000E+00 -0.65666833599E+03  0.65666833599E+03  0.25500000920E-02 0. -1.
    10030    2    1    2    0    0  0.00000000000E+00  0.00000000000E+00  0.19078310511E+04  0.32211677230E+04  0.25954001966E+04 0.  0.
        1    1    3    3  502    0 -0.63766631990E+03 -0.34832926170E+03  0.22883640024E+04  0.24009501073E+04  0.50400001928E-02 0.  1.
       -1    1    3    3    0  502  0.63766631990E+03  0.34832926170E+03 -0.38053295136E+03  0.82021761575E+03  0.50400001928E-02 0. -1.
</event>
<event>
 5   0  0.2440590E-06  0.2538178E+04  0.7818609E-02  0.8389509E-01
        1   -1    0    0  501    0  0.00000000000E+00  0.00000000000E+00  0.10425531680E+04  0.10425531681E+04  0.50400001928E-02 0. -1.
       -1   -1    0    0    0  501  0.00000000000E+00  0.00000000000E+00 -0.15448490116E+04  0.15448490116E+04  0.50400001928E-02 0.  1.
    10030    2    1    2    0    0  0.00000000000E+00  0.00000000000E+00 -0.50229584356E+03  0.25874021797E+04  0.25381782689E+04 0.  0.
        1    1    3    3  502    0 -0.12645267307E+04 -0.68563767125E+02 -0.16672646202E+03  0.12773122390E+04  0.50400001928E-02 0. -1.
       -1    1    3    3    0  502  0.12645267307E+04  0.68563767125E+02 -0.33556938154E+03  0.13100899407E+04  0.50400001928E-02 0.  1.
</event>
<event>
 5   0  0.2440590E-06  0.2573987E+04  0.7818609E-02  0.8377091E-01
        1   -1    0    0  501    0  0.00000000000E+00  0.00000000000E+00  0.22205771651E+04  0.22205771651E+04  0.50400001928E-02 0.  1.
       -1   -1    0    0    0  501  0.00000000000E+00  0.00000000000E+00 -0.74591078035E+03  0.74591078037E+03  0.50400001928E-02 0. -1.
    10030    2    1    2    0    0  0.00000000000E+00  0.00000000000E+00  0.14746663848E+04  0.29664879455E+04  0.25739871376E+04 0.  0.
        1    1    3    3  502    0 -0.99109182430E+03 -0.77825129667E+03  0.43588696476E+03  0.13333924895E+04  0.50400001928E-02 0.  1.
       -1    1    3    3    0  502  0.99109182430E+03  0.77825129667E+03  0.10387794200E+04  0.16330954560E+04  0.50400001928E-02 0. -1.
</event>
<event>
 5   0  0.2440590E-06  0.2600529E+04  0.7818609E-02  0.8368022E-01
       -1   -1    0    0    0  501  0.00000000000E+00  0.00000000000E+00  0.13702050842E+04  0.13702050842E+04  0.50400001928E-02 0.  1.
        1   -1    0    0  501    0  0.00000000000E+00  0.00000000000E+00 -0.12338938582E+04  0.12338938582E+04  0.50400001928E-02 0. -1.
    10030    2    1    2    0    0  0.00000000000E+00  0.00000000000E+00  0.13631122599E+03  0.26040989424E+04  0.26005288984E+04 0.  0.
        1    1    3    3  502    0  0.44489514794E+03  0.39619408910E+03  0.12255044281E+04  0.13626307469E+04  0.50400001928E-02 0.  1.
       -1    1    3    3    0  502 -0.44489514794E+03 -0.39619408910E+03 -0.10891932021E+04  0.12414681955E+04  0.50400001928E-02 0. -1.
</event>
<event>
 5   0  0.6161834E-06  0.2624047E+04  0.7818609E-02  0.8360079E-01
        2   -1    0    0  501    0  0.00000000000E+00  0.00000000000E+00  0.10060102373E+04  0.10060102373E+04  0.25500000920E-02 0. -1.
       -2   -1    0    0    0  501  0.00000000000E+00  0.00000000000E+00 -0.17111210150E+04  0.17111210150E+04  0.25500000920E-02 0.  1.
    10030    2    1    2    0    0  0.00000000000E+00  0.00000000000E+00 -0.70511077767E+03  0.27171312523E+04  0.26240466904E+04 0.  0.
        5    1    3    3  502    0  0.44796229853E+03  0.12331351234E+04 -0.34269308758E+03  0.13560063037E+04  0.46999998093E+01 0.  1.
       -5    1    3    3    0  502 -0.44796229853E+03 -0.12331351234E+04 -0.36241769009E+03  0.13611249485E+04  0.46999998093E+01 0. -1.
</event>
<event>
 5   0  0.5940748E-06  0.2599020E+04  0.7818609E-02  0.8368534E-01
       -2   -1    0    0    0  501  0.00000000000E+00  0.00000000000E+00  0.10615320106E+04  0.10615320106E+04  0.25500000920E-02 0. -1.
        2   -1    0    0  501    0  0.00000000000E+00  0.00000000000E+00 -0.15908393347E+04  0.15908393347E+04  0.25500000920E-02 0.  1.
    10030    2    1    2    0    0  0.00000000000E+00  0.00000000000E+00 -0.52930732409E+03  0.26523713454E+04  0.25990204906E+04 0.  0.
        1    1    3    3  502    0  0.66717931894E+03  0.11132503525E+04 -0.19794921175E+03  0.13128741301E+04  0.50400001928E-02 0.  1.
       -1    1    3    3    0  502 -0.66717931894E+03 -0.11132503525E+04 -0.33135811233E+03  0.13394972153E+04  0.50400001928E-02 0. -1.
</event>
<event>
 5   0  0.2456600E-06  0.2600714E+04  0.7818609E-02  0.8367959E-01
        1   -1    0    0  501    0  0.00000000000E+00  0.00000000000E+00  0.15439812216E+04  0.15439812216E+04  0.50400001928E-02 0. -1.
       -1   -1    0    0    0  501  0.00000000000E+00  0.00000000000E+00 -0.10951742082E+04  0.10951742082E+04  0.50400001928E-02 0.  1.
    10030    2    1    2    0    0  0.00000000000E+00  0.00000000000E+00  0.44880701347E+03  0.26391554298E+04  0.26007140649E+04 0.  0.
        5    1    3    3  502    0 -0.27697472730E+03 -0.78718331762E+03 -0.78760024835E+03  0.11474793315E+04  0.46999998093E+01 0.  1.
       -5    1    3    3    0  502  0.27697472730E+03  0.78718331762E+03  0.12364072618E+04  0.14916760983E+04  0.46999998093E+01 0. -1.
</event>
<event>
 5   0  0.2333979E-06  0.2593350E+04  0.7818609E-02  0.8370463E-01
        1   -1    0    0  501    0  0.00000000000E+00  0.00000000000E+00  0.19522424859E+04  0.19522424859E+04  0.50400001928E-02 0.  1.
       -1   -1    0    0    0  501  0.00000000000E+00  0.00000000000E+00 -0.86124886486E+03  0.86124886487E+03  0.50400001928E-02 0. -1.
    10030    2    1    2    0    0  0.00000000000E+00  0.00000000000E+00  0.10909936211E+04  0.28134913508E+04  0.25933504391E+04 0.  0.
        3    1    3    3  502    0  0.31470342839E+03 -0.12560571782E+04  0.47152748836E+03  0.13780624315E+04  0.10100000352E+00 0. -1.
       -3    1    3    3    0  502 -0.31470342839E+03  0.12560571782E+04  0.61946613272E+03  0.14354289193E+04  0.10100000352E+00 0.  1.
</event>
<event>
 5   0  0.5940748E-06  0.2591072E+04  0.7818609E-02  0.8371240E-01
        2   -1    0    0  501    0  0.00000000000E+00  0.00000000000E+00  0.10200929694E+04  0.10200929694E+04  0.25500000920E-02 0.  1.
       -2   -1    0    0    0  501  0.00000000000E+00  0.00000000000E+00 -0.16453533969E+04  0.16453533969E+04  0.25500000920E-02 0. -1.
    10030    2    1    2    0    0  0.00000000000E+00  0.00000000000E+00 -0.62526042750E+03  0.26654463663E+04  0.25910719267E+04 0.  0.
        1    1    3    3  502    0 -0.13708359312E+03  0.16538550023E+03 -0.16269055755E+04  0.16410259068E+04  0.50400001928E-02 0. -1.
       -1    1    3    3    0  502  0.13708359312E+03 -0.16538550023E+03  0.10016451480E+04  0.10244204595E+04  0.50400001928E-02 0.  1.
</event>
<event>
 5   0  0.2440590E-06  0.2584492E+04  0.7818609E-02  0.8373488E-01
        1   -1    0    0  501    0  0.00000000000E+00  0.00000000000E+00  0.14724672758E+04  0.14724672758E+04  0.50400001928E-02 0.  1.
       -1   -1    0    0    0  501  0.00000000000E+00  0.00000000000E+00 -0.11340823434E+04  0.11340823434E+04  0.50400001928E-02 0. -1.
    10030    2    1    2    0    0  0.00000000000E+00  0.00000000000E+00  0.33838493243E+03  0.26065496192E+04  0.25844915467E+04 0.  0.
        1    1    3    3  502    0 -0.64875088179E+03 -0.11173266375E+04  0.19395024182E+03  0.13064888893E+04  0.50400001928E-02 0.  1.
       -1    1    3    3    0  502  0.64875088179E+03  0.11173266375E+04  0.14443469061E+03  0.13000607299E+04  0.50400001928E-02 0. -1.
</event>
<event>
 5   0  0.2503292E-06  0.2590987E+04  0.7818609E-02  0.8371269E-01
       -1   -1    0    0    0  501  0.00000000000E+00  0.00000000000E+00  0.77924924968E+03  0.77924924970E+03  0.50400001928E-02 0.  1.
        1   -1    0    0  501    0  0.00000000000E+00  0.00000000000E+00 -0.21537437865E+04  0.21537437865E+04  0.50400001928E-02 0. -1.
    10030    2    1    2    0    0  0.00000000000E+00  0.00000000000E+00 -0.13744945368E+04  0.29329930362E+04  0.25909868619E+04 0.  0.
        2    1    3    3  502    0  0.75560134821E+03  0.16873105276E+03  0.48856056705E+03  0.91547528272E+03  0.25500000920E-02 0.  1.
       -2    1    3    3    0  502 -0.75560134821E+03 -0.16873105276E+03 -0.18630551039E+04  0.20175177535E+04  0.25500000920E-02 0. -1.
</event>
<event>
 5   0  0.2471488E-06  0.2599521E+04  0.7818609E-02  0.8368364E-01
        1   -1    0    0  501    0  0.00000000000E+00  0.00000000000E+00  0.88412420762E+03  0.88412420764E+03  0.50400001928E-02 0. -1.
       -1   -1    0    0    0  501  0.00000000000E+00  0.00000000000E+00 -0.19107917723E+04  0.19107917723E+04  0.50400001928E-02 0.  1.
    10030    2    1    2    0    0  0.00000000000E+00  0.00000000000E+00 -0.10266675647E+04  0.27949159799E+04  0.25995209264E+04 0.  0.
        4    1    3    3  502    0 -0.12964184623E+04  0.44782786824E+02 -0.60113817848E+03  0.14297115268E+04  0.12699999809E+01 0.  1.
       -4    1    3    3    0  502  0.12964184623E+04 -0.44782786824E+02 -0.42552938619E+03  0.13652044531E+04  0.12699999809E+01 0. -1.
</event>
<event>
 5   0  0.2471488E-06  0.2594012E+04  0.7818609E-02  0.8370238E-01
        1   -1    0    0  501    0  0.00000000000E+00  0.00000000000E+00  0.18956754283E+04  0.18956754283E+04  0.50400001928E-02 0. -1.
       -1   -1    0    0    0  501  0.00000000000E+00  0.00000000000E+00 -0.88740111084E+03  0.88740111085E+03  0.50400001928E-02 0.  1.
    10030    2    1    2    0    0  0.00000000000E+00  0.00000000000E+00  0.10082743175E+04  0.27830765392E+04  0.25940119359E+04 0.  0.
        4    1    3    3  502    0 -0.21947191613E+03  0.78288074104E+03 -0.58003568118E+03  0.99875581650E+03  0.12699999809E+01 0.  1.
       -4    1    3    3    0  502  0.21947191613E+03 -0.78288074104E+03  0.15883099986E+04  0.17843207227E+04  0.12699999809E+01 0. -1.
</event>
<event>
 5   0  0.2440590E-06  0.2602073E+04  0.7818609E-02  0.8367497E-01
       -1   -1    0    0    0  501  0.00000000000E+00  0.00000000000E+00  0.15242423733E+04  0.15242423733E+04  0.50400001928E-02 0. -1.
        1   -1    0    0  501    0  0.00000000000E+00  0.00000000000E+00 -0.11105164368E+04  0.11105164369E+04  0.50400001928E-02 0.  1.
    10030    2    1    2    0    0  0.00000000000E+00  0.00000000000E+00  0.41372593641E+03  0.26347588101E+04  0.26020731806E+04 0.  0.
        1    1    3    3  502    0 -0.14503993836E+03  0.11823631480E+04  0.73657583061E+03  0.14005581572E+04  0.50400001928E-02 0.  1.
       -1    1    3    3    0  502  0.14503993836E+03 -0.11823631480E+04 -0.32284989420E+03  0.12342006529E+04  0.50400001928E-02 0. -1.
</event>
<event>
 5   0  0.2333979E-06  0.2608136E+04  0.7818609E-02  0.8365443E-01
       -1   -1    0    0    0  501  0.00000000000E+00  0.00000000000E+00  0.17231209297E+04  0.17231209297E+04  0.50400001928E-02 0.  1.
        1   -1    0    0  501    0  0.00000000000E+00  0.00000000000E+00 -0.98692629792E+03  0.98692629794E+03  0.50400001928E-02 0. -1.
    10030    2    1    2    0    0  0.00000000000E+00  0.00000000000E+00  0.73619463177E+03  0.27100472276E+04  0.26081360088E+04 0.  0.
        3    1    3    3  502    0  0.62114589157E+02 -0.48579547443E+03  0.16239328595E+04  0.16961761134E+04  0.10100000352E+00 0.  1.
       -3    1    3    3    0  502 -0.62114589157E+02  0.48579547443E+03 -0.88773822774E+03  0.10138711143E+04  0.10100000352E+00 0. -1.
</event>
<event>
 5   0  0.2471488E-06  0.2603185E+04  0.7818609E-02  0.8367120E-01
        1   -1    0    0  501    0  0.00000000000E+00  0.00000000000E+00  0.11827643184E+04  0.11827643184E+04  0.50400001928E-02 0.  1.
       -1   -1    0    0    0  501  0.00000000000E+00  0.00000000000E+00 -0.14323587962E+04  0.14323587962E+04  0.50400001928E-02 0. -1.
    10030    2    1    2    0    0  0.00000000000E+00  0.00000000000E+00 -0.24959447782E+03  0.26151231146E+04  0.26031848764E+04 0.  0.
        4    1    3    3  502    0 -0.15302332612E+03  0.25670578405E+03 -0.13974246517E+04  0.14290245862E+04  0.12699999809E+01 0. -1.
       -4    1    3    3    0  502  0.15302332612E+03 -0.25670578405E+03  0.11478301739E+04  0.11860985283E+04  0.12699999809E+01 0.  1.
</event>
<event>
 5   0  0.6173140E-06  0.2593607E+04  0.7818609E-02  0.8370376E-01
       -2   -1    0    0    0  501  0.00000000000E+00  0.00000000000E+00  0.88592170987E+03  0.88592170987E+03  0.25500000920E-02 0.  1.
        2   -1    0    0  501    0  0.00000000000E+00  0.00000000000E+00 -0.18982480612E+04  0.18982480612E+04  0.25500000920E-02 0. -1.
    10030    2    1    2    0    0  0.00000000000E+00  0.00000000000E+00 -0.10123263513E+04  0.27841697711E+04  0.25936068847E+04 0.  0.
        3    1    3    3  502    0 -0.49065585569E+02 -0.44471826819E+03 -0.18127700537E+04  0.18671681894E+04  0.10100000352E+00 0. -1.
       -3    1    3    3    0  502  0.49065585569E+02  0.44471826819E+03  0.80044370242E+03  0.91700158162E+03  0.10100000352E+00 0.  1.
</event>
<event>
 5   0  0.2503292E-06  0.2601248E+04  0.7818609E-02  0.8367778E-01
       -1   -1    0    0    0  501  0.00000000000E+00  0.00000000000E+00  0.13998957548E+04  0.13998957548E+04  0.50400001928E-02 0. -1.
        1   -1    0    0  501    0  0.00000000000E+00  0.00000000000E+00 -0.12083916074E+04  0.12083916074E+04  0.50400001928E-02 0.  1.
    10030    2    1    2    0    0  0.00000000000E+00  0.00000000000E+00  0.19150414743E+03  0.26082873622E+04  0.26012476094E+04 0.  0.
        2    1    3    3  502    0  0.24201995228E+03  0.84079647528E+03 -0.86919836752E+03  0.12332956548E+04  0.25500000920E-02 0.  1.
       -2    1    3    3    0  502 -0.24201995228E+03 -0.84079647528E+03  0.10607025150E+04  0.13749917074E+04  0.25500000920E-02 0. -1.
</event>
<event>
 5   0  0.2333979E-06  0.2601197E+04  0.7818609E-02  0.8367795E-01
        1   -1    0    0  501    0  0.00000000000E+00  0.00000000000E+00  0.31134560700E+04  0.31134560700E+04  0.50400001928E-02 0.  1.
       -1   -1    0    0    0  501  0.00000000000E+00  0.00000000000E+00 -0.54330491855E+03  0.54330491858E+03  0.50400001928E-02 0. -1.
    10030    2    1    2    0    0  0.00000000000E+00  0.00000000000E+00  0.25701511515E+04  0.36567609886E+04  0.26011966451E+04 0.  0.
        3    1    3    3  502    0 -0.16383891784E+03 -0.73694188903E+03  0.27739157920E+04  0.28748104929E+04  0.10100000352E+00 0.  1.
       -3    1    3    3    0  502  0.16383891784E+03  0.73694188903E+03 -0.20376464053E+03  0.78195049570E+03  0.10100000352E+00 0. -1.
</event>
<event>
 5   0  0.2503292E-06  0.2601856E+04  0.7818609E-02  0.8367571E-01
       -1   -1    0    0    0  501  0.00000000000E+00  0.00000000000E+00  0.10239486744E+04  0.10239486744E+04  0.50400001928E-02 0. -1.
        1   -1    0    0  501    0  0.00000000000E+00  0.00000000000E+00 -0.16528311483E+04  0.16528311483E+04  0.50400001928E-02 0.  1.
    10030    2    1    2    0    0  0.00000000000E+00  0.00000000000E+00 -0.62888247395E+03  0.26767798227E+04  0.26018564628E+04 0.  0.
        2    1    3    3  502    0  0.37476090997E+03  0.10994577339E+04  0.28822715437E+03  0.11967990395E+04  0.25500000920E-02 0.  1.
       -2    1    3    3    0  502 -0.37476090997E+03 -0.10994577339E+04 -0.91710962832E+03  0.14799807832E+04  0.25500000920E-02 0. -1.
</event>
<event>
 5   0  0.5940748E-06  0.2598819E+04  0.7818609E-02  0.8368602E-01
       -2   -1    0    0    0  501  0.00000000000E+00  0.00000000000E+00  0.12475487909E+04  0.12475487909E+04  0.25500000920E-02 0.  1.
        2   -1    0    0  501    0  0.00000000000E+00  0.00000000000E+00 -0.13534265522E+04  0.13534265522E+04  0.25500000920E-02 0. -1.
    10030    2    1    2    0    0  0.00000000000E+00  0.00000000000E+00 -0.10587776126E+03  0.26009753431E+04  0.25988194695E+04 0.  0.
        1    1    3    3  502    0  0.12622978112E+04  0.29326408637E+03 -0.14823378196E+03  0.13043668359E+04  0.50400001928E-02 0. -1.
       -1    1    3    3    0  502 -0.12622978112E+04 -0.29326408637E+03  0.42356020701E+02  0.12966085072E+04  0.50400001928E-02 0.  1.
</event>
<event>
 5   0  0.2440590E-06  0.2601852E+04  0.7818609E-02  0.8367572E-01
       -1   -1    0    0    0  501  0.00000000000E+00  0.00000000000E+00  0.92420596953E+03  0.92420596954E+03  0.50400001928E-02 0.  1.
        1   -1    0    0  501    0  0.00000000000E+00  0.00000000000E+00 -0.18312031126E+04  0.18312031126E+04  0.50400001928E-02 0. -1.
    10030    2    1    2    0    0  0.00000000000E+00  0.00000000000E+00 -0.90699714308E+03  0.27554090822E+04  0.26018523003E+04 0.  0.
        1    1    3    3  502    0  0.12024042861E+04  0.15448822640E+03 -0.95333518365E+03  0.15422356019E+04  0.50400001928E-02 0. -1.
       -1    1    3    3    0  502 -0.12024042861E+04 -0.15448822640E+03  0.46338040574E+02  0.12131734803E+04  0.50400001928E-02 0.  1.
</event>
<event>
 5   0  0.6158063E-06  0.2600295E+04  0.7818609E-02  0.8368101E-01
        2   -1    0    0  501    0  0.00000000000E+00  0.00000000000E+00  0.27535995372E+04  0.27535995372E+04  0.25500000920E-02 0. -1.
       -2   -1    0    0    0  501  0.00000000000E+00  0.00000000000E+00 -0.61388141406E+03  0.61388141406E+03  0.25500000920E-02 0.  1.
    10030    2    1    2    0    0  0.00000000000E+00  0.00000000000E+00  0.21397181231E+04  0.33674809513E+04  0.26002950430E+04 0.  0.
        2    1    3    3  502    0  0.98221828404E+03  0.93739632016E+02 -0.26605896253E+02  0.98703989273E+03  0.25500000920E-02 0.  1.
       -2    1    3    3    0  502 -0.98221828404E+03 -0.93739632016E+02  0.21663240194E+04  0.23804410585E+04  0.25500000920E-02 0. -1.
</event>
<event>
 5   0  0.2456600E-06  0.2596841E+04  0.7818609E-02  0.8369275E-01
       -1   -1    0    0    0  501  0.00000000000E+00  0.00000000000E+00  0.15667513698E+04  0.15667513698E+04  0.50400001928E-02 0. -1.
        1   -1    0    0  501    0  0.00000000000E+00  0.00000000000E+00 -0.10760454007E+04  0.10760454007E+04  0.50400001928E-02 0.  1.
    10030    2    1    2    0    0  0.00000000000E+00  0.00000000000E+00  0.49070596912E+03  0.26427967705E+04  0.25968408542E+04 0.  0.
        5    1    3    3  502    0 -0.43992235735E+03  0.36929051743E+03  0.14304199399E+04  0.15414377902E+04  0.46999998093E+01 0. -1.
       -5    1    3    3    0  502  0.43992235735E+03 -0.36929051743E+03 -0.93971397074E+03  0.11013589803E+04  0.46999998093E+01 0.  1.
</event>
<event>
 5   0  0.2440590E-06  0.2481687E+04  0.7818609E-02  0.8409539E-01
        1   -1    0    0  501    0  0.00000000000E+00  0.00000000000E+00  0.13701103994E+04  0.13701103994E+04  0.50400001928E-02 0. -1.
       -1   -1    0    0    0  501  0.00000000000E+00  0.00000000000E+00 -0.11237730105E+04  0.11237730105E+04  0.50400001928E-02 0.  1.
    10030    2    1    2    0    0  0.00000000000E+00  0.00000000000E+00  0.24633738894E+03  0.24938834099E+04  0.24816874003E+04 0.  0.
        1    1    3    3  502    0  0.20023157841E+03 -0.56275271823E+03 -0.96979285044E+03  0.11389826512E+04  0.50400001928E-02 0.  1.
       -1    1    3    3    0  502 -0.20023157841E+03  0.56275271823E+03  0.12161302394E+04  0.13549007587E+04  0.50400001928E-02 0. -1.
</event>
<event>
 5   0  0.2333979E-06  0.2602389E+04  0.7818609E-02  0.8367390E-01
       -1   -1    0    0    0  501  0.00000000000E+00  0.00000000000E+00  0.16174046636E+04  0.16174046636E+04  0.50400001928E-02 0.  1.
        1   -1    0    0  501    0  0.00000000000E+00  0.00000000000E+00 -0.10468048843E+04  0.10468048843E+04  0.50400001928E-02 0. -1.
    10030    2    1    2    0    0  0.00000000000E+00  0.00000000000E+00  0.57059977928E+03  0.26642095479E+04  0.26023889807E+04 0.  0.
        3    1    3    3  502    0  0.81103986402E+03  0.10023513584E+04  0.10617727262E+03  0.12937416783E+04  0.10100000352E+00 0. -1.
       -3    1    3    3    0  502 -0.81103986402E+03 -0.10023513584E+04  0.46442250666E+03  0.13704678696E+04  0.10100000352E+00 0.  1.
</event>
<event>
 5   0  0.6173140E-06  0.2547253E+04  0.7818609E-02  0.8386342E-01
        2   -1    0    0  501    0  0.00000000000E+00  0.00000000000E+00  0.18243712028E+04  0.18243712028E+04  0.25500000920E-02 0.  1.
       -2   -1    0    0    0  501  0.00000000000E+00  0.00000000000E+00 -0.88914194177E+03  0.88914194177E+03  0.25500000920E-02 0. -1.
    10030    2    1    2    0    0  0.00000000000E+00  0.00000000000E+00  0.93522926107E+03  0.27135131446E+04  0.25472533865E+04 0.  0.
        3    1    3    3  502    0  0.19636309075E+03  0.12224682745E+04  0.14956804887E+03  0.12471398306E+04  0.10100000352E+00 0. -1.
       -3    1    3    3    0  502 -0.19636309075E+03 -0.12224682745E+04  0.78566121220E+03  0.14663733140E+04  0.10100000352E+00 0.  1.
</event>
<event>
 5   0  0.5942229E-06  0.2581192E+04  0.7818609E-02  0.8374618E-01
       -2   -1    0    0    0  501  0.00000000000E+00  0.00000000000E+00  0.10543878907E+04  0.10543878907E+04  0.25500000920E-02 0. -1.
        2   -1    0    0  501    0  0.00000000000E+00  0.00000000000E+00 -0.15797204895E+04  0.15797204895E+04  0.25500000920E-02 0.  1.
    10030    2    1    2    0    0  0.00000000000E+00  0.00000000000E+00 -0.52533259879E+03  0.26341083803E+04  0.25811920927E+04 0.  0.
        4    1    3    3  502    0  0.72639146890E+03 -0.56525238969E+03  0.66058048563E+03  0.11329267501E+04  0.12699999809E+01 0. -1.
       -4    1    3    3    0  502 -0.72639146890E+03  0.56525238969E+03 -0.11859130844E+04  0.15011816302E+04  0.12699999809E+01 0.  1.
</event>
<event>
 5   0  0.2440590E-06  0.2617191E+04  0.7818609E-02  0.8362385E-01
        1   -1    0    0  501    0  0.00000000000E+00  0.00000000000E+00  0.15068427853E+04  0.15068427853E+04  0.50400001928E-02 0. -1.
       -1   -1    0    0    0  501  0.00000000000E+00  0.00000000000E+00 -0.11364306954E+04  0.11364306954E+04  0.50400001928E-02 0.  1.
    10030    2    1    2    0    0  0.00000000000E+00  0.00000000000E+00  0.37041208986E+03  0.26432734807E+04  0.26171911618E+04 0.  0.
        1    1    3    3  502    0  0.33533920521E+03  0.10717151657E+04 -0.49335012373E+03  0.12265480519E+04  0.50400001928E-02 0.  1.
       -1    1    3    3    0  502 -0.33533920521E+03 -0.10717151657E+04  0.86376221359E+03  0.14167254288E+04  0.50400001928E-02 0. -1.
</event>
<event>
 5   0  0.2456600E-06  0.2589324E+04  0.7818609E-02  0.8371837E-01
        1   -1    0    0  501    0  0.00000000000E+00  0.00000000000E+00  0.11428625942E+04  0.11428625942E+04  0.50400001928E-02 0. -1.
       -1   -1    0    0    0  501  0.00000000000E+00  0.00000000000E+00 -0.14666244188E+04  0.14666244188E+04  0.50400001928E-02 0.  1.
    10030    2    1    2    0    0  0.00000000000E+00  0.00000000000E+00 -0.32376182457E+03  0.26094870130E+04  0.25893243813E+04 0.  0.
        5    1    3    3  502    0 -0.42820754690E+03  0.94686408456E+03  0.61628115267E+03  0.12081961128E+04  0.46999998093E+01 0. -1.
       -5    1    3    3    0  502  0.42820754690E+03 -0.94686408456E+03 -0.94004297724E+03  0.14012909002E+04  0.46999998093E+01 0.  1.
</event>
<event>
 5   0  0.6173140E-06  0.2608524E+04  0.7818609E-02  0.8365312E-01
        2   -1    0    0  501    0  0.00000000000E+00  0.00000000000E+00  0.20074617262E+04  0.20074617262E+04  0.25500000920E-02 0.  1.
       -2   -1    0    0    0  501  0.00000000000E+00  0.00000000000E+00 -0.84738824032E+03  0.84738824032E+03  0.25500000920E-02 0. -1.
    10030    2    1    2    0    0  0.00000000000E+00  0.00000000000E+00  0.11600734859E+04  0.28548499665E+04  0.26085240729E+04 0.  0.
        3    1    3    3  502    0  0.12139609010E+04 -0.11924794985E+03  0.10853491301E+04  0.16327595925E+04  0.10100000352E+00 0. -1.
       -3    1    3    3    0  502 -0.12139609010E+04  0.11924794985E+03  0.74724355781E+02  0.12220903740E+04  0.10100000352E+00 0.  1.
</event>
<event>
 5   0  0.2471488E-06  0.2597990E+04  0.7818609E-02  0.8368884E-01
       -1   -1    0    0    0  501  0.00000000000E+00  0.00000000000E+00  0.11401793266E+04  0.11401793267E+04  0.50400001928E-02 0.  1.
        1   -1    0    0  501    0  0.00000000000E+00  0.00000000000E+00 -0.14799323801E+04  0.14799323801E+04  0.50400001928E-02 0. -1.
    10030    2    1    2    0    0  0.00000000000E+00  0.00000000000E+00 -0.33975305349E+03  0.26201117068E+04  0.25979902268E+04 0.  0.
        4    1    3    3  502    0  0.89174018576E+03 -0.94449215904E+03 -0.15879688180E+03  0.13086191424E+04  0.12699999809E+01 0.  1.
       -4    1    3    3    0  502 -0.89174018576E+03  0.94449215904E+03 -0.18095617170E+03  0.13114925644E+04  0.12699999809E+01 0. -1.
</event>
<event>
 5   0  0.6173140E-06  0.2599616E+04  0.7818609E-02  0.8368332E-01
       -2   -1    0    0    0  501  0.00000000000E+00  0.00000000000E+00  0.11670336003E+04  0.11670336003E+04  0.25500000920E-02 0. -1.
        2   -1    0    0  501    0  0.00000000000E+00  0.00000000000E+00 -0.14476887032E+04  0.14476887032E+04  0.25500000920E-02 0.  1.
    10030    2    1    2    0    0  0.00000000000E+00  0.00000000000E+00 -0.28065510285E+03  0.26147223035E+04  0.25996164020E+04 0.  0.
        3    1    3    3  502    0  0.55192399778E+03 -0.11642337775E+04 -0.31290827924E+03  0.13258853606E+04  0.10100000352E+00 0.  1.
       -3    1    3    3    0  502 -0.55192399778E+03  0.11642337775E+04  0.32253176392E+02  0.12888369430E+04  0.10100000352E+00 0. -1.
</event>
<event>
 5   0  0.2456600E-06  0.2586991E+04  0.7818609E-02  0.8372633E-01
        1   -1    0    0  501    0  0.00000000000E+00  0.00000000000E+00  0.27888526065E+04  0.27888526065E+04  0.50400001928E-02 0. -1.
       -1   -1    0    0    0  501  0.00000000000E+00  0.00000000000E+00 -0.59993516886E+03  0.59993516888E+03  0.50400001928E-02 0.  1.
    10030    2    1    2    0    0  0.00000000000E+00  0.00000000000E+00  0.21889174376E+04  0.33887877753E+04  0.25869911167E+04 0.  0.
        5    1    3    3  502    0  0.60225853390E+03 -0.21518421566E+03 -0.37832262558E+03  0.74308121181E+03  0.46999998093E+01 0.  1.
       -5    1    3    3    0  502 -0.60225853390E+03  0.21518421566E+03  0.25672400632E+04  0.26457065635E+04  0.46999998093E+01 0. -1.
</event>
<event>
 5   0  0.2503292E-06  0.2598691E+04  0.7818609E-02  0.8368646E-01
        1   -1    0    0  501    0  0.00000000000E+00  0.00000000000E+00  0.99670903530E+03  0.99670903531E+03  0.50400001928E-02 0.  1.
       -1   -1    0    0    0  501  0.00000000000E+00  0.00000000000E+00 -0.16938725741E+04  0.16938725741E+04  0.50400001928E-02 0. -1.
    10030    2    1    2    0    0  0.00000000000E+00  0.00000000000E+00 -0.69716353883E+03  0.26905816094E+04  0.25986905159E+04 0.  0.
        2    1    3    3  502    0 -0.62191276129E+03  0.10129542437E+04  0.19480629231E+03  0.12044921229E+04  0.25500000920E-02 0. -1.
       -2    1    3    3    0  502  0.62191276129E+03 -0.10129542437E+04 -0.89196983114E+03  0.14860894866E+04  0.25500000920E-02 0.  1.
</event>
<event>
 5   0  0.6161834E-06  0.2549399E+04  0.7818609E-02  0.8385595E-01
       -2   -1    0    0    0  501  0.00000000000E+00  0.00000000000E+00  0.14953756728E+04  0.14953756728E+04  0.25500000920E-02 0.  1.
        2   -1    0    0  501    0  0.00000000000E+00  0.00000000000E+00 -0.10865893871E+04  0.10865893871E+04  0.25500000920E-02 0. -1.
    10030    2    1    2    0    0  0.00000000000E+00  0.00000000000E+00  0.40878628577E+03  0.25819650599E+04  0.25493994083E+04 0.  0.
        5    1    3    3  502    0  0.51856968533E+03  0.88150454277E+03 -0.56616236226E+03  0.11689853241E+04  0.46999998093E+01 0. -1.
       -5    1    3    3    0  502 -0.51856968533E+03 -0.88150454277E+03  0.97494864804E+03  0.14129797358E+04  0.46999998093E+01 0.  1.
</event>
<event>
 5   0  0.2440590E-06  0.2589183E+04  0.7818609E-02  0.8371885E-01
        1   -1    0    0  501    0  0.00000000000E+00  0.00000000000E+00  0.20885965697E+04  0.20885965697E+04  0.50400001928E-02 0. -1.
       -1   -1    0    0    0  501  0.00000000000E+00  0.00000000000E+00 -0.80243720817E+03  0.80243720819E+03  0.50400001928E-02 0.  1.
    10030    2    1    2    0    0  0.00000000000E+00  0.00000000000E+00  0.12861593615E+04  0.28910337779E+04  0.25891833465E+04 0.  0.
        1    1    3    3  502    0 -0.11602870678E+04 -0.26471927511E+03  0.12120161912E+04  0.16986246266E+04  0.50400001928E-02 0. -1.
       -1    1    3    3    0  502  0.11602870678E+04  0.26471927511E+03  0.74143170282E+02  0.11924091513E+04  0.50400001928E-02 0.  1.
</event>
<event>
 5   0  0.2440590E-06  0.2588521E+04  0.7818609E-02  0.8372111E-01
       -1   -1    0    0    0  501  0.00000000000E+00  0.00000000000E+00  0.66577856752E+03  0.66577856754E+03  0.50400001928E-02 0. -1.
        1   -1    0    0  501    0  0.00000000000E+00  0.00000000000E+00 -0.25160169242E+04  0.25160169242E+04  0.50400001928E-02 0.  1.
    10030    2    1    2    0    0  0.00000000000E+00  0.00000000000E+00 -0.18502383567E+04  0.31817954918E+04  0.25885209242E+04 0.  0.
        1    1    3    3  502    0  0.26296161368E+03 -0.88976386257E+03 -0.20343141536E+04  0.22359030875E+04  0.50400001928E-02 0.  1.
       -1    1    3    3    0  502 -0.26296161368E+03  0.88976386257E+03  0.18407579685E+03  0.94589240425E+03  0.50400001928E-02 0. -1.
</event>
<event>
 5   0  0.6173140E-06  0.2606127E+04  0.7818609E-02  0.8366123E-01
       -2   -1    0    0    0  501  0.00000000000E+00  0.00000000000E+00  0.11941788332E+04  0.11941788332E+04  0.25500000920E-02 0.  1.
        2   -1    0    0  501    0  0.00000000000E+00  0.00000000000E+00 -0.14218766596E+04  0.14218766596E+04  0.25500000920E-02 0. -1.
    10030    2    1    2    0    0  0.00000000000E+00  0.00000000000E+00 -0.22769782639E+03  0.26160554927E+04  0.26061274031E+04 0.  0.
        3    1    3    3  502    0  0.49611694799E+03  0.10885274370E+04 -0.63249019214E+03  0.13531695609E+04  0.10100000352E+00 0. -1.
       -3    1    3    3    0  502 -0.49611694799E+03 -0.10885274370E+04  0.40479236575E+03  0.12628859318E+04  0.10100000352E+00 0.  1.
</event>
<event>
 5   0  0.2471488E-06  0.2600967E+04  0.7818609E-02  0.8367873E-01
        1   -1    0    0  501    0  0.00000000000E+00  0.00000000000E+00  0.11137338322E+04  0.11137338322E+04  0.50400001928E-02 0.  1.
       -1   -1    0    0    0  501  0.00000000000E+00  0.00000000000E+00 -0.15185473657E+04  0.15185473657E+04  0.50400001928E-02 0. -1.
    10030    2    1    2    0    0  0.00000000000E+00  0.00000000000E+00 -0.40481353349E+03  0.26322811979E+04  0.26009671870E+04 0.  0.
        4    1    3    3  502    0  0.82595292637E+03  0.91978088683E+03 -0.61107629478E+03  0.13789891107E+04  0.12699999809E+01 0. -1.
       -4    1    3    3    0  502 -0.82595292637E+03 -0.91978088683E+03  0.20626276129E+03  0.12532920872E+04  0.12699999809E+01 0.  1.
</event>
<event>
 5   0  0.2440590E-06  0.2609206E+04  0.7818609E-02  0.8365081E-01
       -1   -1    0    0    0  501  0.00000000000E+00  0.00000000000E+00  0.99263131081E+03  0.99263131082E+03  0.50400001928E-02 0.  1.
        1   -1    0    0  501    0  0.00000000000E+00  0.00000000000E+00 -0.17146234637E+04  0.17146234637E+04  0.50400001928E-02 0. -1.
    10030    2    1    2    0    0  0.00000000000E+00  0.00000000000E+00 -0.72199215289E+03  0.27072547745E+04  0.26092059607E+04 0.  0.
        1    1    3    3  502    0 -0.85750955063E+03  0.94605289919E+03 -0.63873038204E+03  0.14276957724E+04  0.50400001928E-02 0. -1.
       -1    1    3    3    0  502  0.85750955063E+03 -0.94605289919E+03 -0.83261770859E+02  0.12795590022E+04  0.50400001928E-02 0.  1.
</event>
<event>
 5   0  0.6161834E-06  0.2607917E+04  0.7818609E-02  0.8365517E-01
        2   -1    0    0  501    0  0.00000000000E+00  0.00000000000E+00  0.15258500373E+04  0.15258500373E+04  0.25500000920E-02 0. -1.
       -2   -1    0    0    0  501  0.00000000000E+00  0.00000000000E+00 -0.11143349886E+04  0.11143349886E+04  0.25500000920E-02 0.  1.
    10030    2    1    2    0    0  0.00000000000E+00  0.00000000000E+00  0.41151504869E+03  0.26401850259E+04  0.26079172409E+04 0.  0.
        5    1    3    3  502    0 -0.29510280912E+03  0.10808409281E+04 -0.46956676825E+03  0.12148324246E+04  0.46999998093E+01 0.  1.
       -5    1    3    3    0  502  0.29510280912E+03 -0.10808409281E+04  0.88108181694E+03  0.14253526013E+04  0.46999998093E+01 0. -1.
</event>
<event>
 5   0  0.2456600E-06  0.2603455E+04  0.7818609E-02  0.8367028E-01
        1   -1    0    0  501    0  0.00000000000E+00  0.00000000000E+00  0.22901105296E+04  0.22901105296E+04  0.50400001928E-02 0.  1.
       -1   -1    0    0    0  501  0.00000000000E+00  0.00000000000E+00 -0.73991838553E+03  0.73991838554E+03  0.50400001928E-02 0. -1.
    10030    2    1    2    0    0  0.00000000000E+00  0.00000000000E+00  0.15501921441E+04  0.30300289152E+04  0.26034553085E+04 0.  0.
        5    1    3    3  502    0 -0.35677500401E+03 -0.20255209559E+03 -0.66269657534E+03  0.77942581166E+03  0.46999998093E+01 0. -1.
       -5    1    3    3    0  502  0.35677500401E+03  0.20255209559E+03  0.22128887194E+04  0.22506031035E+04  0.46999998093E+01 0.  1.
</event>
<event>
 5   0  0.6173140E-06  0.2606618E+04  0.7818609E-02  0.8365957E-01
       -2   -1    0    0    0  501  0.00000000000E+00  0.00000000000E+00  0.69624049974E+03  0.69624049974E+03  0.25500000920E-02 0.  1.
        2   -1    0    0  501    0  0.00000000000E+00  0.00000000000E+00 -0.24396955827E+04  0.24396955827E+04  0.25500000920E-02 0. -1.
    10030    2    1    2    0    0  0.00000000000E+00  0.00000000000E+00 -0.17434550829E+04  0.31359360824E+04  0.26066184007E+04 0.  0.
        3    1    3    3  502    0  0.44214255089E+03 -0.12248097122E+04 -0.80620738105E+03  0.15315414516E+04  0.10100000352E+00 0.  1.
       -3    1    3    3    0  502 -0.44214255089E+03  0.12248097122E+04 -0.93724770186E+03  0.16043946308E+04  0.10100000352E+00 0. -1.
</event>
<event>
 5   0  0.2503292E-06  0.2744599E+04  0.7818609E-02  0.8320677E-01
       -1   -1    0    0    0  501  0.00000000000E+00  0.00000000000E+00  0.77571625855E+03  0.77571625857E+03  0.50400001928E-02 0.  1.
        1   -1    0    0  501    0  0.00000000000E+00  0.00000000000E+00 -0.24276998083E+04  0.24276998083E+04  0.50400001928E-02 0. -1.
    10030    2    1    2    0    0  0.00000000000E+00  0.00000000000E+00 -0.16519835498E+04  0.32034160669E+04  0.27445992146E+04 0.  0.
        2    1    3    3  502    0 -0.10817839890E+03  0.65525453276E+03  0.57565602817E+03  0.87888618800E+03  0.25500000920E-02 0.  1.
       -2    1    3    3    0  502  0.10817839890E+03 -0.65525453276E+03 -0.22276395779E+04  0.23245298789E+04  0.25500000920E-02 0. -1.
</event>
<event>
 5   0  0.2471488E-06  0.2608558E+04  0.7818609E-02  0.8365300E-01
        1   -1    0    0  501    0  0.00000000000E+00  0.00000000000E+00  0.23293719079E+04  0.23293719079E+04  0.50400001928E-02 0. -1.
       -1   -1    0    0    0  501  0.00000000000E+00  0.00000000000E+00 -0.73030151178E+03  0.73030151179E+03  0.50400001928E-02 0.  1.
    10030    2    1    2    0    0  0.00000000000E+00  0.00000000000E+00  0.15990703961E+04  0.30596734197E+04  0.26085580890E+04 0.  0.
        4    1    3    3  502    0  0.11196109892E+04  0.57520118086E+03  0.39874590279E+03  0.13203730811E+04  0.12699999809E+01 0.  1.
       -4    1    3    3    0  502 -0.11196109892E+04 -0.57520118086E+03  0.12003244933E+04  0.17393003386E+04  0.12699999809E+01 0. -1.
</event>
<event>
 5   0  0.2440590E-06  0.2616628E+04  0.7818609E-02  0.8362575E-01
       -1   -1    0    0    0  501  0.00000000000E+00  0.00000000000E+00  0.12980768332E+04  0.12980768332E+04  0.50400001928E-02 0. -1.
        1   -1    0    0  501    0  0.00000000000E+00  0.00000000000E+00 -0.13186324016E+04  0.13186324016E+04  0.50400001928E-02 0.  1.
    10030    2    1    2    0    0  0.00000000000E+00  0.00000000000E+00 -0.20555568408E+02  0.26167092348E+04  0.26166284964E+04 0.  0.
        1    1    3    3  502    0  0.12681910130E+04  0.22908580577E+03  0.21533374276E+03  0.13065823253E+04  0.50400001928E-02 0. -1.
       -1    1    3    3    0  502 -0.12681910130E+04 -0.22908580577E+03 -0.23588931117E+03  0.13101269095E+04  0.50400001928E-02 0.  1.
</event>
<event>
 5   0  0.2471488E-06  0.2591534E+04  0.7818609E-02  0.8371083E-01
       -1   -1    0    0    0  501  0.00000000000E+00  0.00000000000E+00  0.10598239586E+04  0.10598239586E+04  0.50400001928E-02 0. -1.
        1   -1    0    0  501    0  0.00000000000E+00  0.00000000000E+00 -0.15842367429E+04  0.15842367429E+04  0.50400001928E-02 0.  1.
    10030    2    1    2    0    0  0.00000000000E+00  0.00000000000E+00 -0.52441278423E+03  0.26440607015E+04  0.25915339521E+04 0.  0.
        4    1    3    3  502    0  0.56852518688E+03 -0.94018214240E+03 -0.96304038885E+03  0.14610310580E+04  0.12699999809E+01 0.  1.
       -4    1    3    3    0  502 -0.56852518688E+03  0.94018214240E+03  0.43862760462E+03  0.11830296435E+04  0.12699999809E+01 0. -1.
</event>
<event>
 5   0  0.6158063E-06  0.2595438E+04  0.7818609E-02  0.8369753E-01
       -2   -1    0    0    0  501  0.00000000000E+00  0.00000000000E+00  0.11165254166E+04  0.11165254166E+04  0.25500000920E-02 0. -1.
        2   -1    0    0  501    0  0.00000000000E+00  0.00000000000E+00 -0.15083169082E+04  0.15083169082E+04  0.25500000920E-02 0.  1.
    10030    2    1    2    0    0  0.00000000000E+00  0.00000000000E+00 -0.39179149158E+03  0.26248423249E+04  0.25954376621E+04 0.  0.
        2    1    3    3  502    0  0.10553452492E+04 -0.31687546217E+03 -0.88916221853E+03  0.14159001040E+04  0.25500000920E-02 0.  1.
       -2    1    3    3    0  502 -0.10553452492E+04  0.31687546217E+03  0.49737072695E+03  0.12089422209E+04  0.25500000920E-02 0. -1.
</event>
<event>
 5   0  0.5940748E-06  0.2594247E+04  0.7818609E-02  0.8370158E-01
       -2   -1    0    0    0  501  0.00000000000E+00  0.00000000000E+00  0.10511097650E+04  0.10511097650E+04  0.25500000920E-02 0. -1.
        2   -1    0    0  501    0  0.00000000000E+00  0.00000000000E+00 -0.16007171763E+04  0.16007171763E+04  0.25500000920E-02 0.  1.
    10030    2    1    2    0    0  0.00000000000E+00  0.00000000000E+00 -0.54960741130E+03  0.26518269414E+04  0.25942470624E+04 0.  0.
        1    1    3    3  502    0 -0.10697341073E+04 -0.14293816082E+03  0.46072742876E+03  0.11734701282E+04  0.50400001928E-02 0. -1.
       -1    1    3    3    0  502  0.10697341073E+04  0.14293816082E+03 -0.10103348401E+04  0.14783568132E+04  0.50400001928E-02 0.  1.
</event>
<event>
 5   0  0.6173140E-06  0.2602488E+04  0.7818609E-02  0.8367357E-01
       -2   -1    0    0    0  501  0.00000000000E+00  0.00000000000E+00  0.58121595548E+03  0.58121595548E+03  0.25500000920E-02 0. -1.
        2   -1    0    0  501    0  0.00000000000E+00  0.00000000000E+00 -0.29132649589E+04  0.29132649589E+04  0.25500000920E-02 0.  1.
    10030    2    1    2    0    0  0.00000000000E+00  0.00000000000E+00 -0.23320490034E+04  0.34944809144E+04  0.26024880992E+04 0.  0.
        3    1    3    3  502    0 -0.40832182679E+03 -0.12346629017E+04 -0.11042454621E+04  0.17060120885E+04  0.10100000352E+00 0.  1.
       -3    1    3    3    0  502  0.40832182679E+03  0.12346629017E+04 -0.12278035413E+04  0.17884688259E+04  0.10100000352E+00 0. -1.
</event>
<event>
 5   0  0.5940748E-06  0.2593256E+04  0.7818609E-02  0.8370495E-01
        2   -1    0    0  501    0  0.00000000000E+00  0.00000000000E+00  0.18153207442E+04  0.18153207442E+04  0.25500000920E-02 0.  1.
       -2   -1    0    0    0  501  0.00000000000E+00  0.00000000000E+00 -0.92614185834E+03  0.92614185835E+03  0.25500000920E-02 0. -1.
    10030    2    1    2    0    0  0.00000000000E+00  0.00000000000E+00  0.88917888583E+03  0.27414626025E+04  0.25932562754E+04 0.  0.
        1    1    3    3  502    0  0.45995113663E+02  0.12673223456E+04  0.73026091359E+03  0.14633873308E+04  0.50400001928E-02 0. -1.
       -1    1    3    3    0  502 -0.45995113663E+02 -0.12673223456E+04  0.15891797224E+03  0.12780752717E+04  0.50400001928E-02 0.  1.
</event>
<event>
 5   0  0.5942229E-06  0.2563292E+04  0.7818609E-02  0.8380778E-01
       -2   -1    0    0    0  501  0.00000000000E+00  0.00000000000E+00  0.73924657078E+03  0.73924657079E+03  0.25500000920E-02 0. -1.
        2   -1    0    0  501    0  0.00000000000E+00  0.00000000000E+00 -0.22220142387E+04  0.22220142387E+04  0.25500000920E-02 0.  1.
    10030    2    1    2    0    0  0.00000000000E+00  0.00000000000E+00 -0.14827676679E+04  0.29612608095E+04  0.25632919508E+04 0.  0.
        4    1    3    3  502    0 -0.10181814156E+04 -0.64611554589E+03 -0.12428985539E+04  0.17317497284E+04  0.12699999809E+01 0.  1.
       -4    1    3    3    0  502  0.10181814156E+04  0.64611554589E+03 -0.23986911405E+03  0.12295110811E+04  0.12699999809E+01 0. -1.
</event>
<event>
 5   0  0.2333979E-06  0.2597505E+04  0.7818609E-02  0.8369049E-01
        1   -1    0    0  501    0  0.00000000000E+00  0.00000000000E+00  0.13868238993E+04  0.13868238993E+04  0.50400001928E-02 0.  1.
       -1   -1    0    0    0  501  0.00000000000E+00  0.00000000000E+00 -0.12162744933E+04  0.12162744933E+04  0.50400001928E-02 0. -1.
    10030    2    1    2    0    0  0.00000000000E+00  0.00000000000E+00  0.17054940602E+03  0.26030983926E+04  0.25975053689E+04 0.  0.
        3    1    3    3  502    0  0.10908579594E+04 -0.67336277527E+03  0.29397779992E+03  0.13152229742E+04  0.10100000352E+00 0. -1.
       -3    1    3    3    0  502 -0.10908579594E+04  0.67336277527E+03 -0.12342839390E+03  0.12878754184E+04  0.10100000352E+00 0.  1.
</event>
<event>
 5   0  0.2440590E-06  0.2598531E+04  0.7818609E-02  0.8368700E-01
        1   -1    0    0  501    0  0.00000000000E+00  0.00000000000E+00  0.19265782842E+04  0.19265782842E+04  0.50400001928E-02 0.  1.
       -1   -1    0    0    0  501  0.00000000000E+00  0.00000000000E+00 -0.87621215547E+03  0.87621215548E+03  0.50400001928E-02 0. -1.
    10030    2    1    2    0    0  0.00000000000E+00  0.00000000000E+00  0.10503661287E+04  0.28027904397E+04  0.25985313630E+04 0.  0.
        1    1    3    3  502    0  0.38545634919E+03 -0.19366832728E+02 -0.81295731549E+03  0.89991736742E+03  0.50400001928E-02 0. -1.
       -1    1    3    3    0  502 -0.38545634919E+03  0.19366832728E+02  0.18633234442E+04  0.19028730723E+04  0.50400001928E-02 0.  1.
</event>
<event>
 5   0  0.2456600E-06  0.2596232E+04  0.7818609E-02  0.8369482E-01
        1   -1    0    0  501    0  0.00000000000E+00  0.00000000000E+00  0.16606572790E+04  0.16606572790E+04  0.50400001928E-02 0. -1.
       -1   -1    0    0    0  501  0.00000000000E+00  0.00000000000E+00 -0.10147214180E+04  0.10147214180E+04  0.50400001928E-02 0.  1.
    10030    2    1    2    0    0  0.00000000000E+00  0.00000000000E+00  0.64593586102E+03  0.26753786971E+04  0.25962315067E+04 0.  0.
        5    1    3    3  502    0 -0.62091537575E+03  0.56971100579E+02 -0.85029336662E+03  0.10544204614E+04  0.46999998093E+01 0.  1.
       -5    1    3    3    0  502  0.62091537575E+03 -0.56971100579E+02  0.14962292276E+04  0.16209582357E+04  0.46999998093E+01 0. -1.
</event>
<event>
 5   0  0.2440590E-06  0.2608706E+04  0.7818609E-02  0.8365250E-01
       -1   -1    0    0    0  501  0.00000000000E+00  0.00000000000E+00  0.17280810862E+04  0.17280810863E+04  0.50400001928E-02 0. -1.
        1   -1    0    0  501    0  0.00000000000E+00  0.00000000000E+00 -0.98452376411E+03  0.98452376413E+03  0.50400001928E-02 0.  1.
    10030    2    1    2    0    0  0.00000000000E+00  0.00000000000E+00  0.74355732213E+03  0.27126048504E+04  0.26087061128E+04 0.  0.
        1    1    3    3  502    0  0.80489702681E+03 -0.93294039545E+03 -0.73165406187E+02  0.12343379529E+04  0.50400001928E-02 0.  1.
       -1    1    3    3    0  502 -0.80489702681E+03  0.93294039545E+03  0.81672272832E+03  0.14782668975E+04  0.50400001928E-02 0. -1.
</event>
<event>
 5   0  0.2471488E-06  0.2614985E+04  0.7818609E-02  0.8363129E-01
        1   -1    0    0  501    0  0.00000000000E+00  0.00000000000E+00  0.12855313352E+04  0.12855313352E+04  0.50400001928E-02 0. -1.
       -1   -1    0    0    0  501  0.00000000000E+00  0.00000000000E+00 -0.13298287947E+04  0.13298287947E+04  0.50400001928E-02 0.  1.
    10030    2    1    2    0    0  0.00000000000E+00  0.00000000000E+00 -0.44297459462E+02  0.26153601299E+04  0.26149849606E+04 0.  0.
        4    1    3    3  502    0 -0.64789468891E+03  0.10464515926E+04 -0.46346764179E+03  0.13151548698E+04  0.12699999809E+01 0. -1.
       -4    1    3    3    0  502  0.64789468891E+03 -0.10464515926E+04  0.41917018233E+03  0.13002052601E+04  0.12699999809E+01 0.  1.
</event>
<event>
 5   0  0.2333979E-06  0.2634445E+04  0.7818609E-02  0.8356594E-01
        1   -1    0    0  501    0  0.00000000000E+00  0.00000000000E+00  0.92464580259E+03  0.92464580261E+03  0.50400001928E-02 0. -1.
       -1   -1    0    0    0  501  0.00000000000E+00  0.00000000000E+00 -0.18764760084E+04  0.18764760084E+04  0.50400001928E-02 0.  1.
    10030    2    1    2    0    0  0.00000000000E+00  0.00000000000E+00 -0.95183020583E+03  0.28011218110E+04  0.26344454178E+04 0.  0.
        3    1    3    3  502    0  0.49636052754E+03  0.10765632455E+04 -0.10864508941E+04  0.16080229322E+04  0.10100000352E+00 0.  1.
       -3    1    3    3    0  502 -0.49636052754E+03 -0.10765632455E+04  0.13462068831E+03  0.11930988789E+04  0.10100000352E+00 0. -1.
</event>
<event>
 5   0  0.5942229E-06  0.2603693E+04  0.7818609E-02  0.8366948E-01
        2   -1    0    0  501    0  0.00000000000E+00  0.00000000000E+00  0.24433735936E+04  0.24433735936E+04  0.25500000920E-02 0. -1.
       -2   -1    0    0    0  501  0.00000000000E+00  0.00000000000E+00 -0.69363292089E+03  0.69363292090E+03  0.25500000920E-02 0.  1.
    10030    2    1    2    0    0  0.00000000000E+00  0.00000000000E+00  0.17497406727E+04  0.31370065145E+04  0.26036930407E+04 0.  0.
        4    1    3    3  502    0 -0.11998966256E+04 -0.79488281473E+02  0.14757560280E+04  0.19036616732E+04  0.12699999809E+01 0. -1.
       -4    1    3    3    0  502  0.11998966256E+04  0.79488281473E+02  0.27398464468E+03  0.12333448413E+04  0.12699999809E+01 0.  1.
</event>
<event>
 5   0  0.2503292E-06  0.2549004E+04  0.7818609E-02  0.8385733E-01
       -1   -1    0    0    0  501  0.00000000000E+00  0.00000000000E+00  0.11667461060E+04  0.11667461060E+04  0.50400001928E-02 0.  1.
        1   -1    0    0  501    0  0.00000000000E+00  0.00000000000E+00 -0.13922099124E+04  0.13922099125E+04  0.50400001928E-02 0. -1.
    10030    2    1    2    0    0  0.00000000000E+00  0.00000000000E+00 -0.22546380647E+03  0.25589560184E+04  0.25490041146E+04 0.  0.
        2    1    3    3  502    0  0.60776613578E+03 -0.92377105610E+03  0.52347956620E+03  0.12234228607E+04  0.25500000920E-02 0.  1.
       -2    1    3    3    0  502 -0.60776613578E+03  0.92377105610E+03 -0.74894337267E+03  0.13355331577E+04  0.25500000920E-02 0. -1.
</event>
<event>
 5   0  0.2333979E-06  0.2589347E+04  0.7818609E-02  0.8371829E-01
       -1   -1    0    0    0  501  0.00000000000E+00  0.00000000000E+00  0.62702875451E+03  0.62702875453E+03  0.50400001928E-02 0. -1.
        1   -1    0    0  501    0  0.00000000000E+00  0.00000000000E+00 -0.26732105456E+04  0.26732105456E+04  0.50400001928E-02 0.  1.
    10030    2    1    2    0    0  0.00000000000E+00  0.00000000000E+00 -0.20461817911E+04  0.33002393001E+04  0.25893473147E+04 0.  0.
        3    1    3    3  502    0 -0.23806050440E+03 -0.96117408033E+03  0.39952448420E+02  0.99102201024E+03  0.10100000352E+00 0. -1.
       -3    1    3    3    0  502  0.23806050440E+03  0.96117408033E+03 -0.20861342395E+04  0.23092172899E+04  0.10100000352E+00 0.  1.
</event>
<event>
 5   0  0.6161834E-06  0.2594503E+04  0.7818609E-02  0.8370071E-01
       -2   -1    0    0    0  501  0.00000000000E+00  0.00000000000E+00  0.10584665084E+04  0.10584665084E+04  0.25500000920E-02 0. -1.
        2   -1    0    0  501    0  0.00000000000E+00  0.00000000000E+00 -0.15899058122E+04  0.15899058122E+04  0.25500000920E-02 0.  1.
    10030    2    1    2    0    0  0.00000000000E+00  0.00000000000E+00 -0.53143930383E+03  0.26483723205E+04  0.25945034621E+04 0.  0.
        5    1    3    3  502    0 -0.80861641875E+03 -0.22777717793E+03 -0.12747253700E+04  0.15266596917E+04  0.46999998093E+01 0.  1.
       -5    1    3    3    0  502  0.80861641875E+03  0.22777717793E+03  0.74328606618E+03  0.11217126288E+04  0.46999998093E+01 0. -1.
</event>
<event>
 5   0  0.2503292E-06  0.2601231E+04  0.7818609E-02  0.8367783E-01
        1   -1    0    0  501    0  0.00000000000E+00  0.00000000000E+00  0.15383609248E+04  0.15383609248E+04  0.50400001928E-02 0.  1.
       -1   -1    0    0    0  501  0.00000000000E+00  0.00000000000E+00 -0.10996125568E+04  0.10996125568E+04  0.50400001928E-02 0. -1.
    10030    2    1    2    0    0  0.00000000000E+00  0.00000000000E+00  0.43874836802E+03  0.26379734816E+04  0.26012312391E+04 0.  0.
        2    1    3    3  502    0  0.40106282843E+03 -0.41686694097E+03 -0.96197105637E+03  0.11225051234E+04  0.25500000920E-02 0. -1.
       -2    1    3    3    0  502 -0.40106282843E+03  0.41686694097E+03  0.14007194244E+04  0.15154683582E+04  0.25500000920E-02 0.  1.
</event>
<event>
 5   0  0.2456600E-06  0.2601632E+04  0.7818609E-02  0.8367647E-01
       -1   -1    0    0    0  501  0.00000000000E+00  0.00000000000E+00  0.25376279685E+04  0.25376279685E+04  0.50400001928E-02 0.  1.
        1   -1    0    0  501    0  0.00000000000E+00  0.00000000000E+00 -0.66681246766E+03  0.66681246768E+03  0.50400001928E-02 0. -1.
    10030    2    1    2    0    0  0.00000000000E+00  0.00000000000E+00  0.18708155009E+04  0.32044404362E+04  0.26016317708E+04 0.  0.
        5    1    3    3  502    0  0.46237350161E+02 -0.12967299879E+04  0.10486530335E+04  0.16683350469E+04  0.46999998093E+01 0. -1.
       -5    1    3    3    0  502 -0.46237350161E+02  0.12967299879E+04  0.82216246738E+03  0.15361053893E+04  0.46999998093E+01 0.  1.
</event>
<event>
 5   0  0.2456600E-06  0.2607815E+04  0.7818609E-02  0.8365552E-01
        1   -1    0    0  501    0  0.00000000000E+00  0.00000000000E+00  0.10385287644E+04  0.10385287644E+04  0.50400001928E-02 0.  1.
       -1   -1    0    0    0  501  0.00000000000E+00  0.00000000000E+00 -0.16370990926E+04  0.16370990927E+04  0.50400001928E-02 0. -1.
    10030    2    1    2    0    0  0.00000000000E+00  0.00000000000E+00 -0.59857032825E+03  0.26756278571E+04  0.26078147924E+04 0.  0.
        5    1    3    3  502    0  0.48719811128E+02  0.11473341462E+04  0.33435266790E+03  0.11960614781E+04  0.46999998093E+01 0. -1.
       -5    1    3    3    0  502 -0.48719811128E+02 -0.11473341462E+04 -0.93292299615E+03  0.14795663789E+04  0.46999998093E+01 0.  1.
</event>
<event>
 5   0  0.6158063E-06  0.2598422E+04  0.7818609E-02  0.8368737E-01
        2   -1    0    0  501    0  0.00000000000E+00  0.00000000000E+00  0.16404831003E+04  0.16404831004E+04  0.25500000920E-02 0. -1.
       -2   -1    0    0    0  501  0.00000000000E+00  0.00000000000E+00 -0.10289343946E+04  0.10289343946E+04  0.25500000920E-02 0.  1.
    10030    2    1    2    0    0  0.00000000000E+00  0.00000000000E+00  0.61154870572E+03  0.26694174950E+04  0.25984222026E+04 0.  0.
        2    1    3    3  502    0  0.69300690460E+03 -0.39889373937E+03 -0.74620319661E+03  0.10937065401E+04  0.25500000920E-02 0.  1.
       -2    1    3    3    0  502 -0.69300690460E+03  0.39889373937E+03  0.13577519023E+04  0.15757109549E+04  0.25500000920E-02 0. -1.
</event>
<event>
 5   0  0.6158063E-06  0.2594529E+04  0.7818609E-02  0.8370062E-01
       -2   -1    0    0    0  501  0.00000000000E+00  0.00000000000E+00  0.53973787478E+03  0.53973787479E+03  0.25500000920E-02 0. -1.
        2   -1    0    0  501    0  0.00000000000E+00  0.00000000000E+00 -0.31179871402E+04  0.31179871402E+04  0.25500000920E-02 0.  1.
    10030    2    1    2    0    0  0.00000000000E+00  0.00000000000E+00 -0.25782492654E+04  0.36577250150E+04  0.25945294391E+04 0.  0.
        2    1    3    3  502    0 -0.59431585937E+03  0.76606182536E+03 -0.25041860936E+04  0.26853323914E+04  0.25500000920E-02 0.  1.
       -2    1    3    3    0  502  0.59431585937E+03 -0.76606182536E+03 -0.74063171828E+02  0.97239262359E+03  0.25500000920E-02 0. -1.
</event>
<event>
 5   0  0.6173140E-06  0.2609790E+04  0.7818609E-02  0.8364883E-01
       -2   -1    0    0    0  501  0.00000000000E+00  0.00000000000E+00  0.91627417256E+03  0.91627417256E+03  0.25500000920E-02 0. -1.
        2   -1    0    0  501    0  0.00000000000E+00  0.00000000000E+00 -0.18583424411E+04  0.18583424411E+04  0.25500000920E-02 0.  1.
    10030    2    1    2    0    0  0.00000000000E+00  0.00000000000E+00 -0.94206826850E+03  0.27746166136E+04  0.26097901697E+04 0.  0.
        3    1    3    3  502    0  0.58207509874E+03  0.38889273686E+03 -0.16418119172E+04  0.17848236224E+04  0.10100000352E+00 0.  1.
       -3    1    3    3    0  502 -0.58207509874E+03 -0.38889273686E+03  0.69974364872E+03  0.98979299123E+03  0.10100000352E+00 0. -1.
</event>
<event>
 5   0  0.5942229E-06  0.2591356E+04  0.7818609E-02  0.8371143E-01
       -2   -1    0    0    0  501  0.00000000000E+00  0.00000000000E+00  0.92905757668E+03  0.92905757669E+03  0.25500000920E-02 0.  1.
        2   -1    0    0  501    0  0.00000000000E+00  0.00000000000E+00 -0.18069730078E+04  0.18069730078E+04  0.25500000920E-02 0. -1.
    10030    2    1    2    0    0  0.00000000000E+00  0.00000000000E+00 -0.87791543113E+03  0.27360305845E+04  0.25913563736E+04 0.  0.
        4    1    3    3  502    0 -0.53058593173E+03 -0.81898820309E+03  0.46098894124E+03  0.10792476660E+04  0.12699999809E+01 0.  1.
       -4    1    3    3    0  502  0.53058593173E+03  0.81898820309E+03 -0.13389043724E+04  0.16567829185E+04  0.12699999809E+01 0. -1.
</event>
<event>
 5   0  0.2440590E-06  0.2604524E+04  0.7818609E-02  0.8366666E-01
       -1   -1    0    0    0  501  0.00000000000E+00  0.00000000000E+00  0.15964747398E+04  0.15964747398E+04  0.50400001928E-02 0.  1.
        1   -1    0    0  501    0  0.00000000000E+00  0.00000000000E+00 -0.10622691250E+04  0.10622691250E+04  0.50400001928E-02 0. -1.
    10030    2    1    2    0    0  0.00000000000E+00  0.00000000000E+00  0.53420561482E+03  0.26587438647E+04  0.26045236224E+04 0.  0.
        1    1    3    3  502    0 -0.14770764439E+03 -0.48502885451E+03  0.14915800605E+04  0.15753988748E+04  0.50400001928E-02 0.  1.
       -1    1    3    3    0  502  0.14770764439E+03  0.48502885451E+03 -0.95737444568E+03  0.10833449899E+04  0.50400001928E-02 0. -1.
</event>
<event>
 5   0  0.5942229E-06  0.2609202E+04  0.7818609E-02  0.8365082E-01
        2   -1    0    0  501    0  0.00000000000E+00  0.00000000000E+00  0.13939059288E+04  0.13939059288E+04  0.25500000920E-02 0.  1.
       -2   -1    0    0    0  501  0.00000000000E+00  0.00000000000E+00 -0.12210174508E+04  0.12210174508E+04  0.25500000920E-02 0. -1.
    10030    2    1    2    0    0  0.00000000000E+00  0.00000000000E+00  0.17288847802E+03  0.26149233796E+04  0.26092017660E+04 0.  0.
        4    1    3    3  502    0  0.22478586823E+03 -0.11674540911E+04  0.62474786619E+03  0.13430522144E+04  0.12699999809E+01 0.  1.
       -4    1    3    3    0  502 -0.22478586823E+03  0.11674540911E+04 -0.45185938817E+03  0.12718711652E+04  0.12699999809E+01 0. -1.
</event>
<event>
 5   0  0.2471488E-06  0.2600159E+04  0.7818609E-02  0.8368147E-01
        1   -1    0    0  501    0  0.00000000000E+00  0.00000000000E+00  0.13888041316E+04  0.13888041316E+04  0.50400001928E-02 0. -1.
       -1   -1    0    0    0  501  0.00000000000E+00  0.00000000000E+00 -0.12170234651E+04  0.12170234651E+04  0.50400001928E-02 0.  1.
    10030    2    1    2    0    0  0.00000000000E+00  0.00000000000E+00  0.17178066644E+03  0.26058275967E+04  0.26001593925E+04 0.  0.
        4    1    3    3  502    0 -0.12094096633E+04  0.52743773927E+02  0.56100392619E+03  0.13342341089E+04  0.12699999809E+01 0.  1.
       -4    1    3    3    0  502  0.12094096633E+04 -0.52743773927E+02 -0.38922325975E+03  0.12715934878E+04  0.12699999809E+01 0. -1.
</event>
<event>
 5   0  0.5940748E-06  0.2606413E+04  0.7818609E-02  0.8366026E-01
       -2   -1    0    0    0  501  0.00000000000E+00  0.00000000000E+00  0.10619952559E+04  0.10619952559E+04  0.25500000920E-02 0.  1.
        2   -1    0    0  501    0  0.00000000000E+00  0.00000000000E+00 -0.15992041458E+04  0.15992041458E+04  0.25500000920E-02 0. -1.
    10030    2    1    2    0    0  0.00000000000E+00  0.00000000000E+00 -0.53720888986E+03  0.26611994017E+04  0.26064130264E+04 0.  0.
        1    1    3    3  502    0  0.72378945133E+03  0.51915941389E+03  0.70267984356E+03  0.11345292546E+04  0.50400001928E-02 0.  1.
       -1    1    3    3    0  502 -0.72378945133E+03 -0.51915941389E+03 -0.12398887334E+04  0.15266701471E+04  0.50400001928E-02 0. -1.
</event>
<event>
 5   0  0.2333979E-06  0.2599549E+04  0.7818609E-02  0.8368355E-01
        1   -1    0    0  501    0  0.00000000000E+00  0.00000000000E+00  0.13847478218E+04  0.13847478218E+04  0.50400001928E-02 0.  1.
       -1   -1    0    0    0  501  0.00000000000E+00  0.00000000000E+00 -0.12200151227E+04  0.12200151227E+04  0.50400001928E-02 0. -1.
    10030    2    1    2    0    0  0.00000000000E+00  0.00000000000E+00  0.16473269918E+03  0.26047629445E+04  0.25995486406E+04 0.  0.
        3    1    3    3  502    0 -0.11025130008E+04 -0.53502829719E+03  0.51638998951E+03  0.13298303754E+04  0.10100000352E+00 0. -1.
       -3    1    3    3    0  502  0.11025130008E+04  0.53502829719E+03 -0.35165729033E+03  0.12749325691E+04  0.10100000352E+00 0.  1.
</event>
<event>
 5   0  0.6173140E-06  0.2600979E+04  0.7818609E-02  0.8367869E-01
        2   -1    0    0  501    0  0.00000000000E+00  0.00000000000E+00  0.16088413556E+04  0.16088413556E+04  0.25500000920E-02 0.  1.
       -2   -1    0    0    0  501  0.00000000000E+00  0.00000000000E+00 -0.10512362868E+04  0.10512362868E+04  0.25500000920E-02 0. -1.
    10030    2    1    2    0    0  0.00000000000E+00  0.00000000000E+00  0.55760506880E+03  0.26600776424E+04  0.26009785948E+04 0.  0.
        3    1    3    3  502    0 -0.45312416172E+03 -0.21462700069E+03 -0.94841516901E+03  0.10727896338E+04  0.10100000352E+00 0. -1.
       -3    1    3    3    0  502  0.45312416172E+03  0.21462700069E+03  0.15060202378E+04  0.15872880086E+04  0.10100000352E+00 0.  1.
</event>
<event>
 5   0  0.2456600E-06  0.2594285E+04  0.7818609E-02  0.8370145E-01
        1   -1    0    0  501    0  0.00000000000E+00  0.00000000000E+00  0.14371498992E+04  0.14371498992E+04  0.50400001928E-02 0. -1.
       -1   -1    0    0    0  501  0.00000000000E+00  0.00000000000E+00 -0.11707746345E+04  0.11707746345E+04  0.50400001928E-02 0.  1.
    10030    2    1    2    0    0  0.00000000000E+00  0.00000000000E+00  0.26637526473E+03  0.26079245337E+04  0.25942849866E+04 0.  0.
        5    1    3    3  502    0 -0.15803910366E+03  0.69510689105E+03  0.12225856508E+04  0.14152341544E+04  0.46999998093E+01 0. -1.
       -5    1    3    3    0  502  0.15803910366E+03 -0.69510689105E+03 -0.95621038610E+03  0.11926903793E+04  0.46999998093E+01 0.  1.
</event>
<event>
 5   0  0.5940748E-06  0.2597103E+04  0.7818609E-02  0.8369186E-01
        2   -1    0    0  501    0  0.00000000000E+00  0.00000000000E+00  0.15612270033E+04  0.15612270033E+04  0.25500000920E-02 0. -1.
       -2   -1    0    0    0  501  0.00000000000E+00  0.00000000000E+00 -0.10800712290E+04  0.10800712290E+04  0.25500000920E-02 0.  1.
    10030    2    1    2    0    0  0.00000000000E+00  0.00000000000E+00  0.48115577430E+03  0.26412982324E+04  0.25971032851E+04 0.  0.
        1    1    3    3  502    0  0.34573791844E+03  0.25896550822E+03  0.14860141696E+04  0.15475257526E+04  0.50400001928E-02 0. -1.
       -1    1    3    3    0  502 -0.34573791844E+03 -0.25896550822E+03 -0.10048583953E+04  0.10937724797E+04  0.50400001928E-02 0.  1.
</event>
<event>
 5   0  0.6173140E-06  0.2596814E+04  0.7818609E-02  0.8369284E-01
       -2   -1    0    0    0  501  0.00000000000E+00  0.00000000000E+00  0.68266850234E+03  0.68266850234E+03  0.25500000920E-02 0. -1.
        2   -1    0    0  501    0  0.00000000000E+00  0.00000000000E+00 -0.24695162302E+04  0.24695162302E+04  0.25500000920E-02 0.  1.
    10030    2    1    2    0    0  0.00000000000E+00  0.00000000000E+00 -0.17868477279E+04  0.31521847326E+04  0.25968141608E+04 0.  0.
        3    1    3    3  502    0 -0.26775469066E+03 -0.12028068786E+04 -0.13901072286E+04  0.18576423441E+04  0.10100000352E+00 0.  1.
       -3    1    3    3    0  502  0.26775469066E+03  0.12028068786E+04 -0.39674049933E+03  0.12945423885E+04  0.10100000352E+00 0. -1.
</event>
<event>
 5   0  0.2456600E-06  0.2609759E+04  0.7818609E-02  0.8364894E-01
        1   -1    0    0  501    0  0.00000000000E+00  0.00000000000E+00  0.13579318046E+04  0.13579318046E+04  0.50400001928E-02 0.  1.
       -1   -1    0    0    0  501  0.00000000000E+00  0.00000000000E+00 -0.12538999977E+04  0.12538999977E+04  0.50400001928E-02 0. -1.
    10030    2    1    2    0    0  0.00000000000E+00  0.00000000000E+00  0.10403180685E+03  0.26118318023E+04  0.26097591358E+04 0.  0.
        5    1    3    3  502    0 -0.78035321560E+03  0.81666464268E+02  0.10954695082E+04  0.13474776755E+04  0.46999998093E+01 0.  1.
       -5    1    3    3    0  502  0.78035321560E+03 -0.81666464268E+02 -0.99143770133E+03  0.12643541269E+04  0.46999998093E+01 0. -1.
</event>
<event>
 5   0  0.2471488E-06  0.2601452E+04  0.7818609E-02  0.8367708E-01
        1   -1    0    0  501    0  0.00000000000E+00  0.00000000000E+00  0.13272729323E+04  0.13272729323E+04  0.50400001928E-02 0.  1.
       -1   -1    0    0    0  501  0.00000000000E+00  0.00000000000E+00 -0.12747098140E+04  0.12747098140E+04  0.50400001928E-02 0. -1.
    10030    2    1    2    0    0  0.00000000000E+00  0.00000000000E+00  0.52563118291E+02  0.26019827464E+04  0.26014517737E+04 0.  0.
        4    1    3    3  502    0  0.92380009184E+03 -0.62957231846E+03  0.69133704753E+03  0.13144262779E+04  0.12699999809E+01 0. -1.
       -4    1    3    3    0  502 -0.92380009184E+03  0.62957231846E+03 -0.63877392924E+03  0.12875564684E+04  0.12699999809E+01 0.  1.
</event>
<event>
 5   0  0.2503292E-06  0.2595943E+04  0.7818609E-02  0.8369580E-01
        1   -1    0    0  501    0  0.00000000000E+00  0.00000000000E+00  0.15374699262E+04  0.15374699262E+04  0.50400001928E-02 0. -1.
       -1   -1    0    0    0  501  0.00000000000E+00  0.00000000000E+00 -0.10957812042E+04  0.10957812042E+04  0.50400001928E-02 0.  1.
    10030    2    1    2    0    0  0.00000000000E+00  0.00000000000E+00  0.44168872200E+03  0.26332511305E+04  0.25959434872E+04 0.  0.
        2    1    3    3  502    0  0.98222126439E+03 -0.54427583983E+03  0.88114945464E+03  0.14273819263E+04  0.25500000920E-02 0. -1.
       -2    1    3    3    0  502 -0.98222126439E+03  0.54427583983E+03 -0.43946073263E+03  0.12058692042E+04  0.25500000920E-02 0.  1.
</event>
<event>
 5   0  0.5942229E-06  0.2604209E+04  0.7818609E-02  0.8366773E-01
        2   -1    0    0  501    0  0.00000000000E+00  0.00000000000E+00  0.15428961106E+04  0.15428961106E+04  0.25500000920E-02 0. -1.
       -2   -1    0    0    0  501  0.00000000000E+00  0.00000000000E+00 -0.10988915570E+04  0.10988915570E+04  0.25500000920E-02 0.  1.
    10030    2    1    2    0    0  0.00000000000E+00  0.00000000000E+00  0.44400455356E+03  0.26417876676E+04  0.26042085241E+04 0.  0.
        4    1    3    3  502    0  0.11700269202E+04 -0.31207172643E+03 -0.26357200979E+03  0.12392834921E+04  0.12699999809E+01 0.  1.
       -4    1    3    3    0  502 -0.11700269202E+04  0.31207172643E+03  0.70757656334E+03  0.14025041755E+04  0.12699999809E+01 0. -1.
</event>
<event>
 5   0  0.5940748E-06  0.2614027E+04  0.7818609E-02  0.8363452E-01
        2   -1    0    0  501    0  0.00000000000E+00  0.00000000000E+00  0.15254194320E+04  0.15254194320E+04  0.25500000920E-02 0. -1.
       -2   -1    0    0    0  501  0.00000000000E+00  0.00000000000E+00 -0.11198785827E+04  0.11198785827E+04  0.25500000920E-02 0.  1.
    10030    2    1    2    0    0  0.00000000000E+00  0.00000000000E+00  0.40554084931E+03  0.26452980147E+04  0.26140272008E+04 0.  0.
        1    1    3    3  502    0  0.43733211998E+03 -0.89767146320E+03  0.10561922995E+04  0.14534839568E+04  0.50400001928E-02 0. -1.
       -1    1    3    3    0  502 -0.43733211998E+03  0.89767146320E+03 -0.65065145024E+03  0.11918140580E+04  0.50400001928E-02 0.  1.
</event>
<event>
 5   0  0.2440590E-06  0.2592882E+04  0.7818609E-02  0.8370623E-01
       -1   -1    0    0    0  501  0.00000000000E+00  0.00000000000E+00  0.78417022373E+03  0.78417022375E+03  0.50400001928E-02 0.  1.
        1   -1    0    0  501    0  0.00000000000E+00  0.00000000000E+00 -0.21433606482E+04  0.21433606482E+04  0.50400001928E-02 0. -1.
    10030    2    1    2    0    0  0.00000000000E+00  0.00000000000E+00 -0.13591904244E+04  0.29275308719E+04  0.25928822565E+04 0.  0.
        1    1    3    3  502    0 -0.71355165565E+03  0.29906970124E+03  0.49493614640E+03  0.91845546463E+03  0.50400001928E-02 0.  1.
       -1    1    3    3    0  502  0.71355165565E+03 -0.29906970124E+03 -0.18541265708E+04  0.20090754073E+04  0.50400001928E-02 0. -1.
</event>
<event>
 5   0  0.6161834E-06  0.2590535E+04  0.7818609E-02  0.8371423E-01
       -2   -1    0    0    0  501  0.00000000000E+00  0.00000000000E+00  0.92955853374E+03  0.92955853374E+03  0.25500000920E-02 0.  1.
        2   -1    0    0  501    0  0.00000000000E+00  0.00000000000E+00 -0.18048548920E+04  0.18048548920E+04  0.25500000920E-02 0. -1.
    10030    2    1    2    0    0  0.00000000000E+00  0.00000000000E+00 -0.87529635830E+03  0.27344134258E+04  0.25905352860E+04 0.  0.
        5    1    3    3  502    0 -0.17224792124E+03  0.92168643132E+03 -0.13808786535E+04  0.16691384513E+04  0.46999998093E+01 0. -1.
       -5    1    3    3    0  502  0.17224792124E+03 -0.92168643132E+03  0.50558229516E+03  0.10652749745E+04  0.46999998093E+01 0.  1.
</event>
<event>
 5   0  0.2471488E-06  0.2590642E+04  0.7818609E-02  0.8371387E-01
       -1   -1    0    0    0  501  0.00000000000E+00  0.00000000000E+00  0.13019716356E+04  0.13019716357E+04  0.50400001928E-02 0. -1.
        1   -1    0    0  501    0  0.00000000000E+00  0.00000000000E+00 -0.12887040003E+04  0.12887040003E+04  0.50400001928E-02 0.  1.
    10030    2    1    2    0    0  0.00000000000E+00  0.00000000000E+00  0.13267635342E+02  0.25906756360E+04  0.25906416619E+04 0.  0.
        4    1    3    3  502    0 -0.89553469261E+03  0.38836820558E+03  0.85813907907E+03  0.12996986346E+04  0.12699999809E+01 0. -1.
       -4    1    3    3    0  502  0.89553469261E+03 -0.38836820558E+03 -0.84487144373E+03  0.12909770014E+04  0.12699999809E+01 0.  1.
</event>
<event>
 5   0  0.2333979E-06  0.2599906E+04  0.7818609E-02  0.8368233E-01
       -1   -1    0    0    0  501  0.00000000000E+00  0.00000000000E+00  0.75856024436E+03  0.75856024438E+03  0.50400001928E-02 0.  1.
        1   -1    0    0  501    0  0.00000000000E+00  0.00000000000E+00 -0.22277438231E+04  0.22277438231E+04  0.50400001928E-02 0. -1.
    10030    2    1    2    0    0  0.00000000000E+00  0.00000000000E+00 -0.14691835787E+04  0.29863040675E+04  0.25999060743E+04 0.  0.
        3    1    3    3  502    0  0.57181057088E+03 -0.16507028141E+03  0.59287819849E+03  0.84007148221E+03  0.10100000352E+00 0.  1.
       -3    1    3    3    0  502 -0.57181057088E+03  0.16507028141E+03 -0.20620617772E+04  0.21462325853E+04  0.10100000352E+00 0. -1.
</event>
<event>
 5   0  0.2503292E-06  0.2591455E+04  0.7818609E-02  0.8371109E-01
       -1   -1    0    0    0  501  0.00000000000E+00  0.00000000000E+00  0.72722445739E+03  0.72722445741E+03  0.50400001928E-02 0. -1.
        1   -1    0    0  501    0  0.00000000000E+00  0.00000000000E+00 -0.23086546319E+04  0.23086546319E+04  0.50400001928E-02 0.  1.
    10030    2    1    2    0    0  0.00000000000E+00  0.00000000000E+00 -0.15814301745E+04  0.30358790893E+04  0.25914552761E+04 0.  0.
        2    1    3    3  502    0 -0.95320232849E+03 -0.56182905262E+03 -0.15806400190E+04  0.19294220464E+04  0.25500000920E-02 0.  1.
       -2    1    3    3    0  502  0.95320232849E+03  0.56182905262E+03 -0.79015546994E+00  0.11064570429E+04  0.25500000920E-02 0. -1.
</event>
<event>
 5   0  0.5942229E-06  0.2602920E+04  0.7818609E-02  0.8367210E-01
       -2   -1    0    0    0  501  0.00000000000E+00  0.00000000000E+00  0.25524722621E+04  0.25524722621E+04  0.25500000920E-02 0. -1.
        2   -1    0    0  501    0  0.00000000000E+00  0.00000000000E+00 -0.66359109827E+03  0.66359109827E+03  0.25500000920E-02 0.  1.
    10030    2    1    2    0    0  0.00000000000E+00  0.00000000000E+00  0.18888811639E+04  0.32160633604E+04  0.26029198003E+04 0.  0.
        4    1    3    3  502    0 -0.29957445675E+03  0.12324927276E+04  0.58418834610E+03  0.13964457796E+04  0.12699999809E+01 0. -1.
       -4    1    3    3    0  502  0.29957445675E+03 -0.12324927276E+04  0.13046928178E+04  0.18196175808E+04  0.12699999809E+01 0.  1.
</event>
<event>
 5   0  0.2440590E-06  0.2601925E+04  0.7818609E-02  0.8367548E-01
       -1   -1    0    0    0  501  0.00000000000E+00  0.00000000000E+00  0.14861872435E+04  0.14861872435E+04  0.50400001928E-02 0. -1.
        1   -1    0    0  501    0  0.00000000000E+00  0.00000000000E+00 -0.11388220911E+04  0.11388220911E+04  0.50400001928E-02 0.  1.
    10030    2    1    2    0    0  0.00000000000E+00  0.00000000000E+00  0.34736515239E+03  0.26250093345E+04  0.26019245680E+04 0.  0.
        1    1    3    3  502    0  0.28983023899E+03  0.61685478016E+02  0.14516876034E+04  0.14816219368E+04  0.50400001928E-02 0. -1.
       -1    1    3    3    0  502 -0.28983023899E+03 -0.61685478016E+02 -0.11043224510E+04  0.11433873978E+04  0.50400001928E-02 0.  1.
</event>
<event>
 5   0  0.2333979E-06  0.2594929E+04  0.7818609E-02  0.8369926E-01
        1   -1    0    0  501    0  0.00000000000E+00  0.00000000000E+00  0.16455236149E+04  0.16455236149E+04  0.50400001928E-02 0.  1.
       -1   -1    0    0    0  501  0.00000000000E+00  0.00000000000E+00 -0.10230267278E+04  0.10230267278E+04  0.50400001928E-02 0. -1.
    10030    2    1    2    0    0  0.00000000000E+00  0.00000000000E+00  0.62249688714E+03  0.26685503427E+04  0.25949293934E+04 0.  0.
        3    1    3    3  502    0  0.26110017845E+03  0.10672514447E+04 -0.39841380035E+03  0.11687311564E+04  0.10100000352E+00 0. -1.
       -3    1    3    3    0  502 -0.26110017845E+03 -0.10672514447E+04  0.10209106875E+04  0.14998191863E+04  0.10100000352E+00 0.  1.
</event>
<event>
 5   0  0.6158063E-06  0.2600311E+04  0.7818609E-02  0.8368096E-01
        2   -1    0    0  501    0  0.00000000000E+00  0.00000000000E+00  0.14688108366E+04  0.14688108366E+04  0.25500000920E-02 0. -1.
       -2   -1    0    0    0  501  0.00000000000E+00  0.00000000000E+00 -0.11508656836E+04  0.11508656836E+04  0.25500000920E-02 0.  1.
    10030    2    1    2    0    0  0.00000000000E+00  0.00000000000E+00  0.31794515302E+03  0.26196765202E+04  0.26003107411E+04 0.  0.
        2    1    3    3  502    0  0.11687987660E+04  0.34731026096E+03  0.61365296408E+03  0.13650219533E+04  0.25500000920E-02 0. -1.
       -2    1    3    3    0  502 -0.11687987660E+04 -0.34731026096E+03 -0.29570781106E+03  0.12546545669E+04  0.25500000920E-02 0.  1.
</event>
<event>
 5   0  0.5942229E-06  0.2593351E+04  0.7818609E-02  0.8370463E-01
       -2   -1    0    0    0  501  0.00000000000E+00  0.00000000000E+00  0.15689705541E+04  0.15689705541E+04  0.25500000920E-02 0. -1.
        2   -1    0    0  501    0  0.00000000000E+00  0.00000000000E+00 -0.10716369520E+04  0.10716369520E+04  0.25500000920E-02 0.  1.
    10030    2    1    2    0    0  0.00000000000E+00  0.00000000000E+00  0.49733360216E+03  0.26406075061E+04  0.25933505913E+04 0.  0.
        4    1    3    3  502    0  0.38196873141E+02 -0.58919306704E+03  0.14241548755E+04  0.15416958823E+04  0.12699999809E+01 0. -1.
       -4    1    3    3    0  502 -0.38196873141E+02  0.58919306704E+03 -0.92682127329E+03  0.10989116238E+04  0.12699999809E+01 0.  1.
</event>
<event>
 5   0  0.2456600E-06  0.2617150E+04  0.7818609E-02  0.8362399E-01
        1   -1    0    0  501    0  0.00000000000E+00  0.00000000000E+00  0.12661723728E+04  0.12661723728E+04  0.50400001928E-02 0.  1.
       -1   -1    0    0    0  501  0.00000000000E+00  0.00000000000E+00 -0.13523971379E+04  0.13523971379E+04  0.50400001928E-02 0. -1.
    10030    2    1    2    0    0  0.00000000000E+00  0.00000000000E+00 -0.86224765095E+02  0.26185695107E+04  0.26171495128E+04 0.  0.
        5    1    3    3  502    0 -0.23299400925E+03 -0.63559056935E+03 -0.11635790084E+04  0.13461796979E+04  0.46999998093E+01 0. -1.
       -5    1    3    3    0  502  0.23299400925E+03  0.63559056935E+03  0.10773542433E+04  0.12723898128E+04  0.46999998093E+01 0.  1.
</event>
<event>
 5   0  0.5942229E-06  0.2603070E+04  0.7818609E-02  0.8367159E-01
       -2   -1    0    0    0  501  0.00000000000E+00  0.00000000000E+00  0.12975970735E+04  0.12975970735E+04  0.25500000920E-02 0. -1.
        2   -1    0    0  501    0  0.00000000000E+00  0.00000000000E+00 -0.13054853701E+04  0.13054853701E+04  0.25500000920E-02 0.  1.
    10030    2    1    2    0    0  0.00000000000E+00  0.00000000000E+00 -0.78882966063E+01  0.26030824436E+04  0.26030704914E+04 0.  0.
        4    1    3    3  502    0 -0.10858565816E+04  0.71529889979E+03 -0.61000094721E+02  0.13017141223E+04  0.12699999809E+01 0.  1.
       -4    1    3    3    0  502  0.10858565816E+04 -0.71529889979E+03  0.53111798115E+02  0.13013683213E+04  0.12699999809E+01 0. -1.
</event>
<event>
 5   0  0.2503292E-06  0.2600583E+04  0.7818609E-02  0.8368003E-01
       -1   -1    0    0    0  501  0.00000000000E+00  0.00000000000E+00  0.18566074476E+04  0.18566074476E+04  0.50400001928E-02 0. -1.
        1   -1    0    0  501    0  0.00000000000E+00  0.00000000000E+00 -0.91067059221E+03  0.91067059223E+03  0.50400001928E-02 0.  1.
    10030    2    1    2    0    0  0.00000000000E+00  0.00000000000E+00  0.94593685540E+03  0.27672780398E+04  0.26005828607E+04 0.  0.
        2    1    3    3  502    0 -0.12497553006E+04 -0.26106725335E+03  0.21077348369E+03  0.12940130925E+04  0.25500000920E-02 0.  1.
       -2    1    3    3    0  502  0.12497553006E+04  0.26106725335E+03  0.73516337171E+03  0.14732649474E+04  0.25500000920E-02 0. -1.
</event>
<event>
 5   0  0.6161834E-06  0.2600208E+04  0.7818609E-02  0.8368131E-01
        2   -1    0    0  501    0  0.00000000000E+00  0.00000000000E+00  0.17491797526E+04  0.17491797526E+04  0.25500000920E-02 0. -1.
       -2   -1    0    0    0  501  0.00000000000E+00  0.00000000000E+00 -0.96632158539E+03  0.96632158539E+03  0.25500000920E-02 0.  1.
    10030    2    1    2    0    0  0.00000000000E+00  0.00000000000E+00  0.78285816720E+03  0.27155013380E+04  0.26002078007E+04 0.  0.
        5    1    3    3  502    0  0.51659505214E+03  0.33260968218E+03 -0.80512605242E+03  0.10127930188E+04  0.46999998093E+01 0.  1.
       -5    1    3    3    0  502 -0.51659505214E+03 -0.33260968218E+03  0.15879842196E+04  0.17027083192E+04  0.46999998093E+01 0. -1.
</event>
<event>
 5   0  0.2471488E-06  0.2602328E+04  0.7818609E-02  0.8367411E-01
       -1   -1    0    0    0  501  0.00000000000E+00  0.00000000000E+00  0.10815064383E+04  0.10815064383E+04  0.50400001928E-02 0.  1.
        1   -1    0    0  501    0  0.00000000000E+00  0.00000000000E+00 -0.15654350747E+04  0.15654350747E+04  0.50400001928E-02 0. -1.
    10030    2    1    2    0    0  0.00000000000E+00  0.00000000000E+00 -0.48392863637E+03  0.26469415130E+04  0.26023282745E+04 0.  0.
        4    1    3    3  502    0 -0.85470433247E+01 -0.45181858196E+03  0.99912318228E+03  0.10965682055E+04  0.12699999809E+01 0.  1.
       -4    1    3    3    0  502  0.85470433247E+01  0.45181858196E+03 -0.14830518187E+04  0.15503733075E+04  0.12699999809E+01 0. -1.
</event>
<event>
 5   0  0.6173140E-06  0.2599183E+04  0.7818609E-02  0.8368479E-01
        2   -1    0    0  501    0  0.00000000000E+00  0.00000000000E+00  0.20004339812E+04  0.20004339812E+04  0.25500000920E-02 0.  1.
       -2   -1    0    0    0  501  0.00000000000E+00  0.00000000000E+00 -0.84428555608E+03  0.84428555608E+03  0.25500000920E-02 0. -1.
    10030    2    1    2    0    0  0.00000000000E+00  0.00000000000E+00  0.11561484251E+04  0.28447195373E+04  0.25991825763E+04 0.  0.
        3    1    3    3  502    0  0.85467272093E+03  0.64521504404E+03  0.13839539698E+04  0.17498847144E+04  0.10100000352E+00 0.  1.
       -3    1    3    3    0  502 -0.85467272093E+03 -0.64521504404E+03 -0.22780554469E+03  0.10948348229E+04  0.10100000352E+00 0. -1.
</event>
<event>
 5   0  0.2072125E-06  0.2599075E+04  0.7818609E-02  0.8368515E-01
        4   -1    0    0  501    0  0.00000000000E+00  0.00000000000E+00  0.13766292329E+04  0.13766298187E+04  0.12699999809E+01 0. -1.
       -4   -1    0    0    0  501  0.00000000000E+00  0.00000000000E+00 -0.12267618141E+04  0.12267624715E+04  0.12699999809E+01 0.  1.
    10030    2    1    2    0    0  0.00000000000E+00  0.00000000000E+00  0.14986741880E+03  0.26033922903E+04  0.25990750612E+04 0.  0.
        3    1    3    3  502    0  0.64849374720E+03 -0.99311064309E+03  0.60683826982E+03  0.13323158730E+04  0.10100000352E+00 0. -1.
       -3    1    3    3    0  502 -0.64849374720E+03  0.99311064309E+03 -0.45697085101E+03  0.12710764172E+04  0.10100000352E+00 0.  1.
</event>
<event>
 5   0  0.6158063E-06  0.2606529E+04  0.7818609E-02  0.8365987E-01
        2   -1    0    0  501    0  0.00000000000E+00  0.00000000000E+00  0.14368592099E+04  0.14368592099E+04  0.25500000920E-02 0.  1.
       -2   -1    0    0    0  501  0.00000000000E+00  0.00000000000E+00 -0.11820909131E+04  0.11820909131E+04  0.25500000920E-02 0. -1.
    10030    2    1    2    0    0  0.00000000000E+00  0.00000000000E+00  0.25476829679E+03  0.26189501231E+04  0.26065288915E+04 0.  0.
        2    1    3    3  502    0  0.37635667398E+03  0.12363358793E+04 -0.41725553867E+02  0.12930242745E+04  0.25500000920E-02 0.  1.
       -2    1    3    3    0  502 -0.37635667398E+03 -0.12363358793E+04  0.29649385066E+03  0.13259258486E+04  0.25500000920E-02 0. -1.
</event>
<event>
 5   0  0.2072125E-06  0.2606160E+04  0.7818609E-02  0.8366112E-01
        3   -1    0    0  501    0  0.00000000000E+00  0.00000000000E+00  0.14555580839E+04  0.14555580874E+04  0.10100000352E+00 0.  1.
       -3   -1    0    0    0  501  0.00000000000E+00  0.00000000000E+00 -0.11665746788E+04  0.11665746832E+04  0.10100000352E+00 0. -1.
    10030    2    1    2    0    0  0.00000000000E+00  0.00000000000E+00  0.28898340508E+03  0.26221327705E+04  0.26061597913E+04 0.  0.
        4    1    3    3  502    0 -0.17382644403E+03 -0.64984937476E+03  0.12673495142E+04  0.14348157535E+04  0.12699999809E+01 0.  1.
       -4    1    3    3    0  502  0.17382644403E+03  0.64984937476E+03 -0.97836610911E+03  0.11873170170E+04  0.12699999809E+01 0. -1.
</event>
<event>
 5   0  0.5942229E-06  0.2598894E+04  0.7818609E-02  0.8368577E-01
       -2   -1    0    0    0  501  0.00000000000E+00  0.00000000000E+00  0.69682252925E+03  0.69682252925E+03  0.25500000920E-02 0.  1.
        2   -1    0    0  501    0  0.00000000000E+00  0.00000000000E+00 -0.24232315056E+04  0.24232315056E+04  0.25500000920E-02 0. -1.
    10030    2    1    2    0    0  0.00000000000E+00  0.00000000000E+00 -0.17264089764E+04  0.31200540349E+04  0.25988938468E+04 0.  0.
        4    1    3    3  502    0  0.99396702847E+03 -0.22528389733E+03 -0.18309828949E+04  0.20955245793E+04  0.12699999809E+01 0. -1.
       -4    1    3    3    0  502 -0.99396702847E+03  0.22528389733E+03  0.10457391851E+03  0.10245294556E+04  0.12699999809E+01 0.  1.
</event>
<event>
 5   0  0.6161834E-06  0.2600611E+04  0.7818609E-02  0.8367994E-01
       -2   -1    0    0    0  501  0.00000000000E+00  0.00000000000E+00  0.12791678794E+04  0.12791678794E+04  0.25500000920E-02 0.  1.
        2   -1    0    0  501    0  0.00000000000E+00  0.00000000000E+00 -0.13217925924E+04  0.13217925924E+04  0.25500000920E-02 0. -1.
    10030    2    1    2    0    0  0.00000000000E+00  0.00000000000E+00 -0.42624712948E+02  0.26009604718E+04  0.26006111801E+04 0.  0.
        5    1    3    3  502    0 -0.65214909435E+03  0.73175544961E+02  0.11013888306E+04  0.12820813343E+04  0.46999998093E+01 0.  1.
       -5    1    3    3    0  502  0.65214909435E+03 -0.73175544961E+02 -0.11440135435E+04  0.13188791375E+04  0.46999998093E+01 0. -1.
</event>
<event>
 5   0  0.2471488E-06  0.2602250E+04  0.7818609E-02  0.8367437E-01
       -1   -1    0    0    0  501  0.00000000000E+00  0.00000000000E+00  0.12967584282E+04  0.12967584282E+04  0.50400001928E-02 0. -1.
        1   -1    0    0  501    0  0.00000000000E+00  0.00000000000E+00 -0.13055058607E+04  0.13055058607E+04  0.50400001928E-02 0.  1.
    10030    2    1    2    0    0  0.00000000000E+00  0.00000000000E+00 -0.87474325150E+01  0.26022642889E+04  0.26022495868E+04 0.  0.
        4    1    3    3  502    0  0.98027205379E+03  0.79374709312E+03  0.31493416001E+03  0.13000588007E+04  0.12699999809E+01 0. -1.
       -4    1    3    3    0  502 -0.98027205379E+03 -0.79374709312E+03 -0.32368159253E+03  0.13022054882E+04  0.12699999809E+01 0.  1.
</event>
<event>
 5   0  0.2503292E-06  0.2605079E+04  0.7818609E-02  0.8366478E-01
       -1   -1    0    0    0  501  0.00000000000E+00  0.00000000000E+00  0.10557918757E+04  0.10557918757E+04  0.50400001928E-02 0. -1.
        1   -1    0    0  501    0  0.00000000000E+00  0.00000000000E+00 -0.16069536755E+04  0.16069536755E+04  0.50400001928E-02 0.  1.
    10030    2    1    2    0    0  0.00000000000E+00  0.00000000000E+00 -0.55116179982E+03  0.26627455512E+04  0.26050786055E+04 0.  0.
        2    1    3    3  502    0 -0.69708726927E+03 -0.46395166381E+03 -0.12953773743E+04  0.15424604854E+04  0.25500000920E-02 0.  1.
       -2    1    3    3    0  502  0.69708726927E+03  0.46395166381E+03  0.74421557447E+03  0.11202850658E+04  0.25500000920E-02 0. -1.
</event>
<event>
 5   0  0.6161834E-06  0.2590725E+04  0.7818609E-02  0.8371358E-01
       -2   -1    0    0    0  501  0.00000000000E+00  0.00000000000E+00  0.87885388980E+03  0.87885388980E+03  0.25500000920E-02 0.  1.
        2   -1    0    0  501    0  0.00000000000E+00  0.00000000000E+00 -0.19092641295E+04  0.19092641295E+04  0.25500000920E-02 0. -1.
    10030    2    1    2    0    0  0.00000000000E+00  0.00000000000E+00 -0.10304102397E+04  0.27881180193E+04  0.25907251548E+04 0.  0.
        5    1    3    3  502    0 -0.86112277496E+03  0.93348447637E+03 -0.78961599765E+03  0.14954735755E+04  0.46999998093E+01 0.  1.
       -5    1    3    3    0  502  0.86112277496E+03 -0.93348447637E+03 -0.24079424206E+03  0.12926444438E+04  0.46999998093E+01 0. -1.
</event>
<event>
 5   0  0.2333979E-06  0.2618934E+04  0.7818609E-02  0.8361798E-01
        1   -1    0    0  501    0  0.00000000000E+00  0.00000000000E+00  0.24483093257E+04  0.24483093257E+04  0.50400001928E-02 0.  1.
       -1   -1    0    0    0  501  0.00000000000E+00  0.00000000000E+00 -0.70036214503E+03  0.70036214505E+03  0.50400001928E-02 0. -1.
    10030    2    1    2    0    0  0.00000000000E+00  0.00000000000E+00  0.17479471806E+04  0.31486714707E+04  0.26189335013E+04 0.  0.
        3    1    3    3  502    0 -0.52367057991E+03  0.21647302498E+03 -0.54532500208E+03  0.78642915440E+03  0.10100000352E+00 0. -1.
       -3    1    3    3    0  502  0.52367057991E+03 -0.21647302498E+03  0.22932721827E+04  0.23622423163E+04  0.10100000352E+00 0.  1.
</event>
<event>
 5   0  0.5940748E-06  0.2599760E+04  0.7818609E-02  0.8368283E-01
        2   -1    0    0  501    0  0.00000000000E+00  0.00000000000E+00  0.88702443077E+03  0.88702443077E+03  0.25500000920E-02 0.  1.
       -2   -1    0    0    0  501  0.00000000000E+00  0.00000000000E+00 -0.19048939912E+04  0.19048939912E+04  0.25500000920E-02 0. -1.
    10030    2    1    2    0    0  0.00000000000E+00  0.00000000000E+00 -0.10178695605E+04  0.27919184220E+04  0.25997596106E+04 0.  0.
        1    1    3    3  502    0  0.63239121281E+03  0.43317566415E+03  0.61848458974E+03  0.98492791097E+03  0.50400001928E-02 0.  1.
       -1    1    3    3    0  502 -0.63239121281E+03 -0.43317566415E+03 -0.16363541502E+04  0.18069905110E+04  0.50400001928E-02 0. -1.
</event>
<event>
 5   0  0.2440590E-06  0.2594804E+04  0.7818609E-02  0.8369968E-01
        1   -1    0    0  501    0  0.00000000000E+00  0.00000000000E+00  0.15210047870E+04  0.15210047870E+04  0.50400001928E-02 0.  1.
       -1   -1    0    0    0  501  0.00000000000E+00  0.00000000000E+00 -0.11066711142E+04  0.11066711142E+04  0.50400001928E-02 0. -1.
    10030    2    1    2    0    0  0.00000000000E+00  0.00000000000E+00  0.41433367287E+03  0.26276759012E+04  0.25948040869E+04 0.  0.
        1    1    3    3  502    0  0.26419667072E+03  0.47051955981E+03  0.14019710678E+04  0.15022354715E+04  0.50400001928E-02 0.  1.
       -1    1    3    3    0  502 -0.26419667072E+03 -0.47051955981E+03 -0.98763739489E+03  0.11254404297E+04  0.50400001928E-02 0. -1.
</event>
<event>
 5   0  0.5940748E-06  0.2611049E+04  0.7818609E-02  0.8364458E-01
       -2   -1    0    0    0  501  0.00000000000E+00  0.00000000000E+00  0.65954200981E+03  0.65954200982E+03  0.25500000920E-02 0.  1.
        2   -1    0    0  501    0  0.00000000000E+00  0.00000000000E+00 -0.25842088525E+04  0.25842088525E+04  0.25500000920E-02 0. -1.
    10030    2    1    2    0    0  0.00000000000E+00  0.00000000000E+00 -0.19246668427E+04  0.32437508624E+04  0.26110490615E+04 0.  0.
        1    1    3    3  502    0 -0.22508800119E+03  0.21024987944E+03  0.61375754070E+03  0.68670804486E+03  0.50400001928E-02 0.  1.
       -1    1    3    3    0  502  0.22508800119E+03 -0.21024987944E+03 -0.25384243834E+04  0.25570428175E+04  0.50400001928E-02 0. -1.
</event>
<event>
 5   0  0.5940748E-06  0.2618829E+04  0.7818609E-02  0.8361834E-01
       -2   -1    0    0    0  501  0.00000000000E+00  0.00000000000E+00  0.12339131701E+04  0.12339131701E+04  0.25500000920E-02 0. -1.
        2   -1    0    0  501    0  0.00000000000E+00  0.00000000000E+00 -0.13895353038E+04  0.13895353038E+04  0.25500000920E-02 0.  1.
    10030    2    1    2    0    0  0.00000000000E+00  0.00000000000E+00 -0.15562213364E+03  0.26234484739E+04  0.26188286784E+04 0.  0.
        1    1    3    3  502    0 -0.11291454257E+04 -0.12347831768E+03  0.57475931967E+03  0.12730139680E+04  0.50400001928E-02 0. -1.
       -1    1    3    3    0  502  0.11291454257E+04  0.12347831768E+03 -0.73038145332E+03  0.13504345059E+04  0.50400001928E-02 0.  1.
</event>
<event>
 5   0  0.6161834E-06  0.2602329E+04  0.7818609E-02  0.8367411E-01
        2   -1    0    0  501    0  0.00000000000E+00  0.00000000000E+00  0.17389123038E+04  0.17389123038E+04  0.25500000920E-02 0. -1.
       -2   -1    0    0    0  501  0.00000000000E+00  0.00000000000E+00 -0.97361369625E+03  0.97361369625E+03  0.25500000920E-02 0.  1.
    10030    2    1    2    0    0  0.00000000000E+00  0.00000000000E+00  0.76529860758E+03  0.27125260001E+04  0.26023288306E+04 0.  0.
        5    1    3    3  502    0  0.65574959005E+03  0.11233692100E+04  0.41627749050E+03  0.13657506895E+04  0.46999998093E+01 0.  1.
       -5    1    3    3    0  502 -0.65574959005E+03 -0.11233692100E+04  0.34902111707E+03  0.13467753105E+04  0.46999998093E+01 0. -1.
</event>
<event>
 5   0  0.6173140E-06  0.2609300E+04  0.7818609E-02  0.8365049E-01
        2   -1    0    0  501    0  0.00000000000E+00  0.00000000000E+00  0.15890231927E+04  0.15890231927E+04  0.25500000920E-02 0.  1.
       -2   -1    0    0    0  501  0.00000000000E+00  0.00000000000E+00 -0.10711687299E+04  0.10711687299E+04  0.25500000920E-02 0. -1.
    10030    2    1    2    0    0  0.00000000000E+00  0.00000000000E+00  0.51785446279E+03  0.26601919227E+04  0.26093002550E+04 0.  0.
        3    1    3    3  502    0 -0.29712024546E+03  0.51188248655E+03 -0.92642218908E+03  0.10993462616E+04  0.10100000352E+00 0. -1.
       -3    1    3    3    0  502  0.29712024546E+03 -0.51188248655E+03  0.14442766519E+04  0.15608456611E+04  0.10100000352E+00 0.  1.
</event>
<event>
 5   0  0.2503292E-06  0.2596809E+04  0.7818609E-02  0.8369286E-01
       -1   -1    0    0    0  501  0.00000000000E+00  0.00000000000E+00  0.87523193129E+03  0.87523193130E+03  0.50400001928E-02 0.  1.
        1   -1    0    0  501    0  0.00000000000E+00  0.00000000000E+00 -0.19261803444E+04  0.19261803444E+04  0.50400001928E-02 0. -1.
    10030    2    1    2    0    0  0.00000000000E+00  0.00000000000E+00 -0.10509484131E+04  0.28014122757E+04  0.25968092289E+04 0.  0.
        2    1    3    3  502    0 -0.54353036448E+03  0.10710294089E+04 -0.10576199678E+04  0.16003403538E+04  0.25500000920E-02 0. -1.
       -2    1    3    3    0  502  0.54353036448E+03 -0.10710294089E+04  0.66715546586E+01  0.12010719219E+04  0.25500000920E-02 0.  1.
</event>
<event>
 5   0  0.2333979E-06  0.2597863E+04  0.7818609E-02  0.8368928E-01
       -1   -1    0    0    0  501  0.00000000000E+00  0.00000000000E+00  0.17581748041E+04  0.17581748041E+04  0.50400001928E-02 0. -1.
        1   -1    0    0  501    0  0.00000000000E+00  0.00000000000E+00 -0.95964432537E+03  0.95964432538E+03  0.50400001928E-02 0.  1.
    10030    2    1    2    0    0  0.00000000000E+00  0.00000000000E+00  0.79853047872E+03  0.27178191295E+04  0.25978625628E+04 0.  0.
        3    1    3    3  502    0 -0.31450422252E+03 -0.30630446641E+03  0.16782061200E+04  0.17346789685E+04  0.10100000352E+00 0. -1.
       -3    1    3    3    0  502  0.31450422252E+03  0.30630446641E+03 -0.87967564130E+03  0.98314016103E+03  0.10100000352E+00 0.  1.
</event>
<event>
 5   0  0.2072125E-06  0.2582187E+04  0.7818609E-02  0.8374277E-01
        3   -1    0    0  501    0  0.00000000000E+00  0.00000000000E+00  0.19693506323E+04  0.19693506349E+04  0.10100000352E+00 0.  1.
       -3   -1    0    0    0  501  0.00000000000E+00  0.00000000000E+00 -0.84643265212E+03  0.84643265815E+03  0.10100000352E+00 0. -1.
    10030    2    1    2    0    0  0.00000000000E+00  0.00000000000E+00  0.11229179802E+04  0.28157832931E+04  0.25821872053E+04 0.  0.
        1    1    3    3  502    0  0.55992282718E+03  0.60912194865E+02  0.18283228219E+04  0.19131095654E+04  0.50400001928E-02 0.  1.
       -1    1    3    3    0  502 -0.55992282718E+03 -0.60912194865E+02 -0.70540484174E+03  0.90267372769E+03  0.50400001928E-02 0. -1.
</event>
<event>
 5   0  0.2503292E-06  0.2601716E+04  0.7818609E-02  0.8367619E-01
        1   -1    0    0  501    0  0.00000000000E+00  0.00000000000E+00  0.16335652011E+04  0.16335652011E+04  0.50400001928E-02 0. -1.
       -1   -1    0    0    0  501  0.00000000000E+00  0.00000000000E+00 -0.10359128416E+04  0.10359128416E+04  0.50400001928E-02 0.  1.
    10030    2    1    2    0    0  0.00000000000E+00  0.00000000000E+00  0.59765235953E+03  0.26694780427E+04  0.26017157181E+04 0.  0.
        2    1    3    3  502    0  0.84144005858E+03  0.47084193724E+03  0.11947920522E+04  0.15353310881E+04  0.25500000920E-02 0. -1.
       -2    1    3    3    0  502 -0.84144005858E+03 -0.47084193724E+03 -0.59713969269E+03  0.11341469546E+04  0.25500000920E-02 0.  1.
</event>
<event>
 5   0  0.2440590E-06  0.2496557E+04  0.7818609E-02  0.8404213E-01
       -1   -1    0    0    0  501  0.00000000000E+00  0.00000000000E+00  0.77016542032E+03  0.77016542033E+03  0.50400001928E-02 0.  1.
        1   -1    0    0  501    0  0.00000000000E+00  0.00000000000E+00 -0.20232011993E+04  0.20232011993E+04  0.50400001928E-02 0. -1.
    10030    2    1    2    0    0  0.00000000000E+00  0.00000000000E+00 -0.12530357790E+04  0.27933666196E+04  0.24965573112E+04 0.  0.
        1    1    3    3  502    0 -0.10198925165E+04  0.26642955879E+03  0.12157710352E+03  0.10611062374E+04  0.50400001928E-02 0.  1.
       -1    1    3    3    0  502  0.10198925165E+04 -0.26642955879E+03 -0.13746128825E+04  0.17322603822E+04  0.50400001928E-02 0. -1.
</event>
<event>
 5   0  0.5942229E-06  0.2600751E+04  0.7818609E-02  0.8367946E-01
        2   -1    0    0  501    0  0.00000000000E+00  0.00000000000E+00  0.14850030195E+04  0.14850030195E+04  0.25500000920E-02 0. -1.
       -2   -1    0    0    0  501  0.00000000000E+00  0.00000000000E+00 -0.11387025317E+04  0.11387025317E+04  0.25500000920E-02 0.  1.
    10030    2    1    2    0    0  0.00000000000E+00  0.00000000000E+00  0.34630048779E+03  0.26237055512E+04  0.26007511975E+04 0.  0.
        4    1    3    3  502    0 -0.85513822176E+02  0.12747499671E+04 -0.71216897795E+02  0.12795989808E+04  0.12699999809E+01 0.  1.
       -4    1    3    3    0  502  0.85513822176E+02 -0.12747499671E+04  0.41751738558E+03  0.13441065704E+04  0.12699999809E+01 0. -1.
</event>
<event>
 5   0  0.2333979E-06  0.2558677E+04  0.7818609E-02  0.8382375E-01
        1   -1    0    0  501    0  0.00000000000E+00  0.00000000000E+00  0.21927161724E+04  0.21927161724E+04  0.50400001928E-02 0. -1.
       -1   -1    0    0    0  501  0.00000000000E+00  0.00000000000E+00 -0.74642892151E+03  0.74642892153E+03  0.50400001928E-02 0.  1.
    10030    2    1    2    0    0  0.00000000000E+00  0.00000000000E+00  0.14462872509E+04  0.29391450939E+04  0.25586768204E+04 0.  0.
        3    1    3    3  502    0  0.17038418947E+03 -0.48131487549E+03  0.20706061582E+04  0.21326285785E+04  0.10100000352E+00 0. -1.
       -3    1    3    3    0  502 -0.17038418947E+03  0.48131487549E+03 -0.62431890731E+03  0.80651651541E+03  0.10100000352E+00 0.  1.
</event>
<event>
 5   0  0.6158063E-06  0.2606640E+04  0.7818609E-02  0.8365949E-01
        2   -1    0    0  501    0  0.00000000000E+00  0.00000000000E+00  0.98865351323E+03  0.98865351324E+03  0.25500000920E-02 0. -1.
       -2   -1    0    0    0  501  0.00000000000E+00  0.00000000000E+00 -0.17181373145E+04  0.17181373145E+04  0.25500000920E-02 0.  1.
    10030    2    1    2    0    0  0.00000000000E+00  0.00000000000E+00 -0.72948380127E+03  0.27067908277E+04  0.26066395932E+04 0.  0.
        2    1    3    3  502    0 -0.76459242363E+03  0.10292151349E+04 -0.12174875472E+03  0.12879084313E+04  0.25500000920E-02 0. -1.
       -2    1    3    3    0  502  0.76459242363E+03 -0.10292151349E+04 -0.60773504655E+03  0.14188823964E+04  0.25500000920E-02 0.  1.
</event>
<event>
 5   0  0.2456600E-06  0.2590525E+04  0.7818609E-02  0.8371427E-01
        1   -1    0    0  501    0  0.00000000000E+00  0.00000000000E+00  0.79394533286E+03  0.79394533288E+03  0.50400001928E-02 0.  1.
       -1   -1    0    0    0  501  0.00000000000E+00  0.00000000000E+00 -0.21131245766E+04  0.21131245766E+04  0.50400001928E-02 0. -1.
    10030    2    1    2    0    0  0.00000000000E+00  0.00000000000E+00 -0.13191792437E+04  0.29070699095E+04  0.25905253485E+04 0.  0.
        5    1    3    3  502    0  0.91942082656E+03 -0.23537377372E+03  0.32956357789E+03  0.10046739329E+04  0.46999998093E+01 0.  1.
       -5    1    3    3    0  502 -0.91942082656E+03  0.23537377372E+03 -0.16487428216E+04  0.19023959765E+04  0.46999998093E+01 0. -1.
</event>
<event>
 5   0  0.5942229E-06  0.2601909E+04  0.7818609E-02  0.8367553E-01
       -2   -1    0    0    0  501  0.00000000000E+00  0.00000000000E+00  0.12135688272E+04  0.12135688272E+04  0.25500000920E-02 0.  1.
        2   -1    0    0  501    0  0.00000000000E+00  0.00000000000E+00 -0.13946320980E+04  0.13946320980E+04  0.25500000920E-02 0. -1.
    10030    2    1    2    0    0  0.00000000000E+00  0.00000000000E+00 -0.18106327088E+03  0.26082009252E+04  0.26019085607E+04 0.  0.
        4    1    3    3  502    0 -0.27938122469E+03  0.47073175554E+03 -0.12735714067E+04  0.13862279738E+04  0.12699999809E+01 0. -1.
       -4    1    3    3    0  502  0.27938122469E+03 -0.47073175554E+03  0.10925081358E+04  0.12219729515E+04  0.12699999809E+01 0.  1.
</event>
<event>
 5   0  0.5940748E-06  0.2609485E+04  0.7818609E-02  0.8364986E-01
        2   -1    0    0  501    0  0.00000000000E+00  0.00000000000E+00  0.15666923253E+04  0.15666923253E+04  0.25500000920E-02 0. -1.
       -2   -1    0    0    0  501  0.00000000000E+00  0.00000000000E+00 -0.10865908010E+04  0.10865908010E+04  0.25500000920E-02 0.  1.
    10030    2    1    2    0    0  0.00000000000E+00  0.00000000000E+00  0.48010152427E+03  0.26532831263E+04  0.26094853659E+04 0.  0.
        1    1    3    3  502    0 -0.72150767740E+03  0.11540231045E+03 -0.85904645702E+03  0.11277640875E+04  0.50400001928E-02 0.  1.
       -1    1    3    3    0  502  0.72150767740E+03 -0.11540231045E+03  0.13391479813E+04  0.15255190388E+04  0.50400001928E-02 0. -1.
</event>
<event>
 5   0  0.5940748E-06  0.2583963E+04  0.7818609E-02  0.8373669E-01
        2   -1    0    0  501    0  0.00000000000E+00  0.00000000000E+00  0.25371770811E+04  0.25371770811E+04  0.25500000920E-02 0.  1.
       -2   -1    0    0    0  501  0.00000000000E+00  0.00000000000E+00 -0.65790281735E+03  0.65790281735E+03  0.25500000920E-02 0. -1.
    10030    2    1    2    0    0  0.00000000000E+00  0.00000000000E+00  0.18792742638E+04  0.31950798985E+04  0.25839628092E+04 0.  0.
        1    1    3    3  502    0 -0.30607876366E+03 -0.87840789152E+02  0.24878938525E+04  0.25081897925E+04  0.50400001928E-02 0.  1.
       -1    1    3    3    0  502  0.30607876366E+03  0.87840789152E+02 -0.60861958876E+03  0.68689010595E+03  0.50400001928E-02 0. -1.
</event>
<event>
 5   0  0.2471488E-06  0.2608249E+04  0.7818609E-02  0.8365405E-01
       -1   -1    0    0    0  501  0.00000000000E+00  0.00000000000E+00  0.15888571237E+04  0.15888571238E+04  0.50400001928E-02 0.  1.
        1   -1    0    0  501    0  0.00000000000E+00  0.00000000000E+00 -0.10704174914E+04  0.10704174914E+04  0.50400001928E-02 0. -1.
    10030    2    1    2    0    0  0.00000000000E+00  0.00000000000E+00  0.51843963232E+03  0.26592746152E+04  0.26082488046E+04 0.  0.
        4    1    3    3  502    0  0.10219852587E+04 -0.80994530210E+03  0.24235590885E+03  0.13263495998E+04  0.12699999809E+01 0. -1.
       -4    1    3    3    0  502 -0.10219852587E+04  0.80994530210E+03  0.27608372347E+03  0.13329250154E+04  0.12699999809E+01 0.  1.
</event>
<event>
 5   0  0.5942229E-06  0.2641472E+04  0.7818609E-02  0.8354249E-01
       -2   -1    0    0    0  501  0.00000000000E+00  0.00000000000E+00  0.12977079354E+04  0.12977079354E+04  0.25500000920E-02 0. -1.
        2   -1    0    0  501    0  0.00000000000E+00  0.00000000000E+00 -0.13441730934E+04  0.13441730934E+04  0.25500000920E-02 0.  1.
    10030    2    1    2    0    0  0.00000000000E+00  0.00000000000E+00 -0.46465158003E+02  0.26418810287E+04  0.26414723847E+04 0.  0.
        4    1    3    3  502    0 -0.12152308440E+04 -0.26631498990E+03  0.42026899139E+03  0.13131402500E+04  0.12699999809E+01 0. -1.
       -4    1    3    3    0  502  0.12152308440E+04  0.26631498990E+03 -0.46673414940E+03  0.13287407788E+04  0.12699999809E+01 0.  1.
</event>
<event>
 5   0  0.5942229E-06  0.2598716E+04  0.7818609E-02  0.8368637E-01
       -2   -1    0    0    0  501  0.00000000000E+00  0.00000000000E+00  0.12849412961E+04  0.12849412961E+04  0.25500000920E-02 0. -1.
        2   -1    0    0  501    0  0.00000000000E+00  0.00000000000E+00 -0.13139364873E+04  0.13139364873E+04  0.25500000920E-02 0.  1.
    10030    2    1    2    0    0  0.00000000000E+00  0.00000000000E+00 -0.28995191143E+02  0.25988777834E+04  0.25987160314E+04 0.  0.
        4    1    3    3  502    0 -0.87369866836E+03  0.96168975275E+03 -0.29601356581E+01  0.12993101704E+04  0.12699999809E+01 0.  1.
       -4    1    3    3    0  502  0.87369866836E+03 -0.96168975275E+03 -0.26035055485E+02  0.12995676130E+04  0.12699999809E+01 0. -1.
</event>
<event>
 5   0  0.2503292E-06  0.2602092E+04  0.7818609E-02  0.8367491E-01
       -1   -1    0    0    0  501  0.00000000000E+00  0.00000000000E+00  0.14324519978E+04  0.14324519978E+04  0.50400001928E-02 0.  1.
        1   -1    0    0  501    0  0.00000000000E+00  0.00000000000E+00 -0.11816944575E+04  0.11816944575E+04  0.50400001928E-02 0. -1.
    10030    2    1    2    0    0  0.00000000000E+00  0.00000000000E+00  0.25075754034E+03  0.26141464553E+04  0.26020919172E+04 0.  0.
        2    1    3    3  502    0  0.90577768409E+03  0.50886040295E+03  0.91217255775E+03  0.13825450798E+04  0.25500000920E-02 0.  1.
       -2    1    3    3    0  502 -0.90577768409E+03 -0.50886040295E+03 -0.66141501741E+03  0.12316013754E+04  0.25500000920E-02 0. -1.
</event>
<event>
 5   0  0.5942229E-06  0.2599048E+04  0.7818609E-02  0.8368525E-01
       -2   -1    0    0    0  501  0.00000000000E+00  0.00000000000E+00  0.86595098744E+03  0.86595098744E+03  0.25500000920E-02 0. -1.
        2   -1    0    0  501    0  0.00000000000E+00  0.00000000000E+00 -0.19501825669E+04  0.19501825669E+04  0.25500000920E-02 0.  1.
    10030    2    1    2    0    0  0.00000000000E+00  0.00000000000E+00 -0.10842315795E+04  0.28161335543E+04  0.25990479176E+04 0.  0.
        4    1    3    3  502    0 -0.14522324225E+02  0.89613540713E+03  0.47748724647E+03  0.10155123088E+04  0.12699999809E+01 0. -1.
       -4    1    3    3    0  502  0.14522324225E+02 -0.89613540713E+03 -0.15617188259E+04  0.18006212456E+04  0.12699999809E+01 0.  1.
</event>
<event>
 5   0  0.2456600E-06  0.2597621E+04  0.7818609E-02  0.8369010E-01
       -1   -1    0    0    0  501  0.00000000000E+00  0.00000000000E+00  0.17456732628E+04  0.17456732628E+04  0.50400001928E-02 0.  1.
        1   -1    0    0  501    0  0.00000000000E+00  0.00000000000E+00 -0.96633700164E+03  0.96633700165E+03  0.50400001928E-02 0. -1.
    10030    2    1    2    0    0  0.00000000000E+00  0.00000000000E+00  0.77933626119E+03  0.27120102645E+04  0.25976209629E+04 0.  0.
        5    1    3    3  502    0 -0.53196933136E+03  0.98397753412E+03  0.10787979851E+04  0.15540367884E+04  0.46999998093E+01 0.  1.
       -5    1    3    3    0  502  0.53196933136E+03 -0.98397753412E+03 -0.29946172391E+03  0.11579734761E+04  0.46999998093E+01 0. -1.
</event>
<event>
 5   0  0.2456600E-06  0.2611009E+04  0.7818609E-02  0.8364471E-01
       -1   -1    0    0    0  501  0.00000000000E+00  0.00000000000E+00  0.88929774213E+03  0.88929774214E+03  0.50400001928E-02 0.  1.
        1   -1    0    0  501    0  0.00000000000E+00  0.00000000000E+00 -0.19165038479E+04  0.19165038479E+04  0.50400001928E-02 0. -1.
    10030    2    1    2    0    0  0.00000000000E+00  0.00000000000E+00 -0.10272061058E+04  0.28058015901E+04  0.26110094176E+04 0.  0.
        5    1    3    3  502    0  0.41006879494E+03 -0.12315244533E+04 -0.36349827881E+03  0.13479473226E+04  0.46999998093E+01 0. -1.
       -5    1    3    3    0  502 -0.41006879494E+03  0.12315244533E+04 -0.66370782697E+03  0.14578542675E+04  0.46999998093E+01 0.  1.
</event>
<event>
 5   0  0.2456600E-06  0.2461225E+04  0.7818609E-02  0.8416931E-01
       -1   -1    0    0    0  501  0.00000000000E+00  0.00000000000E+00  0.68585788205E+03  0.68585788207E+03  0.50400001928E-02 0.  1.
        1   -1    0    0  501    0  0.00000000000E+00  0.00000000000E+00 -0.22080487727E+04  0.22080487727E+04  0.50400001928E-02 0. -1.
    10030    2    1    2    0    0  0.00000000000E+00  0.00000000000E+00 -0.15221908907E+04  0.28939066548E+04  0.24612254303E+04 0.  0.
        5    1    3    3  502    0  0.63561924850E+03  0.35739249493E+03 -0.19266465043E+04  0.20600315695E+04  0.46999998093E+01 0. -1.
       -5    1    3    3    0  502 -0.63561924850E+03 -0.35739249493E+03  0.40445561367E+03  0.83387508533E+03  0.46999998093E+01 0.  1.
</event>
<event>
 5   0  0.2503292E-06  0.2607257E+04  0.7818609E-02  0.8365741E-01
        1   -1    0    0  501    0  0.00000000000E+00  0.00000000000E+00  0.19767310904E+04  0.19767310904E+04  0.50400001928E-02 0.  1.
       -1   -1    0    0    0  501  0.00000000000E+00  0.00000000000E+00 -0.85972577017E+03  0.85972577019E+03  0.50400001928E-02 0. -1.
    10030    2    1    2    0    0  0.00000000000E+00  0.00000000000E+00  0.11170053202E+04  0.28364568606E+04  0.26072565345E+04 0.  0.
        2    1    3    3  502    0  0.10532967031E+03  0.44581760226E+03  0.18862856544E+04  0.19411134032E+04  0.25500000920E-02 0.  1.
       -2    1    3    3    0  502 -0.10532967031E+03 -0.44581760226E+03 -0.76928033426E+03  0.89534345735E+03  0.25500000920E-02 0. -1.
</event>
<event>
 5   0  0.6173140E-06  0.2621666E+04  0.7818609E-02  0.8360879E-01
        2   -1    0    0  501    0  0.00000000000E+00  0.00000000000E+00  0.21340924268E+04  0.21340924268E+04  0.25500000920E-02 0.  1.
       -2   -1    0    0    0  501  0.00000000000E+00  0.00000000000E+00 -0.80515896593E+03  0.80515896593E+03  0.25500000920E-02 0. -1.
    10030    2    1    2    0    0  0.00000000000E+00  0.00000000000E+00  0.13289334609E+04  0.29392513928E+04  0.26216663797E+04 0.  0.
        3    1    3    3  502    0  0.64022893573E+03 -0.76142441722E+03  0.16214643724E+04  0.19023162078E+04  0.10100000352E+00 0.  1.
       -3    1    3    3    0  502 -0.64022893573E+03  0.76142441722E+03 -0.29253091156E+03  0.10369351849E+04  0.10100000352E+00 0. -1.
</event>
<event>
 5   0  0.6161834E-06  0.2505166E+04  0.7818609E-02  0.8401147E-01
        2   -1    0    0  501    0  0.00000000000E+00  0.00000000000E+00  0.17694737423E+04  0.17694737423E+04  0.25500000920E-02 0. -1.
       -2   -1    0    0    0  501  0.00000000000E+00  0.00000000000E+00 -0.88668440406E+03  0.88668440407E+03  0.25500000920E-02 0.  1.
    10030    2    1    2    0    0  0.00000000000E+00  0.00000000000E+00  0.88278933826E+03  0.26561581464E+04  0.25051664781E+04 0.  0.
        5    1    3    3  502    0  0.98785800312E+03  0.39664321463E+03  0.11412974724E+04  0.15606957694E+04  0.46999998093E+01 0. -1.
       -5    1    3    3    0  502 -0.98785800312E+03 -0.39664321463E+03 -0.25850813414E+03  0.10954623770E+04  0.46999998093E+01 0.  1.
</event>
<event>
 5   0  0.6158063E-06  0.2478436E+04  0.7818609E-02  0.8410708E-01
       -2   -1    0    0    0  501  0.00000000000E+00  0.00000000000E+00  0.94505035222E+03  0.94505035222E+03  0.25500000920E-02 0. -1.
        2   -1    0    0  501    0  0.00000000000E+00  0.00000000000E+00 -0.16249519030E+04  0.16249519030E+04  0.25500000920E-02 0.  1.
    10030    2    1    2    0    0  0.00000000000E+00  0.00000000000E+00 -0.67990155081E+03  0.25700022553E+04  0.24784360942E+04 0.  0.
        2    1    3    3  502    0  0.74173282443E+03 -0.53931078607E+02 -0.13678271729E+04  0.15569288099E+04  0.25500000920E-02 0.  1.
       -2    1    3    3    0  502 -0.74173282443E+03  0.53931078607E+02  0.68792562213E+03  0.10130734453E+04  0.25500000920E-02 0. -1.
</event>
<event>
 5   0  0.2503292E-06  0.2603405E+04  0.7818609E-02  0.8367046E-01
        1   -1    0    0  501    0  0.00000000000E+00  0.00000000000E+00  0.20781187446E+04  0.20781187446E+04  0.50400001928E-02 0.  1.
       -1   -1    0    0    0  501  0.00000000000E+00  0.00000000000E+00 -0.81536677830E+03  0.81536677831E+03  0.50400001928E-02 0. -1.
    10030    2    1    2    0    0  0.00000000000E+00  0.00000000000E+00  0.12627519663E+04  0.28934855230E+04  0.26034046829E+04 0.  0.
        2    1    3    3  502    0  0.85248274881E+03 -0.19629837401E+03 -0.43996325341E+03  0.97919740247E+03  0.25500000920E-02 0. -1.
       -2    1    3    3    0  502 -0.85248274881E+03  0.19629837401E+03  0.17027152197E+04  0.19142881205E+04  0.25500000920E-02 0.  1.
</event>
<event>
 5   0  0.5940748E-06  0.2607075E+04  0.7818609E-02  0.8365802E-01
       -2   -1    0    0    0  501  0.00000000000E+00  0.00000000000E+00  0.12619911628E+04  0.12619911628E+04  0.25500000920E-02 0. -1.
        2   -1    0    0  501    0  0.00000000000E+00  0.00000000000E+00 -0.13464520670E+04  0.13464520670E+04  0.25500000920E-02 0.  1.
    10030    2    1    2    0    0  0.00000000000E+00  0.00000000000E+00 -0.84460904222E+02  0.26084432297E+04  0.26070754570E+04 0.  0.
        1    1    3    3  502    0  0.30346559025E+03  0.13042401347E+03 -0.13038871902E+04  0.13450738242E+04  0.50400001928E-02 0.  1.
       -1    1    3    3    0  502 -0.30346559025E+03 -0.13042401347E+03  0.12194262860E+04  0.12633694055E+04  0.50400001928E-02 0. -1.
</event>
<event>
 5   0  0.2072125E-06  0.2602373E+04  0.7818609E-02  0.8367395E-01
        3   -1    0    0  501    0  0.00000000000E+00  0.00000000000E+00  0.78258253176E+03  0.78258253828E+03  0.10100000352E+00 0.  1.
       -3   -1    0    0    0  501  0.00000000000E+00  0.00000000000E+00 -0.21634608461E+04  0.21634608484E+04  0.10100000352E+00 0. -1.
    10030    2    1    2    0    0  0.00000000000E+00  0.00000000000E+00 -0.13808783143E+04  0.29460433867E+04  0.26023732856E+04 0.  0.
        5    1    3    3  502    0  0.11181768553E+03 -0.54933016434E+03 -0.20197294452E+04  0.20960906340E+04  0.46999998093E+01 0. -1.
       -5    1    3    3    0  502 -0.11181768553E+03  0.54933016434E+03  0.63885113093E+03  0.84995275265E+03  0.46999998093E+01 0.  1.
</event>
<event>
 5   0  0.2503292E-06  0.2546878E+04  0.7818609E-02  0.8386473E-01
        1   -1    0    0  501    0  0.00000000000E+00  0.00000000000E+00  0.19425151708E+04  0.19425151708E+04  0.50400001928E-02 0. -1.
       -1   -1    0    0    0  501  0.00000000000E+00  0.00000000000E+00 -0.83481837516E+03  0.83481837517E+03  0.50400001928E-02 0.  1.
    10030    2    1    2    0    0  0.00000000000E+00  0.00000000000E+00  0.11076967956E+04  0.27773335460E+04  0.25468783706E+04 0.  0.
        2    1    3    3  502    0 -0.35766356705E+03 -0.25616826153E+03  0.18570134995E+04  0.19084141434E+04  0.25500000920E-02 0. -1.
       -2    1    3    3    0  502  0.35766356705E+03  0.25616826153E+03 -0.74931670388E+03  0.86891940255E+03  0.25500000920E-02 0.  1.
</event>
<event>
 5   0  0.2440590E-06  0.2587057E+04  0.7818609E-02  0.8372611E-01
        1   -1    0    0  501    0  0.00000000000E+00  0.00000000000E+00  0.14697192620E+04  0.14697192620E+04  0.50400001928E-02 0.  1.
       -1   -1    0    0    0  501  0.00000000000E+00  0.00000000000E+00 -0.11384593173E+04  0.11384593174E+04  0.50400001928E-02 0. -1.
    10030    2    1    2    0    0  0.00000000000E+00  0.00000000000E+00  0.33125994466E+03  0.26081785794E+04  0.25870566965E+04 0.  0.
        1    1    3    3  502    0 -0.57008954353E+03 -0.78836193546E+03 -0.69379634039E+03  0.11949351409E+04  0.50400001928E-02 0. -1.
       -1    1    3    3    0  502  0.57008954353E+03  0.78836193546E+03  0.10250562850E+04  0.14132434385E+04  0.50400001928E-02 0.  1.
</event>
<event>
 5   0  0.2333979E-06  0.2605940E+04  0.7818609E-02  0.8366186E-01
       -1   -1    0    0    0  501  0.00000000000E+00  0.00000000000E+00  0.88509674858E+03  0.88509674859E+03  0.50400001928E-02 0.  1.
        1   -1    0    0  501    0  0.00000000000E+00  0.00000000000E+00 -0.19181301346E+04  0.19181301346E+04  0.50400001928E-02 0. -1.
    10030    2    1    2    0    0  0.00000000000E+00  0.00000000000E+00 -0.10330333861E+04  0.28032268832E+04  0.26059399422E+04 0.  0.
        3    1    3    3  502    0 -0.29488066371E+03 -0.12274683112E+04 -0.16944886271E+03  0.12737134639E+04  0.10100000352E+00 0.  1.
       -3    1    3    3    0  502  0.29488066371E+03  0.12274683112E+04 -0.86358452335E+03  0.15295134193E+04  0.10100000352E+00 0. -1.
</event>
<event>
 5   0  0.2503292E-06  0.2602383E+04  0.7818609E-02  0.8367392E-01
        1   -1    0    0  501    0  0.00000000000E+00  0.00000000000E+00  0.13129668448E+04  0.13129668449E+04  0.50400001928E-02 0.  1.
       -1   -1    0    0    0  501  0.00000000000E+00  0.00000000000E+00 -0.12895221047E+04  0.12895221047E+04  0.50400001928E-02 0. -1.
    10030    2    1    2    0    0  0.00000000000E+00  0.00000000000E+00  0.23444740147E+02  0.26024889496E+04  0.26023833455E+04 0.  0.
        2    1    3    3  502    0 -0.24905120280E+03  0.72425674028E+03  0.10636801870E+04  0.13107211251E+04  0.25500000920E-02 0.  1.
       -2    1    3    3    0  502  0.24905120280E+03 -0.72425674028E+03 -0.10402354469E+04  0.12917678245E+04  0.25500000920E-02 0. -1.
</event>
<event>
 5   0  0.2333979E-06  0.2675147E+04  0.7818609E-02  0.8343114E-01
       -1   -1    0    0    0  501  0.00000000000E+00  0.00000000000E+00  0.12150399450E+04  0.12150399450E+04  0.50400001928E-02 0.  1.
        1   -1    0    0  501    0  0.00000000000E+00  0.00000000000E+00 -0.14724640592E+04  0.14724640592E+04  0.50400001928E-02 0. -1.
    10030    2    1    2    0    0  0.00000000000E+00  0.00000000000E+00 -0.25742411414E+03  0.26875040042E+04  0.26751468367E+04 0.  0.
        3    1    3    3  502    0 -0.56526027310E+03  0.57121116282E+03  0.94547975563E+03  0.12408599225E+04  0.10100000352E+00 0.  1.
       -3    1    3    3    0  502  0.56526027310E+03 -0.57121116282E+03 -0.12029038698E+04  0.14466440817E+04  0.10100000352E+00 0. -1.
</event>
<event>
 5   0  0.2471488E-06  0.2593389E+04  0.7818609E-02  0.8370450E-01
        1   -1    0    0  501    0  0.00000000000E+00  0.00000000000E+00  0.15458893778E+04  0.15458893778E+04  0.50400001928E-02 0. -1.
       -1   -1    0    0    0  501  0.00000000000E+00  0.00000000000E+00 -0.10876695004E+04  0.10876695004E+04  0.50400001928E-02 0.  1.
    10030    2    1    2    0    0  0.00000000000E+00  0.00000000000E+00  0.45821987740E+03  0.26335588782E+04  0.25933890778E+04 0.  0.
        4    1    3    3  502    0  0.49882121927E+03 -0.33801222387E+03 -0.93686471398E+03  0.11139084242E+04  0.12699999809E+01 0.  1.
       -4    1    3    3    0  502 -0.49882121927E+03  0.33801222387E+03  0.13950845914E+04  0.15196504540E+04  0.12699999809E+01 0. -1.
</event>
<event>
 5   0  0.2503292E-06  0.2595624E+04  0.7818609E-02  0.8369689E-01
        1   -1    0    0  501    0  0.00000000000E+00  0.00000000000E+00  0.11712615033E+04  0.11712615033E+04  0.50400001928E-02 0. -1.
       -1   -1    0    0    0  501  0.00000000000E+00  0.00000000000E+00 -0.14380358716E+04  0.14380358716E+04  0.50400001928E-02 0.  1.
    10030    2    1    2    0    0  0.00000000000E+00  0.00000000000E+00 -0.26677436833E+03  0.26092973749E+04  0.25956240534E+04 0.  0.
        2    1    3    3  502    0 -0.54752204574E+03 -0.93875882433E+03 -0.84653777354E+03  0.13775611503E+04  0.25500000920E-02 0.  1.
       -2    1    3    3    0  502  0.54752204574E+03  0.93875882433E+03  0.57976340520E+03  0.12317362245E+04  0.25500000920E-02 0. -1.
</event>
<event>
 5   0  0.6158063E-06  0.2599105E+04  0.7818609E-02  0.8368505E-01
       -2   -1    0    0    0  501  0.00000000000E+00  0.00000000000E+00  0.98759140792E+03  0.98759140793E+03  0.25500000920E-02 0. -1.
        2   -1    0    0  501    0  0.00000000000E+00  0.00000000000E+00 -0.17100556496E+04  0.17100556496E+04  0.25500000920E-02 0.  1.
    10030    2    1    2    0    0  0.00000000000E+00  0.00000000000E+00 -0.72246424163E+03  0.26976470575E+04  0.25991046663E+04 0.  0.
        2    1    3    3  502    0 -0.67732079917E+03 -0.10390106799E+04 -0.76392349413E+03  0.14566694075E+04  0.25500000920E-02 0. -1.
       -2    1    3    3    0  502  0.67732079917E+03  0.10390106799E+04  0.41459252502E+02  0.12409776499E+04  0.25500000920E-02 0.  1.
</event>
<event>
 5   0  0.2503292E-06  0.2616809E+04  0.7818609E-02  0.8362514E-01
        1   -1    0    0  501    0  0.00000000000E+00  0.00000000000E+00  0.16061063190E+04  0.16061063190E+04  0.50400001928E-02 0. -1.
       -1   -1    0    0    0  501  0.00000000000E+00  0.00000000000E+00 -0.10658836270E+04  0.10658836270E+04  0.50400001928E-02 0.  1.
    10030    2    1    2    0    0  0.00000000000E+00  0.00000000000E+00  0.54022269196E+03  0.26719899460E+04  0.26168090711E+04 0.  0.
        2    1    3    3  502    0  0.58212237473E+03 -0.10298601650E+04  0.84086524190E+03  0.14513899454E+04  0.25500000920E-02 0. -1.
       -2    1    3    3    0  502 -0.58212237473E+03  0.10298601650E+04 -0.30064254994E+03  0.12206000006E+04  0.25500000920E-02 0.  1.
</event>
<event>
 5   0  0.2456600E-06  0.2601738E+04  0.7818609E-02  0.8367611E-01
       -1   -1    0    0    0  501  0.00000000000E+00  0.00000000000E+00  0.93764722237E+03  0.93764722239E+03  0.50400001928E-02 0. -1.
        1   -1    0    0  501    0  0.00000000000E+00  0.00000000000E+00 -0.18047944430E+04  0.18047944430E+04  0.50400001928E-02 0.  1.
    10030    2    1    2    0    0  0.00000000000E+00  0.00000000000E+00 -0.86714722062E+03  0.27424416654E+04  0.26017382624E+04 0.  0.
        5    1    3    3  502    0 -0.65808190962E+03 -0.68714256306E+03 -0.13686813058E+04  0.16668975099E+04  0.46999998093E+01 0.  1.
       -5    1    3    3    0  502  0.65808190962E+03  0.68714256306E+03  0.50153408519E+03  0.10755441555E+04  0.46999998093E+01 0. -1.
</event>
<event>
 5   0  0.2072125E-06  0.2595315E+04  0.7818609E-02  0.8369794E-01
       -3   -1    0    0    0  501  0.00000000000E+00  0.00000000000E+00  0.74561945021E+03  0.74561945705E+03  0.10100000352E+00 0.  1.
        3   -1    0    0  501    0  0.00000000000E+00  0.00000000000E+00 -0.22584103948E+04  0.22584103970E+04  0.10100000352E+00 0. -1.
    10030    2    1    2    0    0  0.00000000000E+00  0.00000000000E+00 -0.15127909446E+04  0.30040298541E+04  0.25953148021E+04 0.  0.
        4    1    3    3  502    0 -0.32637226332E+03 -0.12010390037E+04 -0.11815232587E+04  0.17161038332E+04  0.12699999809E+01 0. -1.
       -4    1    3    3    0  502  0.32637226332E+03  0.12010390037E+04 -0.33126768583E+03  0.12879260208E+04  0.12699999809E+01 0.  1.
</event>
<event>
 5   0  0.6173140E-06  0.2586564E+04  0.7818609E-02  0.8372779E-01
       -2   -1    0    0    0  501  0.00000000000E+00  0.00000000000E+00  0.95212250021E+03  0.95212250021E+03  0.25500000920E-02 0. -1.
        2   -1    0    0  501    0  0.00000000000E+00  0.00000000000E+00 -0.17566843955E+04  0.17566843955E+04  0.25500000920E-02 0.  1.
    10030    2    1    2    0    0  0.00000000000E+00  0.00000000000E+00 -0.80456189524E+03  0.27088068957E+04  0.25865643148E+04 0.  0.
        3    1    3    3  502    0  0.10834259216E+04  0.62114737054E+03 -0.75423366164E+03  0.14589394128E+04  0.10100000352E+00 0.  1.
       -3    1    3    3    0  502 -0.10834259216E+04 -0.62114737054E+03 -0.50328233607E+02  0.12498674829E+04  0.10100000352E+00 0. -1.
</event>
<event>
 5   0  0.6173140E-06  0.2601189E+04  0.7818609E-02  0.8367797E-01
        2   -1    0    0  501    0  0.00000000000E+00  0.00000000000E+00  0.14977586456E+04  0.14977586456E+04  0.25500000920E-02 0. -1.
       -2   -1    0    0    0  501  0.00000000000E+00  0.00000000000E+00 -0.11293853220E+04  0.11293853220E+04  0.25500000920E-02 0.  1.
    10030    2    1    2    0    0  0.00000000000E+00  0.00000000000E+00  0.36837332354E+03  0.26271439676E+04  0.26011894435E+04 0.  0.
        3    1    3    3  502    0  0.41524303511E+03  0.31636002619E+03  0.13873057675E+04  0.14822711450E+04  0.10100000352E+00 0. -1.
       -3    1    3    3    0  502 -0.41524303511E+03 -0.31636002619E+03 -0.10189324440E+04  0.11448728226E+04  0.10100000352E+00 0.  1.
</event>
<event>
 5   0  0.5942229E-06  0.2592644E+04  0.7818609E-02  0.8370704E-01
        2   -1    0    0  501    0  0.00000000000E+00  0.00000000000E+00  0.12662710012E+04  0.12662710012E+04  0.25500000920E-02 0.  1.
       -2   -1    0    0    0  501  0.00000000000E+00  0.00000000000E+00 -0.13270861077E+04  0.13270861077E+04  0.25500000920E-02 0. -1.
    10030    2    1    2    0    0  0.00000000000E+00  0.00000000000E+00 -0.60815106435E+02  0.25933571089E+04  0.25926439434E+04 0.  0.
        4    1    3    3  502    0  0.10719898505E+03 -0.44727208718E+03 -0.12427248885E+04  0.13251078084E+04  0.12699999809E+01 0. -1.
       -4    1    3    3    0  502 -0.10719898505E+03  0.44727208718E+03  0.11819097821E+04  0.12682493005E+04  0.12699999809E+01 0.  1.
</event>
<event>
 5   0  0.6173140E-06  0.2589151E+04  0.7818609E-02  0.8371896E-01
       -2   -1    0    0    0  501  0.00000000000E+00  0.00000000000E+00  0.82516852167E+03  0.82516852167E+03  0.25500000920E-02 0. -1.
        2   -1    0    0  501    0  0.00000000000E+00  0.00000000000E+00 -0.20310101457E+04  0.20310101457E+04  0.25500000920E-02 0.  1.
    10030    2    1    2    0    0  0.00000000000E+00  0.00000000000E+00 -0.12058416240E+04  0.28561786673E+04  0.25891509337E+04 0.  0.
        3    1    3    3  502    0  0.90058679908E+03 -0.91205563146E+03 -0.40245513544E+03  0.13434553226E+04  0.10100000352E+00 0. -1.
       -3    1    3    3    0  502 -0.90058679908E+03  0.91205563146E+03 -0.80338648856E+03  0.15127233448E+04  0.10100000352E+00 0.  1.
</event>
<event>
 5   0  0.5940748E-06  0.2591621E+04  0.7818609E-02  0.8371053E-01
       -2   -1    0    0    0  501  0.00000000000E+00  0.00000000000E+00  0.11751548346E+04  0.11751548346E+04  0.25500000920E-02 0. -1.
        2   -1    0    0  501    0  0.00000000000E+00  0.00000000000E+00 -0.14288538245E+04  0.14288538245E+04  0.25500000920E-02 0.  1.
    10030    2    1    2    0    0  0.00000000000E+00  0.00000000000E+00 -0.25369898991E+03  0.26040086591E+04  0.25916207128E+04 0.  0.
        1    1    3    3  502    0 -0.56383831647E+03 -0.11297620899E+04  0.16583043703E+03  0.12734895998E+04  0.50400001928E-02 0.  1.
       -1    1    3    3    0  502  0.56383831647E+03  0.11297620899E+04 -0.41952942694E+03  0.13305190593E+04  0.50400001928E-02 0. -1.
</event>
<event>
 5   0  0.6173140E-06  0.2600893E+04  0.7818609E-02  0.8367898E-01
        2   -1    0    0  501    0  0.00000000000E+00  0.00000000000E+00  0.11802027320E+04  0.11802027320E+04  0.25500000920E-02 0. -1.
       -2   -1    0    0    0  501  0.00000000000E+00  0.00000000000E+00 -0.14329415013E+04  0.14329415013E+04  0.25500000920E-02 0.  1.
    10030    2    1    2    0    0  0.00000000000E+00  0.00000000000E+00 -0.25273876930E+03  0.26131442332E+04  0.26008932885E+04 0.  0.
        3    1    3    3  502    0 -0.26706506520E+03  0.12719551132E+04 -0.17093941669E+03  0.13108828527E+04  0.10100000352E+00 0. -1.
       -3    1    3    3    0  502  0.26706506520E+03 -0.12719551132E+04 -0.81799352612E+02  0.13022613806E+04  0.10100000352E+00 0.  1.
</event>
<event>
 5   0  0.6161834E-06  0.2594496E+04  0.7818609E-02  0.8370073E-01
       -2   -1    0    0    0  501  0.00000000000E+00  0.00000000000E+00  0.14644411611E+04  0.14644411611E+04  0.25500000920E-02 0.  1.
        2   -1    0    0  501    0  0.00000000000E+00  0.00000000000E+00 -0.11491432092E+04  0.11491432092E+04  0.25500000920E-02 0. -1.
    10030    2    1    2    0    0  0.00000000000E+00  0.00000000000E+00  0.31529795191E+03  0.26135843703E+04  0.25944961866E+04 0.  0.
        5    1    3    3  502    0  0.75254602217E+03  0.99965419131E+03 -0.18720943537E+03  0.12651891085E+04  0.46999998093E+01 0.  1.
       -5    1    3    3    0  502 -0.75254602217E+03 -0.99965419131E+03  0.50250738728E+03  0.13483952618E+04  0.46999998093E+01 0. -1.
</event>
<event>
 5   0  0.2333979E-06  0.2513968E+04  0.7818609E-02  0.8398026E-01
        1   -1    0    0  501    0  0.00000000000E+00  0.00000000000E+00  0.15264712422E+04  0.15264712422E+04  0.50400001928E-02 0.  1.
       -1   -1    0    0    0  501  0.00000000000E+00  0.00000000000E+00 -0.10350725882E+04  0.10350725882E+04  0.50400001928E-02 0. -1.
    10030    2    1    2    0    0  0.00000000000E+00  0.00000000000E+00  0.49139865401E+03  0.25615438304E+04  0.25139678116E+04 0.  0.
        3    1    3    3  502    0  0.24315484493E+03  0.19113232514E+03 -0.99569749682E+03  0.10426261841E+04  0.10100000352E+00 0. -1.
       -3    1    3    3    0  502 -0.24315484493E+03 -0.19113232514E+03  0.14870961508E+04  0.15189176463E+04  0.10100000352E+00 0.  1.
</event>
<event>
 5   0  0.2440590E-06  0.2603134E+04  0.7818609E-02  0.8367138E-01
       -1   -1    0    0    0  501  0.00000000000E+00  0.00000000000E+00  0.13321159845E+04  0.13321159845E+04  0.50400001928E-02 0.  1.
        1   -1    0    0  501    0  0.00000000000E+00  0.00000000000E+00 -0.12717182738E+04  0.12717182738E+04  0.50400001928E-02 0. -1.
    10030    2    1    2    0    0  0.00000000000E+00  0.00000000000E+00  0.60397710661E+02  0.26038342583E+04  0.26031336811E+04 0.  0.
        1    1    3    3  502    0  0.12067337556E+03 -0.17408996604E+02  0.13263913843E+04  0.13319831985E+04  0.50400001928E-02 0.  1.
       -1    1    3    3    0  502 -0.12067337556E+03  0.17408996604E+02 -0.12659936736E+04  0.12718510598E+04  0.50400001928E-02 0. -1.
</event>
<event>
 5   0  0.2333979E-06  0.2593603E+04  0.7818609E-02  0.8370377E-01
        1   -1    0    0  501    0  0.00000000000E+00  0.00000000000E+00  0.25617087985E+04  0.25617087985E+04  0.50400001928E-02 0.  1.
       -1   -1    0    0    0  501  0.00000000000E+00  0.00000000000E+00 -0.65647376287E+03  0.65647376288E+03  0.50400001928E-02 0. -1.
    10030    2    1    2    0    0  0.00000000000E+00  0.00000000000E+00  0.19052350356E+04  0.32181825614E+04  0.25936033732E+04 0.  0.
        3    1    3    3  502    0 -0.11542667575E+04 -0.13278777724E+03  0.16672778244E+04  0.20321859400E+04  0.10100000352E+00 0.  1.
       -3    1    3    3    0  502  0.11542667575E+04  0.13278777724E+03  0.23795721125E+03  0.11859966213E+04  0.10100000352E+00 0. -1.
</event>
<event>
 5   0  0.2440590E-06  0.2626733E+04  0.7818609E-02  0.8359177E-01
       -1   -1    0    0    0  501  0.00000000000E+00  0.00000000000E+00  0.21522657449E+04  0.21522657449E+04  0.50400001928E-02 0.  1.
        1   -1    0    0  501    0  0.00000000000E+00  0.00000000000E+00 -0.80144913896E+03  0.80144913898E+03  0.50400001928E-02 0. -1.
    10030    2    1    2    0    0  0.00000000000E+00  0.00000000000E+00  0.13508166059E+04  0.29537148839E+04  0.26267329732E+04 0.  0.
        1    1    3    3  502    0 -0.12638683721E+04 -0.34387465291E+03  0.56685940975E+03  0.14272149906E+04  0.50400001928E-02 0. -1.
       -1    1    3    3    0  502  0.12638683721E+04  0.34387465291E+03  0.78395719615E+03  0.15264998933E+04  0.50400001928E-02 0.  1.
</event>
<event>
 5   0  0.2471488E-06  0.2609609E+04  0.7818609E-02  0.8364945E-01
        1   -1    0    0  501    0  0.00000000000E+00  0.00000000000E+00  0.15499560516E+04  0.15499560516E+04  0.50400001928E-02 0.  1.
       -1   -1    0    0    0  501  0.00000000000E+00  0.00000000000E+00 -0.10984273692E+04  0.10984273693E+04  0.50400001928E-02 0. -1.
    10030    2    1    2    0    0  0.00000000000E+00  0.00000000000E+00  0.45152868237E+03  0.26483834209E+04  0.26096085133E+04 0.  0.
        4    1    3    3  502    0 -0.10854962301E+04 -0.63344500117E+03  0.58162806508E+03  0.13848636951E+04  0.12699999809E+01 0.  1.
       -4    1    3    3    0  502  0.10854962301E+04  0.63344500117E+03 -0.13009938271E+03  0.12635197257E+04  0.12699999809E+01 0. -1.
</event>
<event>
 5   0  0.5942229E-06  0.2592212E+04  0.7818609E-02  0.8370851E-01
        2   -1    0    0  501    0  0.00000000000E+00  0.00000000000E+00  0.13934472034E+04  0.13934472034E+04  0.25500000920E-02 0. -1.
       -2   -1    0    0    0  501  0.00000000000E+00  0.00000000000E+00 -0.12055648800E+04  0.12055648800E+04  0.25500000920E-02 0.  1.
    10030    2    1    2    0    0  0.00000000000E+00  0.00000000000E+00  0.18788232334E+03  0.25990120834E+04  0.25922121908E+04 0.  0.
        4    1    3    3  502    0  0.62048249620E+03  0.98394816350E+03  0.66704963497E+03  0.13409359958E+04  0.12699999809E+01 0. -1.
       -4    1    3    3    0  502 -0.62048249620E+03 -0.98394816350E+03 -0.47916731163E+03  0.12580760875E+04  0.12699999809E+01 0.  1.
</event>
<event>
 5   0  0.6161834E-06  0.2606893E+04  0.7818609E-02  0.8365863E-01
       -2   -1    0    0    0  501  0.00000000000E+00  0.00000000000E+00  0.12711985790E+04  0.12711985790E+04  0.25500000920E-02 0.  1.
        2   -1    0    0  501    0  0.00000000000E+00  0.00000000000E+00 -0.13365129220E+04  0.13365129220E+04  0.25500000920E-02 0. -1.
    10030    2    1    2    0    0  0.00000000000E+00  0.00000000000E+00 -0.65314343075E+02  0.26077115010E+04  0.26068934211E+04 0.  0.
        5    1    3    3  502    0 -0.71352632281E+03 -0.93031761002E+03  0.53703060755E+03  0.12895870007E+04  0.46999998093E+01 0.  1.
       -5    1    3    3    0  502  0.71352632281E+03  0.93031761002E+03 -0.60234495063E+03  0.13181245003E+04  0.46999998093E+01 0. -1.
</event>
<event>
 5   0  0.2440590E-06  0.2593723E+04  0.7818609E-02  0.8370337E-01
        1   -1    0    0  501    0  0.00000000000E+00  0.00000000000E+00  0.91575487959E+03  0.91575487960E+03  0.50400001928E-02 0. -1.
       -1   -1    0    0    0  501  0.00000000000E+00  0.00000000000E+00 -0.18365715021E+04  0.18365715021E+04  0.50400001928E-02 0.  1.
    10030    2    1    2    0    0  0.00000000000E+00  0.00000000000E+00 -0.92081662253E+03  0.27523263817E+04  0.25937226643E+04 0.  0.
        1    1    3    3  502    0  0.75887384984E+02  0.68769146022E+03  0.70355703666E+03  0.98674765950E+03  0.50400001928E-02 0. -1.
       -1    1    3    3    0  502 -0.75887384984E+02 -0.68769146022E+03 -0.16243736592E+04  0.17655787222E+04  0.50400001928E-02 0.  1.
</event>
<event>
 5   0  0.6173140E-06  0.2574812E+04  0.7818609E-02  0.8376808E-01
       -2   -1    0    0    0  501  0.00000000000E+00  0.00000000000E+00  0.10474060967E+04  0.10474060967E+04  0.25500000920E-02 0. -1.
        2   -1    0    0  501    0  0.00000000000E+00  0.00000000000E+00 -0.15823989757E+04  0.15823989757E+04  0.25500000920E-02 0.  1.
    10030    2    1    2    0    0  0.00000000000E+00  0.00000000000E+00 -0.53499287903E+03  0.26298050724E+04  0.25748120976E+04 0.  0.
        3    1    3    3  502    0  0.19789928196E+03 -0.12582234900E+04 -0.76080076295E+02  0.12759618587E+04  0.10100000352E+00 0.  1.
       -3    1    3    3    0  502 -0.19789928196E+03  0.12582234900E+04 -0.45891280273E+03  0.13538432137E+04  0.10100000352E+00 0. -1.
</event>
<event>
 5   0  0.5940748E-06  0.2602648E+04  0.7818609E-02  0.8367302E-01
       -2   -1    0    0    0  501  0.00000000000E+00  0.00000000000E+00  0.10504405794E+04  0.10504405794E+04  0.25500000920E-02 0.  1.
        2   -1    0    0  501    0  0.00000000000E+00  0.00000000000E+00 -0.16121278375E+04  0.16121278375E+04  0.25500000920E-02 0. -1.
    10030    2    1    2    0    0  0.00000000000E+00  0.00000000000E+00 -0.56168725808E+03  0.26625684169E+04  0.26026482665E+04 0.  0.
        1    1    3    3  502    0 -0.19089136357E+03  0.38860721350E+03 -0.15362844828E+04  0.15961281563E+04  0.50400001928E-02 0. -1.
       -1    1    3    3    0  502  0.19089136357E+03 -0.38860721350E+03  0.97459722473E+03  0.10664402607E+04  0.50400001928E-02 0.  1.
</event>
<event>
 5   0  0.6158063E-06  0.2607846E+04  0.7818609E-02  0.8365541E-01
        2   -1    0    0  501    0  0.00000000000E+00  0.00000000000E+00  0.25845610372E+04  0.25845610372E+04  0.25500000920E-02 0. -1.
       -2   -1    0    0    0  501  0.00000000000E+00  0.00000000000E+00 -0.65783515394E+03  0.65783515395E+03  0.25500000920E-02 0.  1.
    10030    2    1    2    0    0  0.00000000000E+00  0.00000000000E+00  0.19267258833E+04  0.32423961911E+04  0.26078459370E+04 0.  0.
        2    1    3    3  502    0  0.54141715138E+03  0.41780378945E+03 -0.41696280819E+03  0.80096848984E+03  0.25500000920E-02 0.  1.
       -2    1    3    3    0  502 -0.54141715138E+03 -0.41780378945E+03  0.23436886914E+04  0.24414277013E+04  0.25500000920E-02 0. -1.
</event>
<event>
 5   0  0.2503292E-06  0.2595342E+04  0.7818609E-02  0.8369785E-01
       -1   -1    0    0    0  501  0.00000000000E+00  0.00000000000E+00  0.71242056754E+03  0.71242056756E+03  0.50400001928E-02 0.  1.
        1   -1    0    0  501    0  0.00000000000E+00  0.00000000000E+00 -0.23637020033E+04  0.23637020033E+04  0.50400001928E-02 0. -1.
    10030    2    1    2    0    0  0.00000000000E+00  0.00000000000E+00 -0.16512814358E+04  0.30761225709E+04  0.25953419218E+04 0.  0.
        2    1    3    3  502    0  0.11917160234E+03 -0.33959283411E+03  0.65208525637E+03  0.74480893212E+03  0.25500000920E-02 0.  1.
       -2    1    3    3    0  502 -0.11917160234E+03  0.33959283411E+03 -0.23033666922E+04  0.23313136388E+04  0.25500000920E-02 0. -1.
</event>
<event>
 5   0  0.2471488E-06  0.2600432E+04  0.7818609E-02  0.8368055E-01
        1   -1    0    0  501    0  0.00000000000E+00  0.00000000000E+00  0.27075554743E+04  0.27075554744E+04  0.50400001928E-02 0. -1.
       -1   -1    0    0    0  501  0.00000000000E+00  0.00000000000E+00 -0.62438649811E+03  0.62438649813E+03  0.50400001928E-02 0.  1.
    10030    2    1    2    0    0  0.00000000000E+00  0.00000000000E+00  0.20831689762E+04  0.33319419725E+04  0.26004315650E+04 0.  0.
        4    1    3    3  502    0  0.12067742923E+04 -0.67961314423E+02  0.42757866031E+03  0.12820873825E+04  0.12699999809E+01 0.  1.
       -4    1    3    3    0  502 -0.12067742923E+04  0.67961314423E+02  0.16555903159E+04  0.20498545899E+04  0.12699999809E+01 0. -1.
</event>
<event>
 5   0  0.6161834E-06  0.2607483E+04  0.7818609E-02  0.8365664E-01
        2   -1    0    0  501    0  0.00000000000E+00  0.00000000000E+00  0.12858077358E+04  0.12858077358E+04  0.25500000920E-02 0. -1.
       -2   -1    0    0    0  501  0.00000000000E+00  0.00000000000E+00 -0.13219253676E+04  0.13219253676E+04  0.25500000920E-02 0.  1.
    10030    2    1    2    0    0  0.00000000000E+00  0.00000000000E+00 -0.36117631726E+02  0.26077331034E+04  0.26074829731E+04 0.  0.
        5    1    3    3  502    0 -0.11358046150E+04 -0.51118969793E+03 -0.40326162839E+03  0.13092016887E+04  0.46999998093E+01 0. -1.
       -5    1    3    3    0  502  0.11358046150E+04  0.51118969793E+03  0.36714399667E+03  0.12985314147E+04  0.46999998093E+01 0.  1.
</event>
<event>
 5   0  0.2072125E-06  0.2586835E+04  0.7818609E-02  0.8372687E-01
       -4   -1    0    0    0  501  0.00000000000E+00  0.00000000000E+00  0.10595353016E+04  0.10595360627E+04  0.12699999809E+01 0.  1.
        4   -1    0    0  501    0  0.00000000000E+00  0.00000000000E+00 -0.15789252771E+04  0.15789257879E+04  0.12699999809E+01 0. -1.
    10030    2    1    2    0    0  0.00000000000E+00  0.00000000000E+00 -0.51938997553E+03  0.26384618506E+04  0.25868349368E+04 0.  0.
        3    1    3    3  502    0 -0.40336112520E+03  0.98778750424E+03  0.48599401492E+03  0.11724395693E+04  0.10100000352E+00 0.  1.
       -3    1    3    3    0  502  0.40336112520E+03 -0.98778750424E+03 -0.10053839905E+04  0.14660222813E+04  0.10100000352E+00 0. -1.
</event>
<event>
 5   0  0.2456600E-06  0.2599414E+04  0.7818609E-02  0.8368400E-01
       -1   -1    0    0    0  501  0.00000000000E+00  0.00000000000E+00  0.89771567900E+03  0.89771567901E+03  0.50400001928E-02 0. -1.
        1   -1    0    0  501    0  0.00000000000E+00  0.00000000000E+00 -0.18817067435E+04  0.18817067435E+04  0.50400001928E-02 0.  1.
    10030    2    1    2    0    0  0.00000000000E+00  0.00000000000E+00 -0.98399106447E+03  0.27794224225E+04  0.25994135084E+04 0.  0.
        5    1    3    3  502    0 -0.25649588824E+03 -0.12608339337E+04 -0.29563978153E+03  0.13201959398E+04  0.46999998093E+01 0.  1.
       -5    1    3    3    0  502  0.25649588824E+03  0.12608339337E+04 -0.68835128294E+03  0.14592264827E+04  0.46999998093E+01 0. -1.
</event>
<event>
 5   0  0.2471488E-06  0.2592915E+04  0.7818609E-02  0.8370612E-01
       -1   -1    0    0    0  501  0.00000000000E+00  0.00000000000E+00  0.84192798347E+03  0.84192798348E+03  0.50400001928E-02 0. -1.
        1   -1    0    0  501    0  0.00000000000E+00  0.00000000000E+00 -0.19963729776E+04  0.19963729776E+04  0.50400001928E-02 0.  1.
    10030    2    1    2    0    0  0.00000000000E+00  0.00000000000E+00 -0.11544449942E+04  0.28383009611E+04  0.25929151743E+04 0.  0.
        4    1    3    3  502    0 -0.72425884159E+03 -0.75853461637E+03  0.25705684191E+03  0.10798173303E+04  0.12699999809E+01 0. -1.
       -4    1    3    3    0  502  0.72425884159E+03  0.75853461637E+03 -0.14115018361E+04  0.17584836309E+04  0.12699999809E+01 0.  1.
</event>
<event>
 5   0  0.2333979E-06  0.2688955E+04  0.7818609E-02  0.8338598E-01
       -1   -1    0    0    0  501  0.00000000000E+00  0.00000000000E+00  0.13573060309E+04  0.13573060309E+04  0.50400001928E-02 0.  1.
        1   -1    0    0  501    0  0.00000000000E+00  0.00000000000E+00 -0.13317698142E+04  0.13317698142E+04  0.50400001928E-02 0. -1.
    10030    2    1    2    0    0  0.00000000000E+00  0.00000000000E+00  0.25536216704E+02  0.26890758451E+04  0.26889545929E+04 0.  0.
        3    1    3    3  502    0 -0.12991829321E+04 -0.32320932197E+03  0.13638045145E+03  0.13457117800E+04  0.10100000352E+00 0. -1.
       -3    1    3    3    0  502  0.12991829321E+04  0.32320932197E+03 -0.11084423475E+03  0.13433640652E+04  0.10100000352E+00 0.  1.
</event>
<event>
 5   0  0.2456600E-06  0.2601205E+04  0.7818609E-02  0.8367792E-01
       -1   -1    0    0    0  501  0.00000000000E+00  0.00000000000E+00  0.10769629648E+04  0.10769629648E+04  0.50400001928E-02 0.  1.
        1   -1    0    0  501    0  0.00000000000E+00  0.00000000000E+00 -0.15706830133E+04  0.15706830133E+04  0.50400001928E-02 0. -1.
    10030    2    1    2    0    0  0.00000000000E+00  0.00000000000E+00 -0.49372004849E+03  0.26476459781E+04  0.26012054396E+04 0.  0.
        5    1    3    3  502    0  0.60694342281E+03 -0.80817532380E+03 -0.10800199826E+04  0.14791865756E+04  0.46999998093E+01 0. -1.
       -5    1    3    3    0  502 -0.60694342281E+03  0.80817532380E+03  0.58629993414E+03  0.11684594025E+04  0.46999998093E+01 0.  1.
</event>
<event>
 5   0  0.2440590E-06  0.2576979E+04  0.7818609E-02  0.8376063E-01
       -1   -1    0    0    0  501  0.00000000000E+00  0.00000000000E+00  0.94614707635E+03  0.94614707636E+03  0.50400001928E-02 0.  1.
        1   -1    0    0  501    0  0.00000000000E+00  0.00000000000E+00 -0.17547010920E+04  0.17547010920E+04  0.50400001928E-02 0. -1.
    10030    2    1    2    0    0  0.00000000000E+00  0.00000000000E+00 -0.80855401568E+03  0.27008481684E+04  0.25769790904E+04 0.  0.
        1    1    3    3  502    0 -0.26557939266E+03  0.34751230735E+03 -0.16745193553E+04  0.17306970529E+04  0.50400001928E-02 0. -1.
       -1    1    3    3    0  502  0.26557939266E+03 -0.34751230735E+03  0.86596533960E+03  0.97015111554E+03  0.50400001928E-02 0.  1.
</event>
<event>
 5   0  0.2072125E-06  0.2597785E+04  0.7818609E-02  0.8368954E-01
        3   -1    0    0  501    0  0.00000000000E+00  0.00000000000E+00  0.31356781012E+04  0.31356781028E+04  0.10100000352E+00 0.  1.
       -3   -1    0    0    0  501  0.00000000000E+00  0.00000000000E+00 -0.53804028532E+03  0.53804029480E+03  0.10100000352E+00 0. -1.
    10030    2    1    2    0    0  0.00000000000E+00  0.00000000000E+00  0.25976378159E+04  0.36737183976E+04  0.25977845643E+04 0.  0.
        1    1    3    3  502    0 -0.40163376802E+03  0.39337707552E+03  0.29547105133E+04  0.30077183087E+04  0.50400001928E-02 0.  1.
       -1    1    3    3    0  502  0.40163376802E+03 -0.39337707552E+03 -0.35707269742E+03  0.66600008891E+03  0.50400001928E-02 0. -1.
</event>
<event>
 5   0  0.5940748E-06  0.2593510E+04  0.7818609E-02  0.8370409E-01
        2   -1    0    0  501    0  0.00000000000E+00  0.00000000000E+00  0.13727010496E+04  0.13727010496E+04  0.25500000920E-02 0.  1.
       -2   -1    0    0    0  501  0.00000000000E+00  0.00000000000E+00 -0.12250110585E+04  0.12250110585E+04  0.25500000920E-02 0. -1.
    10030    2    1    2    0    0  0.00000000000E+00  0.00000000000E+00  0.14768999116E+03  0.25977121081E+04  0.25935103360E+04 0.  0.
        1    1    3    3  502    0  0.31921418397E+03 -0.95571887983E+03  0.89142577347E+03  0.13453386868E+04  0.50400001928E-02 0.  1.
       -1    1    3    3    0  502 -0.31921418397E+03  0.95571887983E+03 -0.74373578232E+03  0.12523734213E+04  0.50400001928E-02 0. -1.
</event>
<event>
 5   0  0.2440590E-06  0.2577561E+04  0.7818609E-02  0.8375863E-01
       -1   -1    0    0    0  501  0.00000000000E+00  0.00000000000E+00  0.73702466893E+03  0.73702466895E+03  0.50400001928E-02 0. -1.
        1   -1    0    0  501    0  0.00000000000E+00  0.00000000000E+00 -0.22535947806E+04  0.22535947806E+04  0.50400001928E-02 0.  1.
    10030    2    1    2    0    0  0.00000000000E+00  0.00000000000E+00 -0.15165701117E+04  0.29906194495E+04  0.25775608215E+04 0.  0.
        1    1    3    3  502    0 -0.77109559083E+03 -0.52593097761E+03  0.27281464943E+03  0.97242975910E+03  0.50400001928E-02 0. -1.
       -1    1    3    3    0  502  0.77109559083E+03  0.52593097761E+03 -0.17893847611E+04  0.20181896905E+04  0.50400001928E-02 0.  1.
</event>
<event>
 5   0  0.5942229E-06  0.2601060E+04  0.7818609E-02  0.8367841E-01
        2   -1    0    0  501    0  0.00000000000E+00  0.00000000000E+00  0.18142413278E+04  0.18142413278E+04  0.25500000920E-02 0. -1.
       -2   -1    0    0    0  501  0.00000000000E+00  0.00000000000E+00 -0.93227829827E+03  0.93227829827E+03  0.25500000920E-02 0.  1.
    10030    2    1    2    0    0  0.00000000000E+00  0.00000000000E+00  0.88196302950E+03  0.27465196260E+04  0.26010596438E+04 0.  0.
        4    1    3    3  502    0  0.41817098513E+03 -0.44649951815E+02 -0.85849750847E+03  0.95597080288E+03  0.12699999809E+01 0.  1.
       -4    1    3    3    0  502 -0.41817098513E+03  0.44649951815E+02  0.17404605380E+04  0.17905488232E+04  0.12699999809E+01 0. -1.
</event>
<event>
 5   0  0.6161834E-06  0.2597820E+04  0.7818609E-02  0.8368942E-01
       -2   -1    0    0    0  501  0.00000000000E+00  0.00000000000E+00  0.12991917217E+04  0.12991917217E+04  0.25500000920E-02 0.  1.
        2   -1    0    0  501    0  0.00000000000E+00  0.00000000000E+00 -0.12986280711E+04  0.12986280711E+04  0.25500000920E-02 0. -1.
    10030    2    1    2    0    0  0.00000000000E+00  0.00000000000E+00  0.56365057466E+00  0.25978197928E+04  0.25978197317E+04 0.  0.
        5    1    3    3  502    0 -0.60146262523E+03 -0.11078305316E+04 -0.31292573844E+03  0.12988419396E+04  0.46999998093E+01 0. -1.
       -5    1    3    3    0  502  0.60146262523E+03  0.11078305316E+04  0.31348938902E+03  0.12989778533E+04  0.46999998093E+01 0.  1.
</event>
<event>
 5   0  0.2503292E-06  0.2597926E+04  0.7818609E-02  0.8368906E-01
       -1   -1    0    0    0  501  0.00000000000E+00  0.00000000000E+00  0.88746345914E+03  0.88746345915E+03  0.50400001928E-02 0. -1.
        1   -1    0    0  501    0  0.00000000000E+00  0.00000000000E+00 -0.19012670778E+04  0.19012670778E+04  0.50400001928E-02 0.  1.
    10030    2    1    2    0    0  0.00000000000E+00  0.00000000000E+00 -0.10138036186E+04  0.27887305369E+04  0.25979261403E+04 0.  0.
        2    1    3    3  502    0 -0.66986265091E+03  0.13687855629E+03  0.67868555920E+03  0.96336171739E+03  0.25500000920E-02 0. -1.
       -2    1    3    3    0  502  0.66986265091E+03 -0.13687855629E+03 -0.16924891778E+04  0.18253688195E+04  0.25500000920E-02 0.  1.
</event>
<event>
 5   0  0.2440590E-06  0.2600389E+04  0.7818609E-02  0.8368069E-01
       -1   -1    0    0    0  501  0.00000000000E+00  0.00000000000E+00  0.13747572478E+04  0.13747572479E+04  0.50400001928E-02 0. -1.
        1   -1    0    0  501    0  0.00000000000E+00  0.00000000000E+00 -0.12296756505E+04  0.12296756505E+04  0.50400001928E-02 0.  1.
    10030    2    1    2    0    0  0.00000000000E+00  0.00000000000E+00  0.14508159735E+03  0.26044328984E+04  0.26003888271E+04 0.  0.
        1    1    3    3  502    0  0.12781010765E+04 -0.23407954363E+03  0.25885969901E+02  0.12996175122E+04  0.50400001928E-02 0. -1.
       -1    1    3    3    0  502 -0.12781010765E+04  0.23407954363E+03  0.11919562745E+03  0.13048153862E+04  0.50400001928E-02 0.  1.
</event>
<event>
 5   0  0.6158063E-06  0.2554418E+04  0.7818609E-02  0.8383851E-01
       -2   -1    0    0    0  501  0.00000000000E+00  0.00000000000E+00  0.92771743156E+03  0.92771743156E+03  0.25500000920E-02 0.  1.
        2   -1    0    0  501    0  0.00000000000E+00  0.00000000000E+00 -0.17583612428E+04  0.17583612428E+04  0.25500000920E-02 0. -1.
    10030    2    1    2    0    0  0.00000000000E+00  0.00000000000E+00 -0.83064381126E+03  0.26860786744E+04  0.25544176447E+04 0.  0.
        2    1    3    3  502    0  0.71029569347E+03 -0.73675836330E+03  0.38821723865E+03  0.10945526403E+04  0.25500000920E-02 0. -1.
       -2    1    3    3    0  502 -0.71029569347E+03  0.73675836330E+03 -0.12188610499E+04  0.15915260340E+04  0.25500000920E-02 0.  1.
</event>
<event>
 5   0  0.2333979E-06  0.2611928E+04  0.7818609E-02  0.8364161E-01
       -1   -1    0    0    0  501  0.00000000000E+00  0.00000000000E+00  0.68123231418E+03  0.68123231420E+03  0.50400001928E-02 0. -1.
        1   -1    0    0  501    0  0.00000000000E+00  0.00000000000E+00 -0.25036134122E+04  0.25036134122E+04  0.50400001928E-02 0.  1.
    10030    2    1    2    0    0  0.00000000000E+00  0.00000000000E+00 -0.18223810980E+04  0.31848457264E+04  0.26119282981E+04 0.  0.
        3    1    3    3  502    0 -0.69702123623E+03 -0.92222904284E+03 -0.16520851489E+04  0.20163656317E+04  0.10100000352E+00 0.  1.
       -3    1    3    3    0  502  0.69702123623E+03  0.92222904284E+03 -0.17029594907E+03  0.11684800947E+04  0.10100000352E+00 0. -1.
</event>
<event>
 5   0  0.2333979E-06  0.2595210E+04  0.7818609E-02  0.8369830E-01
        1   -1    0    0  501    0  0.00000000000E+00  0.00000000000E+00  0.11515970626E+04  0.11515970626E+04  0.50400001928E-02 0. -1.
       -1   -1    0    0    0  501  0.00000000000E+00  0.00000000000E+00 -0.14621248064E+04  0.14621248064E+04  0.50400001928E-02 0.  1.
    10030    2    1    2    0    0  0.00000000000E+00  0.00000000000E+00 -0.31052774388E+03  0.26137218690E+04  0.25952099200E+04 0.  0.
        3    1    3    3  502    0 -0.97055154581E+03 -0.38881343624E+03 -0.92927200454E+03  0.13988183084E+04  0.10100000352E+00 0.  1.
       -3    1    3    3    0  502  0.97055154581E+03  0.38881343624E+03  0.61874426067E+03  0.12149035606E+04  0.10100000352E+00 0. -1.
</event>
<event>
 5   0  0.6158063E-06  0.2598470E+04  0.7818609E-02  0.8368721E-01
        2   -1    0    0  501    0  0.00000000000E+00  0.00000000000E+00  0.20705848312E+04  0.20705848312E+04  0.25500000920E-02 0.  1.
       -2   -1    0    0    0  501  0.00000000000E+00  0.00000000000E+00 -0.81523432468E+03  0.81523432469E+03  0.25500000920E-02 0. -1.
    10030    2    1    2    0    0  0.00000000000E+00  0.00000000000E+00  0.12553505065E+04  0.28858191559E+04  0.25984701857E+04 0.  0.
        2    1    3    3  502    0 -0.75608830682E+03 -0.92416803339E+03  0.11964153912E+04  0.16903153167E+04  0.25500000920E-02 0.  1.
       -2    1    3    3    0  502  0.75608830682E+03  0.92416803339E+03  0.58935115335E+02  0.11955038392E+04  0.25500000920E-02 0. -1.
</event>
<event>
 5   0  0.2456600E-06  0.2535873E+04  0.7818609E-02  0.8390316E-01
        1   -1    0    0  501    0  0.00000000000E+00  0.00000000000E+00  0.10723575529E+04  0.10723575530E+04  0.50400001928E-02 0.  1.
       -1   -1    0    0    0  501  0.00000000000E+00  0.00000000000E+00 -0.14991861333E+04  0.14991861333E+04  0.50400001928E-02 0. -1.
    10030    2    1    2    0    0  0.00000000000E+00  0.00000000000E+00 -0.42682858035E+03  0.25715436863E+04  0.25358734774E+04 0.  0.
        5    1    3    3  502    0  0.14812149934E+03 -0.72758454915E+03 -0.12556466054E+04  0.14587630864E+04  0.46999998093E+01 0. -1.
       -5    1    3    3    0  502 -0.14812149934E+03  0.72758454915E+03  0.82881802503E+03  0.11127805998E+04  0.46999998093E+01 0.  1.
</event>
<event>
 5   0  0.6173140E-06  0.2610123E+04  0.7818609E-02  0.8364771E-01
       -2   -1    0    0    0  501  0.00000000000E+00  0.00000000000E+00  0.13807435895E+04  0.13807435895E+04  0.25500000920E-02 0.  1.
        2   -1    0    0  501    0  0.00000000000E+00  0.00000000000E+00 -0.12335282111E+04  0.12335282111E+04  0.25500000920E-02 0. -1.
    10030    2    1    2    0    0  0.00000000000E+00  0.00000000000E+00  0.14721537845E+03  0.26142718006E+04  0.26101234990E+04 0.  0.
        3    1    3    3  502    0  0.10998825929E+04 -0.23634951113E+03  0.73615985236E+03  0.13444456657E+04  0.10100000352E+00 0.  1.
       -3    1    3    3    0  502 -0.10998825929E+04  0.23634951113E+03 -0.58894447391E+03  0.12698261350E+04  0.10100000352E+00 0. -1.
</event>
<event>
 5   0  0.6173140E-06  0.2460745E+04  0.7818609E-02  0.8417105E-01
        2   -1    0    0  501    0  0.00000000000E+00  0.00000000000E+00  0.15083966464E+04  0.15083966464E+04  0.25500000920E-02 0. -1.
       -2   -1    0    0    0  501  0.00000000000E+00  0.00000000000E+00 -0.10035934106E+04  0.10035934106E+04  0.25500000920E-02 0.  1.
    10030    2    1    2    0    0  0.00000000000E+00  0.00000000000E+00  0.50480323582E+03  0.25119900570E+04  0.24607453626E+04 0.  0.
        3    1    3    3  502    0  0.56692079509E+03 -0.90733683096E+03 -0.36783464566E+03  0.11313539011E+04  0.10100000352E+00 0. -1.
       -3    1    3    3    0  502 -0.56692079509E+03  0.90733683096E+03  0.87263788147E+03  0.13806361559E+04  0.10100000352E+00 0.  1.
</event>
<event>
 5   0  0.6158063E-06  0.2633390E+04  0.7818609E-02  0.8356947E-01
       -2   -1    0    0    0  501  0.00000000000E+00  0.00000000000E+00  0.85916334933E+03  0.85916334933E+03  0.25500000920E-02 0.  1.
        2   -1    0    0  501    0  0.00000000000E+00  0.00000000000E+00 -0.20178770217E+04  0.20178770217E+04  0.25500000920E-02 0. -1.
    10030    2    1    2    0    0  0.00000000000E+00  0.00000000000E+00 -0.11587136723E+04  0.28770403710E+04  0.26333901955E+04 0.  0.
        2    1    3    3  502    0 -0.99261359898E+03 -0.54261135249E+03  0.15676166940E+03  0.11420521257E+04  0.25500000920E-02 0.  1.
       -2    1    3    3    0  502  0.99261359898E+03  0.54261135249E+03 -0.13154753418E+04  0.17349882453E+04  0.25500000920E-02 0. -1.
</event>
<event>
 5   0  0.2471488E-06  0.2632310E+04  0.7818609E-02  0.8357308E-01
        1   -1    0    0  501    0  0.00000000000E+00  0.00000000000E+00  0.10309368012E+04  0.10309368012E+04  0.50400001928E-02 0.  1.
       -1   -1    0    0    0  501  0.00000000000E+00  0.00000000000E+00 -0.16802815694E+04  0.16802815694E+04  0.50400001928E-02 0. -1.
    10030    2    1    2    0    0  0.00000000000E+00  0.00000000000E+00 -0.64934476817E+03  0.27112183706E+04  0.26323100929E+04 0.  0.
        4    1    3    3  502    0 -0.10991313865E+04 -0.55287566789E+03 -0.80612588304E+03  0.14709187133E+04  0.12699999809E+01 0. -1.
       -4    1    3    3    0  502  0.10991313865E+04  0.55287566789E+03  0.15678111487E+03  0.12402996573E+04  0.12699999809E+01 0.  1.
</event>
<event>
 5   0  0.5940748E-06  0.2566927E+04  0.7818609E-02  0.8379523E-01
       -2   -1    0    0    0  501  0.00000000000E+00  0.00000000000E+00  0.10898903539E+04  0.10898903539E+04  0.25500000920E-02 0. -1.
        2   -1    0    0  501    0  0.00000000000E+00  0.00000000000E+00 -0.15114171251E+04  0.15114171251E+04  0.25500000920E-02 0.  1.
    10030    2    1    2    0    0  0.00000000000E+00  0.00000000000E+00 -0.42152677124E+03  0.26013074791E+04  0.25669273035E+04 0.  0.
        1    1    3    3  502    0 -0.90320432492E+03 -0.88992209765E+03 -0.41227217671E+03  0.13333070690E+04  0.50400001928E-02 0.  1.
       -1    1    3    3    0  502  0.90320432492E+03  0.88992209765E+03 -0.92545945350E+01  0.12680004101E+04  0.50400001928E-02 0. -1.
</event>
<event>
 5   0  0.6158063E-06  0.2596900E+04  0.7818609E-02  0.8369255E-01
        2   -1    0    0  501    0  0.00000000000E+00  0.00000000000E+00  0.10136448553E+04  0.10136448553E+04  0.25500000920E-02 0. -1.
       -2   -1    0    0    0  501  0.00000000000E+00  0.00000000000E+00 -0.16632770255E+04  0.16632770255E+04  0.25500000920E-02 0.  1.
    10030    2    1    2    0    0  0.00000000000E+00  0.00000000000E+00 -0.64963217015E+03  0.26769218808E+04  0.25968998440E+04 0.  0.
        2    1    3    3  502    0  0.47417564725E+03  0.11778768096E+04 -0.44905113224E+02  0.12705324837E+04  0.25500000920E-02 0.  1.
       -2    1    3    3    0  502 -0.47417564725E+03 -0.11778768096E+04 -0.60472705693E+03  0.14063893971E+04  0.25500000920E-02 0. -1.
</event>
<event>
 5   0  0.5940748E-06  0.2602460E+04  0.7818609E-02  0.8367366E-01
       -2   -1    0    0    0  501  0.00000000000E+00  0.00000000000E+00  0.11417508307E+04  0.11417508307E+04  0.25500000920E-02 0.  1.
        2   -1    0    0  501    0  0.00000000000E+00  0.00000000000E+00 -0.14829850578E+04  0.14829850578E+04  0.25500000920E-02 0. -1.
    10030    2    1    2    0    0  0.00000000000E+00  0.00000000000E+00 -0.34123422709E+03  0.26247358885E+04  0.26024599299E+04 0.  0.
        1    1    3    3  502    0  0.11679333777E+04 -0.53386660878E+03  0.41222395398E+02  0.12848273100E+04  0.50400001928E-02 0. -1.
       -1    1    3    3    0  502 -0.11679333777E+04  0.53386660878E+03 -0.38245662249E+03  0.13399085785E+04  0.50400001928E-02 0.  1.
</event>
<event>
 5   0  0.6173140E-06  0.2562674E+04  0.7818609E-02  0.8380992E-01
        2   -1    0    0  501    0  0.00000000000E+00  0.00000000000E+00  0.11718397506E+04  0.11718397506E+04  0.25500000920E-02 0.  1.
       -2   -1    0    0    0  501  0.00000000000E+00  0.00000000000E+00 -0.14010660596E+04  0.14010660596E+04  0.25500000920E-02 0. -1.
    10030    2    1    2    0    0  0.00000000000E+00  0.00000000000E+00 -0.22922630897E+03  0.25729058103E+04  0.25626743078E+04 0.  0.
        3    1    3    3  502    0  0.10483197230E+03 -0.12031448909E+04  0.31520531515E+03  0.12481593536E+04  0.10100000352E+00 0.  1.
       -3    1    3    3    0  502 -0.10483197230E+03  0.12031448909E+04 -0.54443162413E+03  0.13247464567E+04  0.10100000352E+00 0. -1.
</event>
<event>
 5   0  0.2503292E-06  0.2624831E+04  0.7818609E-02  0.8359815E-01
        1   -1    0    0  501    0  0.00000000000E+00  0.00000000000E+00  0.13000571871E+04  0.13000571871E+04  0.50400001928E-02 0. -1.
       -1   -1    0    0    0  501  0.00000000000E+00  0.00000000000E+00 -0.13248912066E+04  0.13248912066E+04  0.50400001928E-02 0.  1.
    10030    2    1    2    0    0  0.00000000000E+00  0.00000000000E+00 -0.24834019435E+02  0.26249483937E+04  0.26248309167E+04 0.  0.
        2    1    3    3  502    0 -0.20833156156E+03  0.76264640086E+02  0.12811693913E+04  0.13002358801E+04  0.25500000920E-02 0. -1.
       -2    1    3    3    0  502  0.20833156156E+03 -0.76264640086E+02 -0.13060034107E+04  0.13247125136E+04  0.25500000920E-02 0.  1.
</event>
<event>
 5   0  0.5940748E-06  0.2601051E+04  0.7818609E-02  0.8367844E-01
        2   -1    0    0  501    0  0.00000000000E+00  0.00000000000E+00  0.18766909169E+04  0.18766909169E+04  0.25500000920E-02 0.  1.
       -2   -1    0    0    0  501  0.00000000000E+00  0.00000000000E+00 -0.90124938917E+03  0.90124938918E+03  0.25500000920E-02 0. -1.
    10030    2    1    2    0    0  0.00000000000E+00  0.00000000000E+00  0.97544152776E+03  0.27779403061E+04  0.26010509742E+04 0.  0.
        1    1    3    3  502    0  0.72509273342E+03  0.44690400326E+03 -0.56190988943E+03  0.10204045198E+04  0.50400001928E-02 0. -1.
       -1    1    3    3    0  502 -0.72509273342E+03 -0.44690400326E+03  0.15373514172E+04  0.17575357863E+04  0.50400001928E-02 0.  1.
</event>
<event>
 5   0  0.5942229E-06  0.2595649E+04  0.7818609E-02  0.8369681E-01
       -2   -1    0    0    0  501  0.00000000000E+00  0.00000000000E+00  0.94567657796E+03  0.94567657796E+03  0.25500000920E-02 0.  1.
        2   -1    0    0  501    0  0.00000000000E+00  0.00000000000E+00 -0.17811039301E+04  0.17811039301E+04  0.25500000920E-02 0. -1.
    10030    2    1    2    0    0  0.00000000000E+00  0.00000000000E+00 -0.83542735211E+03  0.27267805080E+04  0.25956488742E+04 0.  0.
        4    1    3    3  502    0  0.15558199021E+03 -0.12701417186E+04 -0.19025511840E+03  0.12937018064E+04  0.12699999809E+01 0.  1.
       -4    1    3    3    0  502 -0.15558199021E+03  0.12701417186E+04 -0.64517223371E+03  0.14330787016E+04  0.12699999809E+01 0. -1.
</event>
<event>
 5   0  0.2440590E-06  0.2612722E+04  0.7818609E-02  0.8363893E-01
        1   -1    0    0  501    0  0.00000000000E+00  0.00000000000E+00  0.17537153329E+04  0.17537153329E+04  0.50400001928E-02 0. -1.
       -1   -1    0    0    0  501  0.00000000000E+00  0.00000000000E+00 -0.97312199871E+03  0.97312199872E+03  0.50400001928E-02 0.  1.
    10030    2    1    2    0    0  0.00000000000E+00  0.00000000000E+00  0.78059333417E+03  0.27268373316E+04  0.26127219293E+04 0.  0.
        1    1    3    3  502    0 -0.10814743696E+04 -0.13282005034E+03  0.11424329221E+04  0.15787276394E+04  0.50400001928E-02 0. -1.
       -1    1    3    3    0  502  0.10814743696E+04  0.13282005034E+03 -0.36183958793E+03  0.11481096922E+04  0.50400001928E-02 0.  1.
</event>
<event>
 5   0  0.2503292E-06  0.2597334E+04  0.7818609E-02  0.8369107E-01
        1   -1    0    0  501    0  0.00000000000E+00  0.00000000000E+00  0.28914524847E+04  0.28914524847E+04  0.50400001928E-02 0.  1.
       -1   -1    0    0    0  501  0.00000000000E+00  0.00000000000E+00 -0.58328343655E+03  0.58328343657E+03  0.50400001928E-02 0. -1.
    10030    2    1    2    0    0  0.00000000000E+00  0.00000000000E+00  0.23081690482E+04  0.34747359213E+04  0.25973342811E+04 0.  0.
        2    1    3    3  502    0  0.25036358802E+03 -0.50486499744E+03  0.27193580781E+04  0.27771350253E+04  0.25500000920E-02 0.  1.
       -2    1    3    3    0  502 -0.25036358802E+03  0.50486499744E+03 -0.41118902988E+03  0.69760089603E+03  0.25500000920E-02 0. -1.
</event>
<event>
 5   0  0.2456600E-06  0.2592959E+04  0.7818609E-02  0.8370597E-01
       -1   -1    0    0    0  501  0.00000000000E+00  0.00000000000E+00  0.90735601433E+03  0.90735601434E+03  0.50400001928E-02 0. -1.
        1   -1    0    0  501    0  0.00000000000E+00  0.00000000000E+00 -0.18524798046E+04  0.18524798046E+04  0.50400001928E-02 0.  1.
    10030    2    1    2    0    0  0.00000000000E+00  0.00000000000E+00 -0.94512379022E+03  0.27598358189E+04  0.25929586901E+04 0.  0.
        5    1    3    3  502    0 -0.11412059044E+04 -0.38930372156E+03  0.34466144476E+02  0.12062828478E+04  0.46999998093E+01 0. -1.
       -5    1    3    3    0  502  0.11412059044E+04  0.38930372156E+03 -0.97958993470E+03  0.15535529711E+04  0.46999998093E+01 0.  1.
</event>
<event>
 5   0  0.2072125E-06  0.2586804E+04  0.7818609E-02  0.8372698E-01
       -3   -1    0    0    0  501  0.00000000000E+00  0.00000000000E+00  0.13897203549E+04  0.13897203586E+04  0.10100000352E+00 0.  1.
        3   -1    0    0  501    0  0.00000000000E+00  0.00000000000E+00 -0.12037588307E+04  0.12037588350E+04  0.10100000352E+00 0. -1.
    10030    2    1    2    0    0  0.00000000000E+00  0.00000000000E+00  0.18596152417E+03  0.25934791935E+04  0.25868035563E+04 0.  0.
        4    1    3    3  502    0 -0.96769571241E+03  0.54217455178E+03 -0.57394136586E+03  0.12489189488E+04  0.12699999809E+01 0. -1.
       -4    1    3    3    0  502  0.96769571241E+03 -0.54217455178E+03  0.75990289003E+03  0.13445602447E+04  0.12699999809E+01 0.  1.
</event>
<event>
 5   0  0.2333979E-06  0.2616166E+04  0.7818609E-02  0.8362731E-01
       -1   -1    0    0    0  501  0.00000000000E+00  0.00000000000E+00  0.14325202815E+04  0.14325202815E+04  0.50400001928E-02 0.  1.
        1   -1    0    0  501    0  0.00000000000E+00  0.00000000000E+00 -0.11944552958E+04  0.11944552958E+04  0.50400001928E-02 0. -1.
    10030    2    1    2    0    0  0.00000000000E+00  0.00000000000E+00  0.23806498577E+03  0.26269755773E+04  0.26161662307E+04 0.  0.
        3    1    3    3  502    0  0.78747011387E+03  0.98579757777E+03  0.46567672296E+03  0.13449018050E+04  0.10100000352E+00 0.  1.
       -3    1    3    3    0  502 -0.78747011387E+03 -0.98579757777E+03 -0.22761173719E+03  0.12820737723E+04  0.10100000352E+00 0. -1.
</event>
<event>
 5   0  0.5942229E-06  0.2599499E+04  0.7818609E-02  0.8368371E-01
       -2   -1    0    0    0  501  0.00000000000E+00  0.00000000000E+00  0.84490729550E+03  0.84490729551E+03  0.25500000920E-02 0. -1.
        2   -1    0    0  501    0  0.00000000000E+00  0.00000000000E+00 -0.19994482399E+04  0.19994482399E+04  0.25500000920E-02 0.  1.
    10030    2    1    2    0    0  0.00000000000E+00  0.00000000000E+00 -0.11545409444E+04  0.28443555354E+04  0.25994987247E+04 0.  0.
        4    1    3    3  502    0 -0.99793603094E+03 -0.83150201173E+03 -0.52742907545E+03  0.14019468463E+04  0.12699999809E+01 0.  1.
       -4    1    3    3    0  502  0.99793603094E+03  0.83150201173E+03 -0.62711186898E+03  0.14424086891E+04  0.12699999809E+01 0. -1.
</event>
<event>
 5   0  0.2440590E-06  0.2594766E+04  0.7818609E-02  0.8369981E-01
       -1   -1    0    0    0  501  0.00000000000E+00  0.00000000000E+00  0.12780026363E+04  0.12780026363E+04  0.50400001928E-02 0.  1.
        1   -1    0    0  501    0  0.00000000000E+00  0.00000000000E+00 -0.13170569892E+04  0.13170569892E+04  0.50400001928E-02 0. -1.
    10030    2    1    2    0    0  0.00000000000E+00  0.00000000000E+00 -0.39054352919E+02  0.25950596255E+04  0.25947657346E+04 0.  0.
        1    1    3    3  502    0  0.35828228468E+03  0.86596328850E+03  0.87776098395E+03  0.12840260735E+04  0.50400001928E-02 0.  1.
       -1    1    3    3    0  502 -0.35828228468E+03 -0.86596328850E+03 -0.91681533687E+03  0.13110335520E+04  0.50400001928E-02 0. -1.
</event>
<event>
 5   0  0.6161834E-06  0.2602901E+04  0.7818609E-02  0.8367216E-01
       -2   -1    0    0    0  501  0.00000000000E+00  0.00000000000E+00  0.94405081384E+03  0.94405081384E+03  0.25500000920E-02 0. -1.
        2   -1    0    0  501    0  0.00000000000E+00  0.00000000000E+00 -0.17941552462E+04  0.17941552462E+04  0.25500000920E-02 0.  1.
    10030    2    1    2    0    0  0.00000000000E+00  0.00000000000E+00 -0.85010443232E+03  0.27382060600E+04  0.26029012431E+04 0.  0.
        5    1    3    3  502    0 -0.10184949506E+03 -0.65224203371E+03  0.75483804818E+03  0.10027938767E+04  0.46999998093E+01 0. -1.
       -5    1    3    3    0  502  0.10184949506E+03  0.65224203371E+03 -0.16049424805E+04  0.17354121833E+04  0.46999998093E+01 0.  1.
</event>
<event>
 5   0  0.6161834E-06  0.2616797E+04  0.7818609E-02  0.8362518E-01
        2   -1    0    0  501    0  0.00000000000E+00  0.00000000000E+00  0.10786979498E+04  0.10786979498E+04  0.25500000920E-02 0. -1.
       -2   -1    0    0    0  501  0.00000000000E+00  0.00000000000E+00 -0.15870115349E+04  0.15870115349E+04  0.25500000920E-02 0.  1.
    10030    2    1    2    0    0  0.00000000000E+00  0.00000000000E+00 -0.50831358503E+03  0.26657094847E+04  0.26167965828E+04 0.  0.
        5    1    3    3  502    0  0.65263573016E+03  0.94792623320E+03 -0.88819447706E+03  0.14537568775E+04  0.46999998093E+01 0. -1.
       -5    1    3    3    0  502 -0.65263573016E+03 -0.94792623320E+03  0.37988089203E+03  0.12119526072E+04  0.46999998093E+01 0.  1.
</event>
<event>
 5   0  0.6161834E-06  0.2588501E+04  0.7818609E-02  0.8372118E-01
       -2   -1    0    0    0  501  0.00000000000E+00  0.00000000000E+00  0.16296798090E+04  0.16296798090E+04  0.25500000920E-02 0.  1.
        2   -1    0    0  501    0  0.00000000000E+00  0.00000000000E+00 -0.10278609957E+04  0.10278609957E+04  0.25500000920E-02 0. -1.
    10030    2    1    2    0    0  0.00000000000E+00  0.00000000000E+00  0.60181881330E+03  0.26575408047E+04  0.25885009647E+04 0.  0.
        5    1    3    3  502    0  0.66270796840E+03 -0.49939080048E+03 -0.71880317404E+03  0.10978493139E+04  0.46999998093E+01 0. -1.
       -5    1    3    3    0  502 -0.66270796840E+03  0.49939080048E+03  0.13206219873E+04  0.15596914908E+04  0.46999998093E+01 0.  1.
</event>
<event>
 5   0  0.6158063E-06  0.2572437E+04  0.7818609E-02  0.8377625E-01
       -2   -1    0    0    0  501  0.00000000000E+00  0.00000000000E+00  0.80698018869E+03  0.80698018870E+03  0.25500000920E-02 0. -1.
        2   -1    0    0  501    0  0.00000000000E+00  0.00000000000E+00 -0.20500598788E+04  0.20500598788E+04  0.25500000920E-02 0.  1.
    10030    2    1    2    0    0  0.00000000000E+00  0.00000000000E+00 -0.12430796901E+04  0.28570400675E+04  0.25724367497E+04 0.  0.
        2    1    3    3  502    0 -0.68858966739E+03  0.53720741073E+03 -0.16702588392E+04  0.18848108983E+04  0.25500000920E-02 0.  1.
       -2    1    3    3    0  502  0.68858966739E+03 -0.53720741073E+03  0.42717914908E+03  0.97222916928E+03  0.25500000920E-02 0. -1.
</event>
<event>
 5   0  0.2471488E-06  0.2597299E+04  0.7818609E-02  0.8369119E-01
        1   -1    0    0  501    0  0.00000000000E+00  0.00000000000E+00  0.14616566762E+04  0.14616566762E+04  0.50400001928E-02 0.  1.
       -1   -1    0    0    0  501  0.00000000000E+00  0.00000000000E+00 -0.11538211672E+04  0.11538211672E+04  0.50400001928E-02 0. -1.
    10030    2    1    2    0    0  0.00000000000E+00  0.00000000000E+00  0.30783550898E+03  0.26154778434E+04  0.25972989140E+04 0.  0.
        4    1    3    3  502    0  0.63070406473E+03 -0.94205689637E+03  0.79177839222E+03  0.13828135986E+04  0.12699999809E+01 0.  1.
       -4    1    3    3    0  502 -0.63070406473E+03  0.94205689637E+03 -0.48394288324E+03  0.12326642448E+04  0.12699999809E+01 0. -1.
</event>
<event>
 5   0  0.5940748E-06  0.2593689E+04  0.7818609E-02  0.8370348E-01
        2   -1    0    0  501    0  0.00000000000E+00  0.00000000000E+00  0.10794788153E+04  0.10794788153E+04  0.25500000920E-02 0.  1.
       -2   -1    0    0    0  501  0.00000000000E+00  0.00000000000E+00 -0.15579787504E+04  0.15579787504E+04  0.25500000920E-02 0. -1.
    10030    2    1    2    0    0  0.00000000000E+00  0.00000000000E+00 -0.47849993510E+03  0.26374575657E+04  0.25936885362E+04 0.  0.
        1    1    3    3  502    0  0.12945617372E+04  0.74607153416E+02 -0.22026032851E+03  0.13152835934E+04  0.50400001928E-02 0.  1.
       -1    1    3    3    0  502 -0.12945617372E+04 -0.74607153416E+02 -0.25823960659E+03  0.13221739723E+04  0.50400001928E-02 0. -1.
</event>
<event>
 5   0  0.6161834E-06  0.2589742E+04  0.7818609E-02  0.8371694E-01
       -2   -1    0    0    0  501  0.00000000000E+00  0.00000000000E+00  0.13690168335E+04  0.13690168336E+04  0.25500000920E-02 0. -1.
        2   -1    0    0  501    0  0.00000000000E+00  0.00000000000E+00 -0.12247411836E+04  0.12247411836E+04  0.25500000920E-02 0.  1.
    10030    2    1    2    0    0  0.00000000000E+00  0.00000000000E+00  0.14427564997E+03  0.25937580171E+04  0.25897423015E+04 0.  0.
        5    1    3    3  502    0  0.41314710872E+03 -0.95750347521E+03  0.84089938354E+03  0.13396407361E+04  0.46999998093E+01 0. -1.
       -5    1    3    3    0  502 -0.41314710872E+03  0.95750347521E+03 -0.69662373357E+03  0.12541172811E+04  0.46999998093E+01 0.  1.
</event>
<event>
 5   0  0.5942229E-06  0.2596699E+04  0.7818609E-02  0.8369323E-01
        2   -1    0    0  501    0  0.00000000000E+00  0.00000000000E+00  0.11882833730E+04  0.11882833730E+04  0.25500000920E-02 0. -1.
       -2   -1    0    0    0  501  0.00000000000E+00  0.00000000000E+00 -0.14186101962E+04  0.14186101962E+04  0.25500000920E-02 0.  1.
    10030    2    1    2    0    0  0.00000000000E+00  0.00000000000E+00 -0.23032682322E+03  0.26068935692E+04  0.25966986031E+04 0.  0.
        4    1    3    3  502    0 -0.37495330395E+02 -0.12510215772E+04  0.23151600246E+03  0.12728166242E+04  0.12699999809E+01 0. -1.
       -4    1    3    3    0  502  0.37495330395E+02  0.12510215772E+04 -0.46184282568E+03  0.13340769450E+04  0.12699999809E+01 0.  1.
</event>
<event>
 5   0  0.6173140E-06  0.2603974E+04  0.7818609E-02  0.8366852E-01
       -2   -1    0    0    0  501  0.00000000000E+00  0.00000000000E+00  0.18853873218E+04  0.18853873218E+04  0.25500000920E-02 0.  1.
        2   -1    0    0  501    0  0.00000000000E+00  0.00000000000E+00 -0.89910993455E+03  0.89910993455E+03  0.25500000920E-02 0. -1.
    10030    2    1    2    0    0  0.00000000000E+00  0.00000000000E+00  0.98627738726E+03  0.27844972564E+04  0.26039742483E+04 0.  0.
        3    1    3    3  502    0 -0.54891891050E+03  0.45901832916E+03  0.16562786384E+04  0.18042363301E+04  0.10100000352E+00 0.  1.
       -3    1    3    3    0  502  0.54891891050E+03 -0.45901832916E+03 -0.67000125111E+03  0.98026092623E+03  0.10100000352E+00 0. -1.
</event>
<event>
 5   0  0.6161834E-06  0.2581855E+04  0.7818609E-02  0.8374391E-01
        2   -1    0    0  501    0  0.00000000000E+00  0.00000000000E+00  0.11155082523E+04  0.11155082523E+04  0.25500000920E-02 0. -1.
       -2   -1    0    0    0  501  0.00000000000E+00  0.00000000000E+00 -0.14939321804E+04  0.14939321804E+04  0.25500000920E-02 0.  1.
    10030    2    1    2    0    0  0.00000000000E+00  0.00000000000E+00 -0.37842392816E+03  0.26094404327E+04  0.25818548957E+04 0.  0.
        5    1    3    3  502    0 -0.42687131568E+03  0.77910874957E+03 -0.11358310802E+04  0.14419999641E+04  0.46999998093E+01 0.  1.
       -5    1    3    3    0  502  0.42687131568E+03 -0.77910874957E+03  0.75740715200E+03  0.11674404686E+04  0.46999998093E+01 0. -1.
</event>
<event>
 5   0  0.2471488E-06  0.2585383E+04  0.7818609E-02  0.8373183E-01
       -1   -1    0    0    0  501  0.00000000000E+00  0.00000000000E+00  0.76409699452E+03  0.76409699454E+03  0.50400001928E-02 0.  1.
        1   -1    0    0  501    0  0.00000000000E+00  0.00000000000E+00 -0.21869625606E+04  0.21869625606E+04  0.50400001928E-02 0. -1.
    10030    2    1    2    0    0  0.00000000000E+00  0.00000000000E+00 -0.14228655661E+04  0.29510595551E+04  0.25853831590E+04 0.  0.
        4    1    3    3  502    0 -0.33302957799E+03 -0.11487101873E+04 -0.12713275222E+04  0.17454853410E+04  0.12699999809E+01 0. -1.
       -4    1    3    3    0  502  0.33302957799E+03  0.11487101873E+04 -0.15153804390E+03  0.12055742141E+04  0.12699999809E+01 0.  1.
</event>
<event>
 5   0  0.2333979E-06  0.2609641E+04  0.7818609E-02  0.8364934E-01
       -1   -1    0    0    0  501  0.00000000000E+00  0.00000000000E+00  0.28668673231E+04  0.28668673231E+04  0.50400001928E-02 0. -1.
        1   -1    0    0  501    0  0.00000000000E+00  0.00000000000E+00 -0.59387343690E+03  0.59387343693E+03  0.50400001928E-02 0.  1.
    10030    2    1    2    0    0  0.00000000000E+00  0.00000000000E+00  0.22729938862E+04  0.34607407600E+04  0.26096408568E+04 0.  0.
        3    1    3    3  502    0  0.12508081559E+04 -0.31173742813E+03  0.14045441720E+04  0.19064222009E+04  0.10100000352E+00 0. -1.
       -3    1    3    3    0  502 -0.12508081559E+04  0.31173742813E+03  0.86844971421E+03  0.15543185591E+04  0.10100000352E+00 0.  1.
</event>
<event>
 5   0  0.2456600E-06  0.2609437E+04  0.7818609E-02  0.8365003E-01
       -1   -1    0    0    0  501  0.00000000000E+00  0.00000000000E+00  0.11001595150E+04  0.11001595150E+04  0.50400001928E-02 0.  1.
        1   -1    0    0  501    0  0.00000000000E+00  0.00000000000E+00 -0.15473126721E+04  0.15473126722E+04  0.50400001928E-02 0. -1.
    10030    2    1    2    0    0  0.00000000000E+00  0.00000000000E+00 -0.44715315712E+03  0.26474721872E+04  0.26094373026E+04 0.  0.
        5    1    3    3  502    0  0.73672311632E+03 -0.41004197036E+03  0.78661361742E+03  0.11531168374E+04  0.46999998093E+01 0.  1.
       -5    1    3    3    0  502 -0.73672311632E+03  0.41004197036E+03 -0.12337667745E+04  0.14943553498E+04  0.46999998093E+01 0. -1.
</event>
<event>
 5   0  0.5940748E-06  0.2583696E+04  0.7818609E-02  0.8373761E-01
        2   -1    0    0  501    0  0.00000000000E+00  0.00000000000E+00  0.11616315039E+04  0.11616315039E+04  0.25500000920E-02 0. -1.
       -2   -1    0    0    0  501  0.00000000000E+00  0.00000000000E+00 -0.14366612666E+04  0.14366612666E+04  0.25500000920E-02 0.  1.
    10030    2    1    2    0    0  0.00000000000E+00  0.00000000000E+00 -0.27502976268E+03  0.25982927704E+04  0.25836957929E+04 0.  0.
        1    1    3    3  502    0  0.40217856267E+03 -0.10172817794E+04 -0.82861000320E+03  0.13722989297E+04  0.50400001928E-02 0.  1.
       -1    1    3    3    0  502 -0.40217856267E+03  0.10172817794E+04  0.55358024052E+03  0.12259938408E+04  0.50400001928E-02 0. -1.
</event>
<event>
 5   0  0.6161834E-06  0.2597600E+04  0.7818609E-02  0.8369017E-01
       -2   -1    0    0    0  501  0.00000000000E+00  0.00000000000E+00  0.11969705756E+04  0.11969705756E+04  0.25500000920E-02 0. -1.
        2   -1    0    0  501    0  0.00000000000E+00  0.00000000000E+00 -0.14092928625E+04  0.14092928625E+04  0.25500000920E-02 0.  1.
    10030    2    1    2    0    0  0.00000000000E+00  0.00000000000E+00 -0.21232228697E+03  0.26062634381E+04  0.25976004996E+04 0.  0.
        5    1    3    3  502    0  0.76870452675E+02 -0.25616130756E+03  0.11690347143E+04  0.11992464031E+04  0.46999998093E+01 0. -1.
       -5    1    3    3    0  502 -0.76870452675E+02  0.25616130756E+03 -0.13813570013E+04  0.14070170351E+04  0.46999998093E+01 0.  1.
</event>
<event>
 5   0  0.2456600E-06  0.2642035E+04  0.7818609E-02  0.8354061E-01
        1   -1    0    0  501    0  0.00000000000E+00  0.00000000000E+00  0.25022453933E+04  0.25022453933E+04  0.50400001928E-02 0.  1.
       -1   -1    0    0    0  501  0.00000000000E+00  0.00000000000E+00 -0.69740871519E+03  0.69740871521E+03  0.50400001928E-02 0. -1.
    10030    2    1    2    0    0  0.00000000000E+00  0.00000000000E+00  0.18048366782E+04  0.31996541086E+04  0.26420353858E+04 0.  0.
        5    1    3    3  502    0 -0.12899408760E+03 -0.13090753752E+04  0.75534679734E+03  0.15168680519E+04  0.46999998093E+01 0.  1.
       -5    1    3    3    0  502  0.12899408760E+03  0.13090753752E+04  0.10494898808E+04  0.16827860567E+04  0.46999998093E+01 0. -1.
</event>
<event>
 5   0  0.2440590E-06  0.2656140E+04  0.7818609E-02  0.8349378E-01
        1   -1    0    0  501    0  0.00000000000E+00  0.00000000000E+00  0.82420533049E+03  0.82420533051E+03  0.50400001928E-02 0. -1.
       -1   -1    0    0    0  501  0.00000000000E+00  0.00000000000E+00 -0.21399647389E+04  0.21399647389E+04  0.50400001928E-02 0.  1.
    10030    2    1    2    0    0  0.00000000000E+00  0.00000000000E+00 -0.13157594084E+04  0.29641700694E+04  0.26561403162E+04 0.  0.
        1    1    3    3  502    0  0.12653162467E+04 -0.40047895080E+02 -0.11058565262E+04  0.16809365528E+04  0.50400001928E-02 0.  1.
       -1    1    3    3    0  502 -0.12653162467E+04  0.40047895080E+02 -0.20990288220E+03  0.12832335166E+04  0.50400001928E-02 0. -1.
</event>
<event>
 5   0  0.5942229E-06  0.2600597E+04  0.7818609E-02  0.8367998E-01
       -2   -1    0    0    0  501  0.00000000000E+00  0.00000000000E+00  0.14752024660E+04  0.14752024660E+04  0.25500000920E-02 0. -1.
        2   -1    0    0  501    0  0.00000000000E+00  0.00000000000E+00 -0.11461319351E+04  0.11461319351E+04  0.25500000920E-02 0.  1.
    10030    2    1    2    0    0  0.00000000000E+00  0.00000000000E+00  0.32907053090E+03  0.26213344011E+04  0.26005973598E+04 0.  0.
        4    1    3    3  502    0 -0.98855358981E+03  0.44070980151E+03 -0.56184388442E+03  0.12194808291E+04  0.12699999809E+01 0.  1.
       -4    1    3    3    0  502  0.98855358981E+03 -0.44070980151E+03  0.89091441533E+03  0.14018535720E+04  0.12699999809E+01 0. -1.
</event>
<event>
 5   0  0.2440590E-06  0.2603208E+04  0.7818609E-02  0.8367112E-01
       -1   -1    0    0    0  501  0.00000000000E+00  0.00000000000E+00  0.13977948877E+04  0.13977948877E+04  0.50400001928E-02 0.  1.
        1   -1    0    0  501    0  0.00000000000E+00  0.00000000000E+00 -0.12120324142E+04  0.12120324142E+04  0.50400001928E-02 0. -1.
    10030    2    1    2    0    0  0.00000000000E+00  0.00000000000E+00  0.18576247356E+03  0.26098273019E+04  0.26032077999E+04 0.  0.
        1    1    3    3  502    0  0.14744085135E+03  0.36248606710E+03  0.13374232819E+04  0.13934977533E+04  0.50400001928E-02 0.  1.
       -1    1    3    3    0  502 -0.14744085135E+03 -0.36248606710E+03 -0.11516608083E+04  0.12163295486E+04  0.50400001928E-02 0. -1.
</event>
<event>
 5   0  0.5942229E-06  0.2603541E+04  0.7818609E-02  0.8367000E-01
       -2   -1    0    0    0  501  0.00000000000E+00  0.00000000000E+00  0.75084917535E+03  0.75084917536E+03  0.25500000920E-02 0. -1.
        2   -1    0    0  501    0  0.00000000000E+00  0.00000000000E+00 -0.22569190970E+04  0.22569190970E+04  0.25500000920E-02 0.  1.
    10030    2    1    2    0    0  0.00000000000E+00  0.00000000000E+00 -0.15060699217E+04  0.30077682724E+04  0.26035405454E+04 0.  0.
        4    1    3    3  502    0 -0.11579393908E+04 -0.39554247351E+03 -0.23985107772E+03  0.12469192570E+04  0.12699999809E+01 0. -1.
       -4    1    3    3    0  502  0.11579393908E+04  0.39554247351E+03 -0.12662188439E+04  0.17608490153E+04  0.12699999809E+01 0.  1.
</event>
<event>
 5   0  0.5940748E-06  0.2571261E+04  0.7818609E-02  0.8378029E-01
       -2   -1    0    0    0  501  0.00000000000E+00  0.00000000000E+00  0.12445331472E+04  0.12445331472E+04  0.25500000920E-02 0.  1.
        2   -1    0    0  501    0  0.00000000000E+00  0.00000000000E+00 -0.13280850077E+04  0.13280850077E+04  0.25500000920E-02 0. -1.
    10030    2    1    2    0    0  0.00000000000E+00  0.00000000000E+00 -0.83551860513E+02  0.25726181548E+04  0.25712610247E+04 0.  0.
        1    1    3    3  502    0  0.68462705638E+02  0.11202021651E+04  0.58569603749E+03  0.12659304409E+04  0.50400001928E-02 0.  1.
       -1    1    3    3    0  502 -0.68462705638E+02 -0.11202021651E+04 -0.66924789800E+03  0.13066877140E+04  0.50400001928E-02 0. -1.
</event>
<event>
 5   0  0.2072125E-06  0.2598003E+04  0.7818609E-02  0.8368880E-01
        4   -1    0    0  501    0  0.00000000000E+00  0.00000000000E+00  0.11543475146E+04  0.11543482132E+04  0.12699999809E+01 0. -1.
       -4   -1    0    0    0  501  0.00000000000E+00  0.00000000000E+00 -0.14617806529E+04  0.14617812046E+04  0.12699999809E+01 0.  1.
    10030    2    1    2    0    0  0.00000000000E+00  0.00000000000E+00 -0.30743313830E+03  0.26161294179E+04  0.25980026937E+04 0.  0.
        4    1    3    3  502    0 -0.10971560949E+04 -0.46886281192E+03  0.36350032977E+03  0.12472842241E+04  0.12699999809E+01 0. -1.
       -4    1    3    3    0  502  0.10971560949E+04  0.46886281192E+03 -0.67093346808E+03  0.13688451938E+04  0.12699999809E+01 0.  1.
</event>
<event>
 5   0  0.2440590E-06  0.2586102E+04  0.7818609E-02  0.8372937E-01
       -1   -1    0    0    0  501  0.00000000000E+00  0.00000000000E+00  0.11832914870E+04  0.11832914870E+04  0.50400001928E-02 0.  1.
        1   -1    0    0  501    0  0.00000000000E+00  0.00000000000E+00 -0.14129915342E+04  0.14129915342E+04  0.50400001928E-02 0. -1.
    10030    2    1    2    0    0  0.00000000000E+00  0.00000000000E+00 -0.22970004721E+03  0.25962830212E+04  0.25861019729E+04 0.  0.
        1    1    3    3  502    0  0.24057645134E+03  0.21209888741E+03 -0.13724258312E+04  0.14094025788E+04  0.50400001928E-02 0. -1.
       -1    1    3    3    0  502 -0.24057645134E+03 -0.21209888741E+03  0.11427257840E+04  0.11868804424E+04  0.50400001928E-02 0.  1.
</event>
<event>
 5   0  0.2456600E-06  0.2603961E+04  0.7818609E-02  0.8366857E-01
       -1   -1    0    0    0  501  0.00000000000E+00  0.00000000000E+00  0.10539054296E+04  0.10539054296E+04  0.50400001928E-02 0. -1.
        1   -1    0    0  501    0  0.00000000000E+00  0.00000000000E+00 -0.16084493319E+04  0.16084493319E+04  0.50400001928E-02 0.  1.
    10030    2    1    2    0    0  0.00000000000E+00  0.00000000000E+00 -0.55454390229E+03  0.26623547616E+04  0.26039612011E+04 0.  0.
        5    1    3    3  502    0 -0.11758784273E+04  0.53078789387E+03 -0.45643139930E+03  0.13684946388E+04  0.46999998093E+01 0.  1.
       -5    1    3    3    0  502  0.11758784273E+04 -0.53078789387E+03 -0.98112502985E+02  0.12938601228E+04  0.46999998093E+01 0. -1.
</event>
<event>
 5   0  0.5942229E-06  0.2632006E+04  0.7818609E-02  0.8357410E-01
       -2   -1    0    0    0  501  0.00000000000E+00  0.00000000000E+00  0.18080604186E+04  0.18080604186E+04  0.25500000920E-02 0. -1.
        2   -1    0    0  501    0  0.00000000000E+00  0.00000000000E+00 -0.95785737711E+03  0.95785737712E+03  0.25500000920E-02 0.  1.
    10030    2    1    2    0    0  0.00000000000E+00  0.00000000000E+00  0.85020304147E+03  0.27659177957E+04  0.26320060868E+04 0.  0.
        4    1    3    3  502    0 -0.51961598515E+03 -0.98024353748E+03  0.11689156229E+04  0.16115965721E+04  0.12699999809E+01 0. -1.
       -4    1    3    3    0  502  0.51961598515E+03  0.98024353748E+03 -0.31871258145E+03  0.11543212236E+04  0.12699999809E+01 0.  1.
</event>
<event>
 5   0  0.2471488E-06  0.2598269E+04  0.7818609E-02  0.8368789E-01
        1   -1    0    0  501    0  0.00000000000E+00  0.00000000000E+00  0.13273371877E+04  0.13273371877E+04  0.50400001928E-02 0.  1.
       -1   -1    0    0    0  501  0.00000000000E+00  0.00000000000E+00 -0.12715314966E+04  0.12715314966E+04  0.50400001928E-02 0. -1.
    10030    2    1    2    0    0  0.00000000000E+00  0.00000000000E+00  0.55805691051E+02  0.25988686843E+04  0.25982694554E+04 0.  0.
        4    1    3    3  502    0  0.58072185787E+03  0.10393678463E+04 -0.49204973748E+03  0.12882693636E+04  0.12699999809E+01 0. -1.
       -4    1    3    3    0  502 -0.58072185787E+03 -0.10393678463E+04  0.54785542853E+03  0.13105993207E+04  0.12699999809E+01 0.  1.
</event>
<event>
 5   0  0.5942229E-06  0.2431761E+04  0.7818609E-02  0.8427708E-01
        2   -1    0    0  501    0  0.00000000000E+00  0.00000000000E+00  0.28603423634E+04  0.28603423634E+04  0.25500000920E-02 0.  1.
       -2   -1    0    0    0  501  0.00000000000E+00  0.00000000000E+00 -0.51684909068E+03  0.51684909069E+03  0.25500000920E-02 0. -1.
    10030    2    1    2    0    0  0.00000000000E+00  0.00000000000E+00  0.23434932727E+04  0.33771914541E+04  0.24317609665E+04 0.  0.
        4    1    3    3  502    0  0.13118396678E+03  0.11699238680E+04  0.74951818657E+03  0.13956038890E+04  0.12699999809E+01 0. -1.
       -4    1    3    3    0  502 -0.13118396678E+03 -0.11699238680E+04  0.15939750862E+04  0.19815875651E+04  0.12699999809E+01 0.  1.
</event>
<event>
 5   0  0.2503292E-06  0.2528457E+04  0.7818609E-02  0.8392917E-01
        1   -1    0    0  501    0  0.00000000000E+00  0.00000000000E+00  0.11625749383E+04  0.11625749383E+04  0.50400001928E-02 0.  1.
       -1   -1    0    0    0  501  0.00000000000E+00  0.00000000000E+00 -0.13747700703E+04  0.13747700704E+04  0.50400001928E-02 0. -1.
    10030    2    1    2    0    0  0.00000000000E+00  0.00000000000E+00 -0.21219513205E+03  0.25373450087E+04  0.25284566279E+04 0.  0.
        2    1    3    3  502    0  0.92455267214E+03  0.58817177662E+03 -0.73881342774E+03  0.13215857760E+04  0.25500000920E-02 0. -1.
       -2    1    3    3    0  502 -0.92455267214E+03 -0.58817177662E+03  0.52661829569E+03  0.12157592326E+04  0.25500000920E-02 0.  1.
</event>
<event>
 5   0  0.5940748E-06  0.2596309E+04  0.7818609E-02  0.8369456E-01
       -2   -1    0    0    0  501  0.00000000000E+00  0.00000000000E+00  0.18117772605E+04  0.18117772605E+04  0.25500000920E-02 0. -1.
        2   -1    0    0  501    0  0.00000000000E+00  0.00000000000E+00 -0.93013905024E+03  0.93013905024E+03  0.25500000920E-02 0.  1.
    10030    2    1    2    0    0  0.00000000000E+00  0.00000000000E+00  0.88163821030E+03  0.27419163108E+04  0.25963087493E+04 0.  0.
        1    1    3    3  502    0  0.11037865244E+04 -0.16334549413E+03  0.11414869570E+04  0.15962515199E+04  0.50400001928E-02 0. -1.
       -1    1    3    3    0  502 -0.11037865244E+04  0.16334549413E+03 -0.25984874671E+03  0.11456647909E+04  0.50400001928E-02 0.  1.
</event>
<event>
 5   0  0.2333979E-06  0.2601165E+04  0.7818609E-02  0.8367805E-01
        1   -1    0    0  501    0  0.00000000000E+00  0.00000000000E+00  0.10594305625E+04  0.10594305625E+04  0.50400001928E-02 0.  1.
       -1   -1    0    0    0  501  0.00000000000E+00  0.00000000000E+00 -0.15966268890E+04  0.15966268890E+04  0.50400001928E-02 0. -1.
    10030    2    1    2    0    0  0.00000000000E+00  0.00000000000E+00 -0.53719632648E+03  0.26560574515E+04  0.26011653720E+04 0.  0.
        3    1    3    3  502    0  0.37119531669E+03 -0.12320972378E+04 -0.75759035208E+02  0.12890263800E+04  0.10100000352E+00 0. -1.
       -3    1    3    3    0  502 -0.37119531669E+03  0.12320972378E+04 -0.46143729127E+03  0.13670310715E+04  0.10100000352E+00 0.  1.
</event>
<event>
 5   0  0.2440590E-06  0.2591476E+04  0.7818609E-02  0.8371102E-01
        1   -1    0    0  501    0  0.00000000000E+00  0.00000000000E+00  0.16890385824E+04  0.16890385824E+04  0.50400001928E-02 0. -1.
       -1   -1    0    0    0  501  0.00000000000E+00  0.00000000000E+00 -0.99401964947E+03  0.99401964948E+03  0.50400001928E-02 0.  1.
    10030    2    1    2    0    0  0.00000000000E+00  0.00000000000E+00  0.69501893292E+03  0.26830582319E+04  0.25914764438E+04 0.  0.
        1    1    3    3  502    0  0.10273356988E+04 -0.76131619789E+03  0.13054084338E+03  0.12853256019E+04  0.50400001928E-02 0.  1.
       -1    1    3    3    0  502 -0.10273356988E+04  0.76131619789E+03  0.56447808955E+03  0.13977326299E+04  0.50400001928E-02 0. -1.
</event>
<event>
 5   0  0.2333979E-06  0.2608027E+04  0.7818609E-02  0.8365480E-01
       -1   -1    0    0    0  501  0.00000000000E+00  0.00000000000E+00  0.13952032471E+04  0.13952032471E+04  0.50400001928E-02 0.  1.
        1   -1    0    0  501    0  0.00000000000E+00  0.00000000000E+00 -0.12187838299E+04  0.12187838299E+04  0.50400001928E-02 0. -1.
    10030    2    1    2    0    0  0.00000000000E+00  0.00000000000E+00  0.17641941726E+03  0.26139870770E+04  0.26080269608E+04 0.  0.
        3    1    3    3  502    0 -0.67416911068E+03  0.95162521376E+03 -0.49652443522E+03  0.12675295114E+04  0.10100000352E+00 0.  1.
       -3    1    3    3    0  502  0.67416911068E+03 -0.95162521376E+03  0.67294385248E+03  0.13464575656E+04  0.10100000352E+00 0. -1.
</event>
<event>
 5   0  0.6173140E-06  0.2592629E+04  0.7818609E-02  0.8370709E-01
        2   -1    0    0  501    0  0.00000000000E+00  0.00000000000E+00  0.18063231078E+04  0.18063231078E+04  0.25500000920E-02 0. -1.
       -2   -1    0    0    0  501  0.00000000000E+00  0.00000000000E+00 -0.93030518700E+03  0.93030518700E+03  0.25500000920E-02 0.  1.
    10030    2    1    2    0    0  0.00000000000E+00  0.00000000000E+00  0.87601792083E+03  0.27366282948E+04  0.25926293654E+04 0.  0.
        3    1    3    3  502    0 -0.11277969192E+03 -0.12144678367E+04  0.90146310683E+03  0.15166697493E+04  0.10100000352E+00 0. -1.
       -3    1    3    3    0  502  0.11277969192E+03  0.12144678367E+04 -0.25445185994E+02  0.12199585456E+04  0.10100000352E+00 0.  1.
</event>
<event>
 5   0  0.6158063E-06  0.2614899E+04  0.7818609E-02  0.8363158E-01
       -2   -1    0    0    0  501  0.00000000000E+00  0.00000000000E+00  0.13272174502E+04  0.13272174502E+04  0.25500000920E-02 0.  1.
        2   -1    0    0  501    0  0.00000000000E+00  0.00000000000E+00 -0.12879762113E+04  0.12879762113E+04  0.25500000920E-02 0. -1.
    10030    2    1    2    0    0  0.00000000000E+00  0.00000000000E+00  0.39241238950E+02  0.26151936615E+04  0.26148992356E+04 0.  0.
        2    1    3    3  502    0  0.10908882779E+04  0.65250502620E+03 -0.28639497437E+03  0.13030050366E+04  0.25500000920E-02 0.  1.
       -2    1    3    3    0  502 -0.10908882779E+04 -0.65250502620E+03  0.32563621332E+03  0.13121886249E+04  0.25500000920E-02 0. -1.
</event>
<event>
 5   0  0.2471488E-06  0.2587496E+04  0.7818609E-02  0.8372461E-01
        1   -1    0    0  501    0  0.00000000000E+00  0.00000000000E+00  0.10593937633E+04  0.10593937634E+04  0.50400001928E-02 0.  1.
       -1   -1    0    0    0  501  0.00000000000E+00  0.00000000000E+00 -0.15799452855E+04  0.15799452855E+04  0.50400001928E-02 0. -1.
    10030    2    1    2    0    0  0.00000000000E+00  0.00000000000E+00 -0.52055152217E+03  0.26393390489E+04  0.25874962276E+04 0.  0.
        4    1    3    3  502    0 -0.11920339076E+04 -0.20130140659E+03 -0.73028487944E+03  0.14123684758E+04  0.12699999809E+01 0. -1.
       -4    1    3    3    0  502  0.11920339076E+04  0.20130140659E+03  0.20973335727E+03  0.12269705731E+04  0.12699999809E+01 0.  1.
</event>
<event>
 5   0  0.5942229E-06  0.2598017E+04  0.7818609E-02  0.8368875E-01
        2   -1    0    0  501    0  0.00000000000E+00  0.00000000000E+00  0.12392482232E+04  0.12392482232E+04  0.25500000920E-02 0. -1.
       -2   -1    0    0    0  501  0.00000000000E+00  0.00000000000E+00 -0.13616510829E+04  0.13616510829E+04  0.25500000920E-02 0.  1.
    10030    2    1    2    0    0  0.00000000000E+00  0.00000000000E+00 -0.12240285975E+03  0.26008993061E+04  0.25980174635E+04 0.  0.
        4    1    3    3  502    0  0.92661260743E+03 -0.43144945555E+03  0.74135015647E+03  0.12626801750E+04  0.12699999809E+01 0. -1.
       -4    1    3    3    0  502 -0.92661260743E+03  0.43144945555E+03 -0.86375301622E+03  0.13382191311E+04  0.12699999809E+01 0.  1.
</event>
<event>
 5   0  0.6161834E-06  0.2567201E+04  0.7818609E-02  0.8379428E-01
        2   -1    0    0  501    0  0.00000000000E+00  0.00000000000E+00  0.12291941454E+04  0.12291941454E+04  0.25500000920E-02 0.  1.
       -2   -1    0    0    0  501  0.00000000000E+00  0.00000000000E+00 -0.13404153550E+04  0.13404153550E+04  0.25500000920E-02 0. -1.
    10030    2    1    2    0    0  0.00000000000E+00  0.00000000000E+00 -0.11122120958E+03  0.25696095004E+04  0.25672013609E+04 0.  0.
        5    1    3    3  502    0 -0.11520976457E+04  0.60413208092E+02 -0.61883718260E+03  0.13091830619E+04  0.46999998093E+01 0. -1.
       -5    1    3    3    0  502  0.11520976457E+04 -0.60413208092E+02  0.50761597303E+03  0.12604264385E+04  0.46999998093E+01 0.  1.
</event>
<event>
 5   0  0.2471488E-06  0.2621802E+04  0.7818609E-02  0.8360833E-01
        1   -1    0    0  501    0  0.00000000000E+00  0.00000000000E+00  0.10522137352E+04  0.10522137352E+04  0.50400001928E-02 0.  1.
       -1   -1    0    0    0  501  0.00000000000E+00  0.00000000000E+00 -0.16331870240E+04  0.16331870240E+04  0.50400001928E-02 0. -1.
    10030    2    1    2    0    0  0.00000000000E+00  0.00000000000E+00 -0.58097328878E+03  0.26854007592E+04  0.26218022952E+04 0.  0.
        4    1    3    3  502    0 -0.59806781463E+03  0.16266579744E+03  0.89265935977E+03  0.10867325421E+04  0.12699999809E+01 0.  1.
       -4    1    3    3    0  502  0.59806781463E+03 -0.16266579744E+03 -0.14736326485E+04  0.15986682171E+04  0.12699999809E+01 0. -1.
</event>
<event>
 5   0  0.5940748E-06  0.2510369E+04  0.7818609E-02  0.8399301E-01
       -2   -1    0    0    0  501  0.00000000000E+00  0.00000000000E+00  0.25791708448E+04  0.25791708448E+04  0.25500000920E-02 0.  1.
        2   -1    0    0  501    0  0.00000000000E+00  0.00000000000E+00 -0.61085054382E+03  0.61085054382E+03  0.25500000920E-02 0. -1.
    10030    2    1    2    0    0  0.00000000000E+00  0.00000000000E+00  0.19683203009E+04  0.31900213886E+04  0.25103688280E+04 0.  0.
        1    1    3    3  502    0 -0.11263410287E+04  0.25173512864E+03  0.16111805433E+04  0.19818974320E+04  0.50400001928E-02 0.  1.
       -1    1    3    3    0  502  0.11263410287E+04 -0.25173512864E+03  0.35713975763E+03  0.12081239566E+04  0.50400001928E-02 0. -1.
</event>
<event>
 5   0  0.2440590E-06  0.2613506E+04  0.7818609E-02  0.8363628E-01
        1   -1    0    0  501    0  0.00000000000E+00  0.00000000000E+00  0.16349982208E+04  0.16349982208E+04  0.50400001928E-02 0.  1.
       -1   -1    0    0    0  501  0.00000000000E+00  0.00000000000E+00 -0.10444065376E+04  0.10444065376E+04  0.50400001928E-02 0. -1.
    10030    2    1    2    0    0  0.00000000000E+00  0.00000000000E+00  0.59059168324E+03  0.26794047584E+04  0.26135055621E+04 0.  0.
        1    1    3    3  502    0 -0.11246076947E+04 -0.95327536773E+01 -0.38689163018E+03  0.11893353076E+04  0.50400001928E-02 0. -1.
       -1    1    3    3    0  502  0.11246076947E+04  0.95327536773E+01  0.97748331342E+03  0.14900694508E+04  0.50400001928E-02 0.  1.
</event>
<event>
 5   0  0.5940748E-06  0.2594046E+04  0.7818609E-02  0.8370227E-01
       -2   -1    0    0    0  501  0.00000000000E+00  0.00000000000E+00  0.15244515425E+04  0.15244515425E+04  0.25500000920E-02 0. -1.
        2   -1    0    0  501    0  0.00000000000E+00  0.00000000000E+00 -0.11035235684E+04  0.11035235684E+04  0.25500000920E-02 0.  1.
    10030    2    1    2    0    0  0.00000000000E+00  0.00000000000E+00  0.42092797404E+03  0.26279751109E+04  0.25940456481E+04 0.  0.
        1    1    3    3  502    0 -0.62538730510E+03  0.11344809929E+04  0.14550194075E+03  0.13035824559E+04  0.50400001928E-02 0.  1.
       -1    1    3    3    0  502  0.62538730510E+03 -0.11344809929E+04  0.27542603329E+03  0.13243926550E+04  0.50400001928E-02 0. -1.
</event>
<event>
 5   0  0.2471488E-06  0.2601563E+04  0.7818609E-02  0.8367671E-01
        1   -1    0    0  501    0  0.00000000000E+00  0.00000000000E+00  0.19157283879E+04  0.19157283879E+04  0.50400001928E-02 0.  1.
       -1   -1    0    0    0  501  0.00000000000E+00  0.00000000000E+00 -0.88323167054E+03  0.88323167056E+03  0.50400001928E-02 0. -1.
    10030    2    1    2    0    0  0.00000000000E+00  0.00000000000E+00  0.10324967173E+04  0.27989600584E+04  0.26015625953E+04 0.  0.
        4    1    3    3  502    0  0.12338998336E+03 -0.48042438363E+03  0.18099860223E+04  0.18767215271E+04  0.12699999809E+01 0.  1.
       -4    1    3    3    0  502 -0.12338998336E+03  0.48042438363E+03 -0.77748930500E+03  0.92223853133E+03  0.12699999809E+01 0. -1.
</event>
<event>
 5   0  0.6158063E-06  0.2588089E+04  0.7818609E-02  0.8372258E-01
        2   -1    0    0  501    0  0.00000000000E+00  0.00000000000E+00  0.71069619801E+03  0.71069619802E+03  0.25500000920E-02 0.  1.
       -2   -1    0    0    0  501  0.00000000000E+00  0.00000000000E+00 -0.23562128718E+04  0.23562128718E+04  0.25500000920E-02 0. -1.
    10030    2    1    2    0    0  0.00000000000E+00  0.00000000000E+00 -0.16455166738E+04  0.30669090699E+04  0.25880892796E+04 0.  0.
        2    1    3    3  502    0 -0.78087315252E+03  0.10318727452E+04 -0.82894847537E+03  0.15367757863E+04  0.25500000920E-02 0. -1.
       -2    1    3    3    0  502  0.78087315252E+03 -0.10318727452E+04 -0.81656819845E+03  0.15301332835E+04  0.25500000920E-02 0.  1.
</event>
<event>
 5   0  0.6158063E-06  0.2593505E+04  0.7818609E-02  0.8370411E-01
        2   -1    0    0  501    0  0.00000000000E+00  0.00000000000E+00  0.10849906099E+04  0.10849906099E+04  0.25500000920E-02 0.  1.
       -2   -1    0    0    0  501  0.00000000000E+00  0.00000000000E+00 -0.15498442363E+04  0.15498442363E+04  0.25500000920E-02 0. -1.
    10030    2    1    2    0    0  0.00000000000E+00  0.00000000000E+00 -0.46485362644E+03  0.26348348462E+04  0.25935045349E+04 0.  0.
        2    1    3    3  502    0  0.74091116172E+03  0.25269783427E+03 -0.12827106085E+04  0.15027148931E+04  0.25500000920E-02 0. -1.
       -2    1    3    3    0  502 -0.74091116172E+03 -0.25269783427E+03  0.81785698202E+03  0.11321199530E+04  0.25500000920E-02 0.  1.
</event>
<event>
 5   0  0.2471488E-06  0.2585307E+04  0.7818609E-02  0.8373209E-01
       -1   -1    0    0    0  501  0.00000000000E+00  0.00000000000E+00  0.10106418515E+04  0.10106418516E+04  0.50400001928E-02 0. -1.
        1   -1    0    0  501    0  0.00000000000E+00  0.00000000000E+00 -0.16533581484E+04  0.16533581484E+04  0.50400001928E-02 0.  1.
    10030    2    1    2    0    0  0.00000000000E+00  0.00000000000E+00 -0.64271629686E+03  0.26640000000E+04  0.25853068989E+04 0.  0.
        4    1    3    3  502    0 -0.12916558053E+04 -0.42177617594E+02 -0.35046063624E+03  0.13390212624E+04  0.12699999809E+01 0.  1.
       -4    1    3    3    0  502  0.12916558053E+04  0.42177617594E+02 -0.29225566062E+03  0.13249787375E+04  0.12699999809E+01 0. -1.
</event>
<event>
 5   0  0.2456600E-06  0.2612264E+04  0.7818609E-02  0.8364047E-01
       -1   -1    0    0    0  501  0.00000000000E+00  0.00000000000E+00  0.11213712024E+04  0.11213712024E+04  0.50400001928E-02 0.  1.
        1   -1    0    0  501    0  0.00000000000E+00  0.00000000000E+00 -0.15213347991E+04  0.15213347991E+04  0.50400001928E-02 0. -1.
    10030    2    1    2    0    0  0.00000000000E+00  0.00000000000E+00 -0.39996359670E+03  0.26427060015E+04  0.26122641772E+04 0.  0.
        5    1    3    3  502    0 -0.47152418705E+03  0.11009079282E+04  0.32726884633E+03  0.12415556021E+04  0.46999998093E+01 0.  1.
       -5    1    3    3    0  502  0.47152418705E+03 -0.11009079282E+04 -0.72723244303E+03  0.14011503993E+04  0.46999998093E+01 0. -1.
</event>
<event>
 5   0  0.2503292E-06  0.2599288E+04  0.7818609E-02  0.8368443E-01
        1   -1    0    0  501    0  0.00000000000E+00  0.00000000000E+00  0.22000863197E+04  0.22000863198E+04  0.50400001928E-02 0. -1.
       -1   -1    0    0    0  501  0.00000000000E+00  0.00000000000E+00 -0.76773130131E+03  0.76773130133E+03  0.50400001928E-02 0.  1.
    10030    2    1    2    0    0  0.00000000000E+00  0.00000000000E+00  0.14323550184E+04  0.29678176211E+04  0.25992884667E+04 0.  0.
        2    1    3    3  502    0 -0.30069590497E+02 -0.96094637519E+03 -0.28231159199E+03  0.10020089577E+04  0.25500000920E-02 0.  1.
       -2    1    3    3    0  502  0.30069590497E+02  0.96094637519E+03  0.17146666104E+04  0.19658086634E+04  0.25500000920E-02 0. -1.
</event>
<event>
 5   0  0.6173140E-06  0.2555561E+04  0.7818609E-02  0.8383455E-01
        2   -1    0    0  501    0  0.00000000000E+00  0.00000000000E+00  0.18564600650E+04  0.18564600650E+04  0.25500000920E-02 0.  1.
       -2   -1    0    0    0  501  0.00000000000E+00  0.00000000000E+00 -0.87948168151E+03  0.87948168151E+03  0.25500000920E-02 0. -1.
    10030    2    1    2    0    0  0.00000000000E+00  0.00000000000E+00  0.97697838354E+03  0.27359417466E+04  0.25555606975E+04 0.  0.
        3    1    3    3  502    0 -0.29267609381E+03  0.10321313273E+03 -0.83852100391E+03  0.89410834403E+03  0.10100000352E+00 0. -1.
       -3    1    3    3    0  502  0.29267609381E+03 -0.10321313273E+03  0.18154993874E+04  0.18418334025E+04  0.10100000352E+00 0.  1.
</event>
<event>
 5   0  0.2503292E-06  0.2600907E+04  0.7818609E-02  0.8367893E-01
       -1   -1    0    0    0  501  0.00000000000E+00  0.00000000000E+00  0.28150781584E+04  0.28150781584E+04  0.50400001928E-02 0. -1.
        1   -1    0    0  501    0  0.00000000000E+00  0.00000000000E+00 -0.60075737762E+03  0.60075737764E+03  0.50400001928E-02 0.  1.
    10030    2    1    2    0    0  0.00000000000E+00  0.00000000000E+00  0.22143207807E+04  0.34158355360E+04  0.26009067436E+04 0.  0.
        2    1    3    3  502    0 -0.23238618631E+03 -0.83918811983E+03 -0.16136387755E+03  0.88559490798E+03  0.25500000920E-02 0.  1.
       -2    1    3    3    0  502  0.23238618631E+03  0.83918811983E+03  0.23756846583E+04  0.25302406280E+04  0.25500000920E-02 0. -1.
</event>
<event>
 5   0  0.2440590E-06  0.2596215E+04  0.7818609E-02  0.8369488E-01
        1   -1    0    0  501    0  0.00000000000E+00  0.00000000000E+00  0.11661051350E+04  0.11661051351E+04  0.50400001928E-02 0.  1.
       -1   -1    0    0    0  501  0.00000000000E+00  0.00000000000E+00 -0.14450524490E+04  0.14450524490E+04  0.50400001928E-02 0. -1.
    10030    2    1    2    0    0  0.00000000000E+00  0.00000000000E+00 -0.27894731395E+03  0.26111575841E+04  0.25962149997E+04 0.  0.
        1    1    3    3  502    0 -0.37863580742E+03 -0.43905327975E+03  0.10286542243E+04  0.11807888763E+04  0.50400001928E-02 0.  1.
       -1    1    3    3    0  502  0.37863580742E+03  0.43905327975E+03 -0.13076015383E+04  0.14303687077E+04  0.50400001928E-02 0. -1.
</event>
<event>
 5   0  0.5940748E-06  0.2576111E+04  0.7818609E-02  0.8376361E-01
        2   -1    0    0  501    0  0.00000000000E+00  0.00000000000E+00  0.14686391891E+04  0.14686391891E+04  0.25500000920E-02 0. -1.
       -2   -1    0    0    0  501  0.00000000000E+00  0.00000000000E+00 -0.11296765750E+04  0.11296765750E+04  0.25500000920E-02 0.  1.
    10030    2    1    2    0    0  0.00000000000E+00  0.00000000000E+00  0.33896261409E+03  0.25983157641E+04  0.25761112468E+04 0.  0.
        1    1    3    3  502    0 -0.98721953420E+03  0.59959921351E+03 -0.40548984046E+03  0.12241501690E+04  0.50400001928E-02 0.  1.
       -1    1    3    3    0  502  0.98721953420E+03 -0.59959921351E+03  0.74445245454E+03  0.13741655951E+04  0.50400001928E-02 0. -1.
</event>
<event>
 5   0  0.2456600E-06  0.2595304E+04  0.7818609E-02  0.8369798E-01
        1   -1    0    0  501    0  0.00000000000E+00  0.00000000000E+00  0.11069019958E+04  0.11069019958E+04  0.50400001928E-02 0.  1.
       -1   -1    0    0    0  501  0.00000000000E+00  0.00000000000E+00 -0.15212738894E+04  0.15212738894E+04  0.50400001928E-02 0. -1.
    10030    2    1    2    0    0  0.00000000000E+00  0.00000000000E+00 -0.41437189360E+03  0.26281758853E+04  0.25953043016E+04 0.  0.
        5    1    3    3  502    0  0.78937103596E+03  0.76349171548E+03  0.49283848726E+03  0.12037184457E+04  0.46999998093E+01 0. -1.
       -5    1    3    3    0  502 -0.78937103596E+03 -0.76349171548E+03 -0.90721038086E+03  0.14244574396E+04  0.46999998093E+01 0.  1.
</event>
<event>
 5   0  0.2456600E-06  0.2609882E+04  0.7818609E-02  0.8364852E-01
        1   -1    0    0  501    0  0.00000000000E+00  0.00000000000E+00  0.94110220892E+03  0.94110220893E+03  0.50400001928E-02 0. -1.
       -1   -1    0    0    0  501  0.00000000000E+00  0.00000000000E+00 -0.18094435423E+04  0.18094435423E+04  0.50400001928E-02 0.  1.
    10030    2    1    2    0    0  0.00000000000E+00  0.00000000000E+00 -0.86834133334E+03  0.27505457512E+04  0.26098822307E+04 0.  0.
        5    1    3    3  502    0  0.46893552853E+03  0.11928444446E+04 -0.17586748029E+03  0.12937271194E+04  0.46999998093E+01 0. -1.
       -5    1    3    3    0  502 -0.46893552853E+03 -0.11928444446E+04 -0.69247385305E+03  0.14568186318E+04  0.46999998093E+01 0.  1.
</event>
<event>
 5   0  0.6158063E-06  0.2593331E+04  0.7818609E-02  0.8370470E-01
        2   -1    0    0  501    0  0.00000000000E+00  0.00000000000E+00  0.18568997685E+04  0.18568997685E+04  0.25500000920E-02 0. -1.
       -2   -1    0    0    0  501  0.00000000000E+00  0.00000000000E+00 -0.90545612328E+03  0.90545612329E+03  0.25500000920E-02 0.  1.
    10030    2    1    2    0    0  0.00000000000E+00  0.00000000000E+00  0.95144364518E+03  0.27623558917E+04  0.25933308818E+04 0.  0.
        2    1    3    3  502    0  0.18879862759E+02  0.13784875671E+03 -0.89748175773E+03  0.90820274962E+03  0.25500000920E-02 0.  1.
       -2    1    3    3    0  502 -0.18879862759E+02 -0.13784875671E+03  0.18489254029E+04  0.18541531421E+04  0.25500000920E-02 0. -1.
</event>
<event>
 5   0  0.6158063E-06  0.2593011E+04  0.7818609E-02  0.8370579E-01
        2   -1    0    0  501    0  0.00000000000E+00  0.00000000000E+00  0.14107066770E+04  0.14107066770E+04  0.25500000920E-02 0. -1.
       -2   -1    0    0    0  501  0.00000000000E+00  0.00000000000E+00 -0.11915492813E+04  0.11915492813E+04  0.25500000920E-02 0.  1.
    10030    2    1    2    0    0  0.00000000000E+00  0.00000000000E+00  0.21915739566E+03  0.26022559584E+04  0.25930110121E+04 0.  0.
        2    1    3    3  502    0 -0.70556071488E+03  0.25086446014E+02  0.12008752588E+04  0.13930350460E+04  0.25500000920E-02 0. -1.
       -2    1    3    3    0  502  0.70556071488E+03 -0.25086446014E+02 -0.98171786312E+03  0.12092209124E+04  0.25500000920E-02 0.  1.
</event>
<event>
 5   0  0.2333979E-06  0.2600505E+04  0.7818609E-02  0.8368030E-01
       -1   -1    0    0    0  501  0.00000000000E+00  0.00000000000E+00  0.87428692741E+03  0.87428692743E+03  0.50400001928E-02 0.  1.
        1   -1    0    0  501    0  0.00000000000E+00  0.00000000000E+00 -0.19337548008E+04  0.19337548008E+04  0.50400001928E-02 0. -1.
    10030    2    1    2    0    0  0.00000000000E+00  0.00000000000E+00 -0.10594678734E+04  0.28080417282E+04  0.26005049842E+04 0.  0.
        3    1    3    3  502    0 -0.74573927905E+02  0.12951126427E+04 -0.62496835469E+03  0.14399525974E+04  0.10100000352E+00 0.  1.
       -3    1    3    3    0  502  0.74573927905E+02 -0.12951126427E+04 -0.43449951872E+03  0.13680891309E+04  0.10100000352E+00 0. -1.
</event>
<event>
 5   0  0.6161834E-06  0.2604656E+04  0.7818609E-02  0.8366622E-01
        2   -1    0    0  501    0  0.00000000000E+00  0.00000000000E+00  0.12742523320E+04  0.12742523320E+04  0.25500000920E-02 0.  1.
       -2   -1    0    0    0  501  0.00000000000E+00  0.00000000000E+00 -0.13310218599E+04  0.13310218599E+04  0.25500000920E-02 0. -1.
    10030    2    1    2    0    0  0.00000000000E+00  0.00000000000E+00 -0.56769527913E+02  0.26052741919E+04  0.26046556079E+04 0.  0.
        5    1    3    3  502    0  0.18676097328E+03  0.12364398247E+04 -0.39230151245E+03  0.13105669262E+04  0.46999998093E+01 0.  1.
       -5    1    3    3    0  502 -0.18676097328E+03 -0.12364398247E+04  0.33553198454E+03  0.12947072658E+04  0.46999998093E+01 0. -1.
</event>
<event>
 5   0  0.2471488E-06  0.2602980E+04  0.7818609E-02  0.8367190E-01
       -1   -1    0    0    0  501  0.00000000000E+00  0.00000000000E+00  0.79414312380E+03  0.79414312381E+03  0.50400001928E-02 0.  1.
        1   -1    0    0  501    0  0.00000000000E+00  0.00000000000E+00 -0.21329607802E+04  0.21329607803E+04  0.50400001928E-02 0. -1.
    10030    2    1    2    0    0  0.00000000000E+00  0.00000000000E+00 -0.13388176564E+04  0.29271039041E+04  0.26029799361E+04 0.  0.
        4    1    3    3  502    0 -0.99247806909E+03  0.14616208989E+03  0.26299313666E+03  0.10370839296E+04  0.12699999809E+01 0.  1.
       -4    1    3    3    0  502  0.99247806909E+03 -0.14616208989E+03 -0.16018107931E+04  0.18900199745E+04  0.12699999809E+01 0. -1.
</event>
<event>
 5   0  0.6158063E-06  0.2594567E+04  0.7818609E-02  0.8370049E-01
       -2   -1    0    0    0  501  0.00000000000E+00  0.00000000000E+00  0.18488782658E+04  0.18488782658E+04  0.25500000920E-02 0.  1.
        2   -1    0    0  501    0  0.00000000000E+00  0.00000000000E+00 -0.91025160626E+03  0.91025160627E+03  0.25500000920E-02 0. -1.
    10030    2    1    2    0    0  0.00000000000E+00  0.00000000000E+00  0.93862665953E+03  0.27591298721E+04  0.25945669475E+04 0.  0.
        2    1    3    3  502    0 -0.30287221781E+03 -0.31498517007E+03  0.17682598240E+04  0.18214527287E+04  0.25500000920E-02 0.  1.
       -2    1    3    3    0  502  0.30287221781E+03  0.31498517007E+03 -0.82963316445E+03  0.93767714339E+03  0.25500000920E-02 0. -1.
</event>
<event>
 5   0  0.2333979E-06  0.2614275E+04  0.7818609E-02  0.8363368E-01
        1   -1    0    0  501    0  0.00000000000E+00  0.00000000000E+00  0.19717543972E+04  0.19717543972E+04  0.50400001928E-02 0. -1.
       -1   -1    0    0    0  501  0.00000000000E+00  0.00000000000E+00 -0.86654254373E+03  0.86654254374E+03  0.50400001928E-02 0.  1.
    10030    2    1    2    0    0  0.00000000000E+00  0.00000000000E+00  0.11052118534E+04  0.28382969409E+04  0.26142754797E+04 0.  0.
        3    1    3    3  502    0 -0.40861538729E+03 -0.74531644595E+03 -0.52553881981E+03  0.99932687378E+03  0.10100000352E+00 0.  1.
       -3    1    3    3    0  502  0.40861538729E+03  0.74531644595E+03  0.16307506733E+04  0.18389700671E+04  0.10100000352E+00 0. -1.
</event>
<event>
 5   0  0.2456600E-06  0.2568658E+04  0.7818609E-02  0.8378926E-01
        1   -1    0    0  501    0  0.00000000000E+00  0.00000000000E+00  0.17381596128E+04  0.17381596128E+04  0.50400001928E-02 0.  1.
       -1   -1    0    0    0  501  0.00000000000E+00  0.00000000000E+00 -0.94899279781E+03  0.94899279782E+03  0.50400001928E-02 0. -1.
    10030    2    1    2    0    0  0.00000000000E+00  0.00000000000E+00  0.78916681503E+03  0.26871524107E+04  0.25686579796E+04 0.  0.
        5    1    3    3  502    0 -0.21026904337E+03  0.21168772179E+03  0.17013906055E+04  0.17273612375E+04  0.46999998093E+01 0.  1.
       -5    1    3    3    0  502  0.21026904337E+03 -0.21168772179E+03 -0.91222379050E+03  0.95979117318E+03  0.46999998093E+01 0. -1.
</event>
<event>
 5   0  0.2503292E-06  0.2595324E+04  0.7818609E-02  0.8369791E-01
        1   -1    0    0  501    0  0.00000000000E+00  0.00000000000E+00  0.13601192354E+04  0.13601192355E+04  0.50400001928E-02 0. -1.
       -1   -1    0    0    0  501  0.00000000000E+00  0.00000000000E+00 -0.12380728522E+04  0.12380728522E+04  0.50400001928E-02 0.  1.
    10030    2    1    2    0    0  0.00000000000E+00  0.00000000000E+00  0.12204638325E+03  0.25981920877E+04  0.25953240269E+04 0.  0.
        2    1    3    3  502    0  0.12161204920E+04 -0.32249389337E+03 -0.25709413803E+03  0.12841529341E+04  0.25500000920E-02 0.  1.
       -2    1    3    3    0  502 -0.12161204920E+04  0.32249389337E+03  0.37914052129E+03  0.13140391536E+04  0.25500000920E-02 0. -1.
</event>
<event>
 5   0  0.2456600E-06  0.2591076E+04  0.7818609E-02  0.8371239E-01
        1   -1    0    0  501    0  0.00000000000E+00  0.00000000000E+00  0.10129260549E+04  0.10129260549E+04  0.50400001928E-02 0. -1.
       -1   -1    0    0    0  501  0.00000000000E+00  0.00000000000E+00 -0.16569999938E+04  0.16569999938E+04  0.50400001928E-02 0.  1.
    10030    2    1    2    0    0  0.00000000000E+00  0.00000000000E+00 -0.64407393887E+03  0.26699260487E+04  0.25910758126E+04 0.  0.
        5    1    3    3  502    0  0.97829008202E+03 -0.48036756352E+03 -0.10437745131E+04  0.15090698476E+04  0.46999998093E+01 0.  1.
       -5    1    3    3    0  502 -0.97829008202E+03  0.48036756352E+03  0.39970057421E+03  0.11608562011E+04  0.46999998093E+01 0. -1.
</event>
<event>
 5   0  0.6158063E-06  0.2600996E+04  0.7818609E-02  0.8367863E-01
        2   -1    0    0  501    0  0.00000000000E+00  0.00000000000E+00  0.24575341347E+04  0.24575341347E+04  0.25500000920E-02 0. -1.
       -2   -1    0    0    0  501  0.00000000000E+00  0.00000000000E+00 -0.68820839389E+03  0.68820839389E+03  0.25500000920E-02 0.  1.
    10030    2    1    2    0    0  0.00000000000E+00  0.00000000000E+00  0.17693257408E+04  0.31457425286E+04  0.26009964396E+04 0.  0.
        2    1    3    3  502    0  0.44295384218E+03 -0.91953878708E+02  0.23592999641E+04  0.24022822363E+04  0.25500000920E-02 0. -1.
       -2    1    3    3    0  502 -0.44295384218E+03  0.91953878708E+02 -0.58997422328E+03  0.74346029232E+03  0.25500000920E-02 0.  1.
</event>
<event>
 5   0  0.6158063E-06  0.2597341E+04  0.7818609E-02  0.8369105E-01
       -2   -1    0    0    0  501  0.00000000000E+00  0.00000000000E+00  0.15713760294E+04  0.15713760294E+04  0.25500000920E-02 0. -1.
        2   -1    0    0  501    0  0.00000000000E+00  0.00000000000E+00 -0.10732915450E+04  0.10732915450E+04  0.25500000920E-02 0.  1.
    10030    2    1    2    0    0  0.00000000000E+00  0.00000000000E+00  0.49808448433E+03  0.26446675744E+04  0.25973406449E+04 0.  0.
        2    1    3    3  502    0 -0.12912761417E+04  0.12875366666E+03  0.19739296801E+03  0.13126064013E+04  0.25500000920E-02 0.  1.
       -2    1    3    3    0  502  0.12912761417E+04 -0.12875366666E+03  0.30069151632E+03  0.13320611731E+04  0.25500000920E-02 0. -1.
</event>
<event>
 5   0  0.2471488E-06  0.2493454E+04  0.7818609E-02  0.8405321E-01
        1   -1    0    0  501    0  0.00000000000E+00  0.00000000000E+00  0.28163664827E+04  0.28163664827E+04  0.50400001928E-02 0.  1.
       -1   -1    0    0    0  501  0.00000000000E+00  0.00000000000E+00 -0.55189137984E+03  0.55189137986E+03  0.50400001928E-02 0. -1.
    10030    2    1    2    0    0  0.00000000000E+00  0.00000000000E+00  0.22644751028E+04  0.33682578625E+04  0.24934541378E+04 0.  0.
        4    1    3    3  502    0 -0.60178570697E+03  0.42268491618E+03 -0.22770236950E+03  0.76984320317E+03  0.12699999809E+01 0. -1.
       -4    1    3    3    0  502  0.60178570697E+03 -0.42268491618E+03  0.24921774723E+04  0.25984146594E+04  0.12699999809E+01 0.  1.
</event>
<event>
 5   0  0.5942229E-06  0.2591247E+04  0.7818609E-02  0.8371181E-01
        2   -1    0    0  501    0  0.00000000000E+00  0.00000000000E+00  0.13613867768E+04  0.13613867768E+04  0.25500000920E-02 0.  1.
       -2   -1    0    0    0  501  0.00000000000E+00  0.00000000000E+00 -0.12330366309E+04  0.12330366309E+04  0.25500000920E-02 0. -1.
    10030    2    1    2    0    0  0.00000000000E+00  0.00000000000E+00  0.12835014593E+03  0.25944234076E+04  0.25912466224E+04 0.  0.
        4    1    3    3  502    0 -0.59801917375E+03  0.17056102253E+03  0.12021951976E+04  0.13535113227E+04  0.12699999809E+01 0.  1.
       -4    1    3    3    0  502  0.59801917375E+03 -0.17056102253E+03 -0.10738450517E+04  0.12409120849E+04  0.12699999809E+01 0. -1.
</event>
<event>
 5   0  0.2072125E-06  0.2610895E+04  0.7818609E-02  0.8364510E-01
       -3   -1    0    0    0  501  0.00000000000E+00  0.00000000000E+00  0.82836243268E+03  0.82836243884E+03  0.10100000352E+00 0.  1.
        3   -1    0    0  501    0  0.00000000000E+00  0.00000000000E+00 -0.20573045545E+04  0.20573045569E+04  0.10100000352E+00 0. -1.
    10030    2    1    2    0    0  0.00000000000E+00  0.00000000000E+00 -0.12289421218E+04  0.28856669958E+04  0.26108954923E+04 0.  0.
        2    1    3    3  502    0  0.76956476943E+03 -0.91019943940E+03 -0.12029540553E+04  0.16934554653E+04  0.25500000920E-02 0. -1.
       -2    1    3    3    0  502 -0.76956476943E+03  0.91019943940E+03 -0.25988066523E+02  0.11922115305E+04  0.25500000920E-02 0.  1.
</event>
<event>
 5   0  0.2456600E-06  0.2602357E+04  0.7818609E-02  0.8367401E-01
        1   -1    0    0  501    0  0.00000000000E+00  0.00000000000E+00  0.13766132331E+04  0.13766132331E+04  0.50400001928E-02 0.  1.
       -1   -1    0    0    0  501  0.00000000000E+00  0.00000000000E+00 -0.12298774209E+04  0.12298774209E+04  0.50400001928E-02 0. -1.
    10030    2    1    2    0    0  0.00000000000E+00  0.00000000000E+00  0.14673581221E+03  0.26064906541E+04  0.26023570337E+04 0.  0.
        5    1    3    3  502    0  0.53064090501E+03  0.68794000565E+03 -0.89677903922E+03  0.12486296315E+04  0.46999998093E+01 0. -1.
       -5    1    3    3    0  502 -0.53064090501E+03 -0.68794000565E+03  0.10435148514E+04  0.13578610226E+04  0.46999998093E+01 0.  1.
</event>
<event>
 5   0  0.2333979E-06  0.2595825E+04  0.7818609E-02  0.8369621E-01
       -1   -1    0    0    0  501  0.00000000000E+00  0.00000000000E+00  0.73709598717E+03  0.73709598719E+03  0.50400001928E-02 0. -1.
        1   -1    0    0  501    0  0.00000000000E+00  0.00000000000E+00 -0.22854246853E+04  0.22854246853E+04  0.50400001928E-02 0.  1.
    10030    2    1    2    0    0  0.00000000000E+00  0.00000000000E+00 -0.15483286981E+04  0.30225206725E+04  0.25958253905E+04 0.  0.
        3    1    3    3  502    0 -0.19726126148E+02  0.53862909860E+03  0.60062328177E+03  0.80700604875E+03  0.10100000352E+00 0. -1.
       -3    1    3    3    0  502  0.19726126148E+02 -0.53862909860E+03 -0.21489519799E+04  0.22155146237E+04  0.10100000352E+00 0.  1.
</event>
<event>
 5   0  0.6158063E-06  0.2599396E+04  0.7818609E-02  0.8368406E-01
        2   -1    0    0  501    0  0.00000000000E+00  0.00000000000E+00  0.20094826955E+04  0.20094826955E+04  0.25500000920E-02 0.  1.
       -2   -1    0    0    0  501  0.00000000000E+00  0.00000000000E+00 -0.84062198081E+03  0.84062198081E+03  0.25500000920E-02 0. -1.
    10030    2    1    2    0    0  0.00000000000E+00  0.00000000000E+00  0.11688607147E+04  0.28501046763E+04  0.25993963329E+04 0.  0.
        2    1    3    3  502    0 -0.37923767530E+03 -0.15257590143E+03  0.19371630915E+04  0.19798235940E+04  0.25500000920E-02 0.  1.
       -2    1    3    3    0  502  0.37923767530E+03  0.15257590143E+03 -0.76830237683E+03  0.87028108236E+03  0.25500000920E-02 0. -1.
</event>
<event>
 5   0  0.2440590E-06  0.2692255E+04  0.7818609E-02  0.8337522E-01
       -1   -1    0    0    0  501  0.00000000000E+00  0.00000000000E+00  0.70725297040E+03  0.70725297041E+03  0.50400001928E-02 0.  1.
        1   -1    0    0  501    0  0.00000000000E+00  0.00000000000E+00 -0.25621084867E+04  0.25621084867E+04  0.50400001928E-02 0. -1.
    10030    2    1    2    0    0  0.00000000000E+00  0.00000000000E+00 -0.18548555163E+04  0.32693614571E+04  0.26922546965E+04 0.  0.
        1    1    3    3  502    0  0.10399486739E+04  0.61230805868E+03 -0.20323395606E+03  0.12238130756E+04  0.50400001928E-02 0. -1.
       -1    1    3    3    0  502 -0.10399486739E+04 -0.61230805868E+03 -0.16516215602E+04  0.20455483815E+04  0.50400001928E-02 0.  1.
</event>
<event>
 5   0  0.6158063E-06  0.2601545E+04  0.7818609E-02  0.8367677E-01
        2   -1    0    0  501    0  0.00000000000E+00  0.00000000000E+00  0.10265011699E+04  0.10265011699E+04  0.25500000920E-02 0. -1.
       -2   -1    0    0    0  501  0.00000000000E+00  0.00000000000E+00 -0.16483261327E+04  0.16483261327E+04  0.25500000920E-02 0.  1.
    10030    2    1    2    0    0  0.00000000000E+00  0.00000000000E+00 -0.62182496275E+03  0.26748273026E+04  0.26015446977E+04 0.  0.
        2    1    3    3  502    0 -0.38878701604E+03 -0.10775157522E+04  0.32273755137E+03  0.11901071663E+04  0.25500000920E-02 0. -1.
       -2    1    3    3    0  502  0.38878701604E+03  0.10775157522E+04 -0.94456251412E+03  0.14847201363E+04  0.25500000920E-02 0.  1.
</event>
<event>
 5   0  0.6158063E-06  0.2599857E+04  0.7818609E-02  0.8368250E-01
       -2   -1    0    0    0  501  0.00000000000E+00  0.00000000000E+00  0.16099087869E+04  0.16099087869E+04  0.25500000920E-02 0.  1.
        2   -1    0    0  501    0  0.00000000000E+00  0.00000000000E+00 -0.10496336459E+04  0.10496336459E+04  0.25500000920E-02 0. -1.
    10030    2    1    2    0    0  0.00000000000E+00  0.00000000000E+00  0.56027514108E+03  0.26595424328E+04  0.25998572496E+04 0.  0.
        2    1    3    3  502    0  0.82205376618E+03 -0.34693021793E+03  0.12471872714E+04  0.15334956996E+04  0.25500000920E-02 0.  1.
       -2    1    3    3    0  502 -0.82205376618E+03  0.34693021793E+03 -0.68691213033E+03  0.11260467332E+04  0.25500000920E-02 0. -1.
</event>
<event>
 5   0  0.2333979E-06  0.2601493E+04  0.7818609E-02  0.8367694E-01
       -1   -1    0    0    0  501  0.00000000000E+00  0.00000000000E+00  0.99125487322E+03  0.99125487323E+03  0.50400001928E-02 0. -1.
        1   -1    0    0  501    0  0.00000000000E+00  0.00000000000E+00 -0.17068687081E+04  0.17068687081E+04  0.50400001928E-02 0.  1.
    10030    2    1    2    0    0  0.00000000000E+00  0.00000000000E+00 -0.71561383487E+03  0.26981235813E+04  0.26014933595E+04 0.  0.
        3    1    3    3  502    0  0.81917367855E+03  0.29559943927E+03  0.64426829109E+03  0.10832849049E+04  0.10100000352E+00 0. -1.
       -3    1    3    3    0  502 -0.81917367855E+03 -0.29559943927E+03 -0.13598821260E+04  0.16148386764E+04  0.10100000352E+00 0.  1.
</event>
<event>
 5   0  0.2440590E-06  0.2630657E+04  0.7818609E-02  0.8357862E-01
        1   -1    0    0  501    0  0.00000000000E+00  0.00000000000E+00  0.28114050960E+04  0.28114050960E+04  0.50400001928E-02 0.  1.
       -1   -1    0    0    0  501  0.00000000000E+00  0.00000000000E+00 -0.61538240450E+03  0.61538240452E+03  0.50400001928E-02 0. -1.
    10030    2    1    2    0    0  0.00000000000E+00  0.00000000000E+00  0.21960226915E+04  0.34267875005E+04  0.26306571255E+04 0.  0.
        1    1    3    3  502    0  0.22649459631E+03  0.12894106437E+04  0.12638589924E+04  0.18196755653E+04  0.50400001928E-02 0.  1.
       -1    1    3    3    0  502 -0.22649459631E+03 -0.12894106437E+04  0.93216369911E+03  0.16071119352E+04  0.50400001928E-02 0. -1.
</event>
<event>
 5   0  0.2333979E-06  0.2596544E+04  0.7818609E-02  0.8369376E-01
       -1   -1    0    0    0  501  0.00000000000E+00  0.00000000000E+00  0.87990439037E+03  0.87990439038E+03  0.50400001928E-02 0. -1.
        1   -1    0    0  501    0  0.00000000000E+00  0.00000000000E+00 -0.19155599644E+04  0.19155599644E+04  0.50400001928E-02 0.  1.
    10030    2    1    2    0    0  0.00000000000E+00  0.00000000000E+00 -0.10356555740E+04  0.27954643547E+04  0.25965435661E+04 0.  0.
        3    1    3    3  502    0  0.29870884488E+03  0.12274371152E+04 -0.19541815986E+03  0.12782867883E+04  0.10100000352E+00 0. -1.
       -3    1    3    3    0  502 -0.29870884488E+03 -0.12274371152E+04 -0.84023741413E+03  0.15171775664E+04  0.10100000352E+00 0.  1.
</event>
<event>
 5   0  0.2456600E-06  0.2590129E+04  0.7818609E-02  0.8371562E-01
       -1   -1    0    0    0  501  0.00000000000E+00  0.00000000000E+00  0.72076667206E+03  0.72076667207E+03  0.50400001928E-02 0.  1.
        1   -1    0    0  501    0  0.00000000000E+00  0.00000000000E+00 -0.23269550971E+04  0.23269550971E+04  0.50400001928E-02 0. -1.
    10030    2    1    2    0    0  0.00000000000E+00  0.00000000000E+00 -0.16061884251E+04  0.30477217692E+04  0.25901287083E+04 0.  0.
        5    1    3    3  502    0 -0.10515464511E+04 -0.43621659355E+03 -0.15295233195E+04  0.19066983322E+04  0.46999998093E+01 0. -1.
       -5    1    3    3    0  502  0.10515464511E+04  0.43621659355E+03 -0.76665105602E+02  0.11410234370E+04  0.46999998093E+01 0.  1.
</event>
<event>
 5   0  0.2471488E-06  0.2603238E+04  0.7818609E-02  0.8367102E-01
        1   -1    0    0  501    0  0.00000000000E+00  0.00000000000E+00  0.17687597899E+04  0.17687597899E+04  0.50400001928E-02 0. -1.
       -1   -1    0    0    0  501  0.00000000000E+00  0.00000000000E+00 -0.95785283744E+03  0.95785283745E+03  0.50400001928E-02 0.  1.
    10030    2    1    2    0    0  0.00000000000E+00  0.00000000000E+00  0.81090695250E+03  0.27266126274E+04  0.26032376638E+04 0.  0.
        4    1    3    3  502    0 -0.39261343164E+03  0.70923249034E+03 -0.66116792967E+03  0.10460882736E+04  0.12699999809E+01 0.  1.
       -4    1    3    3    0  502  0.39261343164E+03 -0.70923249034E+03  0.14720748822E+04  0.16805243538E+04  0.12699999809E+01 0. -1.
</event>
<event>
 5   0  0.2471488E-06  0.2571408E+04  0.7818609E-02  0.8377979E-01
        1   -1    0    0  501    0  0.00000000000E+00  0.00000000000E+00  0.12597730087E+04  0.12597730087E+04  0.50400001928E-02 0. -1.
       -1   -1    0    0    0  501  0.00000000000E+00  0.00000000000E+00 -0.13121684231E+04  0.13121684231E+04  0.50400001928E-02 0.  1.
    10030    2    1    2    0    0  0.00000000000E+00  0.00000000000E+00 -0.52395414481E+02  0.25719414318E+04  0.25714076785E+04 0.  0.
        4    1    3    3  502    0 -0.10464470394E+03 -0.11776883081E+04 -0.53140896216E+03  0.12962628449E+04  0.12699999809E+01 0. -1.
       -4    1    3    3    0  502  0.10464470394E+03  0.11776883081E+04  0.47901354768E+03  0.12756785869E+04  0.12699999809E+01 0.  1.
</event>
<event>
 5   0  0.5940748E-06  0.2600987E+04  0.7818609E-02  0.8367866E-01
       -2   -1    0    0    0  501  0.00000000000E+00  0.00000000000E+00  0.12739719074E+04  0.12739719074E+04  0.25500000920E-02 0. -1.
        2   -1    0    0  501    0  0.00000000000E+00  0.00000000000E+00 -0.13275671610E+04  0.13275671610E+04  0.25500000920E-02 0.  1.
    10030    2    1    2    0    0  0.00000000000E+00  0.00000000000E+00 -0.53595253534E+02  0.26015390684E+04  0.26009869422E+04 0.  0.
        1    1    3    3  502    0 -0.59199558613E+03  0.27040194124E+03 -0.11529617127E+04  0.13239700506E+04  0.50400001928E-02 0.  1.
       -1    1    3    3    0  502  0.59199558613E+03 -0.27040194124E+03  0.10993664592E+04  0.12775690178E+04  0.50400001928E-02 0. -1.
</event>
<event>
 5   0  0.6173140E-06  0.2590999E+04  0.7818609E-02  0.8371265E-01
       -2   -1    0    0    0  501  0.00000000000E+00  0.00000000000E+00  0.15108292181E+04  0.15108292181E+04  0.25500000920E-02 0. -1.
        2   -1    0    0  501    0  0.00000000000E+00  0.00000000000E+00 -0.11108591904E+04  0.11108591904E+04  0.25500000920E-02 0.  1.
    10030    2    1    2    0    0  0.00000000000E+00  0.00000000000E+00  0.39997002763E+03  0.26216884085E+04  0.25909986662E+04 0.  0.
        3    1    3    3  502    0  0.44872304578E+03  0.69261678685E+02  0.14276863055E+04  0.14981447690E+04  0.10100000352E+00 0. -1.
       -3    1    3    3    0  502 -0.44872304578E+03 -0.69261678685E+02 -0.10277162778E+04  0.11235436395E+04  0.10100000352E+00 0.  1.
</event>
<event>
 5   0  0.2456600E-06  0.2595065E+04  0.7818609E-02  0.8369880E-01
        1   -1    0    0  501    0  0.00000000000E+00  0.00000000000E+00  0.11414476739E+04  0.11414476739E+04  0.50400001928E-02 0.  1.
       -1   -1    0    0    0  501  0.00000000000E+00  0.00000000000E+00 -0.14749603272E+04  0.14749603272E+04  0.50400001928E-02 0. -1.
    10030    2    1    2    0    0  0.00000000000E+00  0.00000000000E+00 -0.33351265328E+03  0.26164080011E+04  0.25950645730E+04 0.  0.
        5    1    3    3  502    0 -0.12754115907E+03  0.12443911608E+04  0.18074030340E+03  0.12639087213E+04  0.46999998093E+01 0.  1.
       -5    1    3    3    0  502  0.12754115907E+03 -0.12443911608E+04 -0.51425295668E+03  0.13524992798E+04  0.46999998093E+01 0. -1.
</event>
<event>
 5   0  0.6158063E-06  0.2534317E+04  0.7818609E-02  0.8390861E-01
       -2   -1    0    0    0  501  0.00000000000E+00  0.00000000000E+00  0.15425626448E+04  0.15425626448E+04  0.25500000920E-02 0.  1.
        2   -1    0    0  501    0  0.00000000000E+00  0.00000000000E+00 -0.10409242531E+04  0.10409242531E+04  0.25500000920E-02 0. -1.
    10030    2    1    2    0    0  0.00000000000E+00  0.00000000000E+00  0.50163839172E+03  0.25834868979E+04  0.25343171616E+04 0.  0.
        2    1    3    3  502    0  0.32235032306E+02 -0.86540042066E+02 -0.10374892795E+04  0.10415912256E+04  0.25500000920E-02 0. -1.
       -2    1    3    3    0  502 -0.32235032306E+02  0.86540042066E+02  0.15391276712E+04  0.15418956723E+04  0.25500000920E-02 0.  1.
</event>
<event>
 5   0  0.5942229E-06  0.2603620E+04  0.7818609E-02  0.8366973E-01
       -2   -1    0    0    0  501  0.00000000000E+00  0.00000000000E+00  0.11525805653E+04  0.11525805653E+04  0.25500000920E-02 0.  1.
        2   -1    0    0  501    0  0.00000000000E+00  0.00000000000E+00 -0.14703608410E+04  0.14703608410E+04  0.25500000920E-02 0. -1.
    10030    2    1    2    0    0  0.00000000000E+00  0.00000000000E+00 -0.31778027563E+03  0.26229414063E+04  0.26036200409E+04 0.  0.
        4    1    3    3  502    0  0.82617762292E+03  0.73005009021E+03  0.53846431856E+03  0.12269833064E+04  0.12699999809E+01 0.  1.
       -4    1    3    3    0  502 -0.82617762292E+03 -0.73005009021E+03 -0.85624459419E+03  0.13959581000E+04  0.12699999809E+01 0. -1.
</event>
<event>
 5   0  0.2471488E-06  0.2599916E+04  0.7818609E-02  0.8368230E-01
       -1   -1    0    0    0  501  0.00000000000E+00  0.00000000000E+00  0.11287520050E+04  0.11287520050E+04  0.50400001928E-02 0. -1.
        1   -1    0    0  501    0  0.00000000000E+00  0.00000000000E+00 -0.14971326150E+04  0.14971326151E+04  0.50400001928E-02 0.  1.
    10030    2    1    2    0    0  0.00000000000E+00  0.00000000000E+00 -0.36838061002E+03  0.26258846201E+04  0.25999164918E+04 0.  0.
        4    1    3    3  502    0  0.41900705101E+02 -0.13392695199E+03  0.11210791807E+04  0.11298284117E+04  0.12699999809E+01 0. -1.
       -4    1    3    3    0  502 -0.41900705101E+02  0.13392695199E+03 -0.14894597907E+04  0.14960562084E+04  0.12699999809E+01 0.  1.
</event>
<event>
 5   0  0.6161834E-06  0.2597181E+04  0.7818609E-02  0.8369159E-01
        2   -1    0    0  501    0  0.00000000000E+00  0.00000000000E+00  0.20770276528E+04  0.20770276528E+04  0.25500000920E-02 0.  1.
       -2   -1    0    0    0  501  0.00000000000E+00  0.00000000000E+00 -0.81189950376E+03  0.81189950377E+03  0.25500000920E-02 0. -1.
    10030    2    1    2    0    0  0.00000000000E+00  0.00000000000E+00  0.12651281490E+04  0.28889271566E+04  0.25971813341E+04 0.  0.
        5    1    3    3  502    0 -0.71978356534E+03  0.86751316158E+02 -0.56581601151E+03  0.91966516769E+03  0.46999998093E+01 0. -1.
       -5    1    3    3    0  502  0.71978356534E+03 -0.86751316158E+02  0.18309441605E+04  0.19692619889E+04  0.46999998093E+01 0.  1.
</event>
<event>
 5   0  0.5940748E-06  0.2633342E+04  0.7818609E-02  0.8356963E-01
        2   -1    0    0  501    0  0.00000000000E+00  0.00000000000E+00  0.19572271578E+04  0.19572271578E+04  0.25500000920E-02 0. -1.
       -2   -1    0    0    0  501  0.00000000000E+00  0.00000000000E+00 -0.88575417749E+03  0.88575417749E+03  0.25500000920E-02 0.  1.
    10030    2    1    2    0    0  0.00000000000E+00  0.00000000000E+00  0.10714729803E+04  0.28429813352E+04  0.26333417031E+04 0.  0.
        1    1    3    3  502    0 -0.26792235527E+03  0.31252694598E+03  0.18859681986E+04  0.19303708262E+04  0.50400001928E-02 0. -1.
       -1    1    3    3    0  502  0.26792235527E+03 -0.31252694598E+03 -0.81449521837E+03  0.91261050903E+03  0.50400001928E-02 0.  1.
</event>
<event>
 5   0  0.2471488E-06  0.2598754E+04  0.7818609E-02  0.8368625E-01
        1   -1    0    0  501    0  0.00000000000E+00  0.00000000000E+00  0.92871213248E+03  0.92871213249E+03  0.50400001928E-02 0. -1.
       -1   -1    0    0    0  501  0.00000000000E+00  0.00000000000E+00 -0.18179807426E+04  0.18179807426E+04  0.50400001928E-02 0.  1.
    10030    2    1    2    0    0  0.00000000000E+00  0.00000000000E+00 -0.88926861014E+03  0.27466928751E+04  0.25987541417E+04 0.  0.
        4    1    3    3  502    0 -0.73720447201E+03 -0.94811867119E+03  0.79562717814E+02  0.12036325383E+04  0.12699999809E+01 0. -1.
       -4    1    3    3    0  502  0.73720447201E+03  0.94811867119E+03 -0.96883132796E+03  0.15430603368E+04  0.12699999809E+01 0.  1.
</event>
<event>
 5   0  0.2333979E-06  0.2621974E+04  0.7818609E-02  0.8360775E-01
       -1   -1    0    0    0  501  0.00000000000E+00  0.00000000000E+00  0.14291687150E+04  0.14291687150E+04  0.50400001928E-02 0.  1.
        1   -1    0    0  501    0  0.00000000000E+00  0.00000000000E+00 -0.12025779346E+04  0.12025779346E+04  0.50400001928E-02 0. -1.
    10030    2    1    2    0    0  0.00000000000E+00  0.00000000000E+00  0.22659078041E+03  0.26317466497E+04  0.26219738836E+04 0.  0.
        3    1    3    3  502    0  0.23956417194E+03  0.97459336288E+03  0.95992224564E+03  0.13887670587E+04  0.10100000352E+00 0.  1.
       -3    1    3    3    0  502 -0.23956417194E+03 -0.97459336288E+03 -0.73333146523E+03  0.12429795910E+04  0.10100000352E+00 0. -1.
</event>
<event>
 5   0  0.5942229E-06  0.2643494E+04  0.7818609E-02  0.8353576E-01
       -2   -1    0    0    0  501  0.00000000000E+00  0.00000000000E+00  0.10576848458E+04  0.10576848458E+04  0.25500000920E-02 0. -1.
        2   -1    0    0  501    0  0.00000000000E+00  0.00000000000E+00 -0.16517351873E+04  0.16517351873E+04  0.25500000920E-02 0.  1.
    10030    2    1    2    0    0  0.00000000000E+00  0.00000000000E+00 -0.59405034151E+03  0.27094200332E+04  0.26434941097E+04 0.  0.
        4    1    3    3  502    0 -0.51621239511E+02  0.57253854759E+03 -0.15168956412E+04  0.16221711192E+04  0.12699999809E+01 0.  1.
       -4    1    3    3    0  502  0.51621239511E+02 -0.57253854759E+03  0.92284529968E+03  0.10872489140E+04  0.12699999809E+01 0. -1.
</event>
<event>
 5   0  0.6173140E-06  0.2596033E+04  0.7818609E-02  0.8369550E-01
       -2   -1    0    0    0  501  0.00000000000E+00  0.00000000000E+00  0.11188669715E+04  0.11188669715E+04  0.25500000920E-02 0.  1.
        2   -1    0    0  501    0  0.00000000000E+00  0.00000000000E+00 -0.15058512621E+04  0.15058512621E+04  0.25500000920E-02 0. -1.
    10030    2    1    2    0    0  0.00000000000E+00  0.00000000000E+00 -0.38698429060E+03  0.26247182336E+04  0.25960333135E+04 0.  0.
        3    1    3    3  502    0  0.78247657751E+03 -0.93166007304E+03 -0.65080309260E+03  0.13797843171E+04  0.10100000352E+00 0. -1.
       -3    1    3    3    0  502 -0.78247657751E+03  0.93166007304E+03  0.26381880200E+03  0.12449339165E+04  0.10100000352E+00 0.  1.
</event>
<event>
 5   0  0.6158063E-06  0.2607736E+04  0.7818609E-02  0.8365578E-01
        2   -1    0    0  501    0  0.00000000000E+00  0.00000000000E+00  0.15585448903E+04  0.15585448903E+04  0.25500000920E-02 0. -1.
       -2   -1    0    0    0  501  0.00000000000E+00  0.00000000000E+00 -0.10908071117E+04  0.10908071117E+04  0.25500000920E-02 0.  1.
    10030    2    1    2    0    0  0.00000000000E+00  0.00000000000E+00  0.46773777852E+03  0.26493520020E+04  0.26077360681E+04 0.  0.
        2    1    3    3  502    0  0.23091493713E+03  0.93751168646E+03 -0.65636946314E+03  0.11675062067E+04  0.25500000920E-02 0.  1.
       -2    1    3    3    0  502 -0.23091493713E+03 -0.93751168646E+03  0.11241072417E+04  0.14818457953E+04  0.25500000920E-02 0. -1.
</event>
<event>
 5   0  0.6158063E-06  0.2576137E+04  0.7818609E-02  0.8376352E-01
       -2   -1    0    0    0  501  0.00000000000E+00  0.00000000000E+00  0.12877187788E+04  0.12877187788E+04  0.25500000920E-02 0. -1.
        2   -1    0    0  501    0  0.00000000000E+00  0.00000000000E+00 -0.12884187230E+04  0.12884187230E+04  0.25500000920E-02 0.  1.
    10030    2    1    2    0    0  0.00000000000E+00  0.00000000000E+00 -0.69994425819E+00  0.25761375018E+04  0.25761374067E+04 0.  0.
        2    1    3    3  502    0  0.61401235066E+03 -0.50124643418E+03  0.10149637263E+04  0.12877928871E+04  0.25500000920E-02 0. -1.
       -2    1    3    3    0  502 -0.61401235066E+03  0.50124643418E+03 -0.10156636705E+04  0.12883446147E+04  0.25500000920E-02 0.  1.
</event>
<event>
 5   0  0.5942229E-06  0.2592814E+04  0.7818609E-02  0.8370646E-01
       -2   -1    0    0    0  501  0.00000000000E+00  0.00000000000E+00  0.19821970268E+04  0.19821970268E+04  0.25500000920E-02 0.  1.
        2   -1    0    0  501    0  0.00000000000E+00  0.00000000000E+00 -0.84788271530E+03  0.84788271530E+03  0.25500000920E-02 0. -1.
    10030    2    1    2    0    0  0.00000000000E+00  0.00000000000E+00  0.11343143115E+04  0.28300797421E+04  0.25928136048E+04 0.  0.
        4    1    3    3  502    0  0.22029853242E+03 -0.98137754400E+03 -0.32563837627E+03  0.10572016327E+04  0.12699999809E+01 0. -1.
       -4    1    3    3    0  502 -0.22029853242E+03  0.98137754400E+03  0.14599526878E+04  0.17728781094E+04  0.12699999809E+01 0.  1.
</event>
<event>
 5   0  0.6161834E-06  0.2596209E+04  0.7818609E-02  0.8369490E-01
        2   -1    0    0  501    0  0.00000000000E+00  0.00000000000E+00  0.94975869679E+03  0.94975869679E+03  0.25500000920E-02 0. -1.
       -2   -1    0    0    0  501  0.00000000000E+00  0.00000000000E+00 -0.17742138900E+04  0.17742138900E+04  0.25500000920E-02 0.  1.
    10030    2    1    2    0    0  0.00000000000E+00  0.00000000000E+00 -0.82445519317E+03  0.27239725868E+04  0.25962088298E+04 0.  0.
        5    1    3    3  502    0 -0.10720887489E+04 -0.57934116684E+02 -0.11777368664E+04  0.15936802891E+04  0.46999998093E+01 0.  1.
       -5    1    3    3    0  502  0.10720887489E+04  0.57934116684E+02  0.35328167326E+03  0.11302922976E+04  0.46999998093E+01 0. -1.
</event>
<event>
 5   0  0.6161834E-06  0.2607679E+04  0.7818609E-02  0.8365597E-01
        2   -1    0    0  501    0  0.00000000000E+00  0.00000000000E+00  0.15775794291E+04  0.15775794291E+04  0.25500000920E-02 0. -1.
       -2   -1    0    0    0  501  0.00000000000E+00  0.00000000000E+00 -0.10775987097E+04  0.10775987097E+04  0.25500000920E-02 0.  1.
    10030    2    1    2    0    0  0.00000000000E+00  0.00000000000E+00  0.49998071946E+03  0.26551781388E+04  0.26076790886E+04 0.  0.
        5    1    3    3  502    0 -0.42925576286E+03  0.11719636910E+04 -0.13399427598E+03  0.12552832186E+04  0.46999998093E+01 0.  1.
       -5    1    3    3    0  502  0.42925576286E+03 -0.11719636910E+04  0.63397499543E+03  0.13998949202E+04  0.46999998093E+01 0. -1.
</event>
<event>
 5   0  0.6173140E-06  0.2562538E+04  0.7818609E-02  0.8381039E-01
        2   -1    0    0  501    0  0.00000000000E+00  0.00000000000E+00  0.12051346339E+04  0.12051346340E+04  0.25500000920E-02 0. -1.
       -2   -1    0    0    0  501  0.00000000000E+00  0.00000000000E+00 -0.13622134700E+04  0.13622134700E+04  0.25500000920E-02 0.  1.
    10030    2    1    2    0    0  0.00000000000E+00  0.00000000000E+00 -0.15707883603E+03  0.25673481039E+04  0.25625382975E+04 0.  0.
        3    1    3    3  502    0  0.40862961937E+03  0.11242757911E+04 -0.53839592778E+03  0.13118095920E+04  0.10100000352E+00 0.  1.
       -3    1    3    3    0  502 -0.40862961937E+03 -0.11242757911E+04  0.38131709175E+03  0.12555385120E+04  0.10100000352E+00 0. -1.
</event>
<event>
 5   0  0.2440590E-06  0.2591497E+04  0.7818609E-02  0.8371095E-01
        1   -1    0    0  501    0  0.00000000000E+00  0.00000000000E+00  0.14814789056E+04  0.14814789056E+04  0.50400001928E-02 0.  1.
       -1   -1    0    0    0  501  0.00000000000E+00  0.00000000000E+00 -0.11333027732E+04  0.11333027732E+04  0.50400001928E-02 0. -1.
    10030    2    1    2    0    0  0.00000000000E+00  0.00000000000E+00  0.34817613233E+03  0.26147816788E+04  0.25914969822E+04 0.  0.
        1    1    3    3  502    0  0.11446637294E+04  0.23197827922E+02  0.78631085389E+03  0.13889125068E+04  0.50400001928E-02 0.  1.
       -1    1    3    3    0  502 -0.11446637294E+04 -0.23197827922E+02 -0.43813472156E+03  0.12258691720E+04  0.50400001928E-02 0. -1.
</event>
<event>
 5   0  0.2440590E-06  0.2599709E+04  0.7818609E-02  0.8368300E-01
       -1   -1    0    0    0  501  0.00000000000E+00  0.00000000000E+00  0.80968450654E+03  0.80968450656E+03  0.50400001928E-02 0. -1.
        1   -1    0    0  501    0  0.00000000000E+00  0.00000000000E+00 -0.20867653193E+04  0.20867653193E+04  0.50400001928E-02 0.  1.
    10030    2    1    2    0    0  0.00000000000E+00  0.00000000000E+00 -0.12770808127E+04  0.28964498258E+04  0.25997088667E+04 0.  0.
        1    1    3    3  502    0  0.81529369964E+02  0.28207600738E+03  0.77225250254E+03  0.82618874346E+03  0.50400001928E-02 0. -1.
       -1    1    3    3    0  502 -0.81529369964E+02 -0.28207600738E+03 -0.20493333153E+04  0.20702610824E+04  0.50400001928E-02 0.  1.
</event>
<event>
 5   0  0.6158063E-06  0.2613192E+04  0.7818609E-02  0.8363734E-01
        2   -1    0    0  501    0  0.00000000000E+00  0.00000000000E+00  0.17203250301E+04  0.17203250301E+04  0.25500000920E-02 0. -1.
       -2   -1    0    0    0  501  0.00000000000E+00  0.00000000000E+00 -0.99236681257E+03  0.99236681257E+03  0.25500000920E-02 0.  1.
    10030    2    1    2    0    0  0.00000000000E+00  0.00000000000E+00  0.72795821753E+03  0.27126918427E+04  0.26131922751E+04 0.  0.
        2    1    3    3  502    0 -0.92949607507E+03 -0.51915289421E+03 -0.42229794742E+03  0.11453463396E+04  0.25500000920E-02 0.  1.
       -2    1    3    3    0  502  0.92949607507E+03  0.51915289421E+03  0.11502561649E+04  0.15673455031E+04  0.25500000920E-02 0. -1.
</event>
<event>
 5   0  0.5942229E-06  0.2597564E+04  0.7818609E-02  0.8369029E-01
        2   -1    0    0  501    0  0.00000000000E+00  0.00000000000E+00  0.17367561633E+04  0.17367561633E+04  0.25500000920E-02 0.  1.
       -2   -1    0    0    0  501  0.00000000000E+00  0.00000000000E+00 -0.97125567331E+03  0.97125567332E+03  0.25500000920E-02 0. -1.
    10030    2    1    2    0    0  0.00000000000E+00  0.00000000000E+00  0.76550048995E+03  0.27080118366E+04  0.25975636868E+04 0.  0.
        4    1    3    3  502    0  0.32253814607E+03  0.12580941324E+04  0.38377286776E+03  0.13542949932E+04  0.12699999809E+01 0.  1.
       -4    1    3    3    0  502 -0.32253814607E+03 -0.12580941324E+04  0.38172762220E+03  0.13537168434E+04  0.12699999809E+01 0. -1.
</event>
<event>
 5   0  0.2456600E-06  0.2620534E+04  0.7818609E-02  0.8361259E-01
        1   -1    0    0  501    0  0.00000000000E+00  0.00000000000E+00  0.11652766012E+04  0.11652766012E+04  0.50400001928E-02 0. -1.
       -1   -1    0    0    0  501  0.00000000000E+00  0.00000000000E+00 -0.14732983642E+04  0.14732983642E+04  0.50400001928E-02 0.  1.
    10030    2    1    2    0    0  0.00000000000E+00  0.00000000000E+00 -0.30802176301E+03  0.26385749654E+04  0.26205343809E+04 0.  0.
        5    1    3    3  502    0 -0.32548460212E+03  0.12056702714E+04 -0.55322113704E+03  0.13658904591E+04  0.46999998093E+01 0.  1.
       -5    1    3    3    0  502  0.32548460212E+03 -0.12056702714E+04  0.24519937403E+03  0.12726845063E+04  0.46999998093E+01 0. -1.
</event>
<event>
 5   0  0.2072125E-06  0.2610031E+04  0.7818609E-02  0.8364802E-01
        3   -1    0    0  501    0  0.00000000000E+00  0.00000000000E+00  0.15580151642E+04  0.15580151674E+04  0.10100000352E+00 0.  1.
       -3   -1    0    0    0  501  0.00000000000E+00  0.00000000000E+00 -0.10930990509E+04  0.10930990556E+04  0.10100000352E+00 0. -1.
    10030    2    1    2    0    0  0.00000000000E+00  0.00000000000E+00  0.46491611324E+03  0.26511142230E+04  0.26100305805E+04 0.  0.
        5    1    3    3  502    0 -0.80016414275E+03  0.93548150856E+03  0.67246785393E+03  0.14027200051E+04  0.46999998093E+01 0.  1.
       -5    1    3    3    0  502  0.80016414275E+03 -0.93548150856E+03 -0.20755174069E+03  0.12483942179E+04  0.46999998093E+01 0. -1.
</event>
<event>
 5   0  0.5942229E-06  0.2607921E+04  0.7818609E-02  0.8365516E-01
       -2   -1    0    0    0  501  0.00000000000E+00  0.00000000000E+00  0.74809059752E+03  0.74809059753E+03  0.25500000920E-02 0. -1.
        2   -1    0    0  501    0  0.00000000000E+00  0.00000000000E+00 -0.22728704669E+04  0.22728704669E+04  0.25500000920E-02 0.  1.
    10030    2    1    2    0    0  0.00000000000E+00  0.00000000000E+00 -0.15247798694E+04  0.30209610644E+04  0.26079210308E+04 0.  0.
        4    1    3    3  502    0 -0.82967771536E+03  0.40747896773E+03 -0.18277883589E+04  0.20482226730E+04  0.12699999809E+01 0.  1.
       -4    1    3    3    0  502  0.82967771536E+03 -0.40747896773E+03  0.30300848951E+03  0.97273839141E+03  0.12699999809E+01 0. -1.
</event>
<event>
 5   0  0.2456600E-06  0.2588817E+04  0.7818609E-02  0.8372010E-01
        1   -1    0    0  501    0  0.00000000000E+00  0.00000000000E+00  0.13091547066E+04  0.13091547067E+04  0.50400001928E-02 0.  1.
       -1   -1    0    0    0  501  0.00000000000E+00  0.00000000000E+00 -0.12798281778E+04  0.12798281778E+04  0.50400001928E-02 0. -1.
    10030    2    1    2    0    0  0.00000000000E+00  0.00000000000E+00  0.29326528813E+02  0.25889828845E+04  0.25888167820E+04 0.  0.
        5    1    3    3  502    0 -0.69380927302E+03  0.78468893456E+03  0.77521384200E+03  0.13031065276E+04  0.46999998093E+01 0.  1.
       -5    1    3    3    0  502  0.69380927302E+03 -0.78468893456E+03 -0.74588731319E+03  0.12858763569E+04  0.46999998093E+01 0. -1.
</event>
<event>
 5   0  0.2471488E-06  0.2586472E+04  0.7818609E-02  0.8372811E-01
       -1   -1    0    0    0  501  0.00000000000E+00  0.00000000000E+00  0.76127532895E+03  0.76127532897E+03  0.50400001928E-02 0.  1.
        1   -1    0    0  501    0  0.00000000000E+00  0.00000000000E+00 -0.21969172646E+04  0.21969172646E+04  0.50400001928E-02 0. -1.
    10030    2    1    2    0    0  0.00000000000E+00  0.00000000000E+00 -0.14356419356E+04  0.29581925936E+04  0.25864716610E+04 0.  0.
        4    1    3    3  502    0 -0.18908458394E+03  0.79290330751E+03  0.43046710485E+03  0.92182003461E+03  0.12699999809E+01 0.  1.
       -4    1    3    3    0  502  0.18908458394E+03 -0.79290330751E+03 -0.18661090405E+04  0.20363725590E+04  0.12699999809E+01 0. -1.
</event>
<event>
 5   0  0.2440590E-06  0.2436312E+04  0.7818609E-02  0.8426033E-01
        1   -1    0    0  501    0  0.00000000000E+00  0.00000000000E+00  0.14908115539E+04  0.14908115539E+04  0.50400001928E-02 0. -1.
       -1   -1    0    0    0  501  0.00000000000E+00  0.00000000000E+00 -0.99536654145E+03  0.99536654146E+03  0.50400001928E-02 0.  1.
    10030    2    1    2    0    0  0.00000000000E+00  0.00000000000E+00  0.49544501247E+03  0.24861780954E+04  0.24363119180E+04 0.  0.
        1    1    3    3  502    0  0.46916078767E+03 -0.11194189976E+04  0.14219801655E+03  0.12220601511E+04  0.50400001928E-02 0.  1.
       -1    1    3    3    0  502 -0.46916078767E+03  0.11194189976E+04  0.35324699591E+03  0.12641179443E+04  0.50400001928E-02 0. -1.
</event>
<event>
 5   0  0.2440590E-06  0.2607664E+04  0.7818609E-02  0.8365603E-01
        1   -1    0    0  501    0  0.00000000000E+00  0.00000000000E+00  0.15442950161E+04  0.15442950161E+04  0.50400001928E-02 0. -1.
       -1   -1    0    0    0  501  0.00000000000E+00  0.00000000000E+00 -0.11008116749E+04  0.11008116750E+04  0.50400001928E-02 0.  1.
    10030    2    1    2    0    0  0.00000000000E+00  0.00000000000E+00  0.44348334116E+03  0.26451066911E+04  0.26076640760E+04 0.  0.
        1    1    3    3  502    0 -0.86664775731E+03 -0.72874432988E+03  0.87742185811E+03  0.14324858640E+04  0.50400001928E-02 0. -1.
       -1    1    3    3    0  502  0.86664775731E+03  0.72874432988E+03 -0.43393851695E+03  0.12126208270E+04  0.50400001928E-02 0.  1.
</event>
<event>
 5   0  0.2440590E-06  0.2600754E+04  0.7818609E-02  0.8367945E-01
        1   -1    0    0  501    0  0.00000000000E+00  0.00000000000E+00  0.13589729607E+04  0.13589729607E+04  0.50400001928E-02 0. -1.
       -1   -1    0    0    0  501  0.00000000000E+00  0.00000000000E+00 -0.12443076994E+04  0.12443076994E+04  0.50400001928E-02 0.  1.
    10030    2    1    2    0    0  0.00000000000E+00  0.00000000000E+00  0.11466526126E+03  0.26032806601E+04  0.26007541354E+04 0.  0.
        1    1    3    3  502    0  0.10388753115E+02 -0.13543364852E+03 -0.12371871586E+04  0.12446213339E+04  0.50400001928E-02 0.  1.
       -1    1    3    3    0  502 -0.10388753115E+02  0.13543364852E+03  0.13518524199E+04  0.13586593262E+04  0.50400001928E-02 0. -1.
</event>
<event>
 5   0  0.2503292E-06  0.2608593E+04  0.7818609E-02  0.8365288E-01
        1   -1    0    0  501    0  0.00000000000E+00  0.00000000000E+00  0.23744355402E+04  0.23744355402E+04  0.50400001928E-02 0.  1.
       -1   -1    0    0    0  501  0.00000000000E+00  0.00000000000E+00 -0.71646034112E+03  0.71646034113E+03  0.50400001928E-02 0. -1.
    10030    2    1    2    0    0  0.00000000000E+00  0.00000000000E+00  0.16579751991E+04  0.30908958813E+04  0.26085926452E+04 0.  0.
        2    1    3    3  502    0 -0.93925865444E+03  0.67321142364E+03  0.15455949112E+04  0.19298404262E+04  0.25500000920E-02 0.  1.
       -2    1    3    3    0  502  0.93925865444E+03 -0.67321142364E+03  0.11238028784E+03  0.11610554552E+04  0.25500000920E-02 0. -1.
</event>
<event>
 5   0  0.2456600E-06  0.2594558E+04  0.7818609E-02  0.8370052E-01
       -1   -1    0    0    0  501  0.00000000000E+00  0.00000000000E+00  0.83926285658E+03  0.83926285659E+03  0.50400001928E-02 0.  1.
        1   -1    0    0  501    0  0.00000000000E+00  0.00000000000E+00 -0.20052518375E+04  0.20052518375E+04  0.50400001928E-02 0. -1.
    10030    2    1    2    0    0  0.00000000000E+00  0.00000000000E+00 -0.11659889809E+04  0.28445146941E+04  0.25945584482E+04 0.  0.
        5    1    3    3  502    0 -0.36483733734E+03 -0.10205591998E+04  0.19861418110E+03  0.11018697954E+04  0.46999998093E+01 0.  1.
       -5    1    3    3    0  502  0.36483733734E+03  0.10205591998E+04 -0.13646031620E+04  0.17426448987E+04  0.46999998093E+01 0. -1.
</event>
<event>
 5   0  0.6173140E-06  0.2596250E+04  0.7818609E-02  0.8369476E-01
       -2   -1    0    0    0  501  0.00000000000E+00  0.00000000000E+00  0.79849139898E+03  0.79849139898E+03  0.25500000920E-02 0. -1.
        2   -1    0    0  501    0  0.00000000000E+00  0.00000000000E+00 -0.21103901717E+04  0.21103901717E+04  0.25500000920E-02 0.  1.
    10030    2    1    2    0    0  0.00000000000E+00  0.00000000000E+00 -0.13118987728E+04  0.29088815707E+04  0.25962499114E+04 0.  0.
        3    1    3    3  502    0  0.70530753155E+03  0.83304967416E+03 -0.14431948972E+04  0.18094866662E+04  0.10100000352E+00 0.  1.
       -3    1    3    3    0  502 -0.70530753155E+03 -0.83304967416E+03  0.13129612439E+03  0.10993949046E+04  0.10100000352E+00 0. -1.
</event>
<event>
 5   0  0.2333979E-06  0.2595250E+04  0.7818609E-02  0.8369816E-01
       -1   -1    0    0    0  501  0.00000000000E+00  0.00000000000E+00  0.19578519477E+04  0.19578519477E+04  0.50400001928E-02 0.  1.
        1   -1    0    0  501    0  0.00000000000E+00  0.00000000000E+00 -0.86004009232E+03  0.86004009233E+03  0.50400001928E-02 0. -1.
    10030    2    1    2    0    0  0.00000000000E+00  0.00000000000E+00  0.10978118553E+04  0.28178920400E+04  0.25952504078E+04 0.  0.
        3    1    3    3  502    0 -0.40345845670E+03 -0.11928592086E+03 -0.78392863495E+03  0.88969206588E+03  0.10100000352E+00 0. -1.
       -3    1    3    3    0  502  0.40345845670E+03  0.11928592086E+03  0.18817404903E+04  0.19281999741E+04  0.10100000352E+00 0.  1.
</event>
<event>
 5   0  0.2503292E-06  0.2607080E+04  0.7818609E-02  0.8365800E-01
       -1   -1    0    0    0  501  0.00000000000E+00  0.00000000000E+00  0.83151608412E+03  0.83151608414E+03  0.50400001928E-02 0.  1.
        1   -1    0    0  501    0  0.00000000000E+00  0.00000000000E+00 -0.20435163965E+04  0.20435163965E+04  0.50400001928E-02 0. -1.
    10030    2    1    2    0    0  0.00000000000E+00  0.00000000000E+00 -0.12120003123E+04  0.28750324806E+04  0.26070801690E+04 0.  0.
        2    1    3    3  502    0 -0.10639508827E+04 -0.74894500109E+03 -0.51842358164E+03  0.14005974102E+04  0.25500000920E-02 0.  1.
       -2    1    3    3    0  502  0.10639508827E+04  0.74894500109E+03 -0.69357673070E+03  0.14744350704E+04  0.25500000920E-02 0. -1.
</event>
<event>
 5   0  0.6161834E-06  0.2602059E+04  0.7818609E-02  0.8367502E-01
       -2   -1    0    0    0  501  0.00000000000E+00  0.00000000000E+00  0.11135571545E+04  0.11135571545E+04  0.25500000920E-02 0.  1.
        2   -1    0    0  501    0  0.00000000000E+00  0.00000000000E+00 -0.15200640761E+04  0.15200640761E+04  0.25500000920E-02 0. -1.
    10030    2    1    2    0    0  0.00000000000E+00  0.00000000000E+00 -0.40650692163E+03  0.26336212306E+04  0.26020593593E+04 0.  0.
        5    1    3    3  502    0  0.12676662279E+04  0.69352787364E+01 -0.49942957764E+03  0.13625262407E+04  0.46999998093E+01 0. -1.
       -5    1    3    3    0  502 -0.12676662279E+04 -0.69352787364E+01  0.92922656006E+02  0.12710949900E+04  0.46999998093E+01 0.  1.
</event>
<event>
 5   0  0.6173140E-06  0.2602121E+04  0.7818609E-02  0.8367481E-01
        2   -1    0    0  501    0  0.00000000000E+00  0.00000000000E+00  0.22051270980E+04  0.22051270980E+04  0.25500000920E-02 0. -1.
       -2   -1    0    0    0  501  0.00000000000E+00  0.00000000000E+00 -0.76764680798E+03  0.76764680799E+03  0.25500000920E-02 0.  1.
    10030    2    1    2    0    0  0.00000000000E+00  0.00000000000E+00  0.14374802900E+04  0.29727739060E+04  0.26021212716E+04 0.  0.
        3    1    3    3  502    0 -0.13339533535E+03 -0.84657330459E+03 -0.39961599665E+03  0.94560754572E+03  0.10100000352E+00 0.  1.
       -3    1    3    3    0  502  0.13339533535E+03  0.84657330459E+03  0.18370962867E+04  0.20271663603E+04  0.10100000352E+00 0. -1.
</event>
<event>
 5   0  0.2440590E-06  0.2649171E+04  0.7818609E-02  0.8351688E-01
        1   -1    0    0  501    0  0.00000000000E+00  0.00000000000E+00  0.21904486887E+04  0.21904486887E+04  0.50400001928E-02 0.  1.
       -1   -1    0    0    0  501  0.00000000000E+00  0.00000000000E+00 -0.80098948308E+03  0.80098948309E+03  0.50400001928E-02 0. -1.
    10030    2    1    2    0    0  0.00000000000E+00  0.00000000000E+00  0.13894592056E+04  0.29914381718E+04  0.26491707102E+04 0.  0.
        1    1    3    3  502    0  0.79349033915E+03 -0.88155990558E+03  0.28836309695E+02  0.11864258587E+04  0.50400001928E-02 0.  1.
       -1    1    3    3    0  502 -0.79349033915E+03  0.88155990558E+03  0.13606228959E+04  0.18050123131E+04  0.50400001928E-02 0. -1.
</event>
<event>
 5   0  0.5942229E-06  0.2677948E+04  0.7818609E-02  0.8342196E-01
        2   -1    0    0  501    0  0.00000000000E+00  0.00000000000E+00  0.14954404961E+04  0.14954404961E+04  0.25500000920E-02 0.  1.
       -2   -1    0    0    0  501  0.00000000000E+00  0.00000000000E+00 -0.11988781396E+04  0.11988781396E+04  0.25500000920E-02 0. -1.
    10030    2    1    2    0    0  0.00000000000E+00  0.00000000000E+00  0.29656235658E+03  0.26943186357E+04  0.26779476618E+04 0.  0.
        4    1    3    3  502    0  0.71076301423E+03  0.98485524694E+02  0.12856635525E+04  0.14723504488E+04  0.12699999809E+01 0.  1.
       -4    1    3    3    0  502 -0.71076301423E+03 -0.98485524694E+02 -0.98910119596E+03  0.12219681869E+04  0.12699999809E+01 0. -1.
</event>
<event>
 5   0  0.5940748E-06  0.2599810E+04  0.7818609E-02  0.8368266E-01
        2   -1    0    0  501    0  0.00000000000E+00  0.00000000000E+00  0.17863639682E+04  0.17863639682E+04  0.25500000920E-02 0. -1.
       -2   -1    0    0    0  501  0.00000000000E+00  0.00000000000E+00 -0.94591723178E+03  0.94591723178E+03  0.25500000920E-02 0.  1.
    10030    2    1    2    0    0  0.00000000000E+00  0.00000000000E+00  0.84044673644E+03  0.27322812000E+04  0.25998095775E+04 0.  0.
        1    1    3    3  502    0  0.81892104672E+01  0.57069992661E+03 -0.80718468544E+03  0.98859121271E+03  0.50400001928E-02 0.  1.
       -1    1    3    3    0  502 -0.81892104672E+01 -0.57069992661E+03  0.16476314219E+04  0.17436899873E+04  0.50400001928E-02 0. -1.
</event>
<event>
 5   0  0.6173140E-06  0.2594862E+04  0.7818609E-02  0.8369948E-01
       -2   -1    0    0    0  501  0.00000000000E+00  0.00000000000E+00  0.71057459182E+03  0.71057459183E+03  0.25500000920E-02 0.  1.
        2   -1    0    0  501    0  0.00000000000E+00  0.00000000000E+00 -0.23689667958E+04  0.23689667958E+04  0.25500000920E-02 0. -1.
    10030    2    1    2    0    0  0.00000000000E+00  0.00000000000E+00 -0.16583922040E+04  0.30795413876E+04  0.25948623193E+04 0.  0.
        3    1    3    3  502    0  0.32272144172E+02  0.69831218332E+03  0.46795742219E+03  0.84122859904E+03  0.10100000352E+00 0.  1.
       -3    1    3    3    0  502 -0.32272144172E+02 -0.69831218332E+03 -0.21263496262E+04  0.22383127886E+04  0.10100000352E+00 0. -1.
</event>
<event>
 5   0  0.2456600E-06  0.2593709E+04  0.7818609E-02  0.8370341E-01
        1   -1    0    0  501    0  0.00000000000E+00  0.00000000000E+00  0.20166095403E+04  0.20166095403E+04  0.50400001928E-02 0. -1.
       -1   -1    0    0    0  501  0.00000000000E+00  0.00000000000E+00 -0.83398954114E+03  0.83398954115E+03  0.50400001928E-02 0.  1.
    10030    2    1    2    0    0  0.00000000000E+00  0.00000000000E+00  0.11826199992E+04  0.28505990815E+04  0.25937087463E+04 0.  0.
        5    1    3    3  502    0 -0.49465272780E+03  0.30907156897E+03  0.18643055425E+04  0.19534236104E+04  0.46999998093E+01 0. -1.
       -5    1    3    3    0  502  0.49465272780E+03 -0.30907156897E+03 -0.68168554334E+03  0.89717547106E+03  0.46999998093E+01 0.  1.
</event>
<event>
 5   0  0.2503292E-06  0.2606104E+04  0.7818609E-02  0.8366131E-01
        1   -1    0    0  501    0  0.00000000000E+00  0.00000000000E+00  0.14055951237E+04  0.14055951237E+04  0.50400001928E-02 0.  1.
       -1   -1    0    0    0  501  0.00000000000E+00  0.00000000000E+00 -0.12079898117E+04  0.12079898117E+04  0.50400001928E-02 0. -1.
    10030    2    1    2    0    0  0.00000000000E+00  0.00000000000E+00  0.19760531195E+03  0.26135849354E+04  0.26061040569E+04 0.  0.
        2    1    3    3  502    0  0.92114569852E+02 -0.10944567026E+04  0.80197440377E+03  0.13599571729E+04  0.25500000920E-02 0.  1.
       -2    1    3    3    0  502 -0.92114569852E+02  0.10944567026E+04 -0.60436909181E+03  0.12536277625E+04  0.25500000920E-02 0. -1.
</event>
<event>
 5   0  0.2440590E-06  0.2601807E+04  0.7818609E-02  0.8367588E-01
        1   -1    0    0  501    0  0.00000000000E+00  0.00000000000E+00  0.13371287882E+04  0.13371287882E+04  0.50400001928E-02 0. -1.
       -1   -1    0    0    0  501  0.00000000000E+00  0.00000000000E+00 -0.12656593385E+04  0.12656593385E+04  0.50400001928E-02 0.  1.
    10030    2    1    2    0    0  0.00000000000E+00  0.00000000000E+00  0.71469449671E+02  0.26027881267E+04  0.26018067088E+04 0.  0.
        1    1    3    3  502    0  0.92666443440E+03 -0.64964941033E+03  0.67753592505E+03  0.13190171569E+04  0.50400001928E-02 0. -1.
       -1    1    3    3    0  502 -0.92666443440E+03  0.64964941033E+03 -0.60606647538E+03  0.12837709698E+04  0.50400001928E-02 0.  1.
</event>
<event>
 5   0  0.6158063E-06  0.2596391E+04  0.7818609E-02  0.8369428E-01
        2   -1    0    0  501    0  0.00000000000E+00  0.00000000000E+00  0.78962368974E+03  0.78962368975E+03  0.25500000920E-02 0. -1.
       -2   -1    0    0    0  501  0.00000000000E+00  0.00000000000E+00 -0.21343225804E+04  0.21343225804E+04  0.25500000920E-02 0.  1.
    10030    2    1    2    0    0  0.00000000000E+00  0.00000000000E+00 -0.13446988906E+04  0.29239462701E+04  0.25963910884E+04 0.  0.
        2    1    3    3  502    0  0.23842528831E+03 -0.11936250078E+04 -0.11806502472E+04  0.16957365019E+04  0.25500000920E-02 0.  1.
       -2    1    3    3    0  502 -0.23842528831E+03  0.11936250078E+04 -0.16404864341E+03  0.12282097683E+04  0.25500000920E-02 0. -1.
</event>
<event>
 5   0  0.5942229E-06  0.2598463E+04  0.7818609E-02  0.8368724E-01
       -2   -1    0    0    0  501  0.00000000000E+00  0.00000000000E+00  0.93072994945E+03  0.93072994945E+03  0.25500000920E-02 0.  1.
        2   -1    0    0  501    0  0.00000000000E+00  0.00000000000E+00 -0.18136322907E+04  0.18136322907E+04  0.25500000920E-02 0. -1.
    10030    2    1    2    0    0  0.00000000000E+00  0.00000000000E+00 -0.88290234124E+03  0.27443622401E+04  0.25984625379E+04 0.  0.
        4    1    3    3  502    0  0.74983330669E+03  0.10474813130E+04 -0.26304900299E+03  0.13147864769E+04  0.12699999809E+01 0. -1.
       -4    1    3    3    0  502 -0.74983330669E+03 -0.10474813130E+04 -0.61985333825E+03  0.14295757632E+04  0.12699999809E+01 0.  1.
</event>
<event>
 5   0  0.2503292E-06  0.2619256E+04  0.7818609E-02  0.8361690E-01
       -1   -1    0    0    0  501  0.00000000000E+00  0.00000000000E+00  0.13475084707E+04  0.13475084707E+04  0.50400001928E-02 0. -1.
        1   -1    0    0  501    0  0.00000000000E+00  0.00000000000E+00 -0.12728124625E+04  0.12728124625E+04  0.50400001928E-02 0.  1.
    10030    2    1    2    0    0  0.00000000000E+00  0.00000000000E+00  0.74696008201E+02  0.26203209332E+04  0.26192560584E+04 0.  0.
        2    1    3    3  502    0 -0.57780458936E+03  0.61150284068E+03 -0.96671919862E+03  0.12815380902E+04  0.25500000920E-02 0.  1.
       -2    1    3    3    0  502  0.57780458936E+03 -0.61150284068E+03  0.10414152068E+04  0.13387828430E+04  0.25500000920E-02 0. -1.
</event>
<event>
 5   0  0.2456600E-06  0.2573764E+04  0.7818609E-02  0.8377168E-01
       -1   -1    0    0    0  501  0.00000000000E+00  0.00000000000E+00  0.14226517178E+04  0.14226517178E+04  0.50400001928E-02 0.  1.
        1   -1    0    0  501    0  0.00000000000E+00  0.00000000000E+00 -0.11640692813E+04  0.11640692813E+04  0.50400001928E-02 0. -1.
    10030    2    1    2    0    0  0.00000000000E+00  0.00000000000E+00  0.25858243655E+03  0.25867209991E+04  0.25737639073E+04 0.  0.
        5    1    3    3  502    0  0.10364925386E+04  0.52917728221E+03  0.68132655408E+03  0.13485448980E+04  0.46999998093E+01 0.  1.
       -5    1    3    3    0  502 -0.10364925386E+04 -0.52917728221E+03 -0.42274411753E+03  0.12381761011E+04  0.46999998093E+01 0. -1.
</event>
<event>
 5   0  0.2503292E-06  0.2586436E+04  0.7818609E-02  0.8372823E-01
        1   -1    0    0  501    0  0.00000000000E+00  0.00000000000E+00  0.18951414720E+04  0.18951414720E+04  0.50400001928E-02 0.  1.
       -1   -1    0    0    0  501  0.00000000000E+00  0.00000000000E+00 -0.88247351222E+03  0.88247351223E+03  0.50400001928E-02 0. -1.
    10030    2    1    2    0    0  0.00000000000E+00  0.00000000000E+00  0.10126679598E+04  0.27776149842E+04  0.25864355016E+04 0.  0.
        2    1    3    3  502    0  0.55109525790E+03 -0.52872270093E+02 -0.74877531454E+03  0.93121744609E+03  0.25500000920E-02 0. -1.
       -2    1    3    3    0  502 -0.55109525790E+03  0.52872270093E+02  0.17614432743E+04  0.18463975382E+04  0.25500000920E-02 0.  1.
</event>
<event>
 5   0  0.2072125E-06  0.2604740E+04  0.7818609E-02  0.8366593E-01
       -3   -1    0    0    0  501  0.00000000000E+00  0.00000000000E+00  0.16831285330E+04  0.16831285360E+04  0.10100000352E+00 0. -1.
        3   -1    0    0  501    0  0.00000000000E+00  0.00000000000E+00 -0.10077466231E+04  0.10077466282E+04  0.10100000352E+00 0.  1.
    10030    2    1    2    0    0  0.00000000000E+00  0.00000000000E+00  0.67538190987E+03  0.26908751642E+04  0.26047396079E+04 0.  0.
        3    1    3    3  502    0 -0.12356465672E+04  0.40668014225E+03  0.40266694768E+03  0.13617458860E+04  0.10100000352E+00 0. -1.
       -3    1    3    3    0  502  0.12356465672E+04 -0.40668014225E+03  0.27271496219E+03  0.13291292781E+04  0.10100000352E+00 0.  1.
</event>
<event>
 5   0  0.6158063E-06  0.2593796E+04  0.7818609E-02  0.8370312E-01
       -2   -1    0    0    0  501  0.00000000000E+00  0.00000000000E+00  0.78181931458E+03  0.78181931458E+03  0.25500000920E-02 0.  1.
        2   -1    0    0  501    0  0.00000000000E+00  0.00000000000E+00 -0.21513210383E+04  0.21513210383E+04  0.25500000920E-02 0. -1.
    10030    2    1    2    0    0  0.00000000000E+00  0.00000000000E+00 -0.13695017237E+04  0.29331403529E+04  0.25937959361E+04 0.  0.
        2    1    3    3  502    0  0.66435379449E+03 -0.11005598191E+04 -0.87847105785E+03  0.15570193573E+04  0.25500000920E-02 0. -1.
       -2    1    3    3    0  502 -0.66435379449E+03  0.11005598191E+04 -0.49103066587E+03  0.13761209956E+04  0.25500000920E-02 0.  1.
</event>
<event>
 5   0  0.6173140E-06  0.2656199E+04  0.7818609E-02  0.8349358E-01
       -2   -1    0    0    0  501  0.00000000000E+00  0.00000000000E+00  0.14205032073E+04  0.14205032073E+04  0.25500000920E-02 0. -1.
        2   -1    0    0  501    0  0.00000000000E+00  0.00000000000E+00 -0.12417068942E+04  0.12417068942E+04  0.25500000920E-02 0.  1.
    10030    2    1    2    0    0  0.00000000000E+00  0.00000000000E+00  0.17879631316E+03  0.26622101015E+04  0.26561992589E+04 0.  0.
        3    1    3    3  502    0  0.12505629771E+04  0.41687478910E+03 -0.72696817684E+02  0.13202186133E+04  0.10100000352E+00 0.  1.
       -3    1    3    3    0  502 -0.12505629771E+04 -0.41687478910E+03  0.25149313085E+03  0.13419914882E+04  0.10100000352E+00 0. -1.
</event>
<event>
 5   0  0.6158063E-06  0.2584611E+04  0.7818609E-02  0.8373447E-01
        2   -1    0    0  501    0  0.00000000000E+00  0.00000000000E+00  0.24095265932E+04  0.24095265932E+04  0.25500000920E-02 0. -1.
       -2   -1    0    0    0  501  0.00000000000E+00  0.00000000000E+00 -0.69310422498E+03  0.69310422498E+03  0.25500000920E-02 0.  1.
    10030    2    1    2    0    0  0.00000000000E+00  0.00000000000E+00  0.17164223682E+04  0.31026308182E+04  0.25846106569E+04 0.  0.
        2    1    3    3  502    0 -0.65859204759E+03 -0.40847280272E+03 -0.38320428287E+03  0.86454556741E+03  0.25500000920E-02 0.  1.
       -2    1    3    3    0  502  0.65859204759E+03  0.40847280272E+03  0.20996266511E+04  0.22380852508E+04  0.25500000920E-02 0. -1.
</event>
<event>
 5   0  0.2333979E-06  0.2650982E+04  0.7818609E-02  0.8351087E-01
       -1   -1    0    0    0  501  0.00000000000E+00  0.00000000000E+00  0.11855158899E+04  0.11855158899E+04  0.50400001928E-02 0.  1.
        1   -1    0    0  501    0  0.00000000000E+00  0.00000000000E+00 -0.14819930988E+04  0.14819930988E+04  0.50400001928E-02 0. -1.
    10030    2    1    2    0    0  0.00000000000E+00  0.00000000000E+00 -0.29647720891E+03  0.26675089886E+04  0.26509819820E+04 0.  0.
        3    1    3    3  502    0 -0.96129424417E+03  0.78048632400E+03  0.32765897903E+03  0.12808614065E+04  0.10100000352E+00 0.  1.
       -3    1    3    3    0  502  0.96129424417E+03 -0.78048632400E+03 -0.62413618794E+03  0.13866475822E+04  0.10100000352E+00 0. -1.
</event>
<event>
 5   0  0.2456600E-06  0.2603304E+04  0.7818609E-02  0.8367080E-01
       -1   -1    0    0    0  501  0.00000000000E+00  0.00000000000E+00  0.98886387109E+03  0.98886387110E+03  0.50400001928E-02 0.  1.
        1   -1    0    0  501    0  0.00000000000E+00  0.00000000000E+00 -0.17133788172E+04  0.17133788172E+04  0.50400001928E-02 0. -1.
    10030    2    1    2    0    0  0.00000000000E+00  0.00000000000E+00 -0.72451494608E+03  0.27022426883E+04  0.26033043693E+04 0.  0.
        5    1    3    3  502    0  0.76909308523E+03 -0.57460746476E+03  0.55012368403E+03  0.11064972074E+04  0.46999998093E+01 0.  1.
       -5    1    3    3    0  502 -0.76909308523E+03  0.57460746476E+03 -0.12746386301E+04  0.15957454809E+04  0.46999998093E+01 0. -1.
</event>
<event>
 5   0  0.6161834E-06  0.2604662E+04  0.7818609E-02  0.8366619E-01
       -2   -1    0    0    0  501  0.00000000000E+00  0.00000000000E+00  0.86681853226E+03  0.86681853226E+03  0.25500000920E-02 0.  1.
        2   -1    0    0  501    0  0.00000000000E+00  0.00000000000E+00 -0.19566558841E+04  0.19566558841E+04  0.25500000920E-02 0. -1.
    10030    2    1    2    0    0  0.00000000000E+00  0.00000000000E+00 -0.10898373518E+04  0.28234744164E+04  0.26046616530E+04 0.  0.
        5    1    3    3  502    0  0.51915106146E+03 -0.24317619334E+03  0.72267160381E+03  0.92245803296E+03  0.46999998093E+01 0.  1.
       -5    1    3    3    0  502 -0.51915106146E+03  0.24317619334E+03 -0.18125089557E+04  0.19010163834E+04  0.46999998093E+01 0. -1.
</event>
<event>
 5   0  0.2456600E-06  0.2595546E+04  0.7818609E-02  0.8369716E-01
        1   -1    0    0  501    0  0.00000000000E+00  0.00000000000E+00  0.23557994680E+04  0.23557994680E+04  0.50400001928E-02 0.  1.
       -1   -1    0    0    0  501  0.00000000000E+00  0.00000000000E+00 -0.71492285800E+03  0.71492285802E+03  0.50400001928E-02 0. -1.
    10030    2    1    2    0    0  0.00000000000E+00  0.00000000000E+00  0.16408766100E+04  0.30707223261E+04  0.25955460995E+04 0.  0.
        5    1    3    3  502    0  0.25920397042E+03 -0.10446196864E+03 -0.67889176890E+03  0.73417649448E+03  0.46999998093E+01 0. -1.
       -5    1    3    3    0  502 -0.25920397042E+03  0.10446196864E+03  0.23197683789E+04  0.23365458316E+04  0.46999998093E+01 0.  1.
</event>
<event>
 5   0  0.2503292E-06  0.2617458E+04  0.7818609E-02  0.8362295E-01
       -1   -1    0    0    0  501  0.00000000000E+00  0.00000000000E+00  0.10826857847E+04  0.10826857847E+04  0.50400001928E-02 0. -1.
        1   -1    0    0  501    0  0.00000000000E+00  0.00000000000E+00 -0.15819655912E+04  0.15819655912E+04  0.50400001928E-02 0.  1.
    10030    2    1    2    0    0  0.00000000000E+00  0.00000000000E+00 -0.49927980654E+03  0.26646513759E+04  0.26174580474E+04 0.  0.
        2    1    3    3  502    0  0.89235379684E+03  0.10645091035E+02  0.72488838432E+03  0.11497268312E+04  0.25500000920E-02 0. -1.
       -2    1    3    3    0  502 -0.89235379684E+03 -0.10645091035E+02 -0.12241681909E+04  0.15149245447E+04  0.25500000920E-02 0.  1.
</event>
<event>
 5   0  0.6161834E-06  0.2589670E+04  0.7818609E-02  0.8371718E-01
        2   -1    0    0  501    0  0.00000000000E+00  0.00000000000E+00  0.18760460673E+04  0.18760460673E+04  0.25500000920E-02 0.  1.
       -2   -1    0    0    0  501  0.00000000000E+00  0.00000000000E+00 -0.89368712277E+03  0.89368712277E+03  0.25500000920E-02 0. -1.
    10030    2    1    2    0    0  0.00000000000E+00  0.00000000000E+00  0.98235894455E+03  0.27697331901E+04  0.25896704131E+04 0.  0.
        5    1    3    3  502    0  0.10647011683E+04  0.30216982804E+03  0.12099815474E+04  0.16398087138E+04  0.46999998093E+01 0. -1.
       -5    1    3    3    0  502 -0.10647011683E+04 -0.30216982804E+03 -0.22762260288E+03  0.11299244763E+04  0.46999998093E+01 0.  1.
</event>
<event>
 5   0  0.2440590E-06  0.2608617E+04  0.7818609E-02  0.8365280E-01
        1   -1    0    0  501    0  0.00000000000E+00  0.00000000000E+00  0.23972668280E+04  0.23972668280E+04  0.50400001928E-02 0. -1.
       -1   -1    0    0    0  501  0.00000000000E+00  0.00000000000E+00 -0.70965009692E+03  0.70965009694E+03  0.50400001928E-02 0.  1.
    10030    2    1    2    0    0  0.00000000000E+00  0.00000000000E+00  0.16876167310E+04  0.31069169249E+04  0.26086169798E+04 0.  0.
        1    1    3    3  502    0  0.10285199964E+03  0.12961568392E+04  0.96654448974E+03  0.16201263334E+04  0.50400001928E-02 0. -1.
       -1    1    3    3    0  502 -0.10285199964E+03 -0.12961568392E+04  0.72107224129E+03  0.14867905915E+04  0.50400001928E-02 0.  1.
</event>
<event>
 5   0  0.6173140E-06  0.2604715E+04  0.7818609E-02  0.8366602E-01
        2   -1    0    0  501    0  0.00000000000E+00  0.00000000000E+00  0.18778831160E+04  0.18778831160E+04  0.25500000920E-02 0. -1.
       -2   -1    0    0    0  501  0.00000000000E+00  0.00000000000E+00 -0.90321622608E+03  0.90321622608E+03  0.25500000920E-02 0.  1.
    10030    2    1    2    0    0  0.00000000000E+00  0.00000000000E+00  0.97466688996E+03  0.27810993421E+04  0.26047145725E+04 0.  0.
        3    1    3    3  502    0  0.10853711157E+04  0.34871776650E+03  0.11596563880E+04  0.16261726501E+04  0.10100000352E+00 0. -1.
       -3    1    3    3    0  502 -0.10853711157E+04 -0.34871776650E+03 -0.18498949803E+03  0.11549266920E+04  0.10100000352E+00 0.  1.
</event>
<event>
 5   0  0.5940748E-06  0.2602476E+04  0.7818609E-02  0.8367361E-01
        2   -1    0    0  501    0  0.00000000000E+00  0.00000000000E+00  0.16617357074E+04  0.16617357074E+04  0.25500000920E-02 0. -1.
       -2   -1    0    0    0  501  0.00000000000E+00  0.00000000000E+00 -0.10189465195E+04  0.10189465195E+04  0.25500000920E-02 0.  1.
    10030    2    1    2    0    0  0.00000000000E+00  0.00000000000E+00  0.64278918787E+03  0.26806822269E+04  0.26024756025E+04 0.  0.
        1    1    3    3  502    0 -0.60355910927E+03 -0.11480970554E+04  0.21430215043E+03  0.13146618800E+04  0.50400001928E-02 0.  1.
       -1    1    3    3    0  502  0.60355910927E+03  0.11480970554E+04  0.42848703743E+03  0.13660203469E+04  0.50400001928E-02 0. -1.
</event>
<event>
 5   0  0.6173140E-06  0.2600522E+04  0.7818609E-02  0.8368024E-01
       -2   -1    0    0    0  501  0.00000000000E+00  0.00000000000E+00  0.81838831396E+03  0.81838831397E+03  0.25500000920E-02 0.  1.
        2   -1    0    0  501    0  0.00000000000E+00  0.00000000000E+00 -0.20658634734E+04  0.20658634734E+04  0.25500000920E-02 0. -1.
    10030    2    1    2    0    0  0.00000000000E+00  0.00000000000E+00 -0.12474751594E+04  0.28842517873E+04  0.26005218898E+04 0.  0.
        3    1    3    3  502    0 -0.72615622529E+03 -0.16009095756E+03  0.55929149362E+03  0.93045094618E+03  0.10100000352E+00 0.  1.
       -3    1    3    3    0  502  0.72615622529E+03  0.16009095756E+03 -0.18067666530E+04  0.19538008412E+04  0.10100000352E+00 0. -1.
</event>
<event>
 5   0  0.2503292E-06  0.2596803E+04  0.7818609E-02  0.8369288E-01
       -1   -1    0    0    0  501  0.00000000000E+00  0.00000000000E+00  0.76668050551E+03  0.76668050552E+03  0.50400001928E-02 0. -1.
        1   -1    0    0  501    0  0.00000000000E+00  0.00000000000E+00 -0.21988907475E+04  0.21988907475E+04  0.50400001928E-02 0.  1.
    10030    2    1    2    0    0  0.00000000000E+00  0.00000000000E+00 -0.14322102420E+04  0.29655712531E+04  0.25968031654E+04 0.  0.
        2    1    3    3  502    0 -0.12440521931E+04  0.93563930473E+02 -0.11269530530E+04  0.16812029182E+04  0.25500000920E-02 0.  1.
       -2    1    3    3    0  502  0.12440521931E+04 -0.93563930473E+02 -0.30525718900E+03  0.12843683349E+04  0.25500000920E-02 0. -1.
</event>
<event>
 5   0  0.5942229E-06  0.2604238E+04  0.7818609E-02  0.8366763E-01
       -2   -1    0    0    0  501  0.00000000000E+00  0.00000000000E+00  0.10724345631E+04  0.10724345631E+04  0.25500000920E-02 0. -1.
        2   -1    0    0  501    0  0.00000000000E+00  0.00000000000E+00 -0.15809954312E+04  0.15809954312E+04  0.25500000920E-02 0.  1.
    10030    2    1    2    0    0  0.00000000000E+00  0.00000000000E+00 -0.50856086817E+03  0.26534299943E+04  0.26042381954E+04 0.  0.
        4    1    3    3  502    0  0.14761438120E+03  0.41866550427E+03  0.99295045532E+03  0.10876686212E+04  0.12699999809E+01 0. -1.
       -4    1    3    3    0  502 -0.14761438120E+03 -0.41866550427E+03 -0.15015113235E+04  0.15657613731E+04  0.12699999809E+01 0.  1.
</event>
<event>
 5   0  0.2456600E-06  0.2652223E+04  0.7818609E-02  0.8350676E-01
        1   -1    0    0  501    0  0.00000000000E+00  0.00000000000E+00  0.17945197045E+04  0.17945197045E+04  0.50400001928E-02 0. -1.
       -1   -1    0    0    0  501  0.00000000000E+00  0.00000000000E+00 -0.97996766493E+03  0.97996766494E+03  0.50400001928E-02 0.  1.
    10030    2    1    2    0    0  0.00000000000E+00  0.00000000000E+00  0.81455203955E+03  0.27744873694E+04  0.26522226788E+04 0.  0.
        5    1    3    3  502    0 -0.67501899238E+03  0.73472909186E+03  0.13210850510E+04  0.16555256810E+04  0.46999998093E+01 0. -1.
       -5    1    3    3    0  502  0.67501899238E+03 -0.73472909186E+03 -0.50653301144E+03  0.11189616884E+04  0.46999998093E+01 0.  1.
</event>
<event>
 5   0  0.2072125E-06  0.2594189E+04  0.7818609E-02  0.8370178E-01
        4   -1    0    0  501    0  0.00000000000E+00  0.00000000000E+00  0.93873299479E+03  0.93873385388E+03  0.12699999809E+01 0.  1.
       -4   -1    0    0    0  501  0.00000000000E+00  0.00000000000E+00 -0.17922581221E+04  0.17922585721E+04  0.12699999809E+01 0. -1.
    10030    2    1    2    0    0  0.00000000000E+00  0.00000000000E+00 -0.85352512732E+03  0.27309924260E+04  0.25941885991E+04 0.  0.
        5    1    3    3  502    0  0.10388319000E+04 -0.27009139359E+03 -0.11933894456E+04  0.16050923762E+04  0.46999998093E+01 0. -1.
       -5    1    3    3    0  502 -0.10388319000E+04  0.27009139359E+03  0.33986431826E+03  0.11259000498E+04  0.46999998093E+01 0.  1.
</event>
<event>
 5   0  0.2072125E-06  0.2609410E+04  0.7818609E-02  0.8365012E-01
        3   -1    0    0  501    0  0.00000000000E+00  0.00000000000E+00  0.10568979662E+04  0.10568979710E+04  0.10100000352E+00 0. -1.
       -3   -1    0    0    0  501  0.00000000000E+00  0.00000000000E+00 -0.16106143126E+04  0.16106143158E+04  0.10100000352E+00 0.  1.
    10030    2    1    2    0    0  0.00000000000E+00  0.00000000000E+00 -0.55371634645E+03  0.26675122868E+04  0.26094098965E+04 0.  0.
        4    1    3    3  502    0  0.98201008867E+03 -0.29021423100E+03  0.54965251546E+03  0.11621908685E+04  0.12699999809E+01 0. -1.
       -4    1    3    3    0  502 -0.98201008867E+03  0.29021423100E+03 -0.11033688619E+04  0.15053214183E+04  0.12699999809E+01 0.  1.
</event>
<event>
 5   0  0.2503292E-06  0.2612315E+04  0.7818609E-02  0.8364030E-01
        1   -1    0    0  501    0  0.00000000000E+00  0.00000000000E+00  0.10589405841E+04  0.10589405841E+04  0.50400001928E-02 0. -1.
       -1   -1    0    0    0  501  0.00000000000E+00  0.00000000000E+00 -0.16110884828E+04  0.16110884829E+04  0.50400001928E-02 0.  1.
    10030    2    1    2    0    0  0.00000000000E+00  0.00000000000E+00 -0.55214789873E+03  0.26700290670E+04  0.26123146664E+04 0.  0.
        2    1    3    3  502    0  0.50372166781E+03 -0.67653020237E+03 -0.12954131669E+04  0.15458084960E+04  0.25500000920E-02 0.  1.
       -2    1    3    3    0  502 -0.50372166781E+03  0.67653020237E+03  0.74326526816E+03  0.11242205710E+04  0.25500000920E-02 0. -1.
</event>
<event>
 5   0  0.2333979E-06  0.2606477E+04  0.7818609E-02  0.8366005E-01
       -1   -1    0    0    0  501  0.00000000000E+00  0.00000000000E+00  0.78264425419E+03  0.78264425421E+03  0.50400001928E-02 0.  1.
        1   -1    0    0  501    0  0.00000000000E+00  0.00000000000E+00 -0.21701178917E+04  0.21701178917E+04  0.50400001928E-02 0. -1.
    10030    2    1    2    0    0  0.00000000000E+00  0.00000000000E+00 -0.13874736375E+04  0.29527621459E+04  0.26064767782E+04 0.  0.
        3    1    3    3  502    0  0.10835305128E+03 -0.53482551188E+03 -0.20344616775E+04  0.21063743825E+04  0.10100000352E+00 0. -1.
       -3    1    3    3    0  502 -0.10835305128E+03  0.53482551188E+03  0.64698804002E+03  0.84638776338E+03  0.10100000352E+00 0.  1.
</event>
<event>
 5   0  0.2456600E-06  0.2703534E+04  0.7818609E-02  0.8333859E-01
        1   -1    0    0  501    0  0.00000000000E+00  0.00000000000E+00  0.11615943434E+04  0.11615943434E+04  0.50400001928E-02 0. -1.
       -1   -1    0    0    0  501  0.00000000000E+00  0.00000000000E+00 -0.15730746277E+04  0.15730746278E+04  0.50400001928E-02 0.  1.
    10030    2    1    2    0    0  0.00000000000E+00  0.00000000000E+00 -0.41148028434E+03  0.27346689712E+04  0.27035344195E+04 0.  0.
        5    1    3    3  502    0  0.10031960440E+04  0.13851228628E+03 -0.11114085063E+04  0.15036086306E+04  0.46999998093E+01 0.  1.
       -5    1    3    3    0  502 -0.10031960440E+04 -0.13851228628E+03  0.69992822196E+03  0.12310603406E+04  0.46999998093E+01 0. -1.
</event>
<event>
 5   0  0.6161834E-06  0.2664349E+04  0.7818609E-02  0.8346666E-01
        2   -1    0    0  501    0  0.00000000000E+00  0.00000000000E+00  0.15984667003E+04  0.15984667004E+04  0.25500000920E-02 0.  1.
       -2   -1    0    0    0  501  0.00000000000E+00  0.00000000000E+00 -0.11102441298E+04  0.11102441298E+04  0.25500000920E-02 0. -1.
    10030    2    1    2    0    0  0.00000000000E+00  0.00000000000E+00  0.48822257053E+03  0.27087108302E+04  0.26643485288E+04 0.  0.
        5    1    3    3  502    0 -0.50330630488E+03  0.12298152560E+04  0.14818247202E+03  0.13370650453E+04  0.46999998093E+01 0.  1.
       -5    1    3    3    0  502  0.50330630488E+03 -0.12298152560E+04  0.34004009851E+03  0.13716457848E+04  0.46999998093E+01 0. -1.
</event>
<event>
 5   0  0.2440590E-06  0.2593080E+04  0.7818609E-02  0.8370556E-01
        1   -1    0    0  501    0  0.00000000000E+00  0.00000000000E+00  0.24310343504E+04  0.24310343504E+04  0.50400001928E-02 0.  1.
       -1   -1    0    0    0  501  0.00000000000E+00  0.00000000000E+00 -0.69148172605E+03  0.69148172607E+03  0.50400001928E-02 0. -1.
    10030    2    1    2    0    0  0.00000000000E+00  0.00000000000E+00  0.17395526243E+04  0.31225160764E+04  0.25930798898E+04 0.  0.
        1    1    3    3  502    0 -0.37592358796E+03 -0.45206223604E+03 -0.52172695541E+03  0.78605204997E+03  0.50400001928E-02 0. -1.
       -1    1    3    3    0  502  0.37592358796E+03  0.45206223604E+03  0.22612795797E+04  0.23364640265E+04  0.50400001928E-02 0.  1.
</event>
<event>
 5   0  0.2456600E-06  0.2615754E+04  0.7818609E-02  0.8362870E-01
       -1   -1    0    0    0  501  0.00000000000E+00  0.00000000000E+00  0.78133688986E+03  0.78133688988E+03  0.50400001928E-02 0. -1.
        1   -1    0    0  501    0  0.00000000000E+00  0.00000000000E+00 -0.21892501719E+04  0.21892501719E+04  0.50400001928E-02 0.  1.
    10030    2    1    2    0    0  0.00000000000E+00  0.00000000000E+00 -0.14079132821E+04  0.29705870618E+04  0.26157537503E+04 0.  0.
        5    1    3    3  502    0 -0.89521277977E+03 -0.93413271747E+03 -0.48696090509E+03  0.13824481430E+04  0.46999998093E+01 0. -1.
       -5    1    3    3    0  502  0.89521277977E+03  0.93413271747E+03 -0.92095237697E+03  0.15881389188E+04  0.46999998093E+01 0.  1.
</event>
<event>
 5   0  0.2471488E-06  0.2592393E+04  0.7818609E-02  0.8370790E-01
       -1   -1    0    0    0  501  0.00000000000E+00  0.00000000000E+00  0.11000662026E+04  0.11000662026E+04  0.50400001928E-02 0.  1.
        1   -1    0    0  501    0  0.00000000000E+00  0.00000000000E+00 -0.15272944933E+04  0.15272944933E+04  0.50400001928E-02 0. -1.
    10030    2    1    2    0    0  0.00000000000E+00  0.00000000000E+00 -0.42722829063E+03  0.26273606959E+04  0.25923927584E+04 0.  0.
        4    1    3    3  502    0  0.10285194358E+04 -0.77799805607E+03 -0.34571894594E+03  0.13351615661E+04  0.12699999809E+01 0. -1.
       -4    1    3    3    0  502 -0.10285194358E+04  0.77799805607E+03 -0.81509344698E+02  0.12921991298E+04  0.12699999809E+01 0.  1.
</event>
<event>
 5   0  0.2503292E-06  0.2603643E+04  0.7818609E-02  0.8366965E-01
        1   -1    0    0  501    0  0.00000000000E+00  0.00000000000E+00  0.12165454158E+04  0.12165454158E+04  0.50400001928E-02 0. -1.
       -1   -1    0    0    0  501  0.00000000000E+00  0.00000000000E+00 -0.13930746424E+04  0.13930746424E+04  0.50400001928E-02 0.  1.
    10030    2    1    2    0    0  0.00000000000E+00  0.00000000000E+00 -0.17652922662E+03  0.26096200582E+04  0.26036425024E+04 0.  0.
        2    1    3    3  502    0  0.12001160692E+04  0.43440324934E+03 -0.34527837737E+03  0.13221958707E+04  0.25500000920E-02 0.  1.
       -2    1    3    3    0  502 -0.12001160692E+04 -0.43440324934E+03  0.16874915076E+03  0.12874241875E+04  0.25500000920E-02 0. -1.
</event>
<event>
 5   0  0.6158063E-06  0.2595938E+04  0.7818609E-02  0.8369582E-01
        2   -1    0    0  501    0  0.00000000000E+00  0.00000000000E+00  0.20690455685E+04  0.20690455685E+04  0.25500000920E-02 0. -1.
       -2   -1    0    0    0  501  0.00000000000E+00  0.00000000000E+00 -0.81425158678E+03  0.81425158678E+03  0.25500000920E-02 0.  1.
    10030    2    1    2    0    0  0.00000000000E+00  0.00000000000E+00  0.12547939817E+04  0.28832971553E+04  0.25959380865E+04 0.  0.
        2    1    3    3  502    0  0.90497330624E+03 -0.91311255599E+03  0.82599860592E+03  0.15280788337E+04  0.25500000920E-02 0. -1.
       -2    1    3    3    0  502 -0.90497330624E+03  0.91311255599E+03  0.42879537579E+03  0.13552183216E+04  0.25500000920E-02 0.  1.
</event>
<event>
 5   0  0.6173140E-06  0.2600811E+04  0.7818609E-02  0.8367926E-01
       -2   -1    0    0    0  501  0.00000000000E+00  0.00000000000E+00  0.11137772005E+04  0.11137772005E+04  0.25500000920E-02 0. -1.
        2   -1    0    0  501    0  0.00000000000E+00  0.00000000000E+00 -0.15183059996E+04  0.15183059996E+04  0.25500000920E-02 0.  1.
    10030    2    1    2    0    0  0.00000000000E+00  0.00000000000E+00 -0.40452879908E+03  0.26320832002E+04  0.26008111087E+04 0.  0.
        3    1    3    3  502    0  0.10259137970E+04 -0.49829603832E+02 -0.10093955471E+04  0.14400907919E+04  0.10100000352E+00 0.  1.
       -3    1    3    3    0  502 -0.10259137970E+04  0.49829603832E+02  0.60486674802E+03  0.11919924082E+04  0.10100000352E+00 0. -1.
</event>
<event>
 5   0  0.5942229E-06  0.2621367E+04  0.7818609E-02  0.8360979E-01
       -2   -1    0    0    0  501  0.00000000000E+00  0.00000000000E+00  0.10617813667E+04  0.10617813667E+04  0.25500000920E-02 0.  1.
        2   -1    0    0  501    0  0.00000000000E+00  0.00000000000E+00 -0.16179336817E+04  0.16179336817E+04  0.25500000920E-02 0. -1.
    10030    2    1    2    0    0  0.00000000000E+00  0.00000000000E+00 -0.55615231494E+03  0.26797150484E+04  0.26213674567E+04 0.  0.
        4    1    3    3  502    0 -0.89052695118E+03 -0.95723511872E+03 -0.18353576539E+03  0.13202364612E+04  0.12699999809E+01 0. -1.
       -4    1    3    3    0  502  0.89052695118E+03  0.95723511872E+03 -0.37261654954E+03  0.13594785872E+04  0.12699999809E+01 0.  1.
</event>
<event>
 5   0  0.2456600E-06  0.2594504E+04  0.7818609E-02  0.8370070E-01
       -1   -1    0    0    0  501  0.00000000000E+00  0.00000000000E+00  0.71886816351E+03  0.71886816353E+03  0.50400001928E-02 0.  1.
        1   -1    0    0  501    0  0.00000000000E+00  0.00000000000E+00 -0.23409901326E+04  0.23409901326E+04  0.50400001928E-02 0. -1.
    10030    2    1    2    0    0  0.00000000000E+00  0.00000000000E+00 -0.16221219691E+04  0.30598582961E+04  0.25945044054E+04 0.  0.
        5    1    3    3  502    0  0.48577572922E+03 -0.95808854480E+03 -0.16687814725E+04  0.19846323115E+04  0.46999998093E+01 0. -1.
       -5    1    3    3    0  502 -0.48577572922E+03  0.95808854480E+03  0.46659503443E+02  0.10752259846E+04  0.46999998093E+01 0.  1.
</event>
<event>
 5   0  0.5940748E-06  0.2597225E+04  0.7818609E-02  0.8369144E-01
       -2   -1    0    0    0  501  0.00000000000E+00  0.00000000000E+00  0.15085263740E+04  0.15085263740E+04  0.25500000920E-02 0.  1.
        2   -1    0    0  501    0  0.00000000000E+00  0.00000000000E+00 -0.11179085827E+04  0.11179085827E+04  0.25500000920E-02 0. -1.
    10030    2    1    2    0    0  0.00000000000E+00  0.00000000000E+00  0.39061779127E+03  0.26264349567E+04  0.25972251198E+04 0.  0.
        1    1    3    3  502    0 -0.54719738893E+03 -0.88358237241E+03  0.98268743243E+03  0.14303207267E+04  0.50400001928E-02 0.  1.
       -1    1    3    3    0  502  0.54719738893E+03  0.88358237241E+03 -0.59206964116E+03  0.11961142300E+04  0.50400001928E-02 0. -1.
</event>
<event>
 5   0  0.6161834E-06  0.2645809E+04  0.7818609E-02  0.8352805E-01
        2   -1    0    0  501    0  0.00000000000E+00  0.00000000000E+00  0.11548666625E+04  0.11548666625E+04  0.25500000920E-02 0.  1.
       -2   -1    0    0    0  501  0.00000000000E+00  0.00000000000E+00 -0.15153925443E+04  0.15153925443E+04  0.25500000920E-02 0. -1.
    10030    2    1    2    0    0  0.00000000000E+00  0.00000000000E+00 -0.36052588178E+03  0.26702592068E+04  0.26458090105E+04 0.  0.
        5    1    3    3  502    0 -0.74859417782E+03 -0.10263106143E+04  0.19240201189E+03  0.12848141283E+04  0.46999998093E+01 0. -1.
       -5    1    3    3    0  502  0.74859417782E+03  0.10263106143E+04 -0.55292789367E+03  0.13854450785E+04  0.46999998093E+01 0.  1.
</event>
<event>
 5   0  0.2471488E-06  0.2572136E+04  0.7818609E-02  0.8377728E-01
       -1   -1    0    0    0  501  0.00000000000E+00  0.00000000000E+00  0.93112296456E+03  0.93112296458E+03  0.50400001928E-02 0. -1.
        1   -1    0    0  501    0  0.00000000000E+00  0.00000000000E+00 -0.17763180305E+04  0.17763180305E+04  0.50400001928E-02 0.  1.
    10030    2    1    2    0    0  0.00000000000E+00  0.00000000000E+00 -0.84519506598E+03  0.27074409951E+04  0.25721356968E+04 0.  0.
        4    1    3    3  502    0  0.96905757127E+03  0.63172645160E+03  0.16894172378E+03  0.11690568015E+04  0.12699999809E+01 0. -1.
       -4    1    3    3    0  502 -0.96905757127E+03 -0.63172645160E+03 -0.10141367898E+04  0.15383841937E+04  0.12699999809E+01 0.  1.
</event>
<event>
 5   0  0.2503292E-06  0.2603999E+04  0.7818609E-02  0.8366844E-01
       -1   -1    0    0    0  501  0.00000000000E+00  0.00000000000E+00  0.16683031916E+04  0.16683031916E+04  0.50400001928E-02 0.  1.
        1   -1    0    0  501    0  0.00000000000E+00  0.00000000000E+00 -0.10161240357E+04  0.10161240357E+04  0.50400001928E-02 0. -1.
    10030    2    1    2    0    0  0.00000000000E+00  0.00000000000E+00  0.65217915584E+03  0.26844272273E+04  0.26039992104E+04 0.  0.
        2    1    3    3  502    0  0.89933576605E+03  0.72546961281E+03 -0.29252125212E+03  0.11919226746E+04  0.25500000920E-02 0. -1.
       -2    1    3    3    0  502 -0.89933576605E+03 -0.72546961281E+03  0.94470040796E+03  0.14925045528E+04  0.25500000920E-02 0.  1.
</event>
<event>
 5   0  0.2503292E-06  0.2615242E+04  0.7818609E-02  0.8363042E-01
        1   -1    0    0  501    0  0.00000000000E+00  0.00000000000E+00  0.75743561835E+03  0.75743561837E+03  0.50400001928E-02 0.  1.
       -1   -1    0    0    0  501  0.00000000000E+00  0.00000000000E+00 -0.22574486870E+04  0.22574486870E+04  0.50400001928E-02 0. -1.
    10030    2    1    2    0    0  0.00000000000E+00  0.00000000000E+00 -0.15000130687E+04  0.30148843054E+04  0.26152415125E+04 0.  0.
        2    1    3    3  502    0 -0.28989307615E+03 -0.11995367730E+04 -0.25156244925E+03  0.12594483440E+04  0.25500000920E-02 0.  1.
       -2    1    3    3    0  502  0.28989307615E+03  0.11995367730E+04 -0.12484506194E+04  0.17554359614E+04  0.25500000920E-02 0. -1.
</event>
<event>
 5   0  0.2333979E-06  0.2600825E+04  0.7818609E-02  0.8367921E-01
        1   -1    0    0  501    0  0.00000000000E+00  0.00000000000E+00  0.17044380128E+04  0.17044380128E+04  0.50400001928E-02 0. -1.
       -1   -1    0    0    0  501  0.00000000000E+00  0.00000000000E+00 -0.99215836349E+03  0.99215836350E+03  0.50400001928E-02 0.  1.
    10030    2    1    2    0    0  0.00000000000E+00  0.00000000000E+00  0.71227964933E+03  0.26965963763E+04  0.26008248149E+04 0.  0.
        3    1    3    3  502    0 -0.10827690952E+04  0.46992585228E+03  0.92199589717E+03  0.14977635544E+04  0.10100000352E+00 0. -1.
       -3    1    3    3    0  502  0.10827690952E+04 -0.46992585228E+03 -0.20971624784E+03  0.11988328220E+04  0.10100000352E+00 0.  1.
</event>
<event>
 5   0  0.2503292E-06  0.2589126E+04  0.7818609E-02  0.8371904E-01
        1   -1    0    0  501    0  0.00000000000E+00  0.00000000000E+00  0.97728812829E+03  0.97728812831E+03  0.50400001928E-02 0.  1.
       -1   -1    0    0    0  501  0.00000000000E+00  0.00000000000E+00 -0.17148407972E+04  0.17148407972E+04  0.50400001928E-02 0. -1.
    10030    2    1    2    0    0  0.00000000000E+00  0.00000000000E+00 -0.73755266887E+03  0.26921289255E+04  0.25891261483E+04 0.  0.
        2    1    3    3  502    0  0.50267494013E+03 -0.87188910098E+03 -0.12154308665E+04  0.15780192937E+04  0.25500000920E-02 0.  1.
       -2    1    3    3    0  502 -0.50267494013E+03  0.87188910098E+03  0.47787819768E+03  0.11141096318E+04  0.25500000920E-02 0. -1.
</event>
<event>
 5   0  0.6158063E-06  0.2588269E+04  0.7818609E-02  0.8372197E-01
        2   -1    0    0  501    0  0.00000000000E+00  0.00000000000E+00  0.11789343142E+04  0.11789343143E+04  0.25500000920E-02 0.  1.
       -2   -1    0    0    0  501  0.00000000000E+00  0.00000000000E+00 -0.14205911371E+04  0.14205911372E+04  0.25500000920E-02 0. -1.
    10030    2    1    2    0    0  0.00000000000E+00  0.00000000000E+00 -0.24165682290E+03  0.25995254514E+04  0.25882686399E+04 0.  0.
        2    1    3    3  502    0 -0.11030792899E+04 -0.64964784929E+00 -0.80052819066E+03  0.13629489080E+04  0.25500000920E-02 0. -1.
       -2    1    3    3    0  502  0.11030792899E+04  0.64964784929E+00  0.55887136776E+03  0.12365765434E+04  0.25500000920E-02 0.  1.
</event>
<event>
 5   0  0.6158063E-06  0.2625357E+04  0.7818609E-02  0.8359639E-01
       -2   -1    0    0    0  501  0.00000000000E+00  0.00000000000E+00  0.12688159491E+04  0.12688159491E+04  0.25500000920E-02 0.  1.
        2   -1    0    0  501    0  0.00000000000E+00  0.00000000000E+00 -0.13580577128E+04  0.13580577128E+04  0.25500000920E-02 0. -1.
    10030    2    1    2    0    0  0.00000000000E+00  0.00000000000E+00 -0.89241763684E+02  0.26268736620E+04  0.26253573363E+04 0.  0.
        2    1    3    3  502    0 -0.19150966608E+03  0.12527930125E+04  0.29756933485E+03  0.13018117350E+04  0.25500000920E-02 0.  1.
       -2    1    3    3    0  502  0.19150966608E+03 -0.12527930125E+04 -0.38681109853E+03  0.13250619270E+04  0.25500000920E-02 0. -1.
</event>
<event>
 5   0  0.6173140E-06  0.2606061E+04  0.7818609E-02  0.8366145E-01
        2   -1    0    0  501    0  0.00000000000E+00  0.00000000000E+00  0.12289137692E+04  0.12289137692E+04  0.25500000920E-02 0. -1.
       -2   -1    0    0    0  501  0.00000000000E+00  0.00000000000E+00 -0.13816173495E+04  0.13816173495E+04  0.25500000920E-02 0.  1.
    10030    2    1    2    0    0  0.00000000000E+00  0.00000000000E+00 -0.15270358036E+03  0.26105311187E+04  0.26060610772E+04 0.  0.
        3    1    3    3  502    0  0.75630164206E+03 -0.90635024065E+03  0.47634240063E+03  0.12729355936E+04  0.10100000352E+00 0. -1.
       -3    1    3    3    0  502 -0.75630164206E+03  0.90635024065E+03 -0.62904598099E+03  0.13375955252E+04  0.10100000352E+00 0.  1.
</event>
<event>
 5   0  0.2440590E-06  0.2591903E+04  0.7818609E-02  0.8370957E-01
        1   -1    0    0  501    0  0.00000000000E+00  0.00000000000E+00  0.94113412790E+03  0.94113412791E+03  0.50400001928E-02 0. -1.
       -1   -1    0    0    0  501  0.00000000000E+00  0.00000000000E+00 -0.17845390451E+04  0.17845390451E+04  0.50400001928E-02 0.  1.
    10030    2    1    2    0    0  0.00000000000E+00  0.00000000000E+00 -0.84340491721E+03  0.27256731730E+04  0.25919032374E+04 0.  0.
        1    1    3    3  502    0 -0.90007794294E+03 -0.92235895367E+03 -0.27826547655E+03  0.13184528881E+04  0.50400001928E-02 0. -1.
       -1    1    3    3    0  502  0.90007794294E+03  0.92235895367E+03 -0.56513944066E+03  0.14072202849E+04  0.50400001928E-02 0.  1.
</event>
<event>
 5   0  0.2503292E-06  0.2601566E+04  0.7818609E-02  0.8367669E-01
        1   -1    0    0  501    0  0.00000000000E+00  0.00000000000E+00  0.17249131001E+04  0.17249131002E+04  0.50400001928E-02 0. -1.
       -1   -1    0    0    0  501  0.00000000000E+00  0.00000000000E+00 -0.98094043820E+03  0.98094043821E+03  0.50400001928E-02 0.  1.
    10030    2    1    2    0    0  0.00000000000E+00  0.00000000000E+00  0.74397266195E+03  0.27058535384E+04  0.26015664607E+04 0.  0.
        2    1    3    3  502    0  0.53725302640E+03  0.11193553776E+04  0.77540003066E+03  0.14638451023E+04  0.25500000920E-02 0. -1.
       -2    1    3    3    0  502 -0.53725302640E+03 -0.11193553776E+04 -0.31427368719E+02  0.12420084361E+04  0.25500000920E-02 0.  1.
</event>
<event>
 5   0  0.2503292E-06  0.2607400E+04  0.7818609E-02  0.8365692E-01
        1   -1    0    0  501    0  0.00000000000E+00  0.00000000000E+00  0.16711661159E+04  0.16711661159E+04  0.50400001928E-02 0. -1.
       -1   -1    0    0    0  501  0.00000000000E+00  0.00000000000E+00 -0.10170342765E+04  0.10170342765E+04  0.50400001928E-02 0.  1.
    10030    2    1    2    0    0  0.00000000000E+00  0.00000000000E+00  0.65413183940E+03  0.26882003924E+04  0.26073996408E+04 0.  0.
        2    1    3    3  502    0  0.10881327001E+02 -0.82059101506E+03 -0.71731384531E+03  0.10899665912E+04  0.25500000920E-02 0.  1.
       -2    1    3    3    0  502 -0.10881327001E+02  0.82059101506E+03  0.13714456847E+04  0.15982338012E+04  0.25500000920E-02 0. -1.
</event>
<event>
 5   0  0.6173140E-06  0.2608790E+04  0.7818609E-02  0.8365222E-01
        2   -1    0    0  501    0  0.00000000000E+00  0.00000000000E+00  0.26250543787E+04  0.26250543787E+04  0.25500000920E-02 0. -1.
       -2   -1    0    0    0  501  0.00000000000E+00  0.00000000000E+00 -0.64815650808E+03  0.64815650808E+03  0.25500000920E-02 0.  1.
    10030    2    1    2    0    0  0.00000000000E+00  0.00000000000E+00  0.19768978706E+04  0.32732108868E+04  0.26087898188E+04 0.  0.
        3    1    3    3  502    0  0.23468207176E+03 -0.55569517982E+03 -0.46263884657E+03  0.76020228902E+03  0.10100000352E+00 0.  1.
       -3    1    3    3    0  502 -0.23468207176E+03  0.55569517982E+03  0.24395367172E+04  0.25130085978E+04  0.10100000352E+00 0. -1.
</event>
<event>
 5   0  0.6158063E-06  0.2571193E+04  0.7818609E-02  0.8378053E-01
       -2   -1    0    0    0  501  0.00000000000E+00  0.00000000000E+00  0.63640893244E+03  0.63640893244E+03  0.25500000920E-02 0.  1.
        2   -1    0    0  501    0  0.00000000000E+00  0.00000000000E+00 -0.25970065345E+04  0.25970065345E+04  0.25500000920E-02 0. -1.
    10030    2    1    2    0    0  0.00000000000E+00  0.00000000000E+00 -0.19605976021E+04  0.32334154670E+04  0.25711928408E+04 0.  0.
        2    1    3    3  502    0 -0.12596513895E+04  0.17559835586E+03 -0.12162428302E+04  0.17597735728E+04  0.25500000920E-02 0. -1.
       -2    1    3    3    0  502  0.12596513895E+04 -0.17559835586E+03 -0.74435477193E+03  0.14736418941E+04  0.25500000920E-02 0.  1.
</event>
<event>
 5   0  0.6158063E-06  0.2583516E+04  0.7818609E-02  0.8373822E-01
       -2   -1    0    0    0  501  0.00000000000E+00  0.00000000000E+00  0.76435721781E+03  0.76435721782E+03  0.25500000920E-02 0.  1.
        2   -1    0    0  501    0  0.00000000000E+00  0.00000000000E+00 -0.21830610066E+04  0.21830610066E+04  0.25500000920E-02 0. -1.
    10030    2    1    2    0    0  0.00000000000E+00  0.00000000000E+00 -0.14187037888E+04  0.29474182244E+04  0.25835157730E+04 0.  0.
        2    1    3    3  502    0 -0.24011270870E+03  0.63624381391E+03  0.54360569965E+03  0.87061326679E+03  0.25500000920E-02 0.  1.
       -2    1    3    3    0  502  0.24011270870E+03 -0.63624381391E+03 -0.19623094884E+04  0.20768049576E+04  0.25500000920E-02 0. -1.
</event>
<event>
 5   0  0.2471488E-06  0.2603745E+04  0.7818609E-02  0.8366930E-01
       -1   -1    0    0    0  501  0.00000000000E+00  0.00000000000E+00  0.11823923814E+04  0.11823923814E+04  0.50400001928E-02 0.  1.
        1   -1    0    0  501    0  0.00000000000E+00  0.00000000000E+00 -0.14334262382E+04  0.14334262382E+04  0.50400001928E-02 0. -1.
    10030    2    1    2    0    0  0.00000000000E+00  0.00000000000E+00 -0.25103385680E+03  0.26158186196E+04  0.26037451975E+04 0.  0.
        4    1    3    3  502    0  0.72794415780E+03  0.34246699929E+00 -0.12098585107E+04  0.14119709781E+04  0.12699999809E+01 0. -1.
       -4    1    3    3    0  502 -0.72794415780E+03 -0.34246699929E+00  0.95882465389E+03  0.12038476415E+04  0.12699999809E+01 0.  1.
</event>
<event>
 5   0  0.2456600E-06  0.2606132E+04  0.7818609E-02  0.8366121E-01
        1   -1    0    0  501    0  0.00000000000E+00  0.00000000000E+00  0.19961102541E+04  0.19961102541E+04  0.50400001928E-02 0. -1.
       -1   -1    0    0    0  501  0.00000000000E+00  0.00000000000E+00 -0.85064503747E+03  0.85064503749E+03  0.50400001928E-02 0.  1.
    10030    2    1    2    0    0  0.00000000000E+00  0.00000000000E+00  0.11454652166E+04  0.28467552916E+04  0.26061322161E+04 0.  0.
        5    1    3    3  502    0  0.57030572286E+03 -0.97492019858E+03 -0.13706410729E+03  0.11377726797E+04  0.46999998093E+01 0.  1.
       -5    1    3    3    0  502 -0.57030572286E+03  0.97492019858E+03  0.12825293239E+04  0.17089826119E+04  0.46999998093E+01 0. -1.
</event>
<event>
 5   0  0.5940748E-06  0.2603366E+04  0.7818609E-02  0.8367059E-01
        2   -1    0    0  501    0  0.00000000000E+00  0.00000000000E+00  0.11132572263E+04  0.11132572263E+04  0.25500000920E-02 0.  1.
       -2   -1    0    0    0  501  0.00000000000E+00  0.00000000000E+00 -0.15220005182E+04  0.15220005182E+04  0.25500000920E-02 0. -1.
    10030    2    1    2    0    0  0.00000000000E+00  0.00000000000E+00 -0.40874329192E+03  0.26352577445E+04  0.26033655720E+04 0.  0.
        1    1    3    3  502    0  0.79694353237E+03 -0.99202686592E+03  0.73106431658E+02  0.12745904624E+04  0.50400001928E-02 0.  1.
       -1    1    3    3    0  502 -0.79694353237E+03  0.99202686592E+03 -0.48184972358E+03  0.13606672821E+04  0.50400001928E-02 0. -1.
</event>
<event>
 5   0  0.6173140E-06  0.2604295E+04  0.7818609E-02  0.8366744E-01
        2   -1    0    0  501    0  0.00000000000E+00  0.00000000000E+00  0.16855037417E+04  0.16855037417E+04  0.25500000920E-02 0. -1.
       -2   -1    0    0    0  501  0.00000000000E+00  0.00000000000E+00 -0.10059827162E+04  0.10059827162E+04  0.25500000920E-02 0.  1.
    10030    2    1    2    0    0  0.00000000000E+00  0.00000000000E+00  0.67952102541E+03  0.26914864579E+04  0.26042946318E+04 0.  0.
        3    1    3    3  502    0  0.78919160271E+03  0.83046770121E+03  0.97942339352E+03  0.15072392586E+04  0.10100000352E+00 0. -1.
       -3    1    3    3    0  502 -0.78919160271E+03 -0.83046770121E+03 -0.29990236811E+03  0.11842471993E+04  0.10100000352E+00 0.  1.
</event>
<event>
 5   0  0.2503292E-06  0.2571607E+04  0.7818609E-02  0.8377910E-01
       -1   -1    0    0    0  501  0.00000000000E+00  0.00000000000E+00  0.92874297216E+03  0.92874297217E+03  0.50400001928E-02 0.  1.
        1   -1    0    0  501    0  0.00000000000E+00  0.00000000000E+00 -0.17801376030E+04  0.17801376030E+04  0.50400001928E-02 0. -1.
    10030    2    1    2    0    0  0.00000000000E+00  0.00000000000E+00 -0.85139463079E+03  0.27088805751E+04  0.25716067260E+04 0.  0.
        2    1    3    3  502    0 -0.11139133952E+03  0.71621154863E+03  0.69303217195E+03  0.10028263081E+04  0.25500000920E-02 0.  1.
       -2    1    3    3    0  502  0.11139133952E+03 -0.71621154863E+03 -0.15444268027E+04  0.17060542670E+04  0.25500000920E-02 0. -1.
</event>
<event>
 5   0  0.6173140E-06  0.2563078E+04  0.7818609E-02  0.8380852E-01
       -2   -1    0    0    0  501  0.00000000000E+00  0.00000000000E+00  0.12793120190E+04  0.12793120190E+04  0.25500000920E-02 0.  1.
        2   -1    0    0  501    0  0.00000000000E+00  0.00000000000E+00 -0.12837700246E+04  0.12837700246E+04  0.25500000920E-02 0. -1.
    10030    2    1    2    0    0  0.00000000000E+00  0.00000000000E+00 -0.44580055168E+01  0.25630820436E+04  0.25630781667E+04 0.  0.
        3    1    3    3  502    0  0.25979416367E+03 -0.46175184581E+03  0.11646637758E+04  0.12795114284E+04  0.10100000352E+00 0.  1.
       -3    1    3    3    0  502 -0.25979416367E+03  0.46175184581E+03 -0.11691217813E+04  0.12835706152E+04  0.10100000352E+00 0. -1.
</event>
<event>
 5   0  0.6158063E-06  0.2594653E+04  0.7818609E-02  0.8370020E-01
       -2   -1    0    0    0  501  0.00000000000E+00  0.00000000000E+00  0.10147940596E+04  0.10147940596E+04  0.25500000920E-02 0. -1.
        2   -1    0    0  501    0  0.00000000000E+00  0.00000000000E+00 -0.16585192678E+04  0.16585192678E+04  0.25500000920E-02 0.  1.
    10030    2    1    2    0    0  0.00000000000E+00  0.00000000000E+00 -0.64372520822E+03  0.26733133274E+04  0.25946525785E+04 0.  0.
        2    1    3    3  502    0  0.31567334899E+02 -0.52877088631E+03  0.89829504146E+03  0.10428466466E+04  0.25500000920E-02 0. -1.
       -2    1    3    3    0  502 -0.31567334899E+02  0.52877088631E+03 -0.15420202497E+04  0.16304666808E+04  0.25500000920E-02 0.  1.
</event>
<event>
 5   0  0.6173140E-06  0.2598856E+04  0.7818609E-02  0.8368590E-01
        2   -1    0    0  501    0  0.00000000000E+00  0.00000000000E+00  0.12765968647E+04  0.12765968647E+04  0.25500000920E-02 0.  1.
       -2   -1    0    0    0  501  0.00000000000E+00  0.00000000000E+00 -0.13226672261E+04  0.13226672261E+04  0.25500000920E-02 0. -1.
    10030    2    1    2    0    0  0.00000000000E+00  0.00000000000E+00 -0.46070361395E+02  0.25992640909E+04  0.25988557743E+04 0.  0.
        3    1    3    3  502    0 -0.73196044194E+03  0.22946715686E+03 -0.10720524664E+04  0.13182252333E+04  0.10100000352E+00 0. -1.
       -3    1    3    3    0  502  0.73196044194E+03 -0.22946715686E+03  0.10259821050E+04  0.12810388576E+04  0.10100000352E+00 0.  1.
</event>
<event>
 5   0  0.2333979E-06  0.2596040E+04  0.7818609E-02  0.8369548E-01
        1   -1    0    0  501    0  0.00000000000E+00  0.00000000000E+00  0.14776785247E+04  0.14776785248E+04  0.50400001928E-02 0. -1.
       -1   -1    0    0    0  501  0.00000000000E+00  0.00000000000E+00 -0.11402045023E+04  0.11402045023E+04  0.50400001928E-02 0.  1.
    10030    2    1    2    0    0  0.00000000000E+00  0.00000000000E+00  0.33747402246E+03  0.26178830271E+04  0.25960398355E+04 0.  0.
        3    1    3    3  502    0  0.10120604000E+04  0.21746287567E+03  0.95846064315E+03  0.14107456079E+04  0.10100000352E+00 0. -1.
       -3    1    3    3    0  502 -0.10120604000E+04 -0.21746287567E+03 -0.62098662070E+03  0.12071374192E+04  0.10100000352E+00 0.  1.
</event>
<event>
 5   0  0.2456600E-06  0.2584178E+04  0.7818609E-02  0.8373596E-01
       -1   -1    0    0    0  501  0.00000000000E+00  0.00000000000E+00  0.78940452548E+03  0.78940452549E+03  0.50400001928E-02 0.  1.
        1   -1    0    0  501    0  0.00000000000E+00  0.00000000000E+00 -0.21148770382E+04  0.21148770382E+04  0.50400001928E-02 0. -1.
    10030    2    1    2    0    0  0.00000000000E+00  0.00000000000E+00 -0.13254725127E+04  0.29042815637E+04  0.25841776292E+04 0.  0.
        5    1    3    3  502    0 -0.57612758116E+03 -0.11537990319E+04 -0.75191395630E+03  0.14928402070E+04  0.46999998093E+01 0. -1.
       -5    1    3    3    0  502  0.57612758116E+03  0.11537990319E+04 -0.57355855643E+03  0.14114413567E+04  0.46999998093E+01 0.  1.
</event>
<event>
 5   0  0.5940748E-06  0.2609063E+04  0.7818609E-02  0.8365129E-01
       -2   -1    0    0    0  501  0.00000000000E+00  0.00000000000E+00  0.11366051338E+04  0.11366051338E+04  0.25500000920E-02 0.  1.
        2   -1    0    0  501    0  0.00000000000E+00  0.00000000000E+00 -0.14972680994E+04  0.14972680994E+04  0.25500000920E-02 0. -1.
    10030    2    1    2    0    0  0.00000000000E+00  0.00000000000E+00 -0.36066296563E+03  0.26338732331E+04  0.26090631333E+04 0.  0.
        1    1    3    3  502    0 -0.12966521356E+04 -0.41222817096E+02 -0.31873562432E+03  0.13358886479E+04  0.50400001928E-02 0. -1.
       -1    1    3    3    0  502  0.12966521356E+04  0.41222817096E+02 -0.41927341312E+02  0.12979845852E+04  0.50400001928E-02 0.  1.
</event>
<event>
 5   0  0.2471488E-06  0.2606965E+04  0.7818609E-02  0.8365839E-01
       -1   -1    0    0    0  501  0.00000000000E+00  0.00000000000E+00  0.21879774644E+04  0.21879774644E+04  0.50400001928E-02 0. -1.
        1   -1    0    0  501    0  0.00000000000E+00  0.00000000000E+00 -0.77654671447E+03  0.77654671449E+03  0.50400001928E-02 0.  1.
    10030    2    1    2    0    0  0.00000000000E+00  0.00000000000E+00  0.14114307499E+04  0.29645241789E+04  0.26069650641E+04 0.  0.
        4    1    3    3  502    0 -0.14431729919E+03  0.99844088982E+02  0.21744820019E+04  0.21815521801E+04  0.12699999809E+01 0. -1.
       -4    1    3    3    0  502  0.14431729919E+03 -0.99844088982E+02 -0.76305125195E+03  0.78297199883E+03  0.12699999809E+01 0.  1.
</event>
<event>
 5   0  0.6158063E-06  0.2614450E+04  0.7818609E-02  0.8363309E-01
        2   -1    0    0  501    0  0.00000000000E+00  0.00000000000E+00  0.19039410080E+04  0.19039410080E+04  0.25500000920E-02 0. -1.
       -2   -1    0    0    0  501  0.00000000000E+00  0.00000000000E+00 -0.89752629251E+03  0.89752629252E+03  0.25500000920E-02 0.  1.
    10030    2    1    2    0    0  0.00000000000E+00  0.00000000000E+00  0.10064147155E+04  0.28014673005E+04  0.26144499338E+04 0.  0.
        2    1    3    3  502    0 -0.91579859812E+03 -0.89055513503E+03  0.20575033971E+03  0.12938735344E+04  0.25500000920E-02 0. -1.
       -2    1    3    3    0  502  0.91579859812E+03  0.89055513503E+03  0.80066437576E+03  0.15075937661E+04  0.25500000920E-02 0.  1.
</event>
<event>
 5   0  0.2440590E-06  0.2660001E+04  0.7818609E-02  0.8348101E-01
       -1   -1    0    0    0  501  0.00000000000E+00  0.00000000000E+00  0.75472919678E+03  0.75472919680E+03  0.50400001928E-02 0. -1.
        1   -1    0    0  501    0  0.00000000000E+00  0.00000000000E+00 -0.23437565625E+04  0.23437565625E+04  0.50400001928E-02 0.  1.
    10030    2    1    2    0    0  0.00000000000E+00  0.00000000000E+00 -0.15890273658E+04  0.30984857593E+04  0.26600011338E+04 0.  0.
        1    1    3    3  502    0 -0.36136205561E+03  0.11258762369E+04 -0.15037511501E+04  0.19129682061E+04  0.50400001928E-02 0.  1.
       -1    1    3    3    0  502  0.36136205561E+03 -0.11258762369E+04 -0.85276215693E+02  0.11855175533E+04  0.50400001928E-02 0. -1.
</event>
<event>
 5   0  0.5942229E-06  0.2599073E+04  0.7818609E-02  0.8368516E-01
       -2   -1    0    0    0  501  0.00000000000E+00  0.00000000000E+00  0.14293206862E+04  0.14293206862E+04  0.25500000920E-02 0.  1.
        2   -1    0    0  501    0  0.00000000000E+00  0.00000000000E+00 -0.11815365448E+04  0.11815365448E+04  0.25500000920E-02 0. -1.
    10030    2    1    2    0    0  0.00000000000E+00  0.00000000000E+00  0.24778414139E+03  0.26108572309E+04  0.25990726230E+04 0.  0.
        4    1    3    3  502    0  0.44796505569E+03 -0.12143702413E+04  0.24028476089E+03  0.13164748965E+04  0.12699999809E+01 0.  1.
       -4    1    3    3    0  502 -0.44796505569E+03  0.12143702413E+04  0.74993805027E+01  0.12943823344E+04  0.12699999809E+01 0. -1.
</event>
<event>
 5   0  0.2471488E-06  0.2598188E+04  0.7818609E-02  0.8368817E-01
        1   -1    0    0  501    0  0.00000000000E+00  0.00000000000E+00  0.11386473959E+04  0.11386473959E+04  0.50400001928E-02 0. -1.
       -1   -1    0    0    0  501  0.00000000000E+00  0.00000000000E+00 -0.14821487281E+04  0.14821487281E+04  0.50400001928E-02 0.  1.
    10030    2    1    2    0    0  0.00000000000E+00  0.00000000000E+00 -0.34350133228E+03  0.26207961240E+04  0.25981876680E+04 0.  0.
        4    1    3    3  502    0  0.11398025972E+04  0.37060928303E+03  0.33375074658E+03  0.12441432293E+04  0.12699999809E+01 0. -1.
       -4    1    3    3    0  502 -0.11398025972E+04 -0.37060928303E+03 -0.67725207886E+03  0.13766528947E+04  0.12699999809E+01 0.  1.
</event>
<event>
 5   0  0.6161834E-06  0.2588758E+04  0.7818609E-02  0.8372030E-01
        2   -1    0    0  501    0  0.00000000000E+00  0.00000000000E+00  0.17473377499E+04  0.17473377499E+04  0.25500000920E-02 0. -1.
       -2   -1    0    0    0  501  0.00000000000E+00  0.00000000000E+00 -0.95883964196E+03  0.95883964197E+03  0.25500000920E-02 0.  1.
    10030    2    1    2    0    0  0.00000000000E+00  0.00000000000E+00  0.78849810796E+03  0.27061773919E+04  0.25887577735E+04 0.  0.
        5    1    3    3  502    0  0.64120252366E+03 -0.97355456259E+03  0.98229907953E+03  0.15244286583E+04  0.46999998093E+01 0. -1.
       -5    1    3    3    0  502 -0.64120252366E+03  0.97355456259E+03 -0.19380097157E+03  0.11817487336E+04  0.46999998093E+01 0.  1.
</event>
<event>
 5   0  0.2471488E-06  0.2599800E+04  0.7818609E-02  0.8368269E-01
       -1   -1    0    0    0  501  0.00000000000E+00  0.00000000000E+00  0.10779914925E+04  0.10779914925E+04  0.50400001928E-02 0. -1.
        1   -1    0    0  501    0  0.00000000000E+00  0.00000000000E+00 -0.15674891639E+04  0.15674891639E+04  0.50400001928E-02 0.  1.
    10030    2    1    2    0    0  0.00000000000E+00  0.00000000000E+00 -0.48949767139E+03  0.26454806564E+04  0.25997999795E+04 0.  0.
        4    1    3    3  502    0 -0.16404842900E+03 -0.57188260565E+03 -0.14208145722E+04  0.15403497210E+04  0.12699999809E+01 0.  1.
       -4    1    3    3    0  502  0.16404842900E+03  0.57188260565E+03  0.93131690079E+03  0.11051309354E+04  0.12699999809E+01 0. -1.
</event>
<event>
 5   0  0.2456600E-06  0.2598982E+04  0.7818609E-02  0.8368547E-01
       -1   -1    0    0    0  501  0.00000000000E+00  0.00000000000E+00  0.99901128555E+03  0.99901128556E+03  0.50400001928E-02 0. -1.
        1   -1    0    0  501    0  0.00000000000E+00  0.00000000000E+00 -0.16903485916E+04  0.16903485916E+04  0.50400001928E-02 0.  1.
    10030    2    1    2    0    0  0.00000000000E+00  0.00000000000E+00 -0.69133730602E+03  0.26893598771E+04  0.25989823543E+04 0.  0.
        5    1    3    3  502    0 -0.11465326739E+03  0.54804487696E+03 -0.15591180784E+04  0.16566139656E+04  0.46999998093E+01 0.  1.
       -5    1    3    3    0  502  0.11465326739E+03 -0.54804487696E+03  0.86778077234E+03  0.10327459115E+04  0.46999998093E+01 0. -1.
</event>
<event>
 5   0  0.5940748E-06  0.2604357E+04  0.7818609E-02  0.8366723E-01
       -2   -1    0    0    0  501  0.00000000000E+00  0.00000000000E+00  0.11856992849E+04  0.11856992850E+04  0.25500000920E-02 0. -1.
        2   -1    0    0  501    0  0.00000000000E+00  0.00000000000E+00 -0.14301007203E+04  0.14301007203E+04  0.25500000920E-02 0.  1.
    10030    2    1    2    0    0  0.00000000000E+00  0.00000000000E+00 -0.24440143532E+03  0.26158000052E+04  0.26043574267E+04 0.  0.
        1    1    3    3  502    0 -0.15556658688E+03  0.13568031694E+03  0.11691617632E+04  0.11872444314E+04  0.50400001928E-02 0. -1.
       -1    1    3    3    0  502  0.15556658688E+03 -0.13568031694E+03 -0.14135631985E+04  0.14285555738E+04  0.50400001928E-02 0.  1.
</event>
<event>
 5   0  0.2333979E-06  0.2610336E+04  0.7818609E-02  0.8364699E-01
       -1   -1    0    0    0  501  0.00000000000E+00  0.00000000000E+00  0.24910309174E+04  0.24910309174E+04  0.50400001928E-02 0.  1.
        1   -1    0    0  501    0  0.00000000000E+00  0.00000000000E+00 -0.68383858804E+03  0.68383858805E+03  0.50400001928E-02 0. -1.
    10030    2    1    2    0    0  0.00000000000E+00  0.00000000000E+00  0.18071923294E+04  0.31748695055E+04  0.26103356607E+04 0.  0.
        3    1    3    3  502    0  0.33534501407E+02 -0.23269080311E+03  0.24650660732E+04  0.24762512652E+04  0.10100000352E+00 0.  1.
       -3    1    3    3    0  502 -0.33534501407E+02  0.23269080311E+03 -0.65787374385E+03  0.69861824031E+03  0.10100000352E+00 0. -1.
</event>
<event>
 5   0  0.5940748E-06  0.2597649E+04  0.7818609E-02  0.8369000E-01
        2   -1    0    0  501    0  0.00000000000E+00  0.00000000000E+00  0.28117704492E+04  0.28117704492E+04  0.25500000920E-02 0.  1.
       -2   -1    0    0    0  501  0.00000000000E+00  0.00000000000E+00 -0.59995853944E+03  0.59995853945E+03  0.25500000920E-02 0. -1.
    10030    2    1    2    0    0  0.00000000000E+00  0.00000000000E+00  0.22118119098E+04  0.34117289887E+04  0.25976494698E+04 0.  0.
        1    1    3    3  502    0  0.65790840425E+03  0.52867564370E+03  0.24025122862E+04  0.25464498209E+04  0.50400001928E-02 0.  1.
       -1    1    3    3    0  502 -0.65790840425E+03 -0.52867564370E+03 -0.19070037646E+03  0.86527916781E+03  0.50400001928E-02 0. -1.
</event>
<event>
 5   0  0.2333979E-06  0.2542563E+04  0.7818609E-02  0.8387977E-01
        1   -1    0    0  501    0  0.00000000000E+00  0.00000000000E+00  0.13003554228E+04  0.13003554228E+04  0.50400001928E-02 0. -1.
       -1   -1    0    0    0  501  0.00000000000E+00  0.00000000000E+00 -0.12428573463E+04  0.12428573463E+04  0.50400001928E-02 0.  1.
    10030    2    1    2    0    0  0.00000000000E+00  0.00000000000E+00  0.57498076515E+02  0.25432127691E+04  0.25425627150E+04 0.  0.
        3    1    3    3  502    0  0.65890164212E+03 -0.93854461652E+03 -0.52015251204E+03  0.12591965761E+04  0.10100000352E+00 0.  1.
       -3    1    3    3    0  502 -0.65890164212E+03  0.93854461652E+03  0.57765058856E+03  0.12840161930E+04  0.10100000352E+00 0. -1.
</event>
<event>
 5   0  0.2456600E-06  0.2587347E+04  0.7818609E-02  0.8372512E-01
        1   -1    0    0  501    0  0.00000000000E+00  0.00000000000E+00  0.90812843252E+03  0.90812843254E+03  0.50400001928E-02 0. -1.
       -1   -1    0    0    0  501  0.00000000000E+00  0.00000000000E+00 -0.18429020252E+04  0.18429020252E+04  0.50400001928E-02 0.  1.
    10030    2    1    2    0    0  0.00000000000E+00  0.00000000000E+00 -0.93477359268E+03  0.27510304577E+04  0.25873474660E+04 0.  0.
        5    1    3    3  502    0  0.75659531606E+03  0.33762403957E+03  0.58901885523E+03  0.10165587864E+04  0.46999998093E+01 0. -1.
       -5    1    3    3    0  502 -0.75659531606E+03 -0.33762403957E+03 -0.15237924479E+04  0.17344716713E+04  0.46999998093E+01 0.  1.
</event>
<event>
 5   0  0.5942229E-06  0.2601188E+04  0.7818609E-02  0.8367798E-01
       -2   -1    0    0    0  501  0.00000000000E+00  0.00000000000E+00  0.73578539445E+03  0.73578539446E+03  0.25500000920E-02 0.  1.
        2   -1    0    0  501    0  0.00000000000E+00  0.00000000000E+00 -0.22989654633E+04  0.22989654633E+04  0.25500000920E-02 0. -1.
    10030    2    1    2    0    0  0.00000000000E+00  0.00000000000E+00 -0.15631800688E+04  0.30347508577E+04  0.26011883517E+04 0.  0.
        4    1    3    3  502    0 -0.61103567398E+03 -0.59074711325E+03 -0.19301594284E+04  0.21089959172E+04  0.12699999809E+01 0. -1.
       -4    1    3    3    0  502  0.61103567398E+03  0.59074711325E+03  0.36697935958E+03  0.92575494055E+03  0.12699999809E+01 0.  1.
</event>
<event>
 5   0  0.6158063E-06  0.2597860E+04  0.7818609E-02  0.8368928E-01
       -2   -1    0    0    0  501  0.00000000000E+00  0.00000000000E+00  0.83352953647E+03  0.83352953647E+03  0.25500000920E-02 0.  1.
        2   -1    0    0  501    0  0.00000000000E+00  0.00000000000E+00 -0.20241862577E+04  0.20241862578E+04  0.25500000920E-02 0. -1.
    10030    2    1    2    0    0  0.00000000000E+00  0.00000000000E+00 -0.11906567213E+04  0.28577157942E+04  0.25978599140E+04 0.  0.
        2    1    3    3  502    0 -0.50081405995E+03 -0.11567634558E+04 -0.25043419467E+03  0.12851590179E+04  0.25500000920E-02 0. -1.
       -2    1    3    3    0  502  0.50081405995E+03  0.11567634558E+04 -0.94022252662E+03  0.15725567764E+04  0.25500000920E-02 0.  1.
</event>
<event>
 5   0  0.2471488E-06  0.2592113E+04  0.7818609E-02  0.8370885E-01
       -1   -1    0    0    0  501  0.00000000000E+00  0.00000000000E+00  0.82819942558E+03  0.82819942559E+03  0.50400001928E-02 0. -1.
        1   -1    0    0  501    0  0.00000000000E+00  0.00000000000E+00 -0.20282106614E+04  0.20282106614E+04  0.50400001928E-02 0.  1.
    10030    2    1    2    0    0  0.00000000000E+00  0.00000000000E+00 -0.12000112358E+04  0.28564100870E+04  0.25921133500E+04 0.  0.
        4    1    3    3  502    0 -0.10470168832E+03  0.42863251866E+03 -0.19428957181E+04  0.19923688574E+04  0.12699999809E+01 0.  1.
       -4    1    3    3    0  502  0.10470168832E+03 -0.42863251866E+03  0.74288448227E+03  0.86404122962E+03  0.12699999809E+01 0. -1.
</event>
<event>
 5   0  0.6161834E-06  0.2596525E+04  0.7818609E-02  0.8369382E-01
        2   -1    0    0  501    0  0.00000000000E+00  0.00000000000E+00  0.14308985881E+04  0.14308985881E+04  0.25500000920E-02 0. -1.
       -2   -1    0    0    0  501  0.00000000000E+00  0.00000000000E+00 -0.11779211009E+04  0.11779211009E+04  0.25500000920E-02 0.  1.
    10030    2    1    2    0    0  0.00000000000E+00  0.00000000000E+00  0.25297748720E+03  0.26088196889E+04  0.25965250933E+04 0.  0.
        5    1    3    3  502    0  0.71800270934E+03 -0.61007680086E+02 -0.95853842547E+03  0.11991946592E+04  0.46999998093E+01 0.  1.
       -5    1    3    3    0  502 -0.71800270934E+03  0.61007680086E+02  0.12115159127E+04  0.14096250297E+04  0.46999998093E+01 0. -1.
</event>
<event>
 5   0  0.2440590E-06  0.2601008E+04  0.7818609E-02  0.8367859E-01
       -1   -1    0    0    0  501  0.00000000000E+00  0.00000000000E+00  0.71987309467E+03  0.71987309469E+03  0.50400001928E-02 0. -1.
        1   -1    0    0  501    0  0.00000000000E+00  0.00000000000E+00 -0.23494558840E+04  0.23494558840E+04  0.50400001928E-02 0.  1.
    10030    2    1    2    0    0  0.00000000000E+00  0.00000000000E+00 -0.16295827894E+04  0.30693289787E+04  0.26010075571E+04 0.  0.
        1    1    3    3  502    0  0.63844313828E+03  0.97896281209E+03 -0.14171341270E+03  0.11773107150E+04  0.50400001928E-02 0.  1.
       -1    1    3    3    0  502 -0.63844313828E+03 -0.97896281209E+03 -0.14878693767E+04  0.18920182637E+04  0.50400001928E-02 0. -1.
</event>
<event>
 5   0  0.5942229E-06  0.2604254E+04  0.7818609E-02  0.8366758E-01
        2   -1    0    0  501    0  0.00000000000E+00  0.00000000000E+00  0.25027295818E+04  0.25027295818E+04  0.25500000920E-02 0. -1.
       -2   -1    0    0    0  501  0.00000000000E+00  0.00000000000E+00 -0.67747420794E+03  0.67747420794E+03  0.25500000920E-02 0.  1.
    10030    2    1    2    0    0  0.00000000000E+00  0.00000000000E+00  0.18252553738E+04  0.31802037897E+04  0.26042540130E+04 0.  0.
        4    1    3    3  502    0 -0.44111985068E+02 -0.11199000856E+04  0.10314586528E+03  0.11255055537E+04  0.12699999809E+01 0.  1.
       -4    1    3    3    0  502  0.44111985068E+02  0.11199000856E+04  0.17221095085E+04  0.20546982360E+04  0.12699999809E+01 0. -1.
</event>
<event>
 5   0  0.2503292E-06  0.2598643E+04  0.7818609E-02  0.8368662E-01
        1   -1    0    0  501    0  0.00000000000E+00  0.00000000000E+00  0.20793770492E+04  0.20793770492E+04  0.50400001928E-02 0.  1.
       -1   -1    0    0    0  501  0.00000000000E+00  0.00000000000E+00 -0.81189547973E+03  0.81189547975E+03  0.50400001928E-02 0. -1.
    10030    2    1    2    0    0  0.00000000000E+00  0.00000000000E+00  0.12674815694E+04  0.28912725289E+04  0.25986433591E+04 0.  0.
        2    1    3    3  502    0 -0.60950261274E+02  0.49533668289E+03 -0.70100147718E+03  0.86050940424E+03  0.25500000920E-02 0. -1.
       -2    1    3    3    0  502  0.60950261274E+02 -0.49533668289E+03  0.19684830466E+04  0.20307631247E+04  0.25500000920E-02 0.  1.
</event>
<event>
 5   0  0.2503292E-06  0.2594090E+04  0.7818609E-02  0.8370211E-01
        1   -1    0    0  501    0  0.00000000000E+00  0.00000000000E+00  0.16004725766E+04  0.16004725766E+04  0.50400001928E-02 0. -1.
       -1   -1    0    0    0  501  0.00000000000E+00  0.00000000000E+00 -0.10511433462E+04  0.10511433462E+04  0.50400001928E-02 0.  1.
    10030    2    1    2    0    0  0.00000000000E+00  0.00000000000E+00  0.54932923036E+03  0.26516159228E+04  0.25940902834E+04 0.  0.
        2    1    3    3  502    0  0.64327924960E+03 -0.10230540248E+04 -0.20682066409E+03  0.12260597529E+04  0.25500000920E-02 0.  1.
       -2    1    3    3    0  502 -0.64327924960E+03  0.10230540248E+04  0.75614989445E+03  0.14255561699E+04  0.25500000920E-02 0. -1.
</event>
<event>
 5   0  0.6158063E-06  0.2599208E+04  0.7818609E-02  0.8368470E-01
        2   -1    0    0  501    0  0.00000000000E+00  0.00000000000E+00  0.15825185435E+04  0.15825185435E+04  0.25500000920E-02 0.  1.
       -2   -1    0    0    0  501  0.00000000000E+00  0.00000000000E+00 -0.10672670832E+04  0.10672670832E+04  0.25500000920E-02 0. -1.
    10030    2    1    2    0    0  0.00000000000E+00  0.00000000000E+00  0.51525146030E+03  0.26497856266E+04  0.25992075330E+04 0.  0.
        2    1    3    3  502    0 -0.75217731755E+03  0.40372008782E+03  0.12565964114E+04  0.15191429055E+04  0.25500000920E-02 0.  1.
       -2    1    3    3    0  502  0.75217731755E+03 -0.40372008782E+03 -0.74134495106E+03  0.11306427211E+04  0.25500000920E-02 0. -1.
</event>
<event>
 5   0  0.2456600E-06  0.2599682E+04  0.7818609E-02  0.8368309E-01
       -1   -1    0    0    0  501  0.00000000000E+00  0.00000000000E+00  0.10743360059E+04  0.10743360059E+04  0.50400001928E-02 0. -1.
        1   -1    0    0  501    0  0.00000000000E+00  0.00000000000E+00 -0.15726800866E+04  0.15726800866E+04  0.50400001928E-02 0.  1.
    10030    2    1    2    0    0  0.00000000000E+00  0.00000000000E+00 -0.49834408071E+03  0.26470160925E+04  0.25996821674E+04 0.  0.
        5    1    3    3  502    0  0.44673393296E+03 -0.95233015606E+03 -0.10266592549E+04  0.14698827329E+04  0.46999998093E+01 0.  1.
       -5    1    3    3    0  502 -0.44673393296E+03  0.95233015606E+03  0.52831517415E+03  0.11771333596E+04  0.46999998093E+01 0. -1.
</event>
<event>
 5   0  0.2471488E-06  0.2606736E+04  0.7818609E-02  0.8365917E-01
       -1   -1    0    0    0  501  0.00000000000E+00  0.00000000000E+00  0.59925875567E+03  0.59925875569E+03  0.50400001928E-02 0.  1.
        1   -1    0    0  501    0  0.00000000000E+00  0.00000000000E+00 -0.28347815163E+04  0.28347815163E+04  0.50400001928E-02 0. -1.
    10030    2    1    2    0    0  0.00000000000E+00  0.00000000000E+00 -0.22355227606E+04  0.34340402720E+04  0.26067356169E+04 0.  0.
        4    1    3    3  502    0  0.12576040634E+04  0.24910316139E+03 -0.14271213319E+04  0.19184100902E+04  0.12699999809E+01 0. -1.
       -4    1    3    3    0  502 -0.12576040634E+04 -0.24910316139E+03 -0.80840142869E+03  0.15156301818E+04  0.12699999809E+01 0.  1.
</event>
<event>
 5   0  0.2456600E-06  0.2591073E+04  0.7818609E-02  0.8371240E-01
       -1   -1    0    0    0  501  0.00000000000E+00  0.00000000000E+00  0.54829386353E+03  0.54829386355E+03  0.50400001928E-02 0.  1.
        1   -1    0    0  501    0  0.00000000000E+00  0.00000000000E+00 -0.30611589415E+04  0.30611589415E+04  0.50400001928E-02 0. -1.
    10030    2    1    2    0    0  0.00000000000E+00  0.00000000000E+00 -0.25128650780E+04  0.36094528051E+04  0.25910728766E+04 0.  0.
        5    1    3    3  502    0 -0.22171059575E+03  0.22208477298E+03  0.49453722697E+03  0.58571869828E+03  0.46999998093E+01 0.  1.
       -5    1    3    3    0  502  0.22171059575E+03 -0.22208477298E+03 -0.30074023050E+04  0.30237341068E+04  0.46999998093E+01 0. -1.
</event>
<event>
 5   0  0.6158063E-06  0.2591836E+04  0.7818609E-02  0.8370980E-01
       -2   -1    0    0    0  501  0.00000000000E+00  0.00000000000E+00  0.14789970052E+04  0.14789970052E+04  0.25500000920E-02 0.  1.
        2   -1    0    0  501    0  0.00000000000E+00  0.00000000000E+00 -0.11355013013E+04  0.11355013013E+04  0.25500000920E-02 0. -1.
    10030    2    1    2    0    0  0.00000000000E+00  0.00000000000E+00  0.34349570390E+03  0.26144983065E+04  0.25918356615E+04 0.  0.
        2    1    3    3  502    0  0.29725806870E+03 -0.12251458263E+04 -0.13097342180E+03  0.12674772946E+04  0.25500000920E-02 0. -1.
       -2    1    3    3    0  502 -0.29725806870E+03  0.12251458263E+04  0.47446912571E+03  0.13470210119E+04  0.25500000920E-02 0.  1.
</event>
<event>
 5   0  0.6158063E-06  0.2602486E+04  0.7818609E-02  0.8367357E-01
        2   -1    0    0  501    0  0.00000000000E+00  0.00000000000E+00  0.20255388386E+04  0.20255388386E+04  0.25500000920E-02 0. -1.
       -2   -1    0    0    0  501  0.00000000000E+00  0.00000000000E+00 -0.83594205840E+03  0.83594205840E+03  0.25500000920E-02 0.  1.
    10030    2    1    2    0    0  0.00000000000E+00  0.00000000000E+00  0.11895967802E+04  0.28614808970E+04  0.26024858164E+04 0.  0.
        2    1    3    3  502    0  0.11128895306E+04  0.16540882434E+03 -0.12397881049E+03  0.11319248791E+04  0.25500000920E-02 0.  1.
       -2    1    3    3    0  502 -0.11128895306E+04 -0.16540882434E+03  0.13135755907E+04  0.17295560179E+04  0.25500000920E-02 0. -1.
</event>
<event>
 5   0  0.2440590E-06  0.2578294E+04  0.7818609E-02  0.8375612E-01
       -1   -1    0    0    0  501  0.00000000000E+00  0.00000000000E+00  0.10070110193E+04  0.10070110194E+04  0.50400001928E-02 0.  1.
        1   -1    0    0  501    0  0.00000000000E+00  0.00000000000E+00 -0.16503295703E+04  0.16503295703E+04  0.50400001928E-02 0. -1.
    10030    2    1    2    0    0  0.00000000000E+00  0.00000000000E+00 -0.64331855091E+03  0.26573405896E+04  0.25782940583E+04 0.  0.
        1    1    3    3  502    0  0.66164761565E+03  0.93642612662E+03  0.28566762960E+03  0.11816418461E+04  0.50400001928E-02 0.  1.
       -1    1    3    3    0  502 -0.66164761565E+03 -0.93642612662E+03 -0.92898618051E+03  0.14756987435E+04  0.50400001928E-02 0. -1.
</event>
<event>
 5   0  0.6173140E-06  0.2609155E+04  0.7818609E-02  0.8365098E-01
       -2   -1    0    0    0  501  0.00000000000E+00  0.00000000000E+00  0.11655101606E+04  0.11655101606E+04  0.25500000920E-02 0.  1.
        2   -1    0    0  501    0  0.00000000000E+00  0.00000000000E+00 -0.14602376570E+04  0.14602376570E+04  0.25500000920E-02 0. -1.
    10030    2    1    2    0    0  0.00000000000E+00  0.00000000000E+00 -0.29472749634E+03  0.26257478176E+04  0.26091545191E+04 0.  0.
        3    1    3    3  502    0 -0.11616352947E+04 -0.39922437629E+03 -0.58964153049E+03  0.13625174513E+04  0.10100000352E+00 0. -1.
       -3    1    3    3    0  502  0.11616352947E+04  0.39922437629E+03  0.29491403415E+03  0.12632303663E+04  0.10100000352E+00 0.  1.
</event>
<event>
 5   0  0.6173140E-06  0.2595798E+04  0.7818609E-02  0.8369630E-01
        2   -1    0    0  501    0  0.00000000000E+00  0.00000000000E+00  0.12067199388E+04  0.12067199388E+04  0.25500000920E-02 0.  1.
       -2   -1    0    0    0  501  0.00000000000E+00  0.00000000000E+00 -0.13959670084E+04  0.13959670084E+04  0.25500000920E-02 0. -1.
    10030    2    1    2    0    0  0.00000000000E+00  0.00000000000E+00 -0.18924706951E+03  0.26026869472E+04  0.25957975445E+04 0.  0.
        3    1    3    3  502    0  0.71360932081E+03  0.58406504775E+03 -0.10103771729E+04  0.13679299267E+04  0.10100000352E+00 0. -1.
       -3    1    3    3    0  502 -0.71360932081E+03 -0.58406504775E+03  0.82113010337E+03  0.12347570205E+04  0.10100000352E+00 0.  1.
</event>
<event>
 5   0  0.5942229E-06  0.2594779E+04  0.7818609E-02  0.8369977E-01
       -2   -1    0    0    0  501  0.00000000000E+00  0.00000000000E+00  0.16601860381E+04  0.16601860381E+04  0.25500000920E-02 0.  1.
        2   -1    0    0  501    0  0.00000000000E+00  0.00000000000E+00 -0.10138740990E+04  0.10138740990E+04  0.25500000920E-02 0. -1.
    10030    2    1    2    0    0  0.00000000000E+00  0.00000000000E+00  0.64631193915E+03  0.26740601371E+04  0.25947790839E+04 0.  0.
        4    1    3    3  502    0 -0.41057087486E+03 -0.82897492537E+02  0.15885897424E+04  0.16428814382E+04  0.12699999809E+01 0.  1.
       -4    1    3    3    0  502  0.41057087486E+03  0.82897492537E+02 -0.94227780325E+03  0.10311786988E+04  0.12699999809E+01 0. -1.
</event>
<event>
 5   0  0.2471488E-06  0.2614967E+04  0.7818609E-02  0.8363135E-01
        1   -1    0    0  501    0  0.00000000000E+00  0.00000000000E+00  0.22621611317E+04  0.22621611317E+04  0.50400001928E-02 0.  1.
       -1   -1    0    0    0  501  0.00000000000E+00  0.00000000000E+00 -0.75569888746E+03  0.75569888748E+03  0.50400001928E-02 0. -1.
    10030    2    1    2    0    0  0.00000000000E+00  0.00000000000E+00  0.15064622443E+04  0.30178600192E+04  0.26149666541E+04 0.  0.
        4    1    3    3  502    0 -0.11050743796E+04  0.44594681815E+03  0.13233059234E+03  0.11989874677E+04  0.12699999809E+01 0. -1.
       -4    1    3    3    0  502  0.11050743796E+04 -0.44594681815E+03  0.13741316519E+04  0.18188725515E+04  0.12699999809E+01 0.  1.
</event>
<event>
 5   0  0.2471488E-06  0.2592688E+04  0.7818609E-02  0.8370689E-01
       -1   -1    0    0    0  501  0.00000000000E+00  0.00000000000E+00  0.99091383646E+03  0.99091383647E+03  0.50400001928E-02 0. -1.
        1   -1    0    0  501    0  0.00000000000E+00  0.00000000000E+00 -0.16959165244E+04  0.16959165244E+04  0.50400001928E-02 0.  1.
    10030    2    1    2    0    0  0.00000000000E+00  0.00000000000E+00 -0.70500268795E+03  0.26868303609E+04  0.25926875242E+04 0.  0.
        4    1    3    3  502    0  0.38194035651E+03 -0.10988674194E+04  0.24020824754E+03  0.11878929483E+04  0.12699999809E+01 0.  1.
       -4    1    3    3    0  502 -0.38194035651E+03  0.10988674194E+04 -0.94521093550E+03  0.14989374126E+04  0.12699999809E+01 0. -1.
</event>
<event>
 5   0  0.6161834E-06  0.2602641E+04  0.7818609E-02  0.8367305E-01
       -2   -1    0    0    0  501  0.00000000000E+00  0.00000000000E+00  0.12773196200E+04  0.12773196200E+04  0.25500000920E-02 0.  1.
        2   -1    0    0  501    0  0.00000000000E+00  0.00000000000E+00 -0.13257723976E+04  0.13257723976E+04  0.25500000920E-02 0. -1.
    10030    2    1    2    0    0  0.00000000000E+00  0.00000000000E+00 -0.48452777578E+02  0.26030920177E+04  0.26026410396E+04 0.  0.
        5    1    3    3  502    0  0.31101662342E+03 -0.10032700244E+04  0.74410651650E+03  0.12872446076E+04  0.46999998093E+01 0.  1.
       -5    1    3    3    0  502 -0.31101662342E+03  0.10032700244E+04 -0.79255929408E+03  0.13158474101E+04  0.46999998093E+01 0. -1.
</event>
<event>
 5   0  0.2471488E-06  0.2603314E+04  0.7818609E-02  0.8367076E-01
        1   -1    0    0  501    0  0.00000000000E+00  0.00000000000E+00  0.18107204509E+04  0.18107204509E+04  0.50400001928E-02 0.  1.
       -1   -1    0    0    0  501  0.00000000000E+00  0.00000000000E+00 -0.93571129803E+03  0.93571129804E+03  0.50400001928E-02 0. -1.
    10030    2    1    2    0    0  0.00000000000E+00  0.00000000000E+00  0.87500915284E+03  0.27464317489E+04  0.26033144900E+04 0.  0.
        4    1    3    3  502    0  0.70117661798E+03 -0.19619657971E+03  0.15757870412E+04  0.17358710089E+04  0.12699999809E+01 0.  1.
       -4    1    3    3    0  502 -0.70117661798E+03  0.19619657971E+03 -0.70077788837E+03  0.10105607400E+04  0.12699999809E+01 0. -1.
</event>
<event>
 5   0  0.6173140E-06  0.2609926E+04  0.7818609E-02  0.8364838E-01
       -2   -1    0    0    0  501  0.00000000000E+00  0.00000000000E+00  0.77489563501E+03  0.77489563501E+03  0.25500000920E-02 0.  1.
        2   -1    0    0  501    0  0.00000000000E+00  0.00000000000E+00 -0.21976223194E+04  0.21976223194E+04  0.25500000920E-02 0. -1.
    10030    2    1    2    0    0  0.00000000000E+00  0.00000000000E+00 -0.14227266844E+04  0.29725179544E+04  0.26099256255E+04 0.  0.
        3    1    3    3  502    0  0.70031271744E+03 -0.58093001153E+03  0.35401275940E+03  0.97634144874E+03  0.10100000352E+00 0.  1.
       -3    1    3    3    0  502 -0.70031271744E+03  0.58093001153E+03 -0.17767394438E+04  0.19961765057E+04  0.10100000352E+00 0. -1.
</event>
<event>
 5   0  0.6173140E-06  0.2598127E+04  0.7818609E-02  0.8368838E-01
        2   -1    0    0  501    0  0.00000000000E+00  0.00000000000E+00  0.13815053364E+04  0.13815053364E+04  0.25500000920E-02 0.  1.
       -2   -1    0    0    0  501  0.00000000000E+00  0.00000000000E+00 -0.12215412134E+04  0.12215412134E+04  0.25500000920E-02 0. -1.
    10030    2    1    2    0    0  0.00000000000E+00  0.00000000000E+00  0.15996412299E+03  0.26030465497E+04  0.25981267905E+04 0.  0.
        3    1    3    3  502    0 -0.25047249129E+03 -0.11708616823E+04 -0.42486906783E+03  0.12704988323E+04  0.10100000352E+00 0. -1.
       -3    1    3    3    0  502  0.25047249129E+03  0.11708616823E+04  0.58483319082E+03  0.13325477174E+04  0.10100000352E+00 0.  1.
</event>
<event>
 5   0  0.2471488E-06  0.2606771E+04  0.7818609E-02  0.8365905E-01
        1   -1    0    0  501    0  0.00000000000E+00  0.00000000000E+00  0.22299306120E+04  0.22299306120E+04  0.50400001928E-02 0. -1.
       -1   -1    0    0    0  501  0.00000000000E+00  0.00000000000E+00 -0.76182343703E+03  0.76182343705E+03  0.50400001928E-02 0.  1.
    10030    2    1    2    0    0  0.00000000000E+00  0.00000000000E+00  0.14681071750E+04  0.29917540491E+04  0.26067707250E+04 0.  0.
        4    1    3    3  502    0  0.17649419953E+03  0.26202696697E+02 -0.74773960956E+03  0.76873462286E+03  0.12699999809E+01 0.  1.
       -4    1    3    3    0  502 -0.17649419953E+03 -0.26202696697E+02  0.22158467845E+04  0.22230194262E+04  0.12699999809E+01 0. -1.
</event>
<event>
 5   0  0.2333979E-06  0.2598245E+04  0.7818609E-02  0.8368798E-01
       -1   -1    0    0    0  501  0.00000000000E+00  0.00000000000E+00  0.10493236686E+04  0.10493236686E+04  0.50400001928E-02 0. -1.
        1   -1    0    0  501    0  0.00000000000E+00  0.00000000000E+00 -0.16083878116E+04  0.16083878116E+04  0.50400001928E-02 0.  1.
    10030    2    1    2    0    0  0.00000000000E+00  0.00000000000E+00 -0.55906414297E+03  0.26577114802E+04  0.25982450993E+04 0.  0.
        3    1    3    3  502    0 -0.30253620423E+03  0.12618539995E+04 -0.34353994602E+03  0.13423201465E+04  0.10100000352E+00 0. -1.
       -3    1    3    3    0  502  0.30253620423E+03 -0.12618539995E+04 -0.21552419695E+03  0.13153913337E+04  0.10100000352E+00 0.  1.
</event>
<event>
 5   0  0.2471488E-06  0.2588662E+04  0.7818609E-02  0.8372063E-01
        1   -1    0    0  501    0  0.00000000000E+00  0.00000000000E+00  0.19889435702E+04  0.19889435702E+04  0.50400001928E-02 0. -1.
       -1   -1    0    0    0  501  0.00000000000E+00  0.00000000000E+00 -0.84230293236E+03  0.84230293238E+03  0.50400001928E-02 0.  1.
    10030    2    1    2    0    0  0.00000000000E+00  0.00000000000E+00  0.11466406379E+04  0.28312465026E+04  0.25886622040E+04 0.  0.
        4    1    3    3  502    0 -0.60230284228E+03  0.58885598469E+03  0.16481494996E+04  0.18509236804E+04  0.12699999809E+01 0. -1.
       -4    1    3    3    0  502  0.60230284228E+03 -0.58885598469E+03 -0.50150886175E+03  0.98032282226E+03  0.12699999809E+01 0.  1.
</event>
<event>
 5   0  0.6161834E-06  0.2593594E+04  0.7818609E-02  0.8370380E-01
        2   -1    0    0  501    0  0.00000000000E+00  0.00000000000E+00  0.20944787148E+04  0.20944787148E+04  0.25500000920E-02 0.  1.
       -2   -1    0    0    0  501  0.00000000000E+00  0.00000000000E+00 -0.80291205425E+03  0.80291205425E+03  0.25500000920E-02 0. -1.
    10030    2    1    2    0    0  0.00000000000E+00  0.00000000000E+00  0.12915666606E+04  0.28973907691E+04  0.25935938059E+04 0.  0.
        5    1    3    3  502    0 -0.34028191865E+02 -0.73540835189E+03  0.18383864942E+04  0.19803207705E+04  0.46999998093E+01 0.  1.
       -5    1    3    3    0  502  0.34028191865E+02  0.73540835189E+03 -0.54681983364E+03  0.91706999860E+03  0.46999998093E+01 0. -1.
</event>
<event>
 5   0  0.2471488E-06  0.2608333E+04  0.7818609E-02  0.8365376E-01
        1   -1    0    0  501    0  0.00000000000E+00  0.00000000000E+00  0.26137103283E+04  0.26137103283E+04  0.50400001928E-02 0.  1.
       -1   -1    0    0    0  501  0.00000000000E+00  0.00000000000E+00 -0.65074179560E+03  0.65074179562E+03  0.50400001928E-02 0. -1.
    10030    2    1    2    0    0  0.00000000000E+00  0.00000000000E+00  0.19629685327E+04  0.32644521239E+04  0.26083332243E+04 0.  0.
        4    1    3    3  502    0  0.38747248700E+03  0.99842926735E+03  0.19129019738E+04  0.21923027858E+04  0.12699999809E+01 0.  1.
       -4    1    3    3    0  502 -0.38747248700E+03 -0.99842926735E+03  0.50066558852E+02  0.10721493381E+04  0.12699999809E+01 0. -1.
</event>
<event>
 5   0  0.2072125E-06  0.2621768E+04  0.7818609E-02  0.8360845E-01
        3   -1    0    0  501    0  0.00000000000E+00  0.00000000000E+00  0.10887115590E+04  0.10887115637E+04  0.10100000352E+00 0. -1.
       -3   -1    0    0    0  501  0.00000000000E+00  0.00000000000E+00 -0.15783948192E+04  0.15783948224E+04  0.10100000352E+00 0.  1.
    10030    2    1    2    0    0  0.00000000000E+00  0.00000000000E+00 -0.48968326022E+03  0.26671063861E+04  0.26217678729E+04 0.  0.
        5    1    3    3  502    0  0.55525256065E+03  0.11839882509E+04 -0.33730356019E+03  0.13505292911E+04  0.46999998093E+01 0.  1.
       -5    1    3    3    0  502 -0.55525256065E+03 -0.11839882509E+04 -0.15237970003E+03  0.13165770951E+04  0.46999998093E+01 0. -1.
</event>
<event>
 5   0  0.2503292E-06  0.2602068E+04  0.7818609E-02  0.8367499E-01
        1   -1    0    0  501    0  0.00000000000E+00  0.00000000000E+00  0.24808030858E+04  0.24808030859E+04  0.50400001928E-02 0.  1.
       -1   -1    0    0    0  501  0.00000000000E+00  0.00000000000E+00 -0.68231536597E+03  0.68231536599E+03  0.50400001928E-02 0. -1.
    10030    2    1    2    0    0  0.00000000000E+00  0.00000000000E+00  0.17984877199E+04  0.31631184518E+04  0.26020684583E+04 0.  0.
        2    1    3    3  502    0 -0.43980510630E+03  0.93762447622E+03 -0.58027935353E+02  0.10372730746E+04  0.25500000920E-02 0. -1.
       -2    1    3    3    0  502  0.43980510630E+03 -0.93762447622E+03  0.18565156552E+04  0.21258453773E+04  0.25500000920E-02 0.  1.
</event>
<event>
 5   0  0.2456600E-06  0.2594471E+04  0.7818609E-02  0.8370082E-01
       -1   -1    0    0    0  501  0.00000000000E+00  0.00000000000E+00  0.13087972925E+04  0.13087972925E+04  0.50400001928E-02 0.  1.
        1   -1    0    0  501    0  0.00000000000E+00  0.00000000000E+00 -0.12857757523E+04  0.12857757523E+04  0.50400001928E-02 0. -1.
    10030    2    1    2    0    0  0.00000000000E+00  0.00000000000E+00  0.23021540235E+02  0.25945730448E+04  0.25944709082E+04 0.  0.
        5    1    3    3  502    0 -0.79749570921E+03 -0.14918151556E+03 -0.10007262923E+04  0.12883049844E+04  0.46999998093E+01 0. -1.
       -5    1    3    3    0  502  0.79749570921E+03  0.14918151556E+03  0.10237478326E+04  0.13062680603E+04  0.46999998093E+01 0.  1.
</event>
<event>
 5   0  0.6158063E-06  0.2601516E+04  0.7818609E-02  0.8367687E-01
       -2   -1    0    0    0  501  0.00000000000E+00  0.00000000000E+00  0.96062472809E+03  0.96062472809E+03  0.25500000920E-02 0.  1.
        2   -1    0    0  501    0  0.00000000000E+00  0.00000000000E+00 -0.17613236262E+04  0.17613236262E+04  0.25500000920E-02 0. -1.
    10030    2    1    2    0    0  0.00000000000E+00  0.00000000000E+00 -0.80069889807E+03  0.27219483542E+04  0.26015157347E+04 0.  0.
        2    1    3    3  502    0  0.10768656291E+04  0.53309871981E+03 -0.92154339623E+03  0.15142906126E+04  0.25500000920E-02 0. -1.
       -2    1    3    3    0  502 -0.10768656291E+04 -0.53309871981E+03  0.12084449817E+03  0.12076577417E+04  0.25500000920E-02 0.  1.
</event>
<event>
 5   0  0.5942229E-06  0.2594670E+04  0.7818609E-02  0.8370014E-01
        2   -1    0    0  501    0  0.00000000000E+00  0.00000000000E+00  0.15236790108E+04  0.15236790108E+04  0.25500000920E-02 0.  1.
       -2   -1    0    0    0  501  0.00000000000E+00  0.00000000000E+00 -0.11046147560E+04  0.11046147560E+04  0.25500000920E-02 0. -1.
    10030    2    1    2    0    0  0.00000000000E+00  0.00000000000E+00  0.41906425477E+03  0.26282937667E+04  0.25946701668E+04 0.  0.
        4    1    3    3  502    0 -0.11523358775E+04 -0.15334405706E+03 -0.37385148417E+03  0.12211301812E+04  0.12699999809E+01 0. -1.
       -4    1    3    3    0  502  0.11523358775E+04  0.15334405706E+03  0.79291573894E+03  0.14071635855E+04  0.12699999809E+01 0.  1.
</event>
<event>
 5   0  0.6173140E-06  0.2601261E+04  0.7818609E-02  0.8367773E-01
       -2   -1    0    0    0  501  0.00000000000E+00  0.00000000000E+00  0.11381472737E+04  0.11381472737E+04  0.25500000920E-02 0. -1.
        2   -1    0    0  501    0  0.00000000000E+00  0.00000000000E+00 -0.14863097035E+04  0.14863097035E+04  0.25500000920E-02 0.  1.
    10030    2    1    2    0    0  0.00000000000E+00  0.00000000000E+00 -0.34816242978E+03  0.26244569772E+04  0.26012607227E+04 0.  0.
        3    1    3    3  502    0 -0.86502883820E+03  0.42533491496E+03 -0.10550541814E+04  0.14290990227E+04  0.10100000352E+00 0.  1.
       -3    1    3    3    0  502  0.86502883820E+03 -0.42533491496E+03  0.70689175158E+03  0.11953579545E+04  0.10100000352E+00 0. -1.
</event>
<event>
 5   0  0.2440590E-06  0.2609408E+04  0.7818609E-02  0.8365012E-01
        1   -1    0    0  501    0  0.00000000000E+00  0.00000000000E+00  0.14926222086E+04  0.14926222086E+04  0.50400001928E-02 0.  1.
       -1   -1    0    0    0  501  0.00000000000E+00  0.00000000000E+00 -0.11404446862E+04  0.11404446863E+04  0.50400001928E-02 0. -1.
    10030    2    1    2    0    0  0.00000000000E+00  0.00000000000E+00  0.35217752233E+03  0.26330668948E+04  0.26094084129E+04 0.  0.
        1    1    3    3  502    0  0.95090996165E+03  0.70172438553E+03 -0.38174001426E+03  0.12419228265E+04  0.50400001928E-02 0. -1.
       -1    1    3    3    0  502 -0.95090996165E+03 -0.70172438553E+03  0.73391753658E+03  0.13911440684E+04  0.50400001928E-02 0.  1.
</event>
<event>
 5   0  0.2333979E-06  0.2599074E+04  0.7818609E-02  0.8368516E-01
        1   -1    0    0  501    0  0.00000000000E+00  0.00000000000E+00  0.17355312446E+04  0.17355312447E+04  0.50400001928E-02 0.  1.
       -1   -1    0    0    0  501  0.00000000000E+00  0.00000000000E+00 -0.97307162026E+03  0.97307162027E+03  0.50400001928E-02 0. -1.
    10030    2    1    2    0    0  0.00000000000E+00  0.00000000000E+00  0.76245962438E+03  0.27086028649E+04  0.25990738352E+04 0.  0.
        3    1    3    3  502    0  0.70586880260E+03 -0.21210714828E+03 -0.73418106387E+03  0.10403182463E+04  0.10100000352E+00 0. -1.
       -3    1    3    3    0  502 -0.70586880260E+03  0.21210714828E+03  0.14966406883E+04  0.16682846186E+04  0.10100000352E+00 0.  1.
</event>
<event>
 5   0  0.2456600E-06  0.2611131E+04  0.7818609E-02  0.8364430E-01
       -1   -1    0    0    0  501  0.00000000000E+00  0.00000000000E+00  0.96010408081E+03  0.96010408082E+03  0.50400001928E-02 0. -1.
        1   -1    0    0  501    0  0.00000000000E+00  0.00000000000E+00 -0.17753303538E+04  0.17753303538E+04  0.50400001928E-02 0.  1.
    10030    2    1    2    0    0  0.00000000000E+00  0.00000000000E+00 -0.81522627301E+03  0.27354344347E+04  0.26111314923E+04 0.  0.
        5    1    3    3  502    0  0.87000188667E+03  0.96821705146E+03 -0.51306427822E+03  0.13991442331E+04  0.46999998093E+01 0.  1.
       -5    1    3    3    0  502 -0.87000188667E+03 -0.96821705146E+03 -0.30216199479E+03  0.13362902015E+04  0.46999998093E+01 0. -1.
</event>
<event>
 5   0  0.2456600E-06  0.2578647E+04  0.7818609E-02  0.8375491E-01
       -1   -1    0    0    0  501  0.00000000000E+00  0.00000000000E+00  0.11553287475E+04  0.11553287475E+04  0.50400001928E-02 0. -1.
        1   -1    0    0  501    0  0.00000000000E+00  0.00000000000E+00 -0.14388591629E+04  0.14388591629E+04  0.50400001928E-02 0.  1.
    10030    2    1    2    0    0  0.00000000000E+00  0.00000000000E+00 -0.28353041544E+03  0.25941879104E+04  0.25786472070E+04 0.  0.
        5    1    3    3  502    0 -0.12102362542E+04  0.48941050277E+02 -0.58631774338E+03  0.13456810929E+04  0.46999998093E+01 0. -1.
       -5    1    3    3    0  502  0.12102362542E+04 -0.48941050277E+02  0.30278732794E+03  0.12485068175E+04  0.46999998093E+01 0.  1.
</event>
<event>
 5   0  0.6158063E-06  0.2601931E+04  0.7818609E-02  0.8367546E-01
       -2   -1    0    0    0  501  0.00000000000E+00  0.00000000000E+00  0.15962213231E+04  0.15962213231E+04  0.25500000920E-02 0.  1.
        2   -1    0    0  501    0  0.00000000000E+00  0.00000000000E+00 -0.10603234205E+04  0.10603234205E+04  0.25500000920E-02 0. -1.
    10030    2    1    2    0    0  0.00000000000E+00  0.00000000000E+00  0.53589790256E+03  0.26565447436E+04  0.26019307087E+04 0.  0.
        2    1    3    3  502    0  0.71155692777E+03 -0.94699922503E+03  0.81719028463E+03  0.14390694059E+04  0.25500000920E-02 0.  1.
       -2    1    3    3    0  502 -0.71155692777E+03  0.94699922503E+03 -0.28129238207E+03  0.12174753377E+04  0.25500000920E-02 0. -1.
</event>
<event>
 5   0  0.6158063E-06  0.2593062E+04  0.7818609E-02  0.8370562E-01
        2   -1    0    0  501    0  0.00000000000E+00  0.00000000000E+00  0.16042008954E+04  0.16042008954E+04  0.25500000920E-02 0. -1.
       -2   -1    0    0    0  501  0.00000000000E+00  0.00000000000E+00 -0.10478690090E+04  0.10478690090E+04  0.25500000920E-02 0.  1.
    10030    2    1    2    0    0  0.00000000000E+00  0.00000000000E+00  0.55633188637E+03  0.26520699045E+04  0.25930618216E+04 0.  0.
        2    1    3    3  502    0  0.34301013387E+03 -0.44640856624E+03 -0.91633960507E+03  0.10754602883E+04  0.25500000920E-02 0.  1.
       -2    1    3    3    0  502 -0.34301013387E+03  0.44640856624E+03  0.14726714914E+04  0.15766096161E+04  0.25500000920E-02 0. -1.
</event>
<event>
 5   0  0.2333979E-06  0.2600899E+04  0.7818609E-02  0.8367896E-01
        1   -1    0    0  501    0  0.00000000000E+00  0.00000000000E+00  0.10657579477E+04  0.10657579477E+04  0.50400001928E-02 0.  1.
       -1   -1    0    0    0  501  0.00000000000E+00  0.00000000000E+00 -0.15868232449E+04  0.15868232449E+04  0.50400001928E-02 0. -1.
    10030    2    1    2    0    0  0.00000000000E+00  0.00000000000E+00 -0.52106529721E+03  0.26525811926E+04  0.26008994481E+04 0.  0.
        3    1    3    3  502    0  0.31534555156E+03 -0.21981296989E+03  0.10064936402E+04  0.10773996550E+04  0.10100000352E+00 0.  1.
       -3    1    3    3    0  502 -0.31534555156E+03  0.21981296989E+03 -0.15275589374E+04  0.15751815375E+04  0.10100000352E+00 0. -1.
</event>
<event>
 5   0  0.2440590E-06  0.2636800E+04  0.7818609E-02  0.8355807E-01
       -1   -1    0    0    0  501  0.00000000000E+00  0.00000000000E+00  0.12314330541E+04  0.12314330541E+04  0.50400001928E-02 0. -1.
        1   -1    0    0  501    0  0.00000000000E+00  0.00000000000E+00 -0.14115090696E+04  0.14115090696E+04  0.50400001928E-02 0.  1.
    10030    2    1    2    0    0  0.00000000000E+00  0.00000000000E+00 -0.18007601553E+03  0.26429421237E+04  0.26368002765E+04 0.  0.
        1    1    3    3  502    0  0.18276434027E+03 -0.12633000469E+04  0.24065336282E+03  0.12989395112E+04  0.50400001928E-02 0. -1.
       -1    1    3    3    0  502 -0.18276434027E+03  0.12633000469E+04 -0.42072937835E+03  0.13440026125E+04  0.50400001928E-02 0.  1.
</event>
<event>
 5   0  0.5940748E-06  0.2598353E+04  0.7818609E-02  0.8368761E-01
       -2   -1    0    0    0  501  0.00000000000E+00  0.00000000000E+00  0.10407234348E+04  0.10407234348E+04  0.25500000920E-02 0. -1.
        2   -1    0    0  501    0  0.00000000000E+00  0.00000000000E+00 -0.16218143006E+04  0.16218143006E+04  0.25500000920E-02 0.  1.
    10030    2    1    2    0    0  0.00000000000E+00  0.00000000000E+00 -0.58109086582E+03  0.26625377354E+04  0.25983534398E+04 0.  0.
        1    1    3    3  502    0 -0.76370735489E+03 -0.84120493366E+03 -0.93617715444E+03  0.14721760523E+04  0.50400001928E-02 0.  1.
       -1    1    3    3    0  502  0.76370735489E+03  0.84120493366E+03  0.35508628862E+03  0.11903616832E+04  0.50400001928E-02 0. -1.
</event>
<event>
 5   0  0.6161834E-06  0.2598938E+04  0.7818609E-02  0.8368562E-01
        2   -1    0    0  501    0  0.00000000000E+00  0.00000000000E+00  0.26920987345E+04  0.26920987345E+04  0.25500000920E-02 0.  1.
       -2   -1    0    0    0  501  0.00000000000E+00  0.00000000000E+00 -0.62725005491E+03  0.62725005491E+03  0.25500000920E-02 0. -1.
    10030    2    1    2    0    0  0.00000000000E+00  0.00000000000E+00  0.20648486796E+04  0.33193487894E+04  0.25989375360E+04 0.  0.
        5    1    3    3  502    0 -0.16443828016E+03  0.69978233631E+03 -0.35017145712E+03  0.79961078380E+03  0.46999998093E+01 0. -1.
       -5    1    3    3    0  502  0.16443828016E+03 -0.69978233631E+03  0.24150201367E+04  0.25197380056E+04  0.46999998093E+01 0.  1.
</event>
<event>
 5   0  0.2503292E-06  0.2581468E+04  0.7818609E-02  0.8374524E-01
       -1   -1    0    0    0  501  0.00000000000E+00  0.00000000000E+00  0.14745999264E+04  0.14745999264E+04  0.50400001928E-02 0.  1.
        1   -1    0    0  501    0  0.00000000000E+00  0.00000000000E+00 -0.11297939117E+04  0.11297939118E+04  0.50400001928E-02 0. -1.
    10030    2    1    2    0    0  0.00000000000E+00  0.00000000000E+00  0.34480601461E+03  0.26043938381E+04  0.25814678143E+04 0.  0.
        2    1    3    3  502    0  0.12311759473E+04  0.43889438579E+02  0.56088576476E+03  0.13536296899E+04  0.25500000920E-02 0.  1.
       -2    1    3    3    0  502 -0.12311759473E+04 -0.43889438579E+02 -0.21607975015E+03  0.12507641483E+04  0.25500000920E-02 0. -1.
</event>
<event>
 5   0  0.2503292E-06  0.2626361E+04  0.7818609E-02  0.8359302E-01
       -1   -1    0    0    0  501  0.00000000000E+00  0.00000000000E+00  0.12916655025E+04  0.12916655025E+04  0.50400001928E-02 0.  1.
        1   -1    0    0  501    0  0.00000000000E+00  0.00000000000E+00 -0.13350536791E+04  0.13350536791E+04  0.50400001928E-02 0. -1.
    10030    2    1    2    0    0  0.00000000000E+00  0.00000000000E+00 -0.43388176565E+02  0.26267191816E+04  0.26263608139E+04 0.  0.
        2    1    3    3  502    0  0.10259498827E+04 -0.75126838179E+03  0.30616985816E+03  0.13079439305E+04  0.25500000920E-02 0.  1.
       -2    1    3    3    0  502 -0.10259498827E+04  0.75126838179E+03 -0.34955803472E+03  0.13187752511E+04  0.25500000920E-02 0. -1.
</event>
<event>
 5   0  0.2333979E-06  0.2548284E+04  0.7818609E-02  0.8385983E-01
        1   -1    0    0  501    0  0.00000000000E+00  0.00000000000E+00  0.10713894191E+04  0.10713894191E+04  0.50400001928E-02 0. -1.
       -1   -1    0    0    0  501  0.00000000000E+00  0.00000000000E+00 -0.15152645779E+04  0.15152645780E+04  0.50400001928E-02 0.  1.
    10030    2    1    2    0    0  0.00000000000E+00  0.00000000000E+00 -0.44387515882E+03  0.25866539971E+04  0.25482844708E+04 0.  0.
        3    1    3    3  502    0 -0.11952457030E+03 -0.54677261610E+03  0.93993340162E+03  0.10939475428E+04  0.10100000352E+00 0. -1.
       -3    1    3    3    0  502  0.11952457030E+03  0.54677261610E+03 -0.13838085604E+04  0.14927064543E+04  0.10100000352E+00 0.  1.
</event>
<event>
 5   0  0.6173140E-06  0.2594821E+04  0.7818609E-02  0.8369963E-01
       -2   -1    0    0    0  501  0.00000000000E+00  0.00000000000E+00  0.13696194896E+04  0.13696194896E+04  0.25500000920E-02 0.  1.
        2   -1    0    0  501    0  0.00000000000E+00  0.00000000000E+00 -0.12290082358E+04  0.12290082358E+04  0.25500000920E-02 0. -1.
    10030    2    1    2    0    0  0.00000000000E+00  0.00000000000E+00  0.14061125385E+03  0.25986277254E+04  0.25948207126E+04 0.  0.
        3    1    3    3  502    0 -0.98129532413E+02  0.90057055899E+03  0.10004399901E+04  0.13496432569E+04  0.10100000352E+00 0.  1.
       -3    1    3    3    0  502  0.98129532413E+02 -0.90057055899E+03 -0.85982873622E+03  0.12489844686E+04  0.10100000352E+00 0. -1.
</event>
<event>
 5   0  0.2456600E-06  0.2591836E+04  0.7818609E-02  0.8370980E-01
       -1   -1    0    0    0  501  0.00000000000E+00  0.00000000000E+00  0.60922632930E+03  0.60922632932E+03  0.50400001928E-02 0. -1.
        1   -1    0    0  501    0  0.00000000000E+00  0.00000000000E+00 -0.27566158408E+04  0.27566158408E+04  0.50400001928E-02 0.  1.
    10030    2    1    2    0    0  0.00000000000E+00  0.00000000000E+00 -0.21473895115E+04  0.33658421701E+04  0.25918356044E+04 0.  0.
        5    1    3    3  502    0 -0.78265495430E+03 -0.92200727818E+03 -0.16782701695E+04  0.20686370030E+04  0.46999998093E+01 0.  1.
       -5    1    3    3    0  502  0.78265495430E+03  0.92200727818E+03 -0.46911934203E+03  0.12972051671E+04  0.46999998093E+01 0. -1.
</event>
<event>
 5   0  0.2503292E-06  0.2612736E+04  0.7818609E-02  0.8363888E-01
       -1   -1    0    0    0  501  0.00000000000E+00  0.00000000000E+00  0.95063596182E+03  0.95063596183E+03  0.50400001928E-02 0.  1.
        1   -1    0    0  501    0  0.00000000000E+00  0.00000000000E+00 -0.17952163850E+04  0.17952163850E+04  0.50400001928E-02 0. -1.
    10030    2    1    2    0    0  0.00000000000E+00  0.00000000000E+00 -0.84458042319E+03  0.27458523468E+04  0.26127359261E+04 0.  0.
        2    1    3    3  502    0 -0.35820870070E+03 -0.93465418497E+03  0.45994714494E+03  0.11015640221E+04  0.25500000920E-02 0.  1.
       -2    1    3    3    0  502  0.35820870070E+03  0.93465418497E+03 -0.13045275681E+04  0.16442883247E+04  0.25500000920E-02 0. -1.
</event>
<event>
 5   0  0.5940748E-06  0.2587121E+04  0.7818609E-02  0.8372589E-01
        2   -1    0    0  501    0  0.00000000000E+00  0.00000000000E+00  0.93492228367E+03  0.93492228367E+03  0.25500000920E-02 0. -1.
       -2   -1    0    0    0  501  0.00000000000E+00  0.00000000000E+00 -0.17897736978E+04  0.17897736978E+04  0.25500000920E-02 0.  1.
    10030    2    1    2    0    0  0.00000000000E+00  0.00000000000E+00 -0.85485141412E+03  0.27246959815E+04  0.25871214218E+04 0.  0.
        1    1    3    3  502    0 -0.89570584413E+03 -0.54787521877E+03 -0.12231445025E+04  0.16119983525E+04  0.50400001928E-02 0.  1.
       -1    1    3    3    0  502  0.89570584413E+03  0.54787521877E+03  0.36829308833E+03  0.11126976290E+04  0.50400001928E-02 0. -1.
</event>
<event>
 5   0  0.6161834E-06  0.2597667E+04  0.7818609E-02  0.8368994E-01
        2   -1    0    0  501    0  0.00000000000E+00  0.00000000000E+00  0.10199775491E+04  0.10199775491E+04  0.25500000920E-02 0. -1.
       -2   -1    0    0    0  501  0.00000000000E+00  0.00000000000E+00 -0.16539266672E+04  0.16539266672E+04  0.25500000920E-02 0.  1.
    10030    2    1    2    0    0  0.00000000000E+00  0.00000000000E+00 -0.63394911804E+03  0.26739042163E+04  0.25976666980E+04 0.  0.
        5    1    3    3  502    0  0.12210264100E+04  0.24458579761E+03 -0.69688401469E+03  0.14270238702E+04  0.46999998093E+01 0.  1.
       -5    1    3    3    0  502 -0.12210264100E+04 -0.24458579761E+03  0.62934896647E+02  0.12468803461E+04  0.46999998093E+01 0. -1.
</event>
<event>
 5   0  0.6161834E-06  0.2594969E+04  0.7818609E-02  0.8369912E-01
       -2   -1    0    0    0  501  0.00000000000E+00  0.00000000000E+00  0.13060793400E+04  0.13060793400E+04  0.25500000920E-02 0.  1.
        2   -1    0    0  501    0  0.00000000000E+00  0.00000000000E+00 -0.12889460665E+04  0.12889460665E+04  0.25500000920E-02 0. -1.
    10030    2    1    2    0    0  0.00000000000E+00  0.00000000000E+00  0.17133273470E+02  0.25950254064E+04  0.25949688459E+04 0.  0.
        5    1    3    3  502    0  0.61587682861E+03  0.11343499475E+04  0.14043939491E+03  0.12983833737E+04  0.46999998093E+01 0. -1.
       -5    1    3    3    0  502 -0.61587682861E+03 -0.11343499475E+04 -0.12330612144E+03  0.12966420327E+04  0.46999998093E+01 0.  1.
</event>
<event>
 5   0  0.6161834E-06  0.2595105E+04  0.7818609E-02  0.8369866E-01
       -2   -1    0    0    0  501  0.00000000000E+00  0.00000000000E+00  0.18401756696E+04  0.18401756696E+04  0.25500000920E-02 0.  1.
        2   -1    0    0  501    0  0.00000000000E+00  0.00000000000E+00 -0.91493571125E+03  0.91493571125E+03  0.25500000920E-02 0. -1.
    10030    2    1    2    0    0  0.00000000000E+00  0.00000000000E+00  0.92523995840E+03  0.27551113809E+04  0.25951049575E+04 0.  0.
        5    1    3    3  502    0  0.93442162195E+03 -0.27179556831E+03  0.13737937198E+04  0.16835521593E+04  0.46999998093E+01 0.  1.
       -5    1    3    3    0  502 -0.93442162195E+03  0.27179556831E+03 -0.44855376141E+03  0.10715592216E+04  0.46999998093E+01 0. -1.
</event>
<event>
 5   0  0.6158063E-06  0.2621014E+04  0.7818609E-02  0.8361098E-01
        2   -1    0    0  501    0  0.00000000000E+00  0.00000000000E+00  0.32190349998E+04  0.32190349999E+04  0.25500000920E-02 0.  1.
       -2   -1    0    0    0  501  0.00000000000E+00  0.00000000000E+00 -0.53352300569E+03  0.53352300570E+03  0.25500000920E-02 0. -1.
    10030    2    1    2    0    0  0.00000000000E+00  0.00000000000E+00  0.26855119942E+04  0.37525580055E+04  0.26210144819E+04 0.  0.
        2    1    3    3  502    0  0.30776127992E+03 -0.93068649100E+03  0.25880516473E+04  0.27674727965E+04  0.25500000920E-02 0.  1.
       -2    1    3    3    0  502 -0.30776127992E+03  0.93068649100E+03  0.97460346831E+02  0.98508520908E+03  0.25500000920E-02 0. -1.
</event>
<event>
 5   0  0.5942229E-06  0.2598743E+04  0.7818609E-02  0.8368628E-01
       -2   -1    0    0    0  501  0.00000000000E+00  0.00000000000E+00  0.16490587781E+04  0.16490587781E+04  0.25500000920E-02 0.  1.
        2   -1    0    0  501    0  0.00000000000E+00  0.00000000000E+00 -0.10238364185E+04  0.10238364185E+04  0.25500000920E-02 0. -1.
    10030    2    1    2    0    0  0.00000000000E+00  0.00000000000E+00  0.62522235958E+03  0.26728951965E+04  0.25987431063E+04 0.  0.
        4    1    3    3  502    0 -0.11553757672E+04 -0.18345487978E+03 -0.26904808408E+03  0.12003904951E+04  0.12699999809E+01 0. -1.
       -4    1    3    3    0  502  0.11553757672E+04  0.18345487978E+03  0.89427044366E+03  0.14725047014E+04  0.12699999809E+01 0.  1.
</event>
<event>
 5   0  0.6173140E-06  0.2604777E+04  0.7818609E-02  0.8366580E-01
       -2   -1    0    0    0  501  0.00000000000E+00  0.00000000000E+00  0.20810184695E+04  0.20810184695E+04  0.25500000920E-02 0.  1.
        2   -1    0    0  501    0  0.00000000000E+00  0.00000000000E+00 -0.81508942985E+03  0.81508942985E+03  0.25500000920E-02 0. -1.
    10030    2    1    2    0    0  0.00000000000E+00  0.00000000000E+00  0.12659290397E+04  0.28961078994E+04  0.26047772710E+04 0.  0.
        3    1    3    3  502    0 -0.13553008040E+03 -0.11252548270E+04 -0.80393988257E+02  0.11362350250E+04  0.10100000352E+00 0.  1.
       -3    1    3    3    0  502  0.13553008040E+03  0.11252548270E+04  0.13463230279E+04  0.17598728744E+04  0.10100000352E+00 0. -1.
</event>
<event>
 5   0  0.6161834E-06  0.2566151E+04  0.7818609E-02  0.8379791E-01
        2   -1    0    0  501    0  0.00000000000E+00  0.00000000000E+00  0.13909740949E+04  0.13909740949E+04  0.25500000920E-02 0.  1.
       -2   -1    0    0    0  501  0.00000000000E+00  0.00000000000E+00 -0.11835467061E+04  0.11835467061E+04  0.25500000920E-02 0. -1.
    10030    2    1    2    0    0  0.00000000000E+00  0.00000000000E+00  0.20742738876E+03  0.25745208010E+04  0.25661510542E+04 0.  0.
        5    1    3    3  502    0 -0.73288954711E+03 -0.23647227294E+03  0.11333233377E+04  0.13702153487E+04  0.46999998093E+01 0.  1.
       -5    1    3    3    0  502  0.73288954711E+03  0.23647227294E+03 -0.92589594891E+03  0.12043054523E+04  0.46999998093E+01 0. -1.
</event>
<event>
 5   0  0.5942229E-06  0.2598353E+04  0.7818609E-02  0.8368761E-01
       -2   -1    0    0    0  501  0.00000000000E+00  0.00000000000E+00  0.18448874684E+04  0.18448874684E+04  0.25500000920E-02 0.  1.
        2   -1    0    0  501    0  0.00000000000E+00  0.00000000000E+00 -0.91488472007E+03  0.91488472007E+03  0.25500000920E-02 0. -1.
    10030    2    1    2    0    0  0.00000000000E+00  0.00000000000E+00  0.93000274833E+03  0.27597721885E+04  0.25983528283E+04 0.  0.
        4    1    3    3  502    0  0.48409125886E+03 -0.40428570222E+02  0.17447960858E+04  0.18111581406E+04  0.12699999809E+01 0.  1.
       -4    1    3    3    0  502 -0.48409125886E+03  0.40428570222E+02 -0.81479333748E+03  0.94861404791E+03  0.12699999809E+01 0. -1.
</event>
<event>
 5   0  0.2072125E-06  0.2592270E+04  0.7818609E-02  0.8370832E-01
       -3   -1    0    0    0  501  0.00000000000E+00  0.00000000000E+00  0.11405679703E+04  0.11405679748E+04  0.10100000352E+00 0. -1.
        3   -1    0    0  501    0  0.00000000000E+00  0.00000000000E+00 -0.14729203115E+04  0.14729203149E+04  0.10100000352E+00 0.  1.
    10030    2    1    2    0    0  0.00000000000E+00  0.00000000000E+00 -0.33235234114E+03  0.26134882897E+04  0.25922698474E+04 0.  0.
        4    1    3    3  502    0  0.72006622670E+03 -0.10712428099E+04 -0.28507194715E+03  0.13218638949E+04  0.12699999809E+01 0. -1.
       -4    1    3    3    0  502 -0.72006622670E+03  0.10712428099E+04 -0.47280393997E+02  0.12916243948E+04  0.12699999809E+01 0.  1.
</event>
<event>
 5   0  0.5940748E-06  0.2645737E+04  0.7818609E-02  0.8352829E-01
        2   -1    0    0  501    0  0.00000000000E+00  0.00000000000E+00  0.14276367363E+04  0.14276367363E+04  0.25500000920E-02 0.  1.
       -2   -1    0    0    0  501  0.00000000000E+00  0.00000000000E+00 -0.12257886679E+04  0.12257886679E+04  0.25500000920E-02 0. -1.
    10030    2    1    2    0    0  0.00000000000E+00  0.00000000000E+00  0.20184806843E+03  0.26534254042E+04  0.26457368979E+04 0.  0.
        1    1    3    3  502    0 -0.44784062208E+02  0.20933639706E+02  0.14267100427E+04  0.14275662420E+04  0.50400001928E-02 0.  1.
       -1    1    3    3    0  502  0.44784062208E+02 -0.20933639706E+02 -0.12248619743E+04  0.12258591622E+04  0.50400001928E-02 0. -1.
</event>
<event>
 5   0  0.2503292E-06  0.2581965E+04  0.7818609E-02  0.8374353E-01
        1   -1    0    0  501    0  0.00000000000E+00  0.00000000000E+00  0.27875607609E+04  0.27875607609E+04  0.50400001928E-02 0. -1.
       -1   -1    0    0    0  501  0.00000000000E+00  0.00000000000E+00 -0.59788308039E+03  0.59788308041E+03  0.50400001928E-02 0.  1.
    10030    2    1    2    0    0  0.00000000000E+00  0.00000000000E+00  0.21896776805E+04  0.33854438413E+04  0.25819646896E+04 0.  0.
        2    1    3    3  502    0  0.43755948898E+03  0.88434277184E+03  0.32277108594E+01  0.98667667582E+03  0.25500000920E-02 0.  1.
       -2    1    3    3    0  502 -0.43755948898E+03 -0.88434277184E+03  0.21864499697E+04  0.23987671655E+04  0.25500000920E-02 0. -1.
</event>
<event>
 5   0  0.6173140E-06  0.2584824E+04  0.7818609E-02  0.8373374E-01
       -2   -1    0    0    0  501  0.00000000000E+00  0.00000000000E+00  0.11911511913E+04  0.11911511913E+04  0.25500000920E-02 0.  1.
        2   -1    0    0  501    0  0.00000000000E+00  0.00000000000E+00 -0.14022815630E+04  0.14022815630E+04  0.25500000920E-02 0. -1.
    10030    2    1    2    0    0  0.00000000000E+00  0.00000000000E+00 -0.21113037172E+03  0.25934327544E+04  0.25848244462E+04 0.  0.
        3    1    3    3  502    0  0.21255745155E+03  0.10311811100E+04  0.64647369110E+03  0.12354931790E+04  0.10100000352E+00 0.  1.
       -3    1    3    3    0  502 -0.21255745155E+03 -0.10311811100E+04 -0.85760406282E+03  0.13579395754E+04  0.10100000352E+00 0. -1.
</event>
<event>
 5   0  0.2471488E-06  0.2664295E+04  0.7818609E-02  0.8346684E-01
       -1   -1    0    0    0  501  0.00000000000E+00  0.00000000000E+00  0.11952049958E+04  0.11952049958E+04  0.50400001928E-02 0. -1.
        1   -1    0    0  501    0  0.00000000000E+00  0.00000000000E+00 -0.14847800885E+04  0.14847800885E+04  0.50400001928E-02 0.  1.
    10030    2    1    2    0    0  0.00000000000E+00  0.00000000000E+00 -0.28957509274E+03  0.26799850844E+04  0.26642947131E+04 0.  0.
        4    1    3    3  502    0  0.11895915391E+04  0.54558699199E+03  0.10531656728E+03  0.13129685403E+04  0.12699999809E+01 0. -1.
       -4    1    3    3    0  502 -0.11895915391E+04 -0.54558699199E+03 -0.39489166002E+03  0.13670165440E+04  0.12699999809E+01 0.  1.
</event>
<event>
 5   0  0.2440590E-06  0.2552902E+04  0.7818609E-02  0.8384377E-01
        1   -1    0    0  501    0  0.00000000000E+00  0.00000000000E+00  0.19893577493E+04  0.19893577493E+04  0.50400001928E-02 0.  1.
       -1   -1    0    0    0  501  0.00000000000E+00  0.00000000000E+00 -0.81902198851E+03  0.81902198852E+03  0.50400001928E-02 0. -1.
    10030    2    1    2    0    0  0.00000000000E+00  0.00000000000E+00  0.11703357607E+04  0.28083797378E+04  0.25529024577E+04 0.  0.
        1    1    3    3  502    0  0.39272339947E+03  0.54612456045E+03  0.17785542271E+04  0.19015096220E+04  0.50400001928E-02 0.  1.
       -1    1    3    3    0  502 -0.39272339947E+03 -0.54612456045E+03 -0.60821846633E+03  0.90687011575E+03  0.50400001928E-02 0. -1.
</event>
<event>
 5   0  0.2456600E-06  0.2598935E+04  0.7818609E-02  0.8368563E-01
       -1   -1    0    0    0  501  0.00000000000E+00  0.00000000000E+00  0.85270354578E+03  0.85270354579E+03  0.50400001928E-02 0.  1.
        1   -1    0    0  501    0  0.00000000000E+00  0.00000000000E+00 -0.19803074251E+04  0.19803074251E+04  0.50400001928E-02 0. -1.
    10030    2    1    2    0    0  0.00000000000E+00  0.00000000000E+00 -0.11276038793E+04  0.28330109709E+04  0.25989345225E+04 0.  0.
        5    1    3    3  502    0 -0.81229515184E+02  0.84117316555E+03 -0.16398373911E+04  0.18447924782E+04  0.46999998093E+01 0. -1.
       -5    1    3    3    0  502  0.81229515184E+02 -0.84117316555E+03  0.51223351179E+03  0.98821849263E+03  0.46999998093E+01 0.  1.
</event>
<event>
 5   0  0.5942229E-06  0.2601601E+04  0.7818609E-02  0.8367657E-01
       -2   -1    0    0    0  501  0.00000000000E+00  0.00000000000E+00  0.13372470276E+04  0.13372470276E+04  0.25500000920E-02 0. -1.
        2   -1    0    0  501    0  0.00000000000E+00  0.00000000000E+00 -0.12653476730E+04  0.12653476730E+04  0.25500000920E-02 0.  1.
    10030    2    1    2    0    0  0.00000000000E+00  0.00000000000E+00  0.71899354621E+02  0.26025947007E+04  0.26016013643E+04 0.  0.
        4    1    3    3  502    0  0.88180841456E+03  0.48441488635E+03 -0.78888738888E+03  0.12785103783E+04  0.12699999809E+01 0.  1.
       -4    1    3    3    0  502 -0.88180841456E+03 -0.48441488635E+03  0.86078674350E+03  0.13240843224E+04  0.12699999809E+01 0. -1.
</event>
<event>
 5   0  0.2503292E-06  0.2598124E+04  0.7818609E-02  0.8368839E-01
        1   -1    0    0  501    0  0.00000000000E+00  0.00000000000E+00  0.19794990274E+04  0.19794990274E+04  0.50400001928E-02 0.  1.
       -1   -1    0    0    0  501  0.00000000000E+00  0.00000000000E+00 -0.85251963152E+03  0.85251963154E+03  0.50400001928E-02 0. -1.
    10030    2    1    2    0    0  0.00000000000E+00  0.00000000000E+00  0.11269793959E+04  0.28320186590E+04  0.25981237703E+04 0.  0.
        2    1    3    3  502    0  0.51754712736E+02 -0.12896735811E+04  0.72378367232E+03  0.14797970471E+04  0.25500000920E-02 0.  1.
       -2    1    3    3    0  502 -0.51754712736E+02  0.12896735811E+04  0.40319572358E+03  0.13522216119E+04  0.25500000920E-02 0. -1.
</event>
<event>
 5   0  0.6158063E-06  0.2605675E+04  0.7818609E-02  0.8366276E-01
       -2   -1    0    0    0  501  0.00000000000E+00  0.00000000000E+00  0.13692007392E+04  0.13692007392E+04  0.25500000920E-02 0.  1.
        2   -1    0    0  501    0  0.00000000000E+00  0.00000000000E+00 -0.12396908706E+04  0.12396908706E+04  0.25500000920E-02 0. -1.
    10030    2    1    2    0    0  0.00000000000E+00  0.00000000000E+00  0.12950986856E+03  0.26088916099E+04  0.26056750806E+04 0.  0.
        2    1    3    3  502    0  0.55270641058E+03  0.10098192895E+04 -0.54605246407E+03  0.12741242747E+04  0.25500000920E-02 0. -1.
       -2    1    3    3    0  502 -0.55270641058E+03 -0.10098192895E+04  0.67556233263E+03  0.13347673352E+04  0.25500000920E-02 0.  1.
</event>
<event>
 5   0  0.5940748E-06  0.2602643E+04  0.7818609E-02  0.8367304E-01
       -2   -1    0    0    0  501  0.00000000000E+00  0.00000000000E+00  0.11971978429E+04  0.11971978429E+04  0.25500000920E-02 0.  1.
        2   -1    0    0  501    0  0.00000000000E+00  0.00000000000E+00 -0.14145014948E+04  0.14145014948E+04  0.25500000920E-02 0. -1.
    10030    2    1    2    0    0  0.00000000000E+00  0.00000000000E+00 -0.21730365184E+03  0.26116993377E+04  0.26026433781E+04 0.  0.
        1    1    3    3  502    0  0.71362833527E+03  0.65528392884E+03  0.76314939474E+03  0.12333123801E+04  0.50400001928E-02 0.  1.
       -1    1    3    3    0  502 -0.71362833527E+03 -0.65528392884E+03 -0.98045304658E+03  0.13783869576E+04  0.50400001928E-02 0. -1.
</event>
<event>
 5   0  0.6161834E-06  0.2592808E+04  0.7818609E-02  0.8370648E-01
       -2   -1    0    0    0  501  0.00000000000E+00  0.00000000000E+00  0.11588239409E+04  0.11588239409E+04  0.25500000920E-02 0.  1.
        2   -1    0    0  501    0  0.00000000000E+00  0.00000000000E+00 -0.14503184822E+04  0.14503184822E+04  0.25500000920E-02 0. -1.
    10030    2    1    2    0    0  0.00000000000E+00  0.00000000000E+00 -0.29149454130E+03  0.26091424231E+04  0.25928083454E+04 0.  0.
        5    1    3    3  502    0 -0.71075489949E+02  0.11881815609E+04 -0.66261180818E+03  0.13623155454E+04  0.46999998093E+01 0. -1.
       -5    1    3    3    0  502  0.71075489949E+02 -0.11881815609E+04  0.37111726687E+03  0.12468268776E+04  0.46999998093E+01 0.  1.
</event>
<event>
 5   0  0.2503292E-06  0.2595952E+04  0.7818609E-02  0.8369578E-01
        1   -1    0    0  501    0  0.00000000000E+00  0.00000000000E+00  0.29205813488E+04  0.29205813488E+04  0.50400001928E-02 0. -1.
       -1   -1    0    0    0  501  0.00000000000E+00  0.00000000000E+00 -0.57685145333E+03  0.57685145336E+03  0.50400001928E-02 0.  1.
    10030    2    1    2    0    0  0.00000000000E+00  0.00000000000E+00  0.23437298955E+04  0.34974328022E+04  0.25959519223E+04 0.  0.
        2    1    3    3  502    0  0.25998346616E+03  0.12676223125E+02  0.28850581194E+04  0.28967762153E+04  0.25500000920E-02 0. -1.
       -2    1    3    3    0  502 -0.25998346616E+03 -0.12676223125E+02 -0.54132822392E+03  0.60065658685E+03  0.25500000920E-02 0.  1.
</event>
<event>
 5   0  0.2471488E-06  0.2598436E+04  0.7818609E-02  0.8368733E-01
       -1   -1    0    0    0  501  0.00000000000E+00  0.00000000000E+00  0.96197333633E+03  0.96197333634E+03  0.50400001928E-02 0.  1.
        1   -1    0    0  501    0  0.00000000000E+00  0.00000000000E+00 -0.17546923873E+04  0.17546923873E+04  0.50400001928E-02 0. -1.
    10030    2    1    2    0    0  0.00000000000E+00  0.00000000000E+00 -0.79271905098E+03  0.27166657237E+04  0.25984359065E+04 0.  0.
        4    1    3    3  502    0  0.17024238485E+03  0.17178866383E+03 -0.17309487903E+04  0.17477640407E+04  0.12699999809E+01 0. -1.
       -4    1    3    3    0  502 -0.17024238485E+03 -0.17178866383E+03  0.93822973929E+03  0.96890168294E+03  0.12699999809E+01 0.  1.
</event>
<event>
 5   0  0.5942229E-06  0.2626411E+04  0.7818609E-02  0.8359285E-01
       -2   -1    0    0    0  501  0.00000000000E+00  0.00000000000E+00  0.68319917876E+03  0.68319917877E+03  0.25500000920E-02 0. -1.
        2   -1    0    0  501    0  0.00000000000E+00  0.00000000000E+00 -0.25241662047E+04  0.25241662047E+04  0.25500000920E-02 0.  1.
    10030    2    1    2    0    0  0.00000000000E+00  0.00000000000E+00 -0.18409670259E+04  0.32073653835E+04  0.26264106900E+04 0.  0.
        4    1    3    3  502    0 -0.11733812934E+04 -0.25265494977E+03 -0.26986099795E+03  0.12302376821E+04  0.12699999809E+01 0.  1.
       -4    1    3    3    0  502  0.11733812934E+04  0.25265494977E+03 -0.15711060280E+04  0.19771277014E+04  0.12699999809E+01 0. -1.
</event>
<event>
 5   0  0.6173140E-06  0.2604606E+04  0.7818609E-02  0.8366638E-01
        2   -1    0    0  501    0  0.00000000000E+00  0.00000000000E+00  0.30191191757E+04  0.30191191757E+04  0.25500000920E-02 0.  1.
       -2   -1    0    0    0  501  0.00000000000E+00  0.00000000000E+00 -0.56175087640E+03  0.56175087640E+03  0.25500000920E-02 0. -1.
    10030    2    1    2    0    0  0.00000000000E+00  0.00000000000E+00  0.24573682993E+04  0.35808700521E+04  0.26046057997E+04 0.  0.
        3    1    3    3  502    0  0.49579269275E+03  0.19735158155E+03  0.28619098115E+04  0.29112344152E+04  0.10100000352E+00 0.  1.
       -3    1    3    3    0  502 -0.49579269275E+03 -0.19735158155E+03 -0.40454151219E+03  0.66963563690E+03  0.10100000352E+00 0. -1.
</event>
<event>
 5   0  0.2440590E-06  0.2619814E+04  0.7818609E-02  0.8361502E-01
       -1   -1    0    0    0  501  0.00000000000E+00  0.00000000000E+00  0.93432965526E+03  0.93432965527E+03  0.50400001928E-02 0.  1.
        1   -1    0    0  501    0  0.00000000000E+00  0.00000000000E+00 -0.18364566721E+04  0.18364566721E+04  0.50400001928E-02 0. -1.
    10030    2    1    2    0    0  0.00000000000E+00  0.00000000000E+00 -0.90212701687E+03  0.27707863274E+04  0.26198136799E+04 0.  0.
        1    1    3    3  502    0  0.60083338358E+03 -0.57570372890E+03 -0.15210040977E+04  0.17337499830E+04  0.50400001928E-02 0. -1.
       -1    1    3    3    0  502 -0.60083338358E+03  0.57570372890E+03  0.61887708087E+03  0.10370363444E+04  0.50400001928E-02 0.  1.
</event>
<event>
 5   0  0.2333979E-06  0.2604061E+04  0.7818609E-02  0.8366823E-01
        1   -1    0    0  501    0  0.00000000000E+00  0.00000000000E+00  0.15264215712E+04  0.15264215712E+04  0.50400001928E-02 0.  1.
       -1   -1    0    0    0  501  0.00000000000E+00  0.00000000000E+00 -0.11106256981E+04  0.11106256981E+04  0.50400001928E-02 0. -1.
    10030    2    1    2    0    0  0.00000000000E+00  0.00000000000E+00  0.41579587308E+03  0.26370472693E+04  0.26040606930E+04 0.  0.
        3    1    3    3  502    0 -0.67766549252E+03  0.93931164235E+03  0.81019765790E+03  0.14134911164E+04  0.10100000352E+00 0.  1.
       -3    1    3    3    0  502  0.67766549252E+03 -0.93931164235E+03 -0.39440178482E+03  0.12235561529E+04  0.10100000352E+00 0. -1.
</event>
<event>
 5   0  0.2503292E-06  0.2605445E+04  0.7818609E-02  0.8366354E-01
       -1   -1    0    0    0  501  0.00000000000E+00  0.00000000000E+00  0.13674588454E+04  0.13674588454E+04  0.50400001928E-02 0.  1.
        1   -1    0    0  501    0  0.00000000000E+00  0.00000000000E+00 -0.12410510138E+04  0.12410510138E+04  0.50400001928E-02 0. -1.
    10030    2    1    2    0    0  0.00000000000E+00  0.00000000000E+00  0.12640783163E+03  0.26085098592E+04  0.26054452106E+04 0.  0.
        2    1    3    3  502    0  0.22184050991E+03  0.11768968481E+04 -0.45002639480E+03  0.12793838982E+04  0.25500000920E-02 0.  1.
       -2    1    3    3    0  502 -0.22184050991E+03 -0.11768968481E+04  0.57643422643E+03  0.13291259610E+04  0.25500000920E-02 0. -1.
</event>
<event>
 5   0  0.2503292E-06  0.2595043E+04  0.7818609E-02  0.8369887E-01
       -1   -1    0    0    0  501  0.00000000000E+00  0.00000000000E+00  0.18070174277E+04  0.18070174277E+04  0.50400001928E-02 0.  1.
        1   -1    0    0  501    0  0.00000000000E+00  0.00000000000E+00 -0.93167968555E+03  0.93167968557E+03  0.50400001928E-02 0. -1.
    10030    2    1    2    0    0  0.00000000000E+00  0.00000000000E+00  0.87533774217E+03  0.27386971133E+04  0.25950425267E+04 0.  0.
        2    1    3    3  502    0  0.35202957848E+02  0.12579145607E+04  0.10398041091E+03  0.12626956150E+04  0.25500000920E-02 0. -1.
       -2    1    3    3    0  502 -0.35202957848E+02 -0.12579145607E+04  0.77135733126E+03  0.14760014983E+04  0.25500000920E-02 0.  1.
</event>
<event>
 5   0  0.6161834E-06  0.2599246E+04  0.7818609E-02  0.8368458E-01
        2   -1    0    0  501    0  0.00000000000E+00  0.00000000000E+00  0.15364721506E+04  0.15364721506E+04  0.25500000920E-02 0.  1.
       -2   -1    0    0    0  501  0.00000000000E+00  0.00000000000E+00 -0.10992840368E+04  0.10992840368E+04  0.25500000920E-02 0. -1.
    10030    2    1    2    0    0  0.00000000000E+00  0.00000000000E+00  0.43718811385E+03  0.26357561874E+04  0.25992455122E+04 0.  0.
        5    1    3    3  502    0 -0.13807299396E+03 -0.12917458665E+04  0.25551542035E+03  0.13240021735E+04  0.46999998093E+01 0.  1.
       -5    1    3    3    0  502  0.13807299396E+03  0.12917458665E+04  0.18167269350E+03  0.13117540139E+04  0.46999998093E+01 0. -1.
</event>
<event>
 5   0  0.2456600E-06  0.2600178E+04  0.7818609E-02  0.8368141E-01
       -1   -1    0    0    0  501  0.00000000000E+00  0.00000000000E+00  0.13531213367E+04  0.13531213367E+04  0.50400001928E-02 0. -1.
        1   -1    0    0  501    0  0.00000000000E+00  0.00000000000E+00 -0.12491349425E+04  0.12491349425E+04  0.50400001928E-02 0.  1.
    10030    2    1    2    0    0  0.00000000000E+00  0.00000000000E+00  0.10398639421E+03  0.26022562793E+04  0.26001777964E+04 0.  0.
        5    1    3    3  502    0 -0.48676708059E+03 -0.10322460968E+04 -0.57118814632E+03  0.12762257573E+04  0.46999998093E+01 0.  1.
       -5    1    3    3    0  502  0.48676708059E+03  0.10322460968E+04  0.67517454054E+03  0.13260305220E+04  0.46999998093E+01 0. -1.
</event>
<event>
 5   0  0.2333979E-06  0.2588740E+04  0.7818609E-02  0.8372036E-01
       -1   -1    0    0    0  501  0.00000000000E+00  0.00000000000E+00  0.13634406803E+04  0.13634406804E+04  0.50400001928E-02 0.  1.
        1   -1    0    0  501    0  0.00000000000E+00  0.00000000000E+00 -0.12287988128E+04  0.12287988128E+04  0.50400001928E-02 0. -1.
    10030    2    1    2    0    0  0.00000000000E+00  0.00000000000E+00  0.13464186751E+03  0.25922394932E+04  0.25887404578E+04 0.  0.
        3    1    3    3  502    0 -0.11557026385E+04  0.46361671494E+03  0.42107627669E+03  0.13144939285E+04  0.10100000352E+00 0. -1.
       -3    1    3    3    0  502  0.11557026385E+04 -0.46361671494E+03 -0.28643440918E+03  0.12777455647E+04  0.10100000352E+00 0.  1.
</event>
<event>
 5   0  0.2456600E-06  0.2603346E+04  0.7818609E-02  0.8367066E-01
        1   -1    0    0  501    0  0.00000000000E+00  0.00000000000E+00  0.13015136308E+04  0.13015136308E+04  0.50400001928E-02 0.  1.
       -1   -1    0    0    0  501  0.00000000000E+00  0.00000000000E+00 -0.13018319423E+04  0.13018319423E+04  0.50400001928E-02 0. -1.
    10030    2    1    2    0    0  0.00000000000E+00  0.00000000000E+00 -0.31831144016E+00  0.26033455731E+04  0.26033455536E+04 0.  0.
        5    1    3    3  502    0 -0.62664638252E+03 -0.11109622869E+04 -0.25978780828E+03  0.13017045314E+04  0.46999998093E+01 0.  1.
       -5    1    3    3    0  502  0.62664638252E+03  0.11109622869E+04  0.25946949684E+03  0.13016410417E+04  0.46999998093E+01 0. -1.
</event>
<event>
 5   0  0.2440590E-06  0.2619850E+04  0.7818609E-02  0.8361490E-01
       -1   -1    0    0    0  501  0.00000000000E+00  0.00000000000E+00  0.88415825037E+03  0.88415825039E+03  0.50400001928E-02 0.  1.
        1   -1    0    0  501    0  0.00000000000E+00  0.00000000000E+00 -0.19407199311E+04  0.19407199311E+04  0.50400001928E-02 0. -1.
    10030    2    1    2    0    0  0.00000000000E+00  0.00000000000E+00 -0.10565616807E+04  0.28248781815E+04  0.26198500253E+04 0.  0.
        1    1    3    3  502    0 -0.19722074821E+03  0.23770744262E+03  0.84433236074E+03  0.89905394011E+03  0.50400001928E-02 0.  1.
       -1    1    3    3    0  502  0.19722074821E+03 -0.23770744262E+03 -0.19008940414E+04  0.19258242414E+04  0.50400001928E-02 0. -1.
</event>
<event>
 5   0  0.6158063E-06  0.2592638E+04  0.7818609E-02  0.8370706E-01
        2   -1    0    0  501    0  0.00000000000E+00  0.00000000000E+00  0.10729616071E+04  0.10729616071E+04  0.25500000920E-02 0.  1.
       -2   -1    0    0    0  501  0.00000000000E+00  0.00000000000E+00 -0.15661723080E+04  0.15661723080E+04  0.25500000920E-02 0. -1.
    10030    2    1    2    0    0  0.00000000000E+00  0.00000000000E+00 -0.49321070082E+03  0.26391339151E+04  0.25926378510E+04 0.  0.
        2    1    3    3  502    0  0.33466746997E+03  0.66890927831E+03 -0.13243665274E+04  0.15209827866E+04  0.25500000920E-02 0. -1.
       -2    1    3    3    0  502 -0.33466746997E+03 -0.66890927831E+03  0.83115582663E+03  0.11181511285E+04  0.25500000920E-02 0.  1.
</event>
<event>
 5   0  0.5940748E-06  0.2603535E+04  0.7818609E-02  0.8367002E-01
        2   -1    0    0  501    0  0.00000000000E+00  0.00000000000E+00  0.19320664045E+04  0.19320664045E+04  0.25500000920E-02 0. -1.
       -2   -1    0    0    0  501  0.00000000000E+00  0.00000000000E+00 -0.87709103813E+03  0.87709103813E+03  0.25500000920E-02 0.  1.
    10030    2    1    2    0    0  0.00000000000E+00  0.00000000000E+00  0.10549753664E+04  0.28091574427E+04  0.26035346193E+04 0.  0.
        1    1    3    3  502    0 -0.61910561416E+03  0.95754899964E+03 -0.15012984953E+03  0.11501003521E+04  0.50400001928E-02 0.  1.
       -1    1    3    3    0  502  0.61910561416E+03 -0.95754899964E+03  0.12051052159E+04  0.16590570906E+04  0.50400001928E-02 0. -1.
</event>
<event>
 5   0  0.2456600E-06  0.2626529E+04  0.7818609E-02  0.8359245E-01
       -1   -1    0    0    0  501  0.00000000000E+00  0.00000000000E+00  0.10010305548E+04  0.10010305548E+04  0.50400001928E-02 0.  1.
        1   -1    0    0  501    0  0.00000000000E+00  0.00000000000E+00 -0.17228882761E+04  0.17228882761E+04  0.50400001928E-02 0. -1.
    10030    2    1    2    0    0  0.00000000000E+00  0.00000000000E+00 -0.72185772130E+03  0.27239188310E+04  0.26265291218E+04 0.  0.
        5    1    3    3  502    0 -0.79447133924E+03 -0.88173888844E+03 -0.94390535486E+03  0.15164523023E+04  0.46999998093E+01 0. -1.
       -5    1    3    3    0  502  0.79447133924E+03  0.88173888844E+03  0.22204763356E+03  0.12074665287E+04  0.46999998093E+01 0.  1.
</event>
<event>
 5   0  0.2503292E-06  0.2597154E+04  0.7818609E-02  0.8369168E-01
       -1   -1    0    0    0  501  0.00000000000E+00  0.00000000000E+00  0.13557550461E+04  0.13557550461E+04  0.50400001928E-02 0.  1.
        1   -1    0    0  501    0  0.00000000000E+00  0.00000000000E+00 -0.12438106818E+04  0.12438106818E+04  0.50400001928E-02 0. -1.
    10030    2    1    2    0    0  0.00000000000E+00  0.00000000000E+00  0.11194436424E+03  0.25995657279E+04  0.25971542952E+04 0.  0.
        2    1    3    3  502    0  0.88103921691E+03  0.25289935921E+03 -0.86472666560E+03  0.12601350697E+04  0.25500000920E-02 0. -1.
       -2    1    3    3    0  502 -0.88103921691E+03 -0.25289935921E+03  0.97667102985E+03  0.13394306582E+04  0.25500000920E-02 0.  1.
</event>
<event>
 5   0  0.2333979E-06  0.2579158E+04  0.7818609E-02  0.8375315E-01
       -1   -1    0    0    0  501  0.00000000000E+00  0.00000000000E+00  0.11212878100E+04  0.11212878100E+04  0.50400001928E-02 0. -1.
        1   -1    0    0  501    0  0.00000000000E+00  0.00000000000E+00 -0.14831282877E+04  0.14831282878E+04  0.50400001928E-02 0.  1.
    10030    2    1    2    0    0  0.00000000000E+00  0.00000000000E+00 -0.36184047772E+03  0.26044160978E+04  0.25791577461E+04 0.  0.
        3    1    3    3  502    0  0.12613518261E+04  0.17986722275E+03  0.20160540405E+02  0.12742712053E+04  0.10100000352E+00 0.  1.
       -3    1    3    3    0  502 -0.12613518261E+04 -0.17986722275E+03 -0.38200101812E+03  0.13301448925E+04  0.10100000352E+00 0. -1.
</event>
<event>
 5   0  0.6158063E-06  0.2601293E+04  0.7818609E-02  0.8367762E-01
       -2   -1    0    0    0  501  0.00000000000E+00  0.00000000000E+00  0.17684988706E+04  0.17684988706E+04  0.25500000920E-02 0.  1.
        2   -1    0    0  501    0  0.00000000000E+00  0.00000000000E+00 -0.95656374855E+03  0.95656374856E+03  0.25500000920E-02 0. -1.
    10030    2    1    2    0    0  0.00000000000E+00  0.00000000000E+00  0.81193512205E+03  0.27250626192E+04  0.26012934544E+04 0.  0.
        2    1    3    3  502    0  0.79967859325E+03 -0.59012860244E+03 -0.47296647642E+03  0.11006520375E+04  0.25500000920E-02 0. -1.
       -2    1    3    3    0  502 -0.79967859325E+03  0.59012860244E+03  0.12849015985E+04  0.16244105816E+04  0.25500000920E-02 0.  1.
</event>
<event>
 5   0  0.5940748E-06  0.2599070E+04  0.7818609E-02  0.8368517E-01
        2   -1    0    0  501    0  0.00000000000E+00  0.00000000000E+00  0.18347923886E+04  0.18347923886E+04  0.25500000920E-02 0.  1.
       -2   -1    0    0    0  501  0.00000000000E+00  0.00000000000E+00 -0.92042656518E+03  0.92042656518E+03  0.25500000920E-02 0. -1.
    10030    2    1    2    0    0  0.00000000000E+00  0.00000000000E+00  0.91436582340E+03  0.27552189538E+04  0.25990703384E+04 0.  0.
        1    1    3    3  502    0 -0.81096825411E+03  0.53012744141E+03 -0.46092539370E+03  0.10729197696E+04  0.50400001928E-02 0. -1.
       -1    1    3    3    0  502  0.81096825411E+03 -0.53012744141E+03  0.13752912171E+04  0.16822991842E+04  0.50400001928E-02 0.  1.
</event>
<event>
 5   0  0.2440590E-06  0.2596645E+04  0.7818609E-02  0.8369342E-01
       -1   -1    0    0    0  501  0.00000000000E+00  0.00000000000E+00  0.78671386806E+03  0.78671386807E+03  0.50400001928E-02 0. -1.
        1   -1    0    0  501    0  0.00000000000E+00  0.00000000000E+00 -0.21426358868E+04  0.21426358868E+04  0.50400001928E-02 0.  1.
    10030    2    1    2    0    0  0.00000000000E+00  0.00000000000E+00 -0.13559220187E+04  0.29293497549E+04  0.25966450403E+04 0.  0.
        1    1    3    3  502    0 -0.64612012370E+03  0.11087595962E+04 -0.90024046723E+03  0.15675624247E+04  0.50400001928E-02 0.  1.
       -1    1    3    3    0  502  0.64612012370E+03 -0.11087595962E+04 -0.45568155152E+03  0.13617873302E+04  0.50400001928E-02 0. -1.
</event>
<event>
 5   0  0.6158063E-06  0.2561807E+04  0.7818609E-02  0.8381291E-01
        2   -1    0    0  501    0  0.00000000000E+00  0.00000000000E+00  0.10994535109E+04  0.10994535109E+04  0.25500000920E-02 0.  1.
       -2   -1    0    0    0  501  0.00000000000E+00  0.00000000000E+00 -0.14922996279E+04  0.14922996279E+04  0.25500000920E-02 0. -1.
    10030    2    1    2    0    0  0.00000000000E+00  0.00000000000E+00 -0.39284611702E+03  0.25917531389E+04  0.25618072256E+04 0.  0.
        2    1    3    3  502    0 -0.85986324009E+03  0.43633608621E+02 -0.11559000950E+04  0.14413097214E+04  0.25500000920E-02 0. -1.
       -2    1    3    3    0  502  0.85986324009E+03 -0.43633608621E+02  0.76305397795E+03  0.11504434174E+04  0.25500000920E-02 0.  1.
</event>
<event>
 5   0  0.2471488E-06  0.2602114E+04  0.7818609E-02  0.8367483E-01
       -1   -1    0    0    0  501  0.00000000000E+00  0.00000000000E+00  0.84184038996E+03  0.84184038998E+03  0.50400001928E-02 0. -1.
        1   -1    0    0  501    0  0.00000000000E+00  0.00000000000E+00 -0.20107727186E+04  0.20107727186E+04  0.50400001928E-02 0.  1.
    10030    2    1    2    0    0  0.00000000000E+00  0.00000000000E+00 -0.11689323286E+04  0.28526131086E+04  0.26021142862E+04 0.  0.
        4    1    3    3  502    0 -0.12544055437E+04 -0.28966620878E+03 -0.79046031375E+03  0.15107180085E+04  0.12699999809E+01 0.  1.
       -4    1    3    3    0  502  0.12544055437E+04  0.28966620878E+03 -0.37847201490E+03  0.13418951001E+04  0.12699999809E+01 0. -1.
</event>
<event>
 5   0  0.2333979E-06  0.2601796E+04  0.7818609E-02  0.8367591E-01
       -1   -1    0    0    0  501  0.00000000000E+00  0.00000000000E+00  0.14569647930E+04  0.14569647930E+04  0.50400001928E-02 0. -1.
        1   -1    0    0  501    0  0.00000000000E+00  0.00000000000E+00 -0.11615489785E+04  0.11615489785E+04  0.50400001928E-02 0.  1.
    10030    2    1    2    0    0  0.00000000000E+00  0.00000000000E+00  0.29541581454E+03  0.26185137715E+04  0.26017962772E+04 0.  0.
        3    1    3    3  502    0 -0.34118133256E+03 -0.36901002295E+03 -0.10599030843E+04  0.11730164777E+04  0.10100000352E+00 0.  1.
       -3    1    3    3    0  502  0.34118133256E+03  0.36901002295E+03  0.13553188988E+04  0.14454972938E+04  0.10100000352E+00 0. -1.
</event>
<event>
 5   0  0.6161834E-06  0.2646412E+04  0.7818609E-02  0.8352605E-01
       -2   -1    0    0    0  501  0.00000000000E+00  0.00000000000E+00  0.19203381059E+04  0.19203381059E+04  0.25500000920E-02 0. -1.
        2   -1    0    0  501    0  0.00000000000E+00  0.00000000000E+00 -0.91175305986E+03  0.91175305987E+03  0.25500000920E-02 0.  1.
    10030    2    1    2    0    0  0.00000000000E+00  0.00000000000E+00  0.10085850461E+04  0.28320911658E+04  0.26464120194E+04 0.  0.
        5    1    3    3  502    0  0.65430265710E+02 -0.78085202064E+03  0.16453293032E+04  0.18223999572E+04  0.46999998093E+01 0. -1.
       -5    1    3    3    0  502 -0.65430265710E+02  0.78085202064E+03 -0.63674425715E+03  0.10096912086E+04  0.46999998093E+01 0.  1.
</event>
<event>
 5   0  0.6158063E-06  0.2572717E+04  0.7818609E-02  0.8377528E-01
        2   -1    0    0  501    0  0.00000000000E+00  0.00000000000E+00  0.14783846816E+04  0.14783846816E+04  0.25500000920E-02 0. -1.
       -2   -1    0    0    0  501  0.00000000000E+00  0.00000000000E+00 -0.11192741304E+04  0.11192741304E+04  0.25500000920E-02 0.  1.
    10030    2    1    2    0    0  0.00000000000E+00  0.00000000000E+00  0.35911055124E+03  0.25976588120E+04  0.25727166411E+04 0.  0.
        2    1    3    3  502    0  0.38626075264E+03 -0.42369352676E+03 -0.98313113137E+03  0.11380950730E+04  0.25500000920E-02 0.  1.
       -2    1    3    3    0  502 -0.38626075264E+03  0.42369352676E+03  0.13422416826E+04  0.14595637390E+04  0.25500000920E-02 0. -1.
</event>
<event>
 5   0  0.2072125E-06  0.2513725E+04  0.7818609E-02  0.8398112E-01
        3   -1    0    0  501    0  0.00000000000E+00  0.00000000000E+00  0.66473472568E+03  0.66473473335E+03  0.10100000352E+00 0.  1.
       -3   -1    0    0    0  501  0.00000000000E+00  0.00000000000E+00 -0.23764421252E+04  0.23764421274E+04  0.10100000352E+00 0. -1.
    10030    2    1    2    0    0  0.00000000000E+00  0.00000000000E+00 -0.17117073995E+04  0.30411768607E+04  0.25137252190E+04 0.  0.
        2    1    3    3  502    0  0.57888476817E+03  0.36665406303E+02 -0.22048271578E+04  0.22798497149E+04  0.25500000920E-02 0. -1.
       -2    1    3    3    0  502 -0.57888476817E+03 -0.36665406303E+02  0.49311975830E+03  0.76132714576E+03  0.25500000920E-02 0.  1.
</event>
<event>
 5   0  0.2456600E-06  0.2598467E+04  0.7818609E-02  0.8368722E-01
       -1   -1    0    0    0  501  0.00000000000E+00  0.00000000000E+00  0.86630879649E+03  0.86630879651E+03  0.50400001928E-02 0.  1.
        1   -1    0    0  501    0  0.00000000000E+00  0.00000000000E+00 -0.19485053592E+04  0.19485053592E+04  0.50400001928E-02 0. -1.
    10030    2    1    2    0    0  0.00000000000E+00  0.00000000000E+00 -0.10821965627E+04  0.28148141557E+04  0.25984667269E+04 0.  0.
        5    1    3    3  502    0 -0.85570228547E+03  0.36842258117E+02  0.51717570439E+03  0.10005381315E+04  0.46999998093E+01 0.  1.
       -5    1    3    3    0  502  0.85570228547E+03 -0.36842258117E+02 -0.15993722671E+04  0.18142760242E+04  0.46999998093E+01 0. -1.
</event>
<event>
 5   0  0.2503292E-06  0.2606112E+04  0.7818609E-02  0.8366128E-01
       -1   -1    0    0    0  501  0.00000000000E+00  0.00000000000E+00  0.97886628784E+03  0.97886628785E+03  0.50400001928E-02 0. -1.
        1   -1    0    0  501    0  0.00000000000E+00  0.00000000000E+00 -0.17346137030E+04  0.17346137030E+04  0.50400001928E-02 0.  1.
    10030    2    1    2    0    0  0.00000000000E+00  0.00000000000E+00 -0.75574741512E+03  0.27134799908E+04  0.26061119518E+04 0.  0.
        2    1    3    3  502    0  0.42650362112E+03  0.52690446541E+03 -0.15365650134E+04  0.16794539871E+04  0.25500000920E-02 0.  1.
       -2    1    3    3    0  502 -0.42650362112E+03 -0.52690446541E+03  0.78081759828E+03  0.10340260037E+04  0.25500000920E-02 0. -1.
</event>
<event>
 5   0  0.2440590E-06  0.2606153E+04  0.7818609E-02  0.8366114E-01
        1   -1    0    0  501    0  0.00000000000E+00  0.00000000000E+00  0.16891110042E+04  0.16891110042E+04  0.50400001928E-02 0. -1.
       -1   -1    0    0    0  501  0.00000000000E+00  0.00000000000E+00 -0.10052673933E+04  0.10052673933E+04  0.50400001928E-02 0.  1.
    10030    2    1    2    0    0  0.00000000000E+00  0.00000000000E+00  0.68384361084E+03  0.26943783975E+04  0.26061528859E+04 0.  0.
        1    1    3    3  502    0 -0.85187516165E+02 -0.12979486703E+04  0.26130413886E+03  0.13267281246E+04  0.50400001928E-02 0.  1.
       -1    1    3    3    0  502  0.85187516165E+02  0.12979486703E+04  0.42253947198E+03  0.13676502729E+04  0.50400001928E-02 0. -1.
</event>
<event>
 5   0  0.6158063E-06  0.2657901E+04  0.7818609E-02  0.8348795E-01
       -2   -1    0    0    0  501  0.00000000000E+00  0.00000000000E+00  0.10399006251E+04  0.10399006251E+04  0.25500000920E-02 0. -1.
        2   -1    0    0  501    0  0.00000000000E+00  0.00000000000E+00 -0.16983442310E+04  0.16983442310E+04  0.25500000920E-02 0.  1.
    10030    2    1    2    0    0  0.00000000000E+00  0.00000000000E+00 -0.65844360593E+03  0.27382448561E+04  0.26579008465E+04 0.  0.
        2    1    3    3  502    0 -0.48566958002E+03 -0.92535255605E+03 -0.11749865477E+04  0.15724966395E+04  0.25500000920E-02 0.  1.
       -2    1    3    3    0  502  0.48566958002E+03  0.92535255605E+03  0.51654294173E+03  0.11657482166E+04  0.25500000920E-02 0. -1.
</event>
<event>
 5   0  0.2440590E-06  0.2608708E+04  0.7818609E-02  0.8365249E-01
        1   -1    0    0  501    0  0.00000000000E+00  0.00000000000E+00  0.18762540366E+04  0.18762540367E+04  0.50400001928E-02 0.  1.
       -1   -1    0    0    0  501  0.00000000000E+00  0.00000000000E+00 -0.90677477921E+03  0.90677477923E+03  0.50400001928E-02 0. -1.
    10030    2    1    2    0    0  0.00000000000E+00  0.00000000000E+00  0.96947925743E+03  0.27830288159E+04  0.26087083699E+04 0.  0.
        1    1    3    3  502    0 -0.51991299595E+03  0.12717430364E+01 -0.79145332757E+03  0.94694746974E+03  0.50400001928E-02 0. -1.
       -1    1    3    3    0  502  0.51991299595E+03 -0.12717430364E+01  0.17609325850E+04  0.18360813461E+04  0.50400001928E-02 0.  1.
</event>
<event>
 5   0  0.6161834E-06  0.2610097E+04  0.7818609E-02  0.8364780E-01
        2   -1    0    0  501    0  0.00000000000E+00  0.00000000000E+00  0.14456017737E+04  0.14456017737E+04  0.25500000920E-02 0.  1.
       -2   -1    0    0    0  501  0.00000000000E+00  0.00000000000E+00 -0.11781607640E+04  0.11781607640E+04  0.25500000920E-02 0. -1.
    10030    2    1    2    0    0  0.00000000000E+00  0.00000000000E+00  0.26744100971E+03  0.26237625378E+04  0.26100967723E+04 0.  0.
        5    1    3    3  502    0  0.11910906693E+04  0.38061397263E+02 -0.40102668475E+03  0.12573743056E+04  0.46999998093E+01 0. -1.
       -5    1    3    3    0  502 -0.11910906693E+04 -0.38061397263E+02  0.66846769446E+03  0.13663882322E+04  0.46999998093E+01 0.  1.
</event>
<event>
 5   0  0.2333979E-06  0.2600935E+04  0.7818609E-02  0.8367884E-01
       -1   -1    0    0    0  501  0.00000000000E+00  0.00000000000E+00  0.16697584776E+04  0.16697584776E+04  0.50400001928E-02 0. -1.
        1   -1    0    0  501    0  0.00000000000E+00  0.00000000000E+00 -0.10128504321E+04  0.10128504322E+04  0.50400001928E-02 0.  1.
    10030    2    1    2    0    0  0.00000000000E+00  0.00000000000E+00  0.65690804542E+03  0.26826089097E+04  0.26009349055E+04 0.  0.
        3    1    3    3  502    0 -0.12102784116E+04 -0.46754856106E+03  0.23712926267E+03  0.13189411617E+04  0.10100000352E+00 0. -1.
       -3    1    3    3    0  502  0.12102784116E+04  0.46754856106E+03  0.41977878275E+03  0.13636677481E+04  0.10100000352E+00 0.  1.
</event>
<event>
 5   0  0.2456600E-06  0.2620043E+04  0.7818609E-02  0.8361425E-01
        1   -1    0    0  501    0  0.00000000000E+00  0.00000000000E+00  0.10348794506E+04  0.10348794506E+04  0.50400001928E-02 0.  1.
       -1   -1    0    0    0  501  0.00000000000E+00  0.00000000000E+00 -0.16583152100E+04  0.16583152100E+04  0.50400001928E-02 0. -1.
    10030    2    1    2    0    0  0.00000000000E+00  0.00000000000E+00 -0.62343575939E+03  0.26931946606E+04  0.26200430023E+04 0.  0.
        5    1    3    3  502    0  0.43853564931E+03 -0.71536713667E+03 -0.13458230923E+04  0.15859777872E+04  0.46999998093E+01 0. -1.
       -5    1    3    3    0  502 -0.43853564931E+03  0.71536713667E+03  0.72238733289E+03  0.11072168734E+04  0.46999998093E+01 0.  1.
</event>
<event>
 5   0  0.2456600E-06  0.2614879E+04  0.7818609E-02  0.8363165E-01
       -1   -1    0    0    0  501  0.00000000000E+00  0.00000000000E+00  0.14832697617E+04  0.14832697617E+04  0.50400001928E-02 0. -1.
        1   -1    0    0  501    0  0.00000000000E+00  0.00000000000E+00 -0.11524523618E+04  0.11524523618E+04  0.50400001928E-02 0.  1.
    10030    2    1    2    0    0  0.00000000000E+00  0.00000000000E+00  0.33081739990E+03  0.26357221235E+04  0.26148787659E+04 0.  0.
        5    1    3    3  502    0  0.98610113002E+03 -0.64111844815E+03  0.74087750805E+03  0.13900898802E+04  0.46999998093E+01 0. -1.
       -5    1    3    3    0  502 -0.98610113002E+03  0.64111844815E+03 -0.41006010815E+03  0.12456322433E+04  0.46999998093E+01 0.  1.
</event>
<event>
 5   0  0.6158063E-06  0.2582667E+04  0.7818609E-02  0.8374113E-01
       -2   -1    0    0    0  501  0.00000000000E+00  0.00000000000E+00  0.94569785316E+03  0.94569785316E+03  0.25500000920E-02 0.  1.
        2   -1    0    0  501    0  0.00000000000E+00  0.00000000000E+00 -0.17632933911E+04  0.17632933911E+04  0.25500000920E-02 0. -1.
    10030    2    1    2    0    0  0.00000000000E+00  0.00000000000E+00 -0.81759553798E+03  0.27089912443E+04  0.25826674385E+04 0.  0.
        2    1    3    3  502    0 -0.54578873253E+03  0.10640517009E+02  0.81871817799E+03  0.98402134943E+03  0.25500000920E-02 0.  1.
       -2    1    3    3    0  502  0.54578873253E+03 -0.10640517009E+02 -0.16363137160E+04  0.17249698949E+04  0.25500000920E-02 0. -1.
</event>
<event>
 5   0  0.2072125E-06  0.2599923E+04  0.7818609E-02  0.8368227E-01
       -3   -1    0    0    0  501  0.00000000000E+00  0.00000000000E+00  0.97108870583E+03  0.97108871108E+03  0.10100000352E+00 0.  1.
        3   -1    0    0  501    0  0.00000000000E+00  0.00000000000E+00 -0.17402117056E+04  0.17402117085E+04  0.10100000352E+00 0. -1.
    10030    2    1    2    0    0  0.00000000000E+00  0.00000000000E+00 -0.76912299977E+03  0.27113004196E+04  0.25999230328E+04 0.  0.
        2    1    3    3  502    0 -0.81238172223E+03  0.10111829086E+04 -0.29458073100E+03  0.13301250860E+04  0.25500000920E-02 0. -1.
       -2    1    3    3    0  502  0.81238172223E+03 -0.10111829086E+04 -0.47454226878E+03  0.13811753336E+04  0.25500000920E-02 0.  1.
</event>
<event>
 5   0  0.2440590E-06  0.2600713E+04  0.7818609E-02  0.8367959E-01
       -1   -1    0    0    0  501  0.00000000000E+00  0.00000000000E+00  0.76652749007E+03  0.76652749009E+03  0.50400001928E-02 0.  1.
        1   -1    0    0  501    0  0.00000000000E+00  0.00000000000E+00 -0.22059573664E+04  0.22059573664E+04  0.50400001928E-02 0. -1.
    10030    2    1    2    0    0  0.00000000000E+00  0.00000000000E+00 -0.14394298763E+04  0.29724848565E+04  0.26007129510E+04 0.  0.
        1    1    3    3  502    0  0.55004272477E+03  0.23151395705E+03 -0.20401963114E+04  0.21256873477E+04  0.50400001928E-02 0. -1.
       -1    1    3    3    0  502 -0.55004272477E+03 -0.23151395705E+03  0.60076643502E+03  0.84679750877E+03  0.50400001928E-02 0.  1.
</event>
<event>
 5   0  0.6158063E-06  0.2638401E+04  0.7818609E-02  0.8355273E-01
       -2   -1    0    0    0  501  0.00000000000E+00  0.00000000000E+00  0.84546157988E+03  0.84546157989E+03  0.25500000920E-02 0.  1.
        2   -1    0    0  501    0  0.00000000000E+00  0.00000000000E+00 -0.20583896883E+04  0.20583896883E+04  0.25500000920E-02 0. -1.
    10030    2    1    2    0    0  0.00000000000E+00  0.00000000000E+00 -0.12129281084E+04  0.29038512682E+04  0.26384005745E+04 0.  0.
        2    1    3    3  502    0  0.10422571760E+04  0.79725983759E+03 -0.45730746546E+03  0.13896234697E+04  0.25500000920E-02 0.  1.
       -2    1    3    3    0  502 -0.10422571760E+04 -0.79725983759E+03 -0.75562064294E+03  0.15142277985E+04  0.25500000920E-02 0. -1.
</event>
<event>
 5   0  0.2503292E-06  0.2588738E+04  0.7818609E-02  0.8372037E-01
        1   -1    0    0  501    0  0.00000000000E+00  0.00000000000E+00  0.18212696823E+04  0.18212696823E+04  0.50400001928E-02 0. -1.
       -1   -1    0    0    0  501  0.00000000000E+00  0.00000000000E+00 -0.91990312710E+03  0.91990312712E+03  0.50400001928E-02 0.  1.
    10030    2    1    2    0    0  0.00000000000E+00  0.00000000000E+00  0.90136655515E+03  0.27411728094E+04  0.25887384387E+04 0.  0.
        2    1    3    3  502    0  0.21772420297E+03  0.12740319292E+04  0.52427752649E+03  0.13947860445E+04  0.25500000920E-02 0. -1.
       -2    1    3    3    0  502 -0.21772420297E+03 -0.12740319292E+04  0.37708902866E+03  0.13463867649E+04  0.25500000920E-02 0.  1.
</event>
<event>
 5   0  0.2503292E-06  0.2610837E+04  0.7818609E-02  0.8364530E-01
        1   -1    0    0  501    0  0.00000000000E+00  0.00000000000E+00  0.12979954436E+04  0.12979954436E+04  0.50400001928E-02 0. -1.
       -1   -1    0    0    0  501  0.00000000000E+00  0.00000000000E+00 -0.13128837328E+04  0.13128837328E+04  0.50400001928E-02 0.  1.
    10030    2    1    2    0    0  0.00000000000E+00  0.00000000000E+00 -0.14888289270E+02  0.26108791764E+04  0.26108367265E+04 0.  0.
        2    1    3    3  502    0 -0.10232959497E+04  0.27855443886E+03 -0.76863319340E+03  0.13097801961E+04  0.25500000920E-02 0.  1.
       -2    1    3    3    0  502  0.10232959497E+04 -0.27855443886E+03  0.75374490413E+03  0.13010989803E+04  0.25500000920E-02 0. -1.
</event>
<event>
 5   0  0.2471488E-06  0.2622838E+04  0.7818609E-02  0.8360485E-01
       -1   -1    0    0    0  501  0.00000000000E+00  0.00000000000E+00  0.94080448225E+03  0.94080448227E+03  0.50400001928E-02 0. -1.
        1   -1    0    0  501    0  0.00000000000E+00  0.00000000000E+00 -0.18280312601E+04  0.18280312601E+04  0.50400001928E-02 0.  1.
    10030    2    1    2    0    0  0.00000000000E+00  0.00000000000E+00 -0.88722677785E+03  0.27688357424E+04  0.26228381599E+04 0.  0.
        4    1    3    3  502    0  0.11621761064E+04 -0.60198564494E+03 -0.53052711668E+03  0.14122679114E+04  0.12699999809E+01 0.  1.
       -4    1    3    3    0  502 -0.11621761064E+04  0.60198564494E+03 -0.35669966116E+03  0.13565678310E+04  0.12699999809E+01 0. -1.
</event>
<event>
 5   0  0.2471488E-06  0.2602724E+04  0.7818609E-02  0.8367277E-01
       -1   -1    0    0    0  501  0.00000000000E+00  0.00000000000E+00  0.20894690143E+04  0.20894690143E+04  0.50400001928E-02 0. -1.
        1   -1    0    0  501    0  0.00000000000E+00  0.00000000000E+00 -0.81051347812E+03  0.81051347814E+03  0.50400001928E-02 0.  1.
    10030    2    1    2    0    0  0.00000000000E+00  0.00000000000E+00  0.12789555362E+04  0.28999824924E+04  0.26027238027E+04 0.  0.
        4    1    3    3  502    0 -0.82740130975E+02 -0.12962063718E+04  0.54934165683E+03  0.14102392550E+04  0.12699999809E+01 0.  1.
       -4    1    3    3    0  502  0.82740130975E+02  0.12962063718E+04  0.72961387933E+03  0.14897432374E+04  0.12699999809E+01 0. -1.
</event>
<event>
 5   0  0.2456600E-06  0.2553240E+04  0.7818609E-02  0.8384260E-01
        1   -1    0    0  501    0  0.00000000000E+00  0.00000000000E+00  0.16060540864E+04  0.16060540864E+04  0.50400001928E-02 0.  1.
       -1   -1    0    0    0  501  0.00000000000E+00  0.00000000000E+00 -0.10147593391E+04  0.10147593391E+04  0.50400001928E-02 0. -1.
    10030    2    1    2    0    0  0.00000000000E+00  0.00000000000E+00  0.59129474727E+03  0.26208134255E+04  0.25532398111E+04 0.  0.
        5    1    3    3  502    0  0.94083144906E+02 -0.10671788011E+04 -0.41699944586E+03  0.11496229206E+04  0.46999998093E+01 0.  1.
       -5    1    3    3    0  502 -0.94083144906E+02  0.10671788011E+04  0.10082941931E+04  0.14711905049E+04  0.46999998093E+01 0. -1.
</event>
<event>
 5   0  0.2333979E-06  0.2557782E+04  0.7818609E-02  0.8382685E-01
        1   -1    0    0  501    0  0.00000000000E+00  0.00000000000E+00  0.10513415154E+04  0.10513415154E+04  0.50400001928E-02 0. -1.
       -1   -1    0    0    0  501  0.00000000000E+00  0.00000000000E+00 -0.15556901611E+04  0.15556901611E+04  0.50400001928E-02 0.  1.
    10030    2    1    2    0    0  0.00000000000E+00  0.00000000000E+00 -0.50434864573E+03  0.26070316766E+04  0.25577815791E+04 0.  0.
        3    1    3    3  502    0  0.12417616850E+04  0.22411473963E+03 -0.46441968966E+03  0.13445761999E+04  0.10100000352E+00 0. -1.
       -3    1    3    3    0  502 -0.12417616850E+04 -0.22411473963E+03 -0.39928956068E+02  0.12624554767E+04  0.10100000352E+00 0.  1.
</event>
<event>
 5   0  0.6161834E-06  0.2605624E+04  0.7818609E-02  0.8366293E-01
       -2   -1    0    0    0  501  0.00000000000E+00  0.00000000000E+00  0.72152211897E+03  0.72152211897E+03  0.25500000920E-02 0.  1.
        2   -1    0    0  501    0  0.00000000000E+00  0.00000000000E+00 -0.23524139016E+04  0.23524139016E+04  0.25500000920E-02 0. -1.
    10030    2    1    2    0    0  0.00000000000E+00  0.00000000000E+00 -0.16308917827E+04  0.30739360206E+04  0.26056236589E+04 0.  0.
        5    1    3    3  502    0  0.11628013668E+03  0.27086581812E+03 -0.23125465052E+04  0.23312620596E+04  0.46999998093E+01 0. -1.
       -5    1    3    3    0  502 -0.11628013668E+03 -0.27086581812E+03  0.68165472256E+03  0.74267396103E+03  0.46999998093E+01 0.  1.
</event>
<event>
 5   0  0.2456600E-06  0.2614452E+04  0.7818609E-02  0.8363309E-01
       -1   -1    0    0    0  501  0.00000000000E+00  0.00000000000E+00  0.95249361437E+03  0.95249361439E+03  0.50400001928E-02 0. -1.
        1   -1    0    0  501    0  0.00000000000E+00  0.00000000000E+00 -0.17940688962E+04  0.17940688962E+04  0.50400001928E-02 0.  1.
    10030    2    1    2    0    0  0.00000000000E+00  0.00000000000E+00 -0.84157528181E+03  0.27465625106E+04  0.26144515045E+04 0.  0.
        5    1    3    3  502    0  0.34516367755E+02 -0.99255737877E+03 -0.13137115718E+04  0.16468824225E+04  0.46999998093E+01 0.  1.
       -5    1    3    3    0  502 -0.34516367755E+02  0.99255737877E+03  0.47213628995E+03  0.10996800881E+04  0.46999998093E+01 0. -1.
</event>
<event>
 5   0  0.5940748E-06  0.2596156E+04  0.7818609E-02  0.8369508E-01
        2   -1    0    0  501    0  0.00000000000E+00  0.00000000000E+00  0.15399591223E+04  0.15399591223E+04  0.25500000920E-02 0.  1.
       -2   -1    0    0    0  501  0.00000000000E+00  0.00000000000E+00 -0.10941892880E+04  0.10941892880E+04  0.25500000920E-02 0. -1.
    10030    2    1    2    0    0  0.00000000000E+00  0.00000000000E+00  0.44576983431E+03  0.26341484104E+04  0.25961562169E+04 0.  0.
        1    1    3    3  502    0 -0.85331645375E+03 -0.86493648792E+03 -0.24068478427E+03  0.12386255543E+04  0.50400001928E-02 0. -1.
       -1    1    3    3    0  502  0.85331645375E+03  0.86493648792E+03  0.68645461858E+03  0.13955228561E+04  0.50400001928E-02 0.  1.
</event>
<event>
 5   0  0.2333979E-06  0.2603954E+04  0.7818609E-02  0.8366859E-01
        1   -1    0    0  501    0  0.00000000000E+00  0.00000000000E+00  0.93418081351E+03  0.93418081353E+03  0.50400001928E-02 0.  1.
       -1   -1    0    0    0  501  0.00000000000E+00  0.00000000000E+00 -0.18145783495E+04  0.18145783495E+04  0.50400001928E-02 0. -1.
    10030    2    1    2    0    0  0.00000000000E+00  0.00000000000E+00 -0.88039753599E+03  0.27487591630E+04  0.26039541307E+04 0.  0.
        3    1    3    3  502    0  0.85952200826E+03 -0.77779386408E+02  0.58885367338E+03  0.10447853246E+04  0.10100000352E+00 0.  1.
       -3    1    3    3    0  502 -0.85952200826E+03  0.77779386408E+02 -0.14692512094E+04  0.17039738384E+04  0.10100000352E+00 0. -1.
</event>
<event>
 5   0  0.2471488E-06  0.2626911E+04  0.7818609E-02  0.8359117E-01
        1   -1    0    0  501    0  0.00000000000E+00  0.00000000000E+00  0.16890784445E+04  0.16890784445E+04  0.50400001928E-02 0.  1.
       -1   -1    0    0    0  501  0.00000000000E+00  0.00000000000E+00 -0.10213651825E+04  0.10213651825E+04  0.50400001928E-02 0. -1.
    10030    2    1    2    0    0  0.00000000000E+00  0.00000000000E+00  0.66771326208E+03  0.27104436270E+04  0.26269114288E+04 0.  0.
        4    1    3    3  502    0 -0.12370280469E+04  0.20951315243E+03 -0.67127123044E+02  0.12564401352E+04  0.12699999809E+01 0. -1.
       -4    1    3    3    0  502  0.12370280469E+04 -0.20951315243E+03  0.73484038512E+03  0.14540034918E+04  0.12699999809E+01 0.  1.
</event>
<event>
 5   0  0.5940748E-06  0.2603815E+04  0.7818609E-02  0.8366907E-01
        2   -1    0    0  501    0  0.00000000000E+00  0.00000000000E+00  0.14748447943E+04  0.14748447943E+04  0.25500000920E-02 0. -1.
       -2   -1    0    0    0  501  0.00000000000E+00  0.00000000000E+00 -0.11492480968E+04  0.11492480968E+04  0.25500000920E-02 0.  1.
    10030    2    1    2    0    0  0.00000000000E+00  0.00000000000E+00  0.32559669747E+03  0.26240928912E+04  0.26038145656E+04 0.  0.
        1    1    3    3  502    0 -0.23514178836E+03  0.11860172569E+04  0.64929379291E+03  0.13724106615E+04  0.50400001928E-02 0. -1.
       -1    1    3    3    0  502  0.23514178836E+03 -0.11860172569E+04 -0.32369709544E+03  0.12516822296E+04  0.50400001928E-02 0.  1.
</event>
<event>
 5   0  0.6173140E-06  0.2607617E+04  0.7818609E-02  0.8365619E-01
        2   -1    0    0  501    0  0.00000000000E+00  0.00000000000E+00  0.13798065371E+04  0.13798065371E+04  0.25500000920E-02 0. -1.
       -2   -1    0    0    0  501  0.00000000000E+00  0.00000000000E+00 -0.12319960879E+04  0.12319960879E+04  0.25500000920E-02 0.  1.
    10030    2    1    2    0    0  0.00000000000E+00  0.00000000000E+00  0.14781044917E+03  0.26118026250E+04  0.26076167324E+04 0.  0.
        3    1    3    3  502    0  0.11703203677E+04 -0.42880042154E+03  0.45713761689E+03  0.13275896865E+04  0.10100000352E+00 0. -1.
       -3    1    3    3    0  502 -0.11703203677E+04  0.42880042154E+03 -0.30932716773E+03  0.12842129386E+04  0.10100000352E+00 0.  1.
</event>
<event>
 5   0  0.5940748E-06  0.2595136E+04  0.7818609E-02  0.8369855E-01
       -2   -1    0    0    0  501  0.00000000000E+00  0.00000000000E+00  0.73675899433E+03  0.73675899433E+03  0.25500000920E-02 0.  1.
        2   -1    0    0  501    0  0.00000000000E+00  0.00000000000E+00 -0.22852561331E+04  0.22852561331E+04  0.25500000920E-02 0. -1.
    10030    2    1    2    0    0  0.00000000000E+00  0.00000000000E+00 -0.15484971388E+04  0.30220151275E+04  0.25951362280E+04 0.  0.
        1    1    3    3  502    0 -0.50860604705E+02 -0.77886019936E+03  0.43282635134E+03  0.89249574885E+03  0.50400001928E-02 0.  1.
       -1    1    3    3    0  502  0.50860604705E+02  0.77886019936E+03 -0.19813234901E+04  0.21295193786E+04  0.50400001928E-02 0. -1.
</event>
<event>
 5   0  0.6173140E-06  0.2600299E+04  0.7818609E-02  0.8368100E-01
       -2   -1    0    0    0  501  0.00000000000E+00  0.00000000000E+00  0.29074611442E+04  0.29074611442E+04  0.25500000920E-02 0.  1.
        2   -1    0    0  501    0  0.00000000000E+00  0.00000000000E+00 -0.58139666120E+03  0.58139666120E+03  0.25500000920E-02 0. -1.
    10030    2    1    2    0    0  0.00000000000E+00  0.00000000000E+00  0.23260644830E+04  0.34888578054E+04  0.26002985997E+04 0.  0.
        3    1    3    3  502    0 -0.25698688367E+03  0.62136295018E+02 -0.54494687725E+03  0.60569818124E+03  0.10100000352E+00 0. -1.
       -3    1    3    3    0  502  0.25698688367E+03 -0.62136295018E+02  0.28710113603E+04  0.28831596242E+04  0.10100000352E+00 0.  1.
</event>
<event>
 5   0  0.6158063E-06  0.2574596E+04  0.7818609E-02  0.8376882E-01
       -2   -1    0    0    0  501  0.00000000000E+00  0.00000000000E+00  0.63716234796E+03  0.63716234796E+03  0.25500000920E-02 0.  1.
        2   -1    0    0  501    0  0.00000000000E+00  0.00000000000E+00 -0.26008057518E+04  0.26008057518E+04  0.25500000920E-02 0. -1.
    10030    2    1    2    0    0  0.00000000000E+00  0.00000000000E+00 -0.19636434038E+04  0.32379680998E+04  0.25745955018E+04 0.  0.
        2    1    3    3  502    0 -0.39164463304E+03 -0.10118448804E+03 -0.25188004813E+04  0.25510742216E+04  0.25500000920E-02 0. -1.
       -2    1    3    3    0  502  0.39164463304E+03  0.10118448804E+03  0.55515707749E+03  0.68689387819E+03  0.25500000920E-02 0.  1.
</event>
<event>
 5   0  0.5940748E-06  0.2614494E+04  0.7818609E-02  0.8363295E-01
       -2   -1    0    0    0  501  0.00000000000E+00  0.00000000000E+00  0.87332374877E+03  0.87332374878E+03  0.25500000920E-02 0. -1.
        2   -1    0    0  501    0  0.00000000000E+00  0.00000000000E+00 -0.19567711168E+04  0.19567711168E+04  0.25500000920E-02 0.  1.
    10030    2    1    2    0    0  0.00000000000E+00  0.00000000000E+00 -0.10834473680E+04  0.28300948655E+04  0.26144939757E+04 0.  0.
        1    1    3    3  502    0  0.10656137821E+04  0.75329526752E+03 -0.62492702049E+03  0.14469002293E+04  0.50400001928E-02 0. -1.
       -1    1    3    3    0  502 -0.10656137821E+04 -0.75329526752E+03 -0.45852034750E+03  0.13831946362E+04  0.50400001928E-02 0.  1.
</event>
<event>
 5   0  0.2456600E-06  0.2687570E+04  0.7818609E-02  0.8339049E-01
        1   -1    0    0  501    0  0.00000000000E+00  0.00000000000E+00  0.21389115587E+04  0.21389115588E+04  0.50400001928E-02 0.  1.
       -1   -1    0    0    0  501  0.00000000000E+00  0.00000000000E+00 -0.84424167074E+03  0.84424167075E+03  0.50400001928E-02 0. -1.
    10030    2    1    2    0    0  0.00000000000E+00  0.00000000000E+00  0.12946698880E+04  0.29831532295E+04  0.26875701055E+04 0.  0.
        5    1    3    3  502    0 -0.10242030921E+04 -0.48758604886E+03 -0.15231724933E+03  0.11445325523E+04  0.46999998093E+01 0. -1.
       -5    1    3    3    0  502  0.10242030921E+04  0.48758604886E+03  0.14469871373E+04  0.18386206772E+04  0.46999998093E+01 0.  1.
</event>
<event>
 5   0  0.2456600E-06  0.2614207E+04  0.7818609E-02  0.8363391E-01
        1   -1    0    0  501    0  0.00000000000E+00  0.00000000000E+00  0.16742673881E+04  0.16742673881E+04  0.50400001928E-02 0.  1.
       -1   -1    0    0    0  501  0.00000000000E+00  0.00000000000E+00 -0.10204582376E+04  0.10204582376E+04  0.50400001928E-02 0. -1.
    10030    2    1    2    0    0  0.00000000000E+00  0.00000000000E+00  0.65380915055E+03  0.26947256257E+04  0.26142072971E+04 0.  0.
        5    1    3    3  502    0  0.55688806710E+03  0.86062830447E+03  0.11628654685E+04  0.15501882420E+04  0.46999998093E+01 0.  1.
       -5    1    3    3    0  502 -0.55688806710E+03 -0.86062830447E+03 -0.50905631798E+03  0.11445373837E+04  0.46999998093E+01 0. -1.
</event>
<event>
 5   0  0.6158063E-06  0.2605189E+04  0.7818609E-02  0.8366441E-01
       -2   -1    0    0    0  501  0.00000000000E+00  0.00000000000E+00  0.16132280026E+04  0.16132280026E+04  0.25500000920E-02 0.  1.
        2   -1    0    0  501    0  0.00000000000E+00  0.00000000000E+00 -0.10517751128E+04  0.10517751128E+04  0.25500000920E-02 0. -1.
    10030    2    1    2    0    0  0.00000000000E+00  0.00000000000E+00  0.56145288983E+03  0.26650031154E+04  0.26051894860E+04 0.  0.
        2    1    3    3  502    0  0.13925318246E+03  0.92642361775E+03  0.12065476098E+04  0.15275500984E+04  0.25500000920E-02 0.  1.
       -2    1    3    3    0  502 -0.13925318246E+03 -0.92642361775E+03 -0.64509471995E+03  0.11374530171E+04  0.25500000920E-02 0. -1.
</event>
<event>
 5   0  0.2333979E-06  0.2604414E+04  0.7818609E-02  0.8366703E-01
       -1   -1    0    0    0  501  0.00000000000E+00  0.00000000000E+00  0.79407629668E+03  0.79407629670E+03  0.50400001928E-02 0. -1.
        1   -1    0    0  501    0  0.00000000000E+00  0.00000000000E+00 -0.21354911875E+04  0.21354911875E+04  0.50400001928E-02 0.  1.
    10030    2    1    2    0    0  0.00000000000E+00  0.00000000000E+00 -0.13414148908E+04  0.29295674842E+04  0.26044138947E+04 0.  0.
        3    1    3    3  502    0  0.12237115620E+04  0.20670811645E+02 -0.11710376948E+04  0.16938791463E+04  0.10100000352E+00 0.  1.
       -3    1    3    3    0  502 -0.12237115620E+04 -0.20670811645E+02 -0.17037719598E+03  0.12356883379E+04  0.10100000352E+00 0. -1.
</event>
<event>
 5   0  0.2456600E-06  0.2588783E+04  0.7818609E-02  0.8372021E-01
        1   -1    0    0  501    0  0.00000000000E+00  0.00000000000E+00  0.24430148192E+04  0.24430148192E+04  0.50400001928E-02 0. -1.
       -1   -1    0    0    0  501  0.00000000000E+00  0.00000000000E+00 -0.68581227590E+03  0.68581227592E+03  0.50400001928E-02 0.  1.
    10030    2    1    2    0    0  0.00000000000E+00  0.00000000000E+00  0.17572025433E+04  0.31288270952E+04  0.25887831530E+04 0.  0.
        5    1    3    3  502    0  0.12428099989E+04  0.29857963061E+03  0.63179340975E+03  0.14258020521E+04  0.46999998093E+01 0. -1.
       -5    1    3    3    0  502 -0.12428099989E+04 -0.29857963061E+03  0.11254091336E+04  0.17030250430E+04  0.46999998093E+01 0.  1.
</event>
<event>
 5   0  0.6161834E-06  0.2615508E+04  0.7818609E-02  0.8362953E-01
       -2   -1    0    0    0  501  0.00000000000E+00  0.00000000000E+00  0.12986253349E+04  0.12986253349E+04  0.25500000920E-02 0. -1.
        2   -1    0    0  501    0  0.00000000000E+00  0.00000000000E+00 -0.13169468607E+04  0.13169468607E+04  0.25500000920E-02 0.  1.
    10030    2    1    2    0    0  0.00000000000E+00  0.00000000000E+00 -0.18321525846E+02  0.26155721956E+04  0.26155080256E+04 0.  0.
        5    1    3    3  502    0  0.12110790935E+04 -0.33101372778E+03 -0.37511483168E+03  0.13103495281E+04  0.46999998093E+01 0.  1.
       -5    1    3    3    0  502 -0.12110790935E+04  0.33101372778E+03  0.35679330583E+03  0.13052226675E+04  0.46999998093E+01 0. -1.
</event>
<event>
 5   0  0.6173140E-06  0.2598599E+04  0.7818609E-02  0.8368677E-01
       -2   -1    0    0    0  501  0.00000000000E+00  0.00000000000E+00  0.23479175372E+04  0.23479175372E+04  0.25500000920E-02 0. -1.
        2   -1    0    0  501    0  0.00000000000E+00  0.00000000000E+00 -0.71901116814E+03  0.71901116814E+03  0.25500000920E-02 0.  1.
    10030    2    1    2    0    0  0.00000000000E+00  0.00000000000E+00  0.16289063690E+04  0.30669287053E+04  0.25985988002E+04 0.  0.
        3    1    3    3  502    0  0.94144288778E+03  0.27293970026E+01 -0.24239558061E+03  0.97215111390E+03  0.10100000352E+00 0.  1.
       -3    1    3    3    0  502 -0.94144288778E+03 -0.27293970026E+01  0.18713019497E+04  0.20947775914E+04  0.10100000352E+00 0. -1.
</event>
<event>
 5   0  0.2456600E-06  0.2580088E+04  0.7818609E-02  0.8374996E-01
       -1   -1    0    0    0  501  0.00000000000E+00  0.00000000000E+00  0.70613525212E+03  0.70613525214E+03  0.50400001928E-02 0. -1.
        1   -1    0    0  501    0  0.00000000000E+00  0.00000000000E+00 -0.23567920352E+04  0.23567920352E+04  0.50400001928E-02 0.  1.
    10030    2    1    2    0    0  0.00000000000E+00  0.00000000000E+00 -0.16506567830E+04  0.30629272873E+04  0.25800883225E+04 0.  0.
        5    1    3    3  502    0 -0.35649304951E+03  0.11855749840E+04 -0.39480946057E+03  0.12994506290E+04  0.46999998093E+01 0. -1.
       -5    1    3    3    0  502  0.35649304951E+03 -0.11855749840E+04 -0.12558473225E+04  0.17634766583E+04  0.46999998093E+01 0.  1.
</event>
<event>
 5   0  0.6158063E-06  0.2600305E+04  0.7818609E-02  0.8368098E-01
       -2   -1    0    0    0  501  0.00000000000E+00  0.00000000000E+00  0.14255541412E+04  0.14255541412E+04  0.25500000920E-02 0. -1.
        2   -1    0    0  501    0  0.00000000000E+00  0.00000000000E+00 -0.11857817258E+04  0.11857817258E+04  0.25500000920E-02 0.  1.
    10030    2    1    2    0    0  0.00000000000E+00  0.00000000000E+00  0.23977241537E+03  0.26113358670E+04  0.26003046358E+04 0.  0.
        2    1    3    3  502    0  0.29230325814E+03  0.89167395795E+03 -0.78386065995E+03  0.12226860497E+04  0.25500000920E-02 0.  1.
       -2    1    3    3    0  502 -0.29230325814E+03 -0.89167395795E+03  0.10236330753E+04  0.13886498172E+04  0.25500000920E-02 0. -1.
</event>
<event>
 5   0  0.2440590E-06  0.2604047E+04  0.7818609E-02  0.8366828E-01
        1   -1    0    0  501    0  0.00000000000E+00  0.00000000000E+00  0.21543735859E+04  0.21543735859E+04  0.50400001928E-02 0.  1.
       -1   -1    0    0    0  501  0.00000000000E+00  0.00000000000E+00 -0.78689458610E+03  0.78689458612E+03  0.50400001928E-02 0. -1.
    10030    2    1    2    0    0  0.00000000000E+00  0.00000000000E+00  0.13674789998E+04  0.29412681720E+04  0.26040467824E+04 0.  0.
        1    1    3    3  502    0 -0.90687390430E+03 -0.93239023138E+03  0.61698344148E+03  0.14395973010E+04  0.50400001928E-02 0. -1.
       -1    1    3    3    0  502  0.90687390430E+03  0.93239023138E+03  0.75049555829E+03  0.15016708710E+04  0.50400001928E-02 0.  1.
</event>
<event>
 5   0  0.2072125E-06  0.2617822E+04  0.7818609E-02  0.8362173E-01
       -3   -1    0    0    0  501  0.00000000000E+00  0.00000000000E+00  0.16645379936E+04  0.16645379967E+04  0.10100000352E+00 0.  1.
        3   -1    0    0  501    0  0.00000000000E+00  0.00000000000E+00 -0.10292632297E+04  0.10292632347E+04  0.10100000352E+00 0. -1.
    10030    2    1    2    0    0  0.00000000000E+00  0.00000000000E+00  0.63527476389E+03  0.26938012313E+04  0.26178218137E+04 0.  0.
        3    1    3    3  502    0 -0.12126759119E+04 -0.24119491529E+03 -0.12435192180E+03  0.12426669969E+04  0.10100000352E+00 0. -1.
       -3    1    3    3    0  502  0.12126759119E+04  0.24119491529E+03  0.75962668569E+03  0.14511342344E+04  0.10100000352E+00 0.  1.
</event>
<event>
 5   0  0.5940748E-06  0.2588750E+04  0.7818609E-02  0.8372033E-01
       -2   -1    0    0    0  501  0.00000000000E+00  0.00000000000E+00  0.58680231858E+03  0.58680231859E+03  0.25500000920E-02 0.  1.
        2   -1    0    0  501    0  0.00000000000E+00  0.00000000000E+00 -0.28551471305E+04  0.28551471305E+04  0.25500000920E-02 0. -1.
    10030    2    1    2    0    0  0.00000000000E+00  0.00000000000E+00 -0.22683448119E+04  0.34419494491E+04  0.25887502437E+04 0.  0.
        1    1    3    3  502    0  0.56412962944E+03 -0.11306326737E+04 -0.15074848124E+04  0.19669984599E+04  0.50400001928E-02 0.  1.
       -1    1    3    3    0  502 -0.56412962944E+03  0.11306326737E+04 -0.76085999954E+03  0.14749509892E+04  0.50400001928E-02 0. -1.
</event>
<event>
 5   0  0.2503292E-06  0.2552235E+04  0.7818609E-02  0.8384609E-01
       -1   -1    0    0    0  501  0.00000000000E+00  0.00000000000E+00  0.64614113059E+03  0.64614113061E+03  0.50400001928E-02 0. -1.
        1   -1    0    0  501    0  0.00000000000E+00  0.00000000000E+00 -0.25203107516E+04  0.25203107516E+04  0.50400001928E-02 0.  1.
    10030    2    1    2    0    0  0.00000000000E+00  0.00000000000E+00 -0.18741696210E+04  0.31664518822E+04  0.25522354425E+04 0.  0.
        2    1    3    3  502    0 -0.12250159609E+04 -0.35749475435E+03 -0.93319408646E+03  0.15809230870E+04  0.25500000920E-02 0. -1.
       -2    1    3    3    0  502  0.12250159609E+04  0.35749475435E+03 -0.94097553454E+03  0.15855287952E+04  0.25500000920E-02 0.  1.
</event>
<event>
 5   0  0.2333979E-06  0.2753360E+04  0.7818609E-02  0.8317896E-01
        1   -1    0    0  501    0  0.00000000000E+00  0.00000000000E+00  0.28923299051E+04  0.28923299051E+04  0.50400001928E-02 0.  1.
       -1   -1    0    0    0  501  0.00000000000E+00  0.00000000000E+00 -0.65526690513E+03  0.65526690515E+03  0.50400001928E-02 0. -1.
    10030    2    1    2    0    0  0.00000000000E+00  0.00000000000E+00  0.22370630000E+04  0.35475968102E+04  0.27533601766E+04 0.  0.
        3    1    3    3  502    0 -0.38861316745E+03 -0.55074311144E+03 -0.42810993072E+03  0.79850879250E+03  0.10100000352E+00 0. -1.
       -3    1    3    3    0  502  0.38861316745E+03  0.55074311144E+03  0.26651729307E+04  0.27490880177E+04  0.10100000352E+00 0.  1.
</event>
<event>
 5   0  0.2456600E-06  0.2596765E+04  0.7818609E-02  0.8369301E-01
       -1   -1    0    0    0  501  0.00000000000E+00  0.00000000000E+00  0.11748666252E+04  0.11748666252E+04  0.50400001928E-02 0. -1.
        1   -1    0    0  501    0  0.00000000000E+00  0.00000000000E+00 -0.14348840397E+04  0.14348840397E+04  0.50400001928E-02 0.  1.
    10030    2    1    2    0    0  0.00000000000E+00  0.00000000000E+00 -0.26001741450E+03  0.26097506648E+04  0.25967651948E+04 0.  0.
        5    1    3    3  502    0  0.41997339293E+03 -0.95957050309E+03 -0.90106237816E+03  0.13816977602E+04  0.46999998093E+01 0.  1.
       -5    1    3    3    0  502 -0.41997339293E+03  0.95957050309E+03  0.64104496366E+03  0.12280529046E+04  0.46999998093E+01 0. -1.
</event>
<event>
 5   0  0.2503292E-06  0.2619634E+04  0.7818609E-02  0.8361563E-01
        1   -1    0    0  501    0  0.00000000000E+00  0.00000000000E+00  0.26818575915E+04  0.26818575915E+04  0.50400001928E-02 0. -1.
       -1   -1    0    0    0  501  0.00000000000E+00  0.00000000000E+00 -0.63971328391E+03  0.63971328393E+03  0.50400001928E-02 0.  1.
    10030    2    1    2    0    0  0.00000000000E+00  0.00000000000E+00  0.20421443076E+04  0.33215708754E+04  0.26196335063E+04 0.  0.
        2    1    3    3  502    0 -0.66944048993E+03  0.10524345113E+04  0.15280168772E+04  0.19724615452E+04  0.25500000920E-02 0. -1.
       -2    1    3    3    0  502  0.66944048993E+03 -0.10524345113E+04  0.51412743037E+03  0.13491093302E+04  0.25500000920E-02 0.  1.
</event>
<event>
 5   0  0.5942229E-06  0.2594502E+04  0.7818609E-02  0.8370071E-01
       -2   -1    0    0    0  501  0.00000000000E+00  0.00000000000E+00  0.20603364090E+04  0.20603364090E+04  0.25500000920E-02 0. -1.
        2   -1    0    0  501    0  0.00000000000E+00  0.00000000000E+00 -0.81678905927E+03  0.81678905928E+03  0.25500000920E-02 0.  1.
    10030    2    1    2    0    0  0.00000000000E+00  0.00000000000E+00  0.12435473497E+04  0.28771254683E+04  0.25945020619E+04 0.  0.
        4    1    3    3  502    0 -0.28656682360E+02  0.10865909550E+04 -0.16342317022E+03  0.10991859963E+04  0.12699999809E+01 0.  1.
       -4    1    3    3    0  502  0.28656682360E+02 -0.10865909550E+04  0.14069705199E+04  0.17779394720E+04  0.12699999809E+01 0. -1.
</event>
<event>
 5   0  0.2471488E-06  0.2605368E+04  0.7818609E-02  0.8366380E-01
       -1   -1    0    0    0  501  0.00000000000E+00  0.00000000000E+00  0.17164549047E+04  0.17164549047E+04  0.50400001928E-02 0.  1.
        1   -1    0    0  501    0  0.00000000000E+00  0.00000000000E+00 -0.98865707360E+03  0.98865707361E+03  0.50400001928E-02 0. -1.
    10030    2    1    2    0    0  0.00000000000E+00  0.00000000000E+00  0.72779783112E+03  0.27051119783E+04  0.26053677538E+04 0.  0.
        4    1    3    3  502    0  0.23883230476E+03 -0.10288224630E+04 -0.42783418515E+03  0.11395438706E+04  0.12699999809E+01 0. -1.
       -4    1    3    3    0  502 -0.23883230476E+03  0.10288224630E+04  0.11556320163E+04  0.15655681078E+04  0.12699999809E+01 0.  1.
</event>
<event>
 5   0  0.2333979E-06  0.2598317E+04  0.7818609E-02  0.8368773E-01
       -1   -1    0    0    0  501  0.00000000000E+00  0.00000000000E+00  0.19223756738E+04  0.19223756738E+04  0.50400001928E-02 0.  1.
        1   -1    0    0  501    0  0.00000000000E+00  0.00000000000E+00 -0.87798290404E+03  0.87798290405E+03  0.50400001928E-02 0. -1.
    10030    2    1    2    0    0  0.00000000000E+00  0.00000000000E+00  0.10443927697E+04  0.28003585778E+04  0.25983171298E+04 0.  0.
        3    1    3    3  502    0  0.57134507181E+03  0.12999187906E+03  0.17718758785E+04  0.18662468268E+04  0.10100000352E+00 0. -1.
       -3    1    3    3    0  502 -0.57134507181E+03 -0.12999187906E+03 -0.72748310873E+03  0.93411175102E+03  0.10100000352E+00 0.  1.
</event>
<event>
 5   0  0.2072125E-06  0.2630553E+04  0.7818609E-02  0.8357897E-01
       -4   -1    0    0    0  501  0.00000000000E+00  0.00000000000E+00  0.11203000396E+04  0.11203007594E+04  0.12699999809E+01 0. -1.
        4   -1    0    0  501    0  0.00000000000E+00  0.00000000000E+00 -0.15441849227E+04  0.15441854449E+04  0.12699999809E+01 0.  1.
    10030    2    1    2    0    0  0.00000000000E+00  0.00000000000E+00 -0.42388488314E+03  0.26644862043E+04  0.26305528581E+04 0.  0.
        5    1    3    3  502    0 -0.60276384913E+03 -0.43547753157E+03  0.88693239280E+03  0.11574264978E+04  0.46999998093E+01 0. -1.
       -5    1    3    3    0  502  0.60276384913E+03  0.43547753157E+03 -0.13108172759E+04  0.15070597066E+04  0.46999998093E+01 0.  1.
</event>
<event>
 5   0  0.5940748E-06  0.2597287E+04  0.7818609E-02  0.8369123E-01
       -2   -1    0    0    0  501  0.00000000000E+00  0.00000000000E+00  0.13631700637E+04  0.13631700637E+04  0.25500000920E-02 0.  1.
        2   -1    0    0  501    0  0.00000000000E+00  0.00000000000E+00 -0.12371711864E+04  0.12371711864E+04  0.25500000920E-02 0. -1.
    10030    2    1    2    0    0  0.00000000000E+00  0.00000000000E+00  0.12599887737E+03  0.26003412501E+04  0.25972868344E+04 0.  0.
        1    1    3    3  502    0  0.50470326370E+02 -0.24720120902E+03  0.13383966929E+04  0.13619696763E+04  0.50400001928E-02 0.  1.
       -1    1    3    3    0  502 -0.50470326370E+02  0.24720120902E+03 -0.12123978156E+04  0.12383715738E+04  0.50400001928E-02 0. -1.
</event>
<event>
 5   0  0.6173140E-06  0.2583136E+04  0.7818609E-02  0.8373952E-01
        2   -1    0    0  501    0  0.00000000000E+00  0.00000000000E+00  0.17872459208E+04  0.17872459208E+04  0.25500000920E-02 0.  1.
       -2   -1    0    0    0  501  0.00000000000E+00  0.00000000000E+00 -0.93336221728E+03  0.93336221728E+03  0.25500000920E-02 0. -1.
    10030    2    1    2    0    0  0.00000000000E+00  0.00000000000E+00  0.85388370355E+03  0.27206081381E+04  0.25831359356E+04 0.  0.
        3    1    3    3  502    0 -0.35788392250E+03  0.29971955987E+03  0.16952884137E+04  0.17583843528E+04  0.10100000352E+00 0.  1.
       -3    1    3    3    0  502  0.35788392250E+03 -0.29971955987E+03 -0.84140471012E+03  0.96222378528E+03  0.10100000352E+00 0. -1.
</event>
<event>
 5   0  0.6173140E-06  0.2593346E+04  0.7818609E-02  0.8370465E-01
        2   -1    0    0  501    0  0.00000000000E+00  0.00000000000E+00  0.12000795094E+04  0.12000795094E+04  0.25500000920E-02 0. -1.
       -2   -1    0    0    0  501  0.00000000000E+00  0.00000000000E+00 -0.14010409249E+04  0.14010409249E+04  0.25500000920E-02 0.  1.
    10030    2    1    2    0    0  0.00000000000E+00  0.00000000000E+00 -0.20096141553E+03  0.26011204343E+04  0.25933457200E+04 0.  0.
        3    1    3    3  502    0  0.63259544135E+03 -0.10945814308E+04  0.18861071402E+03  0.12782251416E+04  0.10100000352E+00 0. -1.
       -3    1    3    3    0  502 -0.63259544135E+03  0.10945814308E+04 -0.38957212955E+03  0.13228952927E+04  0.10100000352E+00 0.  1.
</event>
<event>
 5   0  0.2471488E-06  0.2599181E+04  0.7818609E-02  0.8368479E-01
        1   -1    0    0  501    0  0.00000000000E+00  0.00000000000E+00  0.23978946022E+04  0.23978946022E+04  0.50400001928E-02 0.  1.
       -1   -1    0    0    0  501  0.00000000000E+00  0.00000000000E+00 -0.70434110019E+03  0.70434110021E+03  0.50400001928E-02 0. -1.
    10030    2    1    2    0    0  0.00000000000E+00  0.00000000000E+00  0.16935535020E+04  0.31022357024E+04  0.25991811959E+04 0.  0.
        4    1    3    3  502    0 -0.57758586588E+03  0.99619990499E+02 -0.53763309320E+03  0.79534931368E+03  0.12699999809E+01 0. -1.
       -4    1    3    3    0  502  0.57758586588E+03 -0.99619990499E+02  0.22311865952E+04  0.23068863887E+04  0.12699999809E+01 0.  1.
</event>
<event>
 5   0  0.5940748E-06  0.2578024E+04  0.7818609E-02  0.8375704E-01
       -2   -1    0    0    0  501  0.00000000000E+00  0.00000000000E+00  0.12328838705E+04  0.12328838705E+04  0.25500000920E-02 0. -1.
        2   -1    0    0  501    0  0.00000000000E+00  0.00000000000E+00 -0.13476954049E+04  0.13476954049E+04  0.25500000920E-02 0.  1.
    10030    2    1    2    0    0  0.00000000000E+00  0.00000000000E+00 -0.11481153435E+03  0.25805792754E+04  0.25780239930E+04 0.  0.
        1    1    3    3  502    0 -0.66041159524E+03  0.41311326481E+03 -0.10854319351E+04  0.13360271443E+04  0.50400001928E-02 0.  1.
       -1    1    3    3    0  502  0.66041159524E+03 -0.41311326481E+03  0.97062040073E+03  0.12445521311E+04  0.50400001928E-02 0. -1.
</event>
<event>
 5   0  0.2503292E-06  0.2600647E+04  0.7818609E-02  0.8367982E-01
        1   -1    0    0  501    0  0.00000000000E+00  0.00000000000E+00  0.15885765737E+04  0.15885765737E+04  0.50400001928E-02 0.  1.
       -1   -1    0    0    0  501  0.00000000000E+00  0.00000000000E+00 -0.10643748779E+04  0.10643748779E+04  0.50400001928E-02 0. -1.
    10030    2    1    2    0    0  0.00000000000E+00  0.00000000000E+00  0.52420169582E+03  0.26529514516E+04  0.26006468400E+04 0.  0.
        2    1    3    3  502    0  0.31921720677E+03  0.31227983817E+03  0.15079007516E+04  0.15726356854E+04  0.25500000920E-02 0.  1.
       -2    1    3    3    0  502 -0.31921720677E+03 -0.31227983817E+03 -0.98369905574E+03  0.10803157662E+04  0.25500000920E-02 0. -1.
</event>
<event>
 5   0  0.2440590E-06  0.2611323E+04  0.7818609E-02  0.8364365E-01
       -1   -1    0    0    0  501  0.00000000000E+00  0.00000000000E+00  0.75307966912E+03  0.75307966913E+03  0.50400001928E-02 0. -1.
        1   -1    0    0  501    0  0.00000000000E+00  0.00000000000E+00 -0.22637077273E+04  0.22637077273E+04  0.50400001928E-02 0.  1.
    10030    2    1    2    0    0  0.00000000000E+00  0.00000000000E+00 -0.15106280582E+04  0.30167873965E+04  0.26113232403E+04 0.  0.
        1    1    3    3  502    0  0.36400215452E+03  0.12461076370E+04 -0.91651665748E+03  0.15891144059E+04  0.50400001928E-02 0. -1.
       -1    1    3    3    0  502 -0.36400215452E+03 -0.12461076370E+04 -0.59411140072E+03  0.14276729906E+04  0.50400001928E-02 0.  1.
</event>
<event>
 5   0  0.2456600E-06  0.2605192E+04  0.7818609E-02  0.8366440E-01
       -1   -1    0    0    0  501  0.00000000000E+00  0.00000000000E+00  0.10013167545E+04  0.10013167545E+04  0.50400001928E-02 0.  1.
        1   -1    0    0  501    0  0.00000000000E+00  0.00000000000E+00 -0.16945256727E+04  0.16945256727E+04  0.50400001928E-02 0. -1.
    10030    2    1    2    0    0  0.00000000000E+00  0.00000000000E+00 -0.69320891821E+03  0.26958424272E+04  0.26051924666E+04 0.  0.
        5    1    3    3  502    0 -0.66323318580E+03  0.10262152449E+04 -0.81368485141E+03  0.14680262651E+04  0.46999998093E+01 0. -1.
       -5    1    3    3    0  502  0.66323318580E+03 -0.10262152449E+04  0.12047593320E+03  0.12278161621E+04  0.46999998093E+01 0.  1.
</event>
<event>
 5   0  0.6158063E-06  0.2594358E+04  0.7818609E-02  0.8370120E-01
        2   -1    0    0  501    0  0.00000000000E+00  0.00000000000E+00  0.22422906456E+04  0.22422906456E+04  0.25500000920E-02 0. -1.
       -2   -1    0    0    0  501  0.00000000000E+00  0.00000000000E+00 -0.75042609303E+03  0.75042609304E+03  0.25500000920E-02 0.  1.
    10030    2    1    2    0    0  0.00000000000E+00  0.00000000000E+00  0.14918645526E+04  0.29927167387E+04  0.25943580390E+04 0.  0.
        2    1    3    3  502    0 -0.10189833031E+04  0.19862827580E+03  0.16431029486E+04  0.19435965280E+04  0.25500000920E-02 0.  1.
       -2    1    3    3    0  502  0.10189833031E+04 -0.19862827580E+03 -0.15123839604E+03  0.10491202106E+04  0.25500000920E-02 0. -1.
</event>
<event>
 5   0  0.5940748E-06  0.2603634E+04  0.7818609E-02  0.8366968E-01
        2   -1    0    0  501    0  0.00000000000E+00  0.00000000000E+00  0.20704021684E+04  0.20704021684E+04  0.25500000920E-02 0. -1.
       -2   -1    0    0    0  501  0.00000000000E+00  0.00000000000E+00 -0.81854960287E+03  0.81854960288E+03  0.25500000920E-02 0.  1.
    10030    2    1    2    0    0  0.00000000000E+00  0.00000000000E+00  0.12518525655E+04  0.28889517713E+04  0.26036335170E+04 0.  0.
        1    1    3    3  502    0  0.12262457158E+04  0.15784252553E+03  0.10781879401E+04  0.16404517831E+04  0.50400001928E-02 0. -1.
       -1    1    3    3    0  502 -0.12262457158E+04 -0.15784252553E+03  0.17366462542E+03  0.12484999882E+04  0.50400001928E-02 0.  1.
</event>
<event>
 5   0  0.6173140E-06  0.2598656E+04  0.7818609E-02  0.8368658E-01
       -2   -1    0    0    0  501  0.00000000000E+00  0.00000000000E+00  0.14317729336E+04  0.14317729336E+04  0.25500000920E-02 0.  1.
        2   -1    0    0  501    0  0.00000000000E+00  0.00000000000E+00 -0.11791345529E+04  0.11791345529E+04  0.25500000920E-02 0. -1.
    10030    2    1    2    0    0  0.00000000000E+00  0.00000000000E+00  0.25263838067E+03  0.26109074865E+04  0.25986557585E+04 0.  0.
        3    1    3    3  502    0  0.12141375901E+04 -0.91509124536E+02  0.58205327702E+03  0.13495517905E+04  0.10100000352E+00 0. -1.
       -3    1    3    3    0  502 -0.12141375901E+04  0.91509124536E+02 -0.32941489635E+03  0.12613556960E+04  0.10100000352E+00 0.  1.
</event>
<event>
 5   0  0.2072125E-06  0.2603724E+04  0.7818609E-02  0.8366937E-01
        3   -1    0    0  501    0  0.00000000000E+00  0.00000000000E+00  0.10877400396E+04  0.10877400442E+04  0.10100000352E+00 0. -1.
       -3   -1    0    0    0  501  0.00000000000E+00  0.00000000000E+00 -0.15581336371E+04  0.15581336403E+04  0.10100000352E+00 0.  1.
    10030    2    1    2    0    0  0.00000000000E+00  0.00000000000E+00 -0.47039359750E+03  0.26458736846E+04  0.26037237599E+04 0.  0.
        4    1    3    3  502    0 -0.50458421346E+03 -0.11909358151E+03  0.97831002165E+03  0.11071949336E+04  0.12699999809E+01 0. -1.
       -4    1    3    3    0  502  0.50458421346E+03  0.11909358151E+03 -0.14487036192E+04  0.15386787510E+04  0.12699999809E+01 0.  1.
</event>
<event>
 5   0  0.2072125E-06  0.2598340E+04  0.7818609E-02  0.8368765E-01
       -4   -1    0    0    0  501  0.00000000000E+00  0.00000000000E+00  0.67066194462E+03  0.67066314709E+03  0.12699999809E+01 0.  1.
        4   -1    0    0  501    0  0.00000000000E+00  0.00000000000E+00 -0.25166775597E+04  0.25166778802E+04  0.12699999809E+01 0. -1.
    10030    2    1    2    0    0  0.00000000000E+00  0.00000000000E+00 -0.18460156151E+04  0.31873410272E+04  0.25983396954E+04 0.  0.
        3    1    3    3  502    0  0.67197543336E+02  0.63267042042E+03  0.46648155613E+03  0.78891851488E+03  0.10100000352E+00 0.  1.
       -3    1    3    3    0  502 -0.67197543336E+02 -0.63267042042E+03 -0.23124971712E+04  0.23984225124E+04  0.10100000352E+00 0. -1.
</event>
<event>
 5   0  0.5942229E-06  0.2613027E+04  0.7818609E-02  0.8363790E-01
        2   -1    0    0  501    0  0.00000000000E+00  0.00000000000E+00  0.30891374216E+04  0.30891374216E+04  0.25500000920E-02 0.  1.
       -2   -1    0    0    0  501  0.00000000000E+00  0.00000000000E+00 -0.55257422440E+03  0.55257422441E+03  0.25500000920E-02 0. -1.
    10030    2    1    2    0    0  0.00000000000E+00  0.00000000000E+00  0.25365631972E+04  0.36417116460E+04  0.26130271448E+04 0.  0.
        4    1    3    3  502    0 -0.12872997227E+04  0.19628187052E+03  0.14164900049E+04  0.19240874969E+04  0.12699999809E+01 0. -1.
       -4    1    3    3    0  502  0.12872997227E+04 -0.19628187052E+03  0.11200731923E+04  0.17176241491E+04  0.12699999809E+01 0.  1.
</event>
<event>
 5   0  0.5940748E-06  0.2598160E+04  0.7818609E-02  0.8368827E-01
       -2   -1    0    0    0  501  0.00000000000E+00  0.00000000000E+00  0.78820778405E+03  0.78820778406E+03  0.25500000920E-02 0. -1.
        2   -1    0    0  501    0  0.00000000000E+00  0.00000000000E+00 -0.21410708267E+04  0.21410708267E+04  0.25500000920E-02 0.  1.
    10030    2    1    2    0    0  0.00000000000E+00  0.00000000000E+00 -0.13528630426E+04  0.29292786108E+04  0.25981598810E+04 0.  0.
        1    1    3    3  502    0 -0.53515125705E+03  0.88708954447E+03  0.20722387105E+03  0.10565303879E+04  0.50400001928E-02 0.  1.
       -1    1    3    3    0  502  0.53515125705E+03 -0.88708954447E+03 -0.15600869137E+04  0.18727482228E+04  0.50400001928E-02 0. -1.
</event>
<event>
 5   0  0.2440590E-06  0.2616965E+04  0.7818609E-02  0.8362461E-01
       -1   -1    0    0    0  501  0.00000000000E+00  0.00000000000E+00  0.10604375207E+04  0.10604375207E+04  0.50400001928E-02 0. -1.
        1   -1    0    0  501    0  0.00000000000E+00  0.00000000000E+00 -0.16145469949E+04  0.16145469949E+04  0.50400001928E-02 0.  1.
    10030    2    1    2    0    0  0.00000000000E+00  0.00000000000E+00 -0.55410947419E+03  0.26749845156E+04  0.26169648162E+04 0.  0.
        1    1    3    3  502    0 -0.10232099230E+04 -0.17849433502E+03 -0.10905043990E+04  0.15059942292E+04  0.50400001928E-02 0.  1.
       -1    1    3    3    0  502  0.10232099230E+04  0.17849433502E+03  0.53639492483E+03  0.11689902863E+04  0.50400001928E-02 0. -1.
</event>
<event>
 5   0  0.2456600E-06  0.2586359E+04  0.7818609E-02  0.8372850E-01
        1   -1    0    0  501    0  0.00000000000E+00  0.00000000000E+00  0.14133482091E+04  0.14133482091E+04  0.50400001928E-02 0. -1.
       -1   -1    0    0    0  501  0.00000000000E+00  0.00000000000E+00 -0.11832277178E+04  0.11832277178E+04  0.50400001928E-02 0.  1.
    10030    2    1    2    0    0  0.00000000000E+00  0.00000000000E+00  0.23012049134E+03  0.25965759269E+04  0.25863586572E+04 0.  0.
        5    1    3    3  502    0 -0.56139052061E+03  0.10775036826E+04  0.55966090314E+03  0.13376905169E+04  0.46999998093E+01 0. -1.
       -5    1    3    3    0  502  0.56139052061E+03 -0.10775036826E+04 -0.32954041180E+03  0.12588854100E+04  0.46999998093E+01 0.  1.
</event>
<event>
 5   0  0.6161834E-06  0.2606584E+04  0.7818609E-02  0.8365968E-01
        2   -1    0    0  501    0  0.00000000000E+00  0.00000000000E+00  0.11624672529E+04  0.11624672529E+04  0.25500000920E-02 0.  1.
       -2   -1    0    0    0  501  0.00000000000E+00  0.00000000000E+00 -0.14611765138E+04  0.14611765138E+04  0.25500000920E-02 0. -1.
    10030    2    1    2    0    0  0.00000000000E+00  0.00000000000E+00 -0.29870926089E+03  0.26236437668E+04  0.26065838548E+04 0.  0.
        5    1    3    3  502    0  0.19127228316E+03  0.10184501303E+04  0.64621201636E+03  0.12212443713E+04  0.46999998093E+01 0.  1.
       -5    1    3    3    0  502 -0.19127228316E+03 -0.10184501303E+04 -0.94492127725E+03  0.14023993955E+04  0.46999998093E+01 0. -1.
</event>
<event>
 5   0  0.6161834E-06  0.2603625E+04  0.7818609E-02  0.8366971E-01
        2   -1    0    0  501    0  0.00000000000E+00  0.00000000000E+00  0.14494294341E+04  0.14494294341E+04  0.25500000920E-02 0.  1.
       -2   -1    0    0    0  501  0.00000000000E+00  0.00000000000E+00 -0.11692300194E+04  0.11692300194E+04  0.25500000920E-02 0. -1.
    10030    2    1    2    0    0  0.00000000000E+00  0.00000000000E+00  0.28019941470E+03  0.26186594536E+04  0.26036254765E+04 0.  0.
        5    1    3    3  502    0  0.11483062169E+04 -0.60246507798E+03  0.25531674411E+03  0.13216580753E+04  0.46999998093E+01 0.  1.
       -5    1    3    3    0  502 -0.11483062169E+04  0.60246507798E+03  0.24882670590E+02  0.12970013783E+04  0.46999998093E+01 0. -1.
</event>
<event>
 5   0  0.6161834E-06  0.2598452E+04  0.7818609E-02  0.8368727E-01
       -2   -1    0    0    0  501  0.00000000000E+00  0.00000000000E+00  0.10321028231E+04  0.10321028231E+04  0.25500000920E-02 0. -1.
        2   -1    0    0  501    0  0.00000000000E+00  0.00000000000E+00 -0.16354846273E+04  0.16354846273E+04  0.25500000920E-02 0.  1.
    10030    2    1    2    0    0  0.00000000000E+00  0.00000000000E+00 -0.60338180418E+03  0.26675874504E+04  0.25984520785E+04 0.  0.
        5    1    3    3  502    0 -0.67168141738E+03 -0.47524464795E+03 -0.13339040711E+04  0.15672700988E+04  0.46999998093E+01 0.  1.
       -5    1    3    3    0  502  0.67168141738E+03  0.47524464795E+03  0.73052226688E+03  0.11003173516E+04  0.46999998093E+01 0. -1.
</event>
<event>
 5   0  0.5942229E-06  0.2599560E+04  0.7818609E-02  0.8368351E-01
       -2   -1    0    0    0  501  0.00000000000E+00  0.00000000000E+00  0.10331250198E+04  0.10331250198E+04  0.25500000920E-02 0. -1.
        2   -1    0    0  501    0  0.00000000000E+00  0.00000000000E+00 -0.16352600147E+04  0.16352600147E+04  0.25500000920E-02 0.  1.
    10030    2    1    2    0    0  0.00000000000E+00  0.00000000000E+00 -0.60213499486E+03  0.26683850345E+04  0.25995599897E+04 0.  0.
        4    1    3    3  502    0  0.51500694569E+03 -0.52438015777E+03  0.79933150167E+03  0.10858817461E+04  0.12699999809E+01 0. -1.
       -4    1    3    3    0  502 -0.51500694569E+03  0.52438015777E+03 -0.14014664965E+04  0.15825032884E+04  0.12699999809E+01 0.  1.
</event>
<event>
 5   0  0.5942229E-06  0.2590741E+04  0.7818609E-02  0.8371353E-01
        2   -1    0    0  501    0  0.00000000000E+00  0.00000000000E+00  0.16269970178E+04  0.16269970178E+04  0.25500000920E-02 0.  1.
       -2   -1    0    0    0  501  0.00000000000E+00  0.00000000000E+00 -0.10313383281E+04  0.10313383281E+04  0.25500000920E-02 0. -1.
    10030    2    1    2    0    0  0.00000000000E+00  0.00000000000E+00  0.59565868975E+03  0.26583353459E+04  0.25907407313E+04 0.  0.
        4    1    3    3  502    0 -0.84965483860E+03  0.97305843575E+03  0.19926741893E+03  0.13070826987E+04  0.12699999809E+01 0. -1.
       -4    1    3    3    0  502  0.84965483860E+03 -0.97305843575E+03  0.39639127082E+03  0.13512526472E+04  0.12699999809E+01 0.  1.
</event>
<event>
 5   0  0.2456600E-06  0.2601076E+04  0.7818609E-02  0.8367836E-01
       -1   -1    0    0    0  501  0.00000000000E+00  0.00000000000E+00  0.71509765225E+03  0.71509765227E+03  0.50400001928E-02 0.  1.
        1   -1    0    0  501    0  0.00000000000E+00  0.00000000000E+00 -0.23652706756E+04  0.23652706756E+04  0.50400001928E-02 0. -1.
    10030    2    1    2    0    0  0.00000000000E+00  0.00000000000E+00 -0.16501730234E+04  0.30803683279E+04  0.26010763211E+04 0.  0.
        5    1    3    3  502    0 -0.80257947342E+03  0.42630712307E+03 -0.19268403085E+04  0.21304007226E+04  0.46999998093E+01 0. -1.
       -5    1    3    3    0  502  0.80257947342E+03 -0.42630712307E+03  0.27666728519E+03  0.94996760526E+03  0.46999998093E+01 0.  1.
</event>
<event>
 5   0  0.6173140E-06  0.2573106E+04  0.7818609E-02  0.8377394E-01
        2   -1    0    0  501    0  0.00000000000E+00  0.00000000000E+00  0.12562649903E+04  0.12562649903E+04  0.25500000920E-02 0.  1.
       -2   -1    0    0    0  501  0.00000000000E+00  0.00000000000E+00 -0.13175716830E+04  0.13175716830E+04  0.25500000920E-02 0. -1.
    10030    2    1    2    0    0  0.00000000000E+00  0.00000000000E+00 -0.61306692642E+02  0.25738366733E+04  0.25731064320E+04 0.  0.
        3    1    3    3  502    0  0.11122500841E+03 -0.11742830746E+04 -0.54451834745E+03  0.12991581823E+04  0.10100000352E+00 0. -1.
       -3    1    3    3    0  502 -0.11122500841E+03  0.11742830746E+04  0.48321165480E+03  0.12746784910E+04  0.10100000352E+00 0.  1.
</event>
<event>
 5   0  0.6158063E-06  0.2594166E+04  0.7818609E-02  0.8370186E-01
       -2   -1    0    0    0  501  0.00000000000E+00  0.00000000000E+00  0.12523844447E+04  0.12523844447E+04  0.25500000920E-02 0.  1.
        2   -1    0    0  501    0  0.00000000000E+00  0.00000000000E+00 -0.13433765598E+04  0.13433765598E+04  0.25500000920E-02 0. -1.
    10030    2    1    2    0    0  0.00000000000E+00  0.00000000000E+00 -0.90992115096E+02  0.25957610044E+04  0.25941656900E+04 0.  0.
        2    1    3    3  502    0  0.21346623124E+03 -0.69743499044E+03  0.10277494407E+04  0.12602588268E+04  0.25500000920E-02 0. -1.
       -2    1    3    3    0  502 -0.21346623124E+03  0.69743499044E+03 -0.11187415558E+04  0.13355021776E+04  0.25500000920E-02 0.  1.
</event>
<event>
 5   0  0.2333979E-06  0.2593933E+04  0.7818609E-02  0.8370265E-01
       -1   -1    0    0    0  501  0.00000000000E+00  0.00000000000E+00  0.86546833535E+03  0.86546833537E+03  0.50400001928E-02 0.  1.
        1   -1    0    0  501    0  0.00000000000E+00  0.00000000000E+00 -0.19435979503E+04  0.19435979503E+04  0.50400001928E-02 0. -1.
    10030    2    1    2    0    0  0.00000000000E+00  0.00000000000E+00 -0.10781296149E+04  0.28090662856E+04  0.25939332934E+04 0.  0.
        3    1    3    3  502    0 -0.93336514930E+03 -0.46394413320E+03 -0.13748984191E+04  0.17253290509E+04  0.10100000352E+00 0. -1.
       -3    1    3    3    0  502  0.93336514930E+03  0.46394413320E+03  0.29676880422E+03  0.10837372348E+04  0.10100000352E+00 0.  1.
</event>
<event>
 5   0  0.6161834E-06  0.2603889E+04  0.7818609E-02  0.8366881E-01
        2   -1    0    0  501    0  0.00000000000E+00  0.00000000000E+00  0.21162943301E+04  0.21162943301E+04  0.25500000920E-02 0. -1.
       -2   -1    0    0    0  501  0.00000000000E+00  0.00000000000E+00 -0.80095647967E+03  0.80095647968E+03  0.25500000920E-02 0.  1.
    10030    2    1    2    0    0  0.00000000000E+00  0.00000000000E+00  0.13153378504E+04  0.29172508098E+04  0.26038891348E+04 0.  0.
        5    1    3    3  502    0  0.51446042379E+03 -0.10344126891E+04 -0.14871851637E+02  0.11553884200E+04  0.46999998093E+01 0.  1.
       -5    1    3    3    0  502 -0.51446042379E+03  0.10344126891E+04  0.13302097021E+04  0.17618623898E+04  0.46999998093E+01 0. -1.
</event>
<event>
 5   0  0.6158063E-06  0.2604642E+04  0.7818609E-02  0.8366626E-01
        2   -1    0    0  501    0  0.00000000000E+00  0.00000000000E+00  0.16993343079E+04  0.16993343079E+04  0.25500000920E-02 0. -1.
       -2   -1    0    0    0  501  0.00000000000E+00  0.00000000000E+00 -0.99806144662E+03  0.99806144662E+03  0.25500000920E-02 0.  1.
    10030    2    1    2    0    0  0.00000000000E+00  0.00000000000E+00  0.70127286123E+03  0.26973957545E+04  0.26046420542E+04 0.  0.
        2    1    3    3  502    0  0.83027785035E+03 -0.93319872261E+03  0.73229649074E+03  0.14479224133E+04  0.25500000920E-02 0. -1.
       -2    1    3    3    0  502 -0.83027785035E+03  0.93319872261E+03 -0.31023629505E+02  0.12494733412E+04  0.25500000920E-02 0.  1.
</event>
<event>
 5   0  0.2440590E-06  0.2598416E+04  0.7818609E-02  0.8368739E-01
        1   -1    0    0  501    0  0.00000000000E+00  0.00000000000E+00  0.17771247526E+04  0.17771247526E+04  0.50400001928E-02 0. -1.
       -1   -1    0    0    0  501  0.00000000000E+00  0.00000000000E+00 -0.94981630780E+03  0.94981630782E+03  0.50400001928E-02 0.  1.
    10030    2    1    2    0    0  0.00000000000E+00  0.00000000000E+00  0.82730844481E+03  0.27269410604E+04  0.25984164955E+04 0.  0.
        1    1    3    3  502    0  0.93421141497E+03 -0.85136475594E+03  0.98170396688E+02  0.12677579983E+04  0.50400001928E-02 0.  1.
       -1    1    3    3    0  502 -0.93421141497E+03  0.85136475594E+03  0.72913804812E+03  0.14591830621E+04  0.50400001928E-02 0. -1.
</event>
<event>
 5   0  0.6161834E-06  0.2619505E+04  0.7818609E-02  0.8361606E-01
        2   -1    0    0  501    0  0.00000000000E+00  0.00000000000E+00  0.15394734244E+04  0.15394734244E+04  0.25500000920E-02 0. -1.
       -2   -1    0    0    0  501  0.00000000000E+00  0.00000000000E+00 -0.11143105338E+04  0.11143105338E+04  0.25500000920E-02 0.  1.
    10030    2    1    2    0    0  0.00000000000E+00  0.00000000000E+00  0.42516289056E+03  0.26537839582E+04  0.26195048794E+04 0.  0.
        5    1    3    3  502    0 -0.43758309871E+03 -0.93027317714E+03  0.10347070256E+04  0.14586047687E+04  0.46999998093E+01 0. -1.
       -5    1    3    3    0  502  0.43758309871E+03  0.93027317714E+03 -0.60954413508E+03  0.11951791895E+04  0.46999998093E+01 0.  1.
</event>
<event>
 5   0  0.6161834E-06  0.2598675E+04  0.7818609E-02  0.8368652E-01
        2   -1    0    0  501    0  0.00000000000E+00  0.00000000000E+00  0.17875655826E+04  0.17875655826E+04  0.25500000920E-02 0.  1.
       -2   -1    0    0    0  501  0.00000000000E+00  0.00000000000E+00 -0.94445618214E+03  0.94445618215E+03  0.25500000920E-02 0. -1.
    10030    2    1    2    0    0  0.00000000000E+00  0.00000000000E+00  0.84310940042E+03  0.27320217647E+04  0.25986745587E+04 0.  0.
        5    1    3    3  502    0  0.98456666080E+03 -0.64554598828E+03 -0.15633710613E+03  0.11876718879E+04  0.46999998093E+01 0. -1.
       -5    1    3    3    0  502 -0.98456666080E+03  0.64554598828E+03  0.99944650655E+03  0.15443498768E+04  0.46999998093E+01 0.  1.
</event>
<event>
 5   0  0.6173140E-06  0.2613825E+04  0.7818609E-02  0.8363520E-01
       -2   -1    0    0    0  501  0.00000000000E+00  0.00000000000E+00  0.86970383974E+03  0.86970383974E+03  0.25500000920E-02 0. -1.
        2   -1    0    0  501    0  0.00000000000E+00  0.00000000000E+00 -0.19639099094E+04  0.19639099094E+04  0.25500000920E-02 0.  1.
    10030    2    1    2    0    0  0.00000000000E+00  0.00000000000E+00 -0.10942060696E+04  0.28336137491E+04  0.26138247754E+04 0.  0.
        3    1    3    3  502    0 -0.31143514878E+02  0.12912356383E+04 -0.76327062114E+03  0.15002804549E+04  0.10100000352E+00 0. -1.
       -3    1    3    3    0  502  0.31143514878E+02 -0.12912356383E+04 -0.33093544849E+03  0.13333332942E+04  0.10100000352E+00 0.  1.
</event>
<event>
 5   0  0.2503292E-06  0.2599806E+04  0.7818609E-02  0.8368267E-01
       -1   -1    0    0    0  501  0.00000000000E+00  0.00000000000E+00  0.94995623769E+03  0.94995623770E+03  0.50400001928E-02 0.  1.
        1   -1    0    0  501    0  0.00000000000E+00  0.00000000000E+00 -0.17787643158E+04  0.17787643158E+04  0.50400001928E-02 0. -1.
    10030    2    1    2    0    0  0.00000000000E+00  0.00000000000E+00 -0.82880807815E+03  0.27287205535E+04  0.25998063445E+04 0.  0.
        2    1    3    3  502    0 -0.26543933187E+02 -0.95084681886E+03  0.51549250696E+03  0.10819181014E+04  0.25500000920E-02 0.  1.
       -2    1    3    3    0  502  0.26543933187E+02  0.95084681886E+03 -0.13443005851E+04  0.16468024522E+04  0.25500000920E-02 0. -1.
</event>
<event>
 5   0  0.2456600E-06  0.2628263E+04  0.7818609E-02  0.8358664E-01
        1   -1    0    0  501    0  0.00000000000E+00  0.00000000000E+00  0.21575344703E+04  0.21575344703E+04  0.50400001928E-02 0. -1.
       -1   -1    0    0    0  501  0.00000000000E+00  0.00000000000E+00 -0.80042337420E+03  0.80042337422E+03  0.50400001928E-02 0.  1.
    10030    2    1    2    0    0  0.00000000000E+00  0.00000000000E+00  0.13571110961E+04  0.29579578445E+04  0.26282625597E+04 0.  0.
        5    1    3    3  502    0 -0.57536739031E+03 -0.10903726395E+03 -0.64544595987E+03  0.87152701385E+03  0.46999998093E+01 0.  1.
       -5    1    3    3    0  502  0.57536739031E+03  0.10903726395E+03  0.20025570560E+04  0.20864308307E+04  0.46999998093E+01 0. -1.
</event>
<event>
 5   0  0.6158063E-06  0.2602713E+04  0.7818609E-02  0.8367280E-01
       -2   -1    0    0    0  501  0.00000000000E+00  0.00000000000E+00  0.90528413767E+03  0.90528413767E+03  0.25500000920E-02 0.  1.
        2   -1    0    0  501    0  0.00000000000E+00  0.00000000000E+00 -0.18707158531E+04  0.18707158531E+04  0.25500000920E-02 0. -1.
    10030    2    1    2    0    0  0.00000000000E+00  0.00000000000E+00 -0.96543171542E+03  0.27759999908E+04  0.26027134978E+04 0.  0.
        2    1    3    3  502    0  0.34628426443E+03 -0.12366030471E+04 -0.70753268204E+03  0.14661863402E+04  0.25500000920E-02 0. -1.
       -2    1    3    3    0  502 -0.34628426443E+03  0.12366030471E+04 -0.25789903338E+03  0.13098136506E+04  0.25500000920E-02 0.  1.
</event>
<event>
 5   0  0.5940748E-06  0.2595488E+04  0.7818609E-02  0.8369735E-01
        2   -1    0    0  501    0  0.00000000000E+00  0.00000000000E+00  0.14953357663E+04  0.14953357663E+04  0.25500000920E-02 0. -1.
       -2   -1    0    0    0  501  0.00000000000E+00  0.00000000000E+00 -0.11262620461E+04  0.11262620461E+04  0.25500000920E-02 0.  1.
    10030    2    1    2    0    0  0.00000000000E+00  0.00000000000E+00  0.36907372013E+03  0.26215978124E+04  0.25954883315E+04 0.  0.
        1    1    3    3  502    0 -0.80151037531E+03  0.97817014500E+03 -0.10977759069E+03  0.12693647363E+04  0.50400001928E-02 0. -1.
       -1    1    3    3    0  502  0.80151037531E+03 -0.97817014500E+03  0.47885131081E+03  0.13522330761E+04  0.50400001928E-02 0.  1.
</event>
<event>
 5   0  0.2503292E-06  0.2600360E+04  0.7818609E-02  0.8368079E-01
        1   -1    0    0  501    0  0.00000000000E+00  0.00000000000E+00  0.66886332199E+03  0.66886332201E+03  0.50400001928E-02 0. -1.
       -1   -1    0    0    0  501  0.00000000000E+00  0.00000000000E+00 -0.25273743457E+04  0.25273743457E+04  0.50400001928E-02 0.  1.
    10030    2    1    2    0    0  0.00000000000E+00  0.00000000000E+00 -0.18585110237E+04  0.31962376677E+04  0.26003599757E+04 0.  0.
        2    1    3    3  502    0 -0.27152786068E+03 -0.12698287389E+04 -0.84888367439E+03  0.15513851546E+04  0.25500000920E-02 0. -1.
       -2    1    3    3    0  502  0.27152786068E+03  0.12698287389E+04 -0.10096273493E+04  0.16448525131E+04  0.25500000920E-02 0.  1.
</event>
<event>
 5   0  0.2333979E-06  0.2600444E+04  0.7818609E-02  0.8368050E-01
        1   -1    0    0  501    0  0.00000000000E+00  0.00000000000E+00  0.15358740694E+04  0.15358740694E+04  0.50400001928E-02 0. -1.
       -1   -1    0    0    0  501  0.00000000000E+00  0.00000000000E+00 -0.11007266134E+04  0.11007266134E+04  0.50400001928E-02 0.  1.
    10030    2    1    2    0    0  0.00000000000E+00  0.00000000000E+00  0.43514745605E+03  0.26366006828E+04  0.26004441644E+04 0.  0.
        3    1    3    3  502    0  0.32016054546E+03 -0.95558127908E+02  0.14916050270E+04  0.15285678583E+04  0.10100000352E+00 0. -1.
       -3    1    3    3    0  502 -0.32016054546E+03  0.95558127908E+02 -0.10564575710E+04  0.11080328245E+04  0.10100000352E+00 0.  1.
</event>
<event>
 5   0  0.6158063E-06  0.2592275E+04  0.7818609E-02  0.8370830E-01
       -2   -1    0    0    0  501  0.00000000000E+00  0.00000000000E+00  0.62971387540E+03  0.62971387541E+03  0.25500000920E-02 0.  1.
        2   -1    0    0  501    0  0.00000000000E+00  0.00000000000E+00 -0.26678338789E+04  0.26678338789E+04  0.25500000920E-02 0. -1.
    10030    2    1    2    0    0  0.00000000000E+00  0.00000000000E+00 -0.20381200035E+04  0.32975477543E+04  0.25922746852E+04 0.  0.
        2    1    3    3  502    0  0.12318190546E+03  0.86412660063E+03 -0.22379125045E+04  0.24021117671E+04  0.25500000920E-02 0. -1.
       -2    1    3    3    0  502 -0.12318190546E+03 -0.86412660063E+03  0.19979250100E+03  0.89543598723E+03  0.25500000920E-02 0.  1.
</event>
<event>
 5   0  0.2440590E-06  0.2597160E+04  0.7818609E-02  0.8369167E-01
        1   -1    0    0  501    0  0.00000000000E+00  0.00000000000E+00  0.99688704625E+03  0.99688704626E+03  0.50400001928E-02 0.  1.
       -1   -1    0    0    0  501  0.00000000000E+00  0.00000000000E+00 -0.16915755266E+04  0.16915755267E+04  0.50400001928E-02 0. -1.
    10030    2    1    2    0    0  0.00000000000E+00  0.00000000000E+00 -0.69468848040E+03  0.26884625729E+04  0.25971597797E+04 0.  0.
        1    1    3    3  502    0 -0.13782646959E+02 -0.73349627650E+03 -0.14565081975E+04  0.16308350249E+04  0.50400001928E-02 0. -1.
       -1    1    3    3    0  502  0.13782646959E+02  0.73349627650E+03  0.76181971708E+03  0.10576275480E+04  0.50400001928E-02 0.  1.
</event>
<event>
 5   0  0.2440590E-06  0.2611662E+04  0.7818609E-02  0.8364251E-01
        1   -1    0    0  501    0  0.00000000000E+00  0.00000000000E+00  0.12669788825E+04  0.12669788825E+04  0.50400001928E-02 0. -1.
       -1   -1    0    0    0  501  0.00000000000E+00  0.00000000000E+00 -0.13458748570E+04  0.13458748570E+04  0.50400001928E-02 0.  1.
    10030    2    1    2    0    0  0.00000000000E+00  0.00000000000E+00 -0.78895974498E+02  0.26128537395E+04  0.26116623230E+04 0.  0.
        1    1    3    3  502    0  0.64354413815E+03  0.69064946323E+03 -0.94210638147E+03  0.13336829356E+04  0.50400001928E-02 0.  1.
       -1    1    3    3    0  502 -0.64354413815E+03 -0.69064946323E+03  0.86321040697E+03  0.12791708039E+04  0.50400001928E-02 0. -1.
</event>
<event>
 5   0  0.2503292E-06  0.2440560E+04  0.7818609E-02  0.8424473E-01
       -1   -1    0    0    0  501  0.00000000000E+00  0.00000000000E+00  0.10784775351E+04  0.10784775351E+04  0.50400001928E-02 0.  1.
        1   -1    0    0  501    0  0.00000000000E+00  0.00000000000E+00 -0.13807268890E+04  0.13807268890E+04  0.50400001928E-02 0. -1.
    10030    2    1    2    0    0  0.00000000000E+00  0.00000000000E+00 -0.30224935387E+03  0.24592044241E+04  0.24405597160E+04 0.  0.
        2    1    3    3  502    0 -0.10004334449E+03 -0.10205793123E+04  0.51536022336E+03  0.11476876593E+04  0.25500000920E-02 0.  1.
       -2    1    3    3    0  502  0.10004334449E+03  0.10205793123E+04 -0.81760957723E+03  0.13115167648E+04  0.25500000920E-02 0. -1.
</event>
<event>
 5   0  0.5942229E-06  0.2592088E+04  0.7818609E-02  0.8370894E-01
        2   -1    0    0  501    0  0.00000000000E+00  0.00000000000E+00  0.18704023137E+04  0.18704023137E+04  0.25500000920E-02 0.  1.
       -2   -1    0    0    0  501  0.00000000000E+00  0.00000000000E+00 -0.89805784637E+03  0.89805784637E+03  0.25500000920E-02 0. -1.
    10030    2    1    2    0    0  0.00000000000E+00  0.00000000000E+00  0.97234446737E+03  0.27684601601E+04  0.25920875554E+04 0.  0.
        4    1    3    3  502    0 -0.10553183443E+03  0.10058041018E+04  0.13518463644E+04  0.16882739900E+04  0.12699999809E+01 0.  1.
       -4    1    3    3    0  502  0.10553183443E+03 -0.10058041018E+04 -0.37950189706E+03  0.10801861701E+04  0.12699999809E+01 0. -1.
</event>
<event>
 5   0  0.6161834E-06  0.2602996E+04  0.7818609E-02  0.8367184E-01
       -2   -1    0    0    0  501  0.00000000000E+00  0.00000000000E+00  0.15587683774E+04  0.15587683774E+04  0.25500000920E-02 0.  1.
        2   -1    0    0  501    0  0.00000000000E+00  0.00000000000E+00 -0.10866891107E+04  0.10866891107E+04  0.25500000920E-02 0. -1.
    10030    2    1    2    0    0  0.00000000000E+00  0.00000000000E+00  0.47207926665E+03  0.26454574881E+04  0.26029956756E+04 0.  0.
        5    1    3    3  502    0  0.54114960167E+03 -0.27900806733E+03  0.14051023535E+04  0.15313468277E+04  0.46999998093E+01 0.  1.
       -5    1    3    3    0  502 -0.54114960167E+03  0.27900806733E+03 -0.93302308682E+03  0.11141106604E+04  0.46999998093E+01 0. -1.
</event>
<event>
 5   0  0.5942229E-06  0.2603653E+04  0.7818609E-02  0.8366962E-01
       -2   -1    0    0    0  501  0.00000000000E+00  0.00000000000E+00  0.96334765873E+03  0.96334765873E+03  0.25500000920E-02 0.  1.
        2   -1    0    0  501    0  0.00000000000E+00  0.00000000000E+00 -0.17592318229E+04  0.17592318229E+04  0.25500000920E-02 0. -1.
    10030    2    1    2    0    0  0.00000000000E+00  0.00000000000E+00 -0.79588416417E+03  0.27225794816E+04  0.26036527094E+04 0.  0.
        4    1    3    3  502    0  0.51313219955E+03  0.79129568227E+03  0.54043086995E+03  0.10869777592E+04  0.12699999809E+01 0.  1.
       -4    1    3    3    0  502 -0.51313219955E+03 -0.79129568227E+03 -0.13363150341E+04  0.16356017224E+04  0.12699999809E+01 0. -1.
</event>
<event>
 5   0  0.5940748E-06  0.2589034E+04  0.7818609E-02  0.8371936E-01
        2   -1    0    0  501    0  0.00000000000E+00  0.00000000000E+00  0.21187122912E+04  0.21187122912E+04  0.25500000920E-02 0.  1.
       -2   -1    0    0    0  501  0.00000000000E+00  0.00000000000E+00 -0.79094019822E+03  0.79094019823E+03  0.25500000920E-02 0. -1.
    10030    2    1    2    0    0  0.00000000000E+00  0.00000000000E+00  0.13277720929E+04  0.29096524894E+04  0.25890343525E+04 0.  0.
        1    1    3    3  502    0 -0.33953603237E+03  0.84155851775E+03  0.17013946885E+04  0.19282762619E+04  0.50400001928E-02 0.  1.
       -1    1    3    3    0  502  0.33953603237E+03 -0.84155851775E+03 -0.37362259552E+03  0.98137622754E+03  0.50400001928E-02 0. -1.
</event>
<event>
 5   0  0.6161834E-06  0.2616903E+04  0.7818609E-02  0.8362482E-01
       -2   -1    0    0    0  501  0.00000000000E+00  0.00000000000E+00  0.19282788120E+04  0.19282788120E+04  0.25500000920E-02 0. -1.
        2   -1    0    0  501    0  0.00000000000E+00  0.00000000000E+00 -0.88786195440E+03  0.88786195441E+03  0.25500000920E-02 0.  1.
    10030    2    1    2    0    0  0.00000000000E+00  0.00000000000E+00  0.10404168576E+04  0.28161407664E+04  0.26169030510E+04 0.  0.
        5    1    3    3  502    0 -0.22492046403E+03  0.86125627628E+03 -0.51179975453E+03  0.10267972864E+04  0.46999998093E+01 0.  1.
       -5    1    3    3    0  502  0.22492046403E+03 -0.86125627628E+03  0.15522166121E+04  0.17893434800E+04  0.46999998093E+01 0. -1.
</event>
<event>
 5   0  0.6173140E-06  0.2605234E+04  0.7818609E-02  0.8366426E-01
       -2   -1    0    0    0  501  0.00000000000E+00  0.00000000000E+00  0.12229352606E+04  0.12229352606E+04  0.25500000920E-02 0. -1.
        2   -1    0    0  501    0  0.00000000000E+00  0.00000000000E+00 -0.13874900144E+04  0.13874900144E+04  0.25500000920E-02 0.  1.
    10030    2    1    2    0    0  0.00000000000E+00  0.00000000000E+00 -0.16455475375E+03  0.26104252750E+04  0.26052335498E+04 0.  0.
        3    1    3    3  502    0 -0.35818858482E+03  0.74762343843E+03  0.92449883962E+03  0.12417479546E+04  0.10100000352E+00 0. -1.
       -3    1    3    3    0  502  0.35818858482E+03 -0.74762343843E+03 -0.10890535934E+04  0.13686773204E+04  0.10100000352E+00 0.  1.
</event>
<event>
 5   0  0.5942229E-06  0.2605135E+04  0.7818609E-02  0.8366459E-01
        2   -1    0    0  501    0  0.00000000000E+00  0.00000000000E+00  0.10085182028E+04  0.10085182028E+04  0.25500000920E-02 0. -1.
       -2   -1    0    0    0  501  0.00000000000E+00  0.00000000000E+00 -0.16823509851E+04  0.16823509851E+04  0.25500000920E-02 0.  1.
    10030    2    1    2    0    0  0.00000000000E+00  0.00000000000E+00 -0.67383278230E+03  0.26908691880E+04  0.26051346162E+04 0.  0.
        4    1    3    3  502    0 -0.10538472363E+03 -0.12981671183E+04 -0.31797798990E+03  0.13406921429E+04  0.12699999809E+01 0.  1.
       -4    1    3    3    0  502  0.10538472363E+03  0.12981671183E+04 -0.35585479240E+03  0.13501770451E+04  0.12699999809E+01 0. -1.
</event>
<event>
 5   0  0.2333979E-06  0.2623474E+04  0.7818609E-02  0.8360271E-01
       -1   -1    0    0    0  501  0.00000000000E+00  0.00000000000E+00  0.10721144603E+04  0.10721144603E+04  0.50400001928E-02 0.  1.
        1   -1    0    0  501    0  0.00000000000E+00  0.00000000000E+00 -0.16049157960E+04  0.16049157960E+04  0.50400001928E-02 0. -1.
    10030    2    1    2    0    0  0.00000000000E+00  0.00000000000E+00 -0.53280133570E+03  0.26770302563E+04  0.26234736000E+04 0.  0.
        3    1    3    3  502    0  0.55592261918E+03  0.33268280064E+03  0.89746488481E+03  0.11068744437E+04  0.10100000352E+00 0.  1.
       -3    1    3    3    0  502 -0.55592261918E+03 -0.33268280064E+03 -0.14302662205E+04  0.15701558127E+04  0.10100000352E+00 0. -1.
</event>
<event>
 5   0  0.2503292E-06  0.2604461E+04  0.7818609E-02  0.8366687E-01
       -1   -1    0    0    0  501  0.00000000000E+00  0.00000000000E+00  0.50647521819E+03  0.50647521821E+03  0.50400001928E-02 0.  1.
        1   -1    0    0  501    0  0.00000000000E+00  0.00000000000E+00 -0.33482476318E+04  0.33482476318E+04  0.50400001928E-02 0. -1.
    10030    2    1    2    0    0  0.00000000000E+00  0.00000000000E+00 -0.28417724136E+04  0.38547228500E+04  0.26044611342E+04 0.  0.
        2    1    3    3  502    0 -0.77494528946E+03 -0.13225338413E+03  0.11563651063E+03  0.79460868475E+03  0.25500000920E-02 0.  1.
       -2    1    3    3    0  502  0.77494528946E+03  0.13225338413E+03 -0.29574089242E+04  0.30601141653E+04  0.25500000920E-02 0. -1.
</event>
<event>
 5   0  0.2333979E-06  0.2612228E+04  0.7818609E-02  0.8364059E-01
       -1   -1    0    0    0  501  0.00000000000E+00  0.00000000000E+00  0.21240876881E+04  0.21240876881E+04  0.50400001928E-02 0.  1.
        1   -1    0    0  501    0  0.00000000000E+00  0.00000000000E+00 -0.80313715030E+03  0.80313715031E+03  0.50400001928E-02 0. -1.
    10030    2    1    2    0    0  0.00000000000E+00  0.00000000000E+00  0.13209505378E+04  0.29272248384E+04  0.26122279631E+04 0.  0.
        3    1    3    3  502    0  0.97902614362E+03  0.47747862666E+03 -0.14716741435E+03  0.10991525312E+04  0.10100000352E+00 0. -1.
       -3    1    3    3    0  502 -0.97902614362E+03 -0.47747862666E+03  0.14681179521E+04  0.18280723072E+04  0.10100000352E+00 0.  1.
</event>
<event>
 5   0  0.5942229E-06  0.2582748E+04  0.7818609E-02  0.8374085E-01
        2   -1    0    0  501    0  0.00000000000E+00  0.00000000000E+00  0.15660119920E+04  0.15660119920E+04  0.25500000920E-02 0. -1.
       -2   -1    0    0    0  501  0.00000000000E+00  0.00000000000E+00 -0.10649001034E+04  0.10649001034E+04  0.25500000920E-02 0.  1.
    10030    2    1    2    0    0  0.00000000000E+00  0.00000000000E+00  0.50111188862E+03  0.26309120954E+04  0.25827476317E+04 0.  0.
        4    1    3    3  502    0  0.44581595609E+02  0.59326677474E+02 -0.10627256134E+04  0.10653142802E+04  0.12699999809E+01 0.  1.
       -4    1    3    3    0  502 -0.44581595609E+02 -0.59326677474E+02  0.15638375020E+04  0.15655978152E+04  0.12699999809E+01 0. -1.
</event>
<event>
 5   0  0.2440590E-06  0.2623898E+04  0.7818609E-02  0.8360129E-01
        1   -1    0    0  501    0  0.00000000000E+00  0.00000000000E+00  0.18684263065E+04  0.18684263065E+04  0.50400001928E-02 0.  1.
       -1   -1    0    0    0  501  0.00000000000E+00  0.00000000000E+00 -0.92120846787E+03  0.92120846788E+03  0.50400001928E-02 0. -1.
    10030    2    1    2    0    0  0.00000000000E+00  0.00000000000E+00  0.94721783868E+03  0.27896347744E+04  0.26238979669E+04 0.  0.
        1    1    3    3  502    0 -0.97809467627E+03  0.87418449498E+03  0.45393583454E+03  0.13881374100E+04  0.50400001928E-02 0. -1.
       -1    1    3    3    0  502  0.97809467627E+03 -0.87418449498E+03  0.49328200413E+03  0.14014973645E+04  0.50400001928E-02 0.  1.
</event>
<event>
 5   0  0.2456600E-06  0.2602057E+04  0.7818609E-02  0.8367503E-01
       -1   -1    0    0    0  501  0.00000000000E+00  0.00000000000E+00  0.10243309973E+04  0.10243309973E+04  0.50400001928E-02 0. -1.
        1   -1    0    0  501    0  0.00000000000E+00  0.00000000000E+00 -0.16524685338E+04  0.16524685339E+04  0.50400001928E-02 0.  1.
    10030    2    1    2    0    0  0.00000000000E+00  0.00000000000E+00 -0.62813753652E+03  0.26767995312E+04  0.26020566799E+04 0.  0.
        5    1    3    3  502    0 -0.31566445131E+03  0.29411122114E+03 -0.15767237606E+04  0.16346942722E+04  0.46999998093E+01 0.  1.
       -5    1    3    3    0  502  0.31566445131E+03 -0.29411122114E+03  0.94858622412E+03  0.10421052590E+04  0.46999998093E+01 0. -1.
</event>
<event>
 5   0  0.2440590E-06  0.2613867E+04  0.7818609E-02  0.8363506E-01
        1   -1    0    0  501    0  0.00000000000E+00  0.00000000000E+00  0.20687067469E+04  0.20687067469E+04  0.50400001928E-02 0.  1.
       -1   -1    0    0    0  501  0.00000000000E+00  0.00000000000E+00 -0.82567278799E+03  0.82567278801E+03  0.50400001928E-02 0. -1.
    10030    2    1    2    0    0  0.00000000000E+00  0.00000000000E+00  0.12430339589E+04  0.28943795349E+04  0.26138667657E+04 0.  0.
        1    1    3    3  502    0 -0.13584422796E+03 -0.68764916955E+03 -0.59992956190E+03  0.92262154425E+03  0.50400001928E-02 0. -1.
       -1    1    3    3    0  502  0.13584422796E+03  0.68764916955E+03  0.18429635208E+04  0.19717579906E+04  0.50400001928E-02 0.  1.
</event>
<event>
 5   0  0.2503292E-06  0.2599538E+04  0.7818609E-02  0.8368358E-01
        1   -1    0    0  501    0  0.00000000000E+00  0.00000000000E+00  0.13596014074E+04  0.13596014074E+04  0.50400001928E-02 0. -1.
       -1   -1    0    0    0  501  0.00000000000E+00  0.00000000000E+00 -0.12425694684E+04  0.12425694684E+04  0.50400001928E-02 0.  1.
    10030    2    1    2    0    0  0.00000000000E+00  0.00000000000E+00  0.11703193899E+03  0.26021708758E+04  0.25995378036E+04 0.  0.
        2    1    3    3  502    0 -0.12790694988E+04  0.74296914735E+02  0.27750772386E+03  0.13109345335E+04  0.25500000920E-02 0. -1.
       -2    1    3    3    0  502  0.12790694988E+04 -0.74296914735E+02 -0.16047578487E+03  0.12912363424E+04  0.25500000920E-02 0.  1.
</event>
<event>
 5   0  0.6161834E-06  0.2557604E+04  0.7818609E-02  0.8382746E-01
       -2   -1    0    0    0  501  0.00000000000E+00  0.00000000000E+00  0.77819780470E+03  0.77819780470E+03  0.25500000920E-02 0. -1.
        2   -1    0    0  501    0  0.00000000000E+00  0.00000000000E+00 -0.21014385785E+04  0.21014385785E+04  0.25500000920E-02 0.  1.
    10030    2    1    2    0    0  0.00000000000E+00  0.00000000000E+00 -0.13232407738E+04  0.28796363832E+04  0.25576042606E+04 0.  0.
        5    1    3    3  502    0 -0.68707424444E+03 -0.56640103349E+03  0.37178719338E+03  0.96495023461E+03  0.46999998093E+01 0. -1.
       -5    1    3    3    0  502  0.68707424444E+03  0.56640103349E+03 -0.16950279671E+04  0.19146861486E+04  0.46999998093E+01 0.  1.
</event>
<event>
 5   0  0.5942229E-06  0.2608533E+04  0.7818609E-02  0.8365308E-01
        2   -1    0    0  501    0  0.00000000000E+00  0.00000000000E+00  0.20583990138E+04  0.20583990138E+04  0.25500000920E-02 0. -1.
       -2   -1    0    0    0  501  0.00000000000E+00  0.00000000000E+00 -0.82642443769E+03  0.82642443770E+03  0.25500000920E-02 0.  1.
    10030    2    1    2    0    0  0.00000000000E+00  0.00000000000E+00  0.12319745761E+04  0.28848234515E+04  0.26085331108E+04 0.  0.
        4    1    3    3  502    0 -0.12058451975E+04 -0.11938786302E+02  0.11655121595E+04  0.16770883644E+04  0.12699999809E+01 0. -1.
       -4    1    3    3    0  502  0.12058451975E+04  0.11938786302E+02  0.66462416607E+02  0.12077350871E+04  0.12699999809E+01 0.  1.
</event>
<event>
 5   0  0.2333979E-06  0.2569646E+04  0.7818609E-02  0.8378585E-01
        1   -1    0    0  501    0  0.00000000000E+00  0.00000000000E+00  0.12008039930E+04  0.12008039930E+04  0.50400001928E-02 0. -1.
       -1   -1    0    0    0  501  0.00000000000E+00  0.00000000000E+00 -0.13747208117E+04  0.13747208117E+04  0.50400001928E-02 0.  1.
    10030    2    1    2    0    0  0.00000000000E+00  0.00000000000E+00 -0.17391681870E+03  0.25755248047E+04  0.25696460768E+04 0.  0.
        3    1    3    3  502    0 -0.96263210152E+02  0.20569243701E+03  0.11805271936E+04  0.12021732194E+04  0.10100000352E+00 0. -1.
       -3    1    3    3    0  502  0.96263210152E+02 -0.20569243701E+03 -0.13544440123E+04  0.13733515854E+04  0.10100000352E+00 0.  1.
</event>
<event>
 5   0  0.2503292E-06  0.2601688E+04  0.7818609E-02  0.8367628E-01
        1   -1    0    0  501    0  0.00000000000E+00  0.00000000000E+00  0.15250704106E+04  0.15250704106E+04  0.50400001928E-02 0. -1.
       -1   -1    0    0    0  501  0.00000000000E+00  0.00000000000E+00 -0.11095846725E+04  0.11095846725E+04  0.50400001928E-02 0.  1.
    10030    2    1    2    0    0  0.00000000000E+00  0.00000000000E+00  0.41548573807E+03  0.26346550831E+04  0.26016877231E+04 0.  0.
        2    1    3    3  502    0 -0.94845325527E+03  0.88710820563E+03  0.13148792151E+03  0.13053021181E+04  0.25500000920E-02 0.  1.
       -2    1    3    3    0  502  0.94845325527E+03 -0.88710820563E+03  0.28399781656E+03  0.13293529651E+04  0.25500000920E-02 0. -1.
</event>
<event>
 5   0  0.5942229E-06  0.2593837E+04  0.7818609E-02  0.8370298E-01
        2   -1    0    0  501    0  0.00000000000E+00  0.00000000000E+00  0.21871957864E+04  0.21871957864E+04  0.25500000920E-02 0.  1.
       -2   -1    0    0    0  501  0.00000000000E+00  0.00000000000E+00 -0.76902033046E+03  0.76902033046E+03  0.25500000920E-02 0. -1.
    10030    2    1    2    0    0  0.00000000000E+00  0.00000000000E+00  0.14181754559E+04  0.29562161169E+04  0.25938373322E+04 0.  0.
        4    1    3    3  502    0 -0.69613195748E+03 -0.10171944299E+04  0.11688184282E+04  0.16986530963E+04  0.12699999809E+01 0. -1.
       -4    1    3    3    0  502  0.69613195748E+03  0.10171944299E+04  0.24935702770E+03  0.12575630206E+04  0.12699999809E+01 0.  1.
</event>
<event>
 5   0  0.2440590E-06  0.2607148E+04  0.7818609E-02  0.8365777E-01
        1   -1    0    0  501    0  0.00000000000E+00  0.00000000000E+00  0.12295372954E+04  0.12295372955E+04  0.50400001928E-02 0. -1.
       -1   -1    0    0    0  501  0.00000000000E+00  0.00000000000E+00 -0.13820685423E+04  0.13820685424E+04  0.50400001928E-02 0.  1.
    10030    2    1    2    0    0  0.00000000000E+00  0.00000000000E+00 -0.15253124690E+03  0.26116058378E+04  0.26071477271E+04 0.  0.
        1    1    3    3  502    0 -0.39617858264E+03 -0.63982338309E+03  0.98996670174E+03  0.12435294534E+04  0.50400001928E-02 0. -1.
       -1    1    3    3    0  502  0.39617858264E+03  0.63982338309E+03 -0.11424979486E+04  0.13680763844E+04  0.50400001928E-02 0.  1.
</event>
<event>
 5   0  0.5942229E-06  0.2613979E+04  0.7818609E-02  0.8363468E-01
        2   -1    0    0  501    0  0.00000000000E+00  0.00000000000E+00  0.15912751389E+04  0.15912751389E+04  0.25500000920E-02 0.  1.
       -2   -1    0    0    0  501  0.00000000000E+00  0.00000000000E+00 -0.10734924272E+04  0.10734924272E+04  0.25500000920E-02 0. -1.
    10030    2    1    2    0    0  0.00000000000E+00  0.00000000000E+00  0.51778271169E+03  0.26647675661E+04  0.26139791975E+04 0.  0.
        4    1    3    3  502    0 -0.48018480717E+03 -0.11939417122E+04  0.26099680793E+02  0.12871507555E+04  0.12699999809E+01 0.  1.
       -4    1    3    3    0  502  0.48018480717E+03  0.11939417122E+04  0.49168303089E+03  0.13776168106E+04  0.12699999809E+01 0. -1.
</event>
<event>
 5   0  0.2440590E-06  0.2596611E+04  0.7818609E-02  0.8369353E-01
        1   -1    0    0  501    0  0.00000000000E+00  0.00000000000E+00  0.18020829471E+04  0.18020829471E+04  0.50400001928E-02 0. -1.
       -1   -1    0    0    0  501  0.00000000000E+00  0.00000000000E+00 -0.93536038039E+03  0.93536038041E+03  0.50400001928E-02 0.  1.
    10030    2    1    2    0    0  0.00000000000E+00  0.00000000000E+00  0.86672256668E+03  0.27374433275E+04  0.25966108610E+04 0.  0.
        1    1    3    3  502    0 -0.88760648951E+03  0.94677059618E+03  0.47248397361E+03  0.13811085936E+04  0.50400001928E-02 0. -1.
       -1    1    3    3    0  502  0.88760648951E+03 -0.94677059618E+03  0.39423859307E+03  0.13563347339E+04  0.50400001928E-02 0.  1.
</event>
<event>
 5   0  0.2440590E-06  0.2597225E+04  0.7818609E-02  0.8369144E-01
       -1   -1    0    0    0  501  0.00000000000E+00  0.00000000000E+00  0.93372995869E+03  0.93372995870E+03  0.50400001928E-02 0.  1.
        1   -1    0    0  501    0  0.00000000000E+00  0.00000000000E+00 -0.18060841744E+04  0.18060841744E+04  0.50400001928E-02 0. -1.
    10030    2    1    2    0    0  0.00000000000E+00  0.00000000000E+00 -0.87235421572E+03  0.27398141331E+04  0.25972253669E+04 0.  0.
        1    1    3    3  502    0 -0.35333024639E+03  0.45209280639E+01  0.88203998206E+03  0.95018799813E+03  0.50400001928E-02 0.  1.
       -1    1    3    3    0  502  0.35333024639E+03 -0.45209280639E+01 -0.17543941978E+04  0.17896261350E+04  0.50400001928E-02 0. -1.
</event>
<event>
 5   0  0.6173140E-06  0.2594254E+04  0.7818609E-02  0.8370156E-01
        2   -1    0    0  501    0  0.00000000000E+00  0.00000000000E+00  0.16237233379E+04  0.16237233379E+04  0.25500000920E-02 0.  1.
       -2   -1    0    0    0  501  0.00000000000E+00  0.00000000000E+00 -0.10362225034E+04  0.10362225034E+04  0.25500000920E-02 0. -1.
    10030    2    1    2    0    0  0.00000000000E+00  0.00000000000E+00  0.58750083450E+03  0.26599458412E+04  0.25942541602E+04 0.  0.
        3    1    3    3  502    0 -0.61078466300E+03  0.10890797978E+04 -0.66407620430E+02  0.12504250049E+04  0.10100000352E+00 0. -1.
       -3    1    3    3    0  502  0.61078466300E+03 -0.10890797978E+04  0.65390845493E+03  0.14095208364E+04  0.10100000352E+00 0.  1.
</event>
<event>
 5   0  0.2456600E-06  0.2589303E+04  0.7818609E-02  0.8371844E-01
        1   -1    0    0  501    0  0.00000000000E+00  0.00000000000E+00  0.11882527716E+04  0.11882527716E+04  0.50400001928E-02 0. -1.
       -1   -1    0    0    0  501  0.00000000000E+00  0.00000000000E+00 -0.14105774190E+04  0.14105774190E+04  0.50400001928E-02 0.  1.
    10030    2    1    2    0    0  0.00000000000E+00  0.00000000000E+00 -0.22232464744E+03  0.25988301906E+04  0.25893030164E+04 0.  0.
        5    1    3    3  502    0  0.15090536889E+03  0.70447721588E+03  0.96845336333E+03  0.12070561648E+04  0.46999998093E+01 0. -1.
       -5    1    3    3    0  502 -0.15090536889E+03 -0.70447721588E+03 -0.11907780108E+04  0.13917740258E+04  0.46999998093E+01 0.  1.
</event>
<event>
 5   0  0.6173140E-06  0.2596499E+04  0.7818609E-02  0.8369391E-01
        2   -1    0    0  501    0  0.00000000000E+00  0.00000000000E+00  0.14417746579E+04  0.14417746579E+04  0.25500000920E-02 0.  1.
       -2   -1    0    0    0  501  0.00000000000E+00  0.00000000000E+00 -0.11690116786E+04  0.11690116786E+04  0.25500000920E-02 0. -1.
    10030    2    1    2    0    0  0.00000000000E+00  0.00000000000E+00  0.27276297931E+03  0.26107863365E+04  0.25964987294E+04 0.  0.
        3    1    3    3  502    0 -0.47074829339E+03  0.12093611131E+04  0.17253969554E+03  0.13091708117E+04  0.10100000352E+00 0. -1.
       -3    1    3    3    0  502  0.47074829339E+03 -0.12093611131E+04  0.10022328376E+03  0.13016155248E+04  0.10100000352E+00 0.  1.
</event>
<event>
 5   0  0.5942229E-06  0.2610790E+04  0.7818609E-02  0.8364545E-01
        2   -1    0    0  501    0  0.00000000000E+00  0.00000000000E+00  0.18955101996E+04  0.18955101996E+04  0.25500000920E-02 0. -1.
       -2   -1    0    0    0  501  0.00000000000E+00  0.00000000000E+00 -0.89899581217E+03  0.89899581218E+03  0.25500000920E-02 0.  1.
    10030    2    1    2    0    0  0.00000000000E+00  0.00000000000E+00  0.99651438742E+03  0.27945060118E+04  0.26107897130E+04 0.  0.
        4    1    3    3  502    0  0.20189818175E+03 -0.75811665672E+03 -0.61849656221E+03  0.99902119665E+03  0.12699999809E+01 0.  1.
       -4    1    3    3    0  502 -0.20189818175E+03  0.75811665672E+03  0.16150109496E+04  0.17954848151E+04  0.12699999809E+01 0. -1.
</event>
<event>
 5   0  0.6173140E-06  0.2596990E+04  0.7818609E-02  0.8369224E-01
       -2   -1    0    0    0  501  0.00000000000E+00  0.00000000000E+00  0.10012128320E+04  0.10012128320E+04  0.25500000920E-02 0.  1.
        2   -1    0    0  501    0  0.00000000000E+00  0.00000000000E+00 -0.16840462901E+04  0.16840462901E+04  0.25500000920E-02 0. -1.
    10030    2    1    2    0    0  0.00000000000E+00  0.00000000000E+00 -0.68283345808E+03  0.26852591221E+04  0.25969896075E+04 0.  0.
        3    1    3    3  502    0 -0.68489971283E+03  0.93879700788E+03 -0.94047163509E+03  0.14949629913E+04  0.10100000352E+00 0. -1.
       -3    1    3    3    0  502  0.68489971283E+03 -0.93879700788E+03  0.25763817700E+03  0.11902961308E+04  0.10100000352E+00 0.  1.
</event>
<event>
 5   0  0.5940748E-06  0.2603567E+04  0.7818609E-02  0.8366991E-01
        2   -1    0    0  501    0  0.00000000000E+00  0.00000000000E+00  0.20471271005E+04  0.20471271005E+04  0.25500000920E-02 0. -1.
       -2   -1    0    0    0  501  0.00000000000E+00  0.00000000000E+00 -0.82781365252E+03  0.82781365252E+03  0.25500000920E-02 0.  1.
    10030    2    1    2    0    0  0.00000000000E+00  0.00000000000E+00  0.12193134480E+04  0.28749407530E+04  0.26035666016E+04 0.  0.
        1    1    3    3  502    0  0.53180602805E+03  0.11804834694E+04  0.75895640047E+03  0.15007910217E+04  0.50400001928E-02 0. -1.
       -1    1    3    3    0  502 -0.53180602805E+03 -0.11804834694E+04  0.46035704750E+03  0.13741497313E+04  0.50400001928E-02 0.  1.
</event>
<event>
 5   0  0.2503292E-06  0.2596687E+04  0.7818609E-02  0.8369328E-01
        1   -1    0    0  501    0  0.00000000000E+00  0.00000000000E+00  0.11455063971E+04  0.11455063971E+04  0.50400001928E-02 0. -1.
       -1   -1    0    0    0  501  0.00000000000E+00  0.00000000000E+00 -0.14715722401E+04  0.14715722402E+04  0.50400001928E-02 0.  1.
    10030    2    1    2    0    0  0.00000000000E+00  0.00000000000E+00 -0.32606584304E+03  0.26170786373E+04  0.25966866695E+04 0.  0.
        2    1    3    3  502    0  0.30025388152E+02 -0.11424456789E+04 -0.78399782375E+03  0.13859062886E+04  0.25500000920E-02 0.  1.
       -2    1    3    3    0  502 -0.30025388152E+02  0.11424456789E+04  0.45793198071E+03  0.12311723487E+04  0.25500000920E-02 0. -1.
</event>
<event>
 5   0  0.2471488E-06  0.2609459E+04  0.7818609E-02  0.8364995E-01
        1   -1    0    0  501    0  0.00000000000E+00  0.00000000000E+00  0.12517791622E+04  0.12517791622E+04  0.50400001928E-02 0.  1.
       -1   -1    0    0    0  501  0.00000000000E+00  0.00000000000E+00 -0.13599195583E+04  0.13599195583E+04  0.50400001928E-02 0. -1.
    10030    2    1    2    0    0  0.00000000000E+00  0.00000000000E+00 -0.10814039617E+03  0.26116987205E+04  0.26094589212E+04 0.  0.
        4    1    3    3  502    0 -0.56041021175E+03 -0.88841262845E+03 -0.82867296501E+03  0.13379226807E+04  0.12699999809E+01 0. -1.
       -4    1    3    3    0  502  0.56041021175E+03  0.88841262845E+03  0.72053256884E+03  0.12737760398E+04  0.12699999809E+01 0.  1.
</event>
<event>
 5   0  0.6161834E-06  0.2600469E+04  0.7818609E-02  0.8368042E-01
       -2   -1    0    0    0  501  0.00000000000E+00  0.00000000000E+00  0.64581014620E+03  0.64581014620E+03  0.25500000920E-02 0. -1.
        2   -1    0    0  501    0  0.00000000000E+00  0.00000000000E+00 -0.26178122384E+04  0.26178122384E+04  0.25500000920E-02 0.  1.
    10030    2    1    2    0    0  0.00000000000E+00  0.00000000000E+00 -0.19720020922E+04  0.32636223846E+04  0.26004689611E+04 0.  0.
        5    1    3    3  502    0  0.64036624943E+03  0.45413283460E+03  0.31478954912E+03  0.84582510905E+03  0.46999998093E+01 0. -1.
       -5    1    3    3    0  502 -0.64036624943E+03 -0.45413283460E+03 -0.22867916413E+04  0.24177972755E+04  0.46999998093E+01 0.  1.
</event>
<event>
 5   0  0.2440590E-06  0.2566773E+04  0.7818609E-02  0.8379576E-01
       -1   -1    0    0    0  501  0.00000000000E+00  0.00000000000E+00  0.92158815291E+03  0.92158815292E+03  0.50400001928E-02 0. -1.
        1   -1    0    0  501    0  0.00000000000E+00  0.00000000000E+00 -0.17872194808E+04  0.17872194808E+04  0.50400001928E-02 0.  1.
    10030    2    1    2    0    0  0.00000000000E+00  0.00000000000E+00 -0.86563132785E+03  0.27088076337E+04  0.25667725261E+04 0.  0.
        1    1    3    3  502    0 -0.58507391695E+03 -0.94617114478E+03 -0.11081721896E+04  0.15702219350E+04  0.50400001928E-02 0.  1.
       -1    1    3    3    0  502  0.58507391695E+03  0.94617114478E+03  0.24254086173E+03  0.11385856986E+04  0.50400001928E-02 0. -1.
</event>
<event>
 5   0  0.2471488E-06  0.2609232E+04  0.7818609E-02  0.8365072E-01
       -1   -1    0    0    0  501  0.00000000000E+00  0.00000000000E+00  0.80189015918E+03  0.80189015920E+03  0.50400001928E-02 0.  1.
        1   -1    0    0  501    0  0.00000000000E+00  0.00000000000E+00 -0.21225130544E+04  0.21225130544E+04  0.50400001928E-02 0. -1.
    10030    2    1    2    0    0  0.00000000000E+00  0.00000000000E+00 -0.13206228952E+04  0.29244032136E+04  0.26092315582E+04 0.  0.
        4    1    3    3  502    0 -0.12440546213E+02 -0.10268777204E+04 -0.15621047083E+04  0.18694398499E+04  0.12699999809E+01 0. -1.
       -4    1    3    3    0  502  0.12440546213E+02  0.10268777204E+04  0.24148181312E+03  0.10549633637E+04  0.12699999809E+01 0.  1.
</event>
<event>
 5   0  0.2456600E-06  0.2698352E+04  0.7818609E-02  0.8335540E-01
        1   -1    0    0  501    0  0.00000000000E+00  0.00000000000E+00  0.24340093123E+04  0.24340093123E+04  0.50400001928E-02 0.  1.
       -1   -1    0    0    0  501  0.00000000000E+00  0.00000000000E+00 -0.74785075248E+03  0.74785075250E+03  0.50400001928E-02 0. -1.
    10030    2    1    2    0    0  0.00000000000E+00  0.00000000000E+00  0.16861585598E+04  0.31818600648E+04  0.26983518642E+04 0.  0.
        5    1    3    3  502    0 -0.13284034240E+04 -0.33901415182E+02  0.11182334034E+04  0.17367420641E+04  0.46999998093E+01 0.  1.
       -5    1    3    3    0  502  0.13284034240E+04  0.33901415182E+02  0.56792515647E+03  0.14451180007E+04  0.46999998093E+01 0. -1.
</event>
<event>
 5   0  0.5942229E-06  0.2591745E+04  0.7818609E-02  0.8371011E-01
       -2   -1    0    0    0  501  0.00000000000E+00  0.00000000000E+00  0.94797671268E+03  0.94797671268E+03  0.25500000920E-02 0. -1.
        2   -1    0    0  501    0  0.00000000000E+00  0.00000000000E+00 -0.17714412479E+04  0.17714412479E+04  0.25500000920E-02 0.  1.
    10030    2    1    2    0    0  0.00000000000E+00  0.00000000000E+00 -0.82346453521E+03  0.27194179606E+04  0.25917446255E+04 0.  0.
        4    1    3    3  502    0  0.87774390791E+03  0.80204859890E+03  0.12898582674E+03  0.11959746148E+04  0.12699999809E+01 0. -1.
       -4    1    3    3    0  502 -0.87774390791E+03 -0.80204859890E+03 -0.95245036195E+03  0.15234433458E+04  0.12699999809E+01 0.  1.
</event>
<event>
 5   0  0.2440590E-06  0.2596867E+04  0.7818609E-02  0.8369266E-01
        1   -1    0    0  501    0  0.00000000000E+00  0.00000000000E+00  0.12986106417E+04  0.12986106417E+04  0.50400001928E-02 0.  1.
       -1   -1    0    0    0  501  0.00000000000E+00  0.00000000000E+00 -0.12982559392E+04  0.12982559392E+04  0.50400001928E-02 0. -1.
    10030    2    1    2    0    0  0.00000000000E+00  0.00000000000E+00  0.35470248913E+00  0.25968665809E+04  0.25968665567E+04 0.  0.
        1    1    3    3  502    0 -0.37973526756E+03 -0.23639854425E+03 -0.12187754210E+04  0.12982667954E+04  0.50400001928E-02 0. -1.
       -1    1    3    3    0  502  0.37973526756E+03  0.23639854425E+03  0.12191301235E+04  0.12985997856E+04  0.50400001928E-02 0.  1.
</event>
<event>
 5   0  0.6158063E-06  0.2593742E+04  0.7818609E-02  0.8370330E-01
        2   -1    0    0  501    0  0.00000000000E+00  0.00000000000E+00  0.16375582947E+04  0.16375582947E+04  0.25500000920E-02 0. -1.
       -2   -1    0    0    0  501  0.00000000000E+00  0.00000000000E+00 -0.10270624510E+04  0.10270624510E+04  0.25500000920E-02 0.  1.
    10030    2    1    2    0    0  0.00000000000E+00  0.00000000000E+00  0.61049584368E+03  0.26646207457E+04  0.25937421891E+04 0.  0.
        2    1    3    3  502    0 -0.31010286296E+03 -0.56122813754E+03 -0.85282496600E+03  0.10669823010E+04  0.25500000920E-02 0.  1.
       -2    1    3    3    0  502  0.31010286296E+03  0.56122813754E+03  0.14633208097E+04  0.15976384447E+04  0.25500000920E-02 0. -1.
</event>
<event>
 5   0  0.6161834E-06  0.2612561E+04  0.7818609E-02  0.8363947E-01
       -2   -1    0    0    0  501  0.00000000000E+00  0.00000000000E+00  0.12180880538E+04  0.12180880538E+04  0.25500000920E-02 0.  1.
        2   -1    0    0  501    0  0.00000000000E+00  0.00000000000E+00 -0.14008577560E+04  0.14008577560E+04  0.25500000920E-02 0. -1.
    10030    2    1    2    0    0  0.00000000000E+00  0.00000000000E+00 -0.18276970225E+03  0.26189458098E+04  0.26125605047E+04 0.  0.
        5    1    3    3  502    0 -0.19341242006E+03 -0.78169702279E+03 -0.11224352130E+04  0.13814273405E+04  0.46999998093E+01 0. -1.
       -5    1    3    3    0  502  0.19341242006E+03  0.78169702279E+03  0.93966551078E+03  0.12375184693E+04  0.46999998093E+01 0.  1.
</event>
<event>
 5   0  0.2333979E-06  0.2592155E+04  0.7818609E-02  0.8370871E-01
       -1   -1    0    0    0  501  0.00000000000E+00  0.00000000000E+00  0.10380490855E+04  0.10380490855E+04  0.50400001928E-02 0.  1.
        1   -1    0    0  501    0  0.00000000000E+00  0.00000000000E+00 -0.16182438692E+04  0.16182438692E+04  0.50400001928E-02 0. -1.
    10030    2    1    2    0    0  0.00000000000E+00  0.00000000000E+00 -0.58019478366E+03  0.26562929547E+04  0.25921547551E+04 0.  0.
        3    1    3    3  502    0 -0.83044670274E+03 -0.99448575924E+03 -0.32519251976E+03  0.13358120513E+04  0.10100000352E+00 0.  1.
       -3    1    3    3    0  502  0.83044670274E+03  0.99448575924E+03 -0.25500226390E+03  0.13204809034E+04  0.10100000352E+00 0. -1.
</event>
<event>
 5   0  0.2456600E-06  0.2599663E+04  0.7818609E-02  0.8368316E-01
        1   -1    0    0  501    0  0.00000000000E+00  0.00000000000E+00  0.11918224521E+04  0.11918224522E+04  0.50400001928E-02 0. -1.
       -1   -1    0    0    0  501  0.00000000000E+00  0.00000000000E+00 -0.14176286321E+04  0.14176286321E+04  0.50400001928E-02 0.  1.
    10030    2    1    2    0    0  0.00000000000E+00  0.00000000000E+00 -0.22580617995E+03  0.26094510843E+04  0.25996627724E+04 0.  0.
        5    1    3    3  502    0  0.64068715582E+02 -0.12444200893E+04 -0.48423298513E+03  0.13368581947E+04  0.46999998093E+01 0.  1.
       -5    1    3    3    0  502 -0.64068715582E+02  0.12444200893E+04  0.25842680518E+03  0.12725928895E+04  0.46999998093E+01 0. -1.
</event>
<event>
 5   0  0.6158063E-06  0.2594973E+04  0.7818609E-02  0.8369911E-01
       -2   -1    0    0    0  501  0.00000000000E+00  0.00000000000E+00  0.15665839468E+04  0.15665839468E+04  0.25500000920E-02 0.  1.
        2   -1    0    0  501    0  0.00000000000E+00  0.00000000000E+00 -0.10746128606E+04  0.10746128606E+04  0.25500000920E-02 0. -1.
    10030    2    1    2    0    0  0.00000000000E+00  0.00000000000E+00  0.49197108622E+03  0.26411968074E+04  0.25949730298E+04 0.  0.
        2    1    3    3  502    0 -0.15401594160E+03  0.56205460897E+03 -0.93390711573E+03  0.11008218723E+04  0.25500000920E-02 0. -1.
       -2    1    3    3    0  502  0.15401594160E+03 -0.56205460897E+03  0.14258782020E+04  0.15403749351E+04  0.25500000920E-02 0.  1.
</event>
<event>
 5   0  0.2471488E-06  0.2601611E+04  0.7818609E-02  0.8367654E-01
       -1   -1    0    0    0  501  0.00000000000E+00  0.00000000000E+00  0.87847710701E+03  0.87847710703E+03  0.50400001928E-02 0.  1.
        1   -1    0    0  501    0  0.00000000000E+00  0.00000000000E+00 -0.19261678849E+04  0.19261678849E+04  0.50400001928E-02 0. -1.
    10030    2    1    2    0    0  0.00000000000E+00  0.00000000000E+00 -0.10476907779E+04  0.28046449919E+04  0.26016105713E+04 0.  0.
        4    1    3    3  502    0 -0.11050926660E+03 -0.68496830315E+01  0.87338729173E+03  0.88037843591E+03  0.12699999809E+01 0.  1.
       -4    1    3    3    0  502  0.11050926660E+03  0.68496830315E+01 -0.19210780696E+04  0.19242665560E+04  0.12699999809E+01 0. -1.
</event>
<event>
 5   0  0.6173140E-06  0.2599418E+04  0.7818609E-02  0.8368399E-01
       -2   -1    0    0    0  501  0.00000000000E+00  0.00000000000E+00  0.11147453967E+04  0.11147453967E+04  0.25500000920E-02 0.  1.
        2   -1    0    0  501    0  0.00000000000E+00  0.00000000000E+00 -0.15153628201E+04  0.15153628201E+04  0.25500000920E-02 0. -1.
    10030    2    1    2    0    0  0.00000000000E+00  0.00000000000E+00 -0.40061742347E+03  0.26301082168E+04  0.25994181872E+04 0.  0.
        3    1    3    3  502    0  0.53901296191E+02 -0.95071354131E+03 -0.10953327076E+04  0.14513839388E+04  0.10100000352E+00 0. -1.
       -3    1    3    3    0  502 -0.53901296191E+02  0.95071354131E+03  0.69471528412E+03  0.11787242780E+04  0.10100000352E+00 0.  1.
</event>
<event>
 5   0  0.6161834E-06  0.2610260E+04  0.7818609E-02  0.8364725E-01
        2   -1    0    0  501    0  0.00000000000E+00  0.00000000000E+00  0.10935652459E+04  0.10935652459E+04  0.25500000920E-02 0.  1.
       -2   -1    0    0    0  501  0.00000000000E+00  0.00000000000E+00 -0.15576245293E+04  0.15576245293E+04  0.25500000920E-02 0. -1.
    10030    2    1    2    0    0  0.00000000000E+00  0.00000000000E+00 -0.46405928335E+03  0.26511897752E+04  0.26102597966E+04 0.  0.
        5    1    3    3  502    0 -0.98930821468E+03  0.33238319439E+03  0.56392472219E+03  0.11862725293E+04  0.46999998093E+01 0.  1.
       -5    1    3    3    0  502  0.98930821468E+03 -0.33238319439E+03 -0.10279840055E+04  0.14649172459E+04  0.46999998093E+01 0. -1.
</event>
<event>
 5   0  0.5942229E-06  0.2589414E+04  0.7818609E-02  0.8371806E-01
       -2   -1    0    0    0  501  0.00000000000E+00  0.00000000000E+00  0.90501581328E+03  0.90501581328E+03  0.25500000920E-02 0.  1.
        2   -1    0    0  501    0  0.00000000000E+00  0.00000000000E+00 -0.18521951197E+04  0.18521951197E+04  0.25500000920E-02 0. -1.
    10030    2    1    2    0    0  0.00000000000E+00  0.00000000000E+00 -0.94717930647E+03  0.27572109330E+04  0.25894137349E+04 0.  0.
        4    1    3    3  502    0 -0.80065000099E+03 -0.65384200537E+03  0.35648725492E+03  0.10934507615E+04  0.12699999809E+01 0.  1.
       -4    1    3    3    0  502  0.80065000099E+03  0.65384200537E+03 -0.13036665614E+04  0.16637601715E+04  0.12699999809E+01 0. -1.
</event>
<event>
 5   0  0.2471488E-06  0.2582750E+04  0.7818609E-02  0.8374084E-01
        1   -1    0    0  501    0  0.00000000000E+00  0.00000000000E+00  0.26475499190E+04  0.26475499190E+04  0.50400001928E-02 0.  1.
       -1   -1    0    0    0  501  0.00000000000E+00  0.00000000000E+00 -0.62988387768E+03  0.62988387770E+03  0.50400001928E-02 0. -1.
    10030    2    1    2    0    0  0.00000000000E+00  0.00000000000E+00  0.20176660413E+04  0.32774337967E+04  0.25827497048E+04 0.  0.
        4    1    3    3  502    0 -0.98677176590E+03 -0.62898544263E+03  0.31575401935E+03  0.12120410136E+04  0.12699999809E+01 0. -1.
       -4    1    3    3    0  502  0.98677176590E+03  0.62898544263E+03  0.17019120219E+04  0.20653927831E+04  0.12699999809E+01 0.  1.
</event>
<event>
 5   0  0.5940748E-06  0.2594927E+04  0.7818609E-02  0.8369926E-01
        2   -1    0    0  501    0  0.00000000000E+00  0.00000000000E+00  0.20246146271E+04  0.20246146271E+04  0.25500000920E-02 0.  1.
       -2   -1    0    0    0  501  0.00000000000E+00  0.00000000000E+00 -0.83147259989E+03  0.83147259989E+03  0.25500000920E-02 0. -1.
    10030    2    1    2    0    0  0.00000000000E+00  0.00000000000E+00  0.11931420272E+04  0.28560872270E+04  0.25949270416E+04 0.  0.
        1    1    3    3  502    0 -0.94739672042E+03  0.20324793724E+03  0.15462803708E+04  0.18247885507E+04  0.50400001928E-02 0.  1.
       -1    1    3    3    0  502  0.94739672042E+03 -0.20324793724E+03 -0.35313834358E+03  0.10312986762E+04  0.50400001928E-02 0. -1.
</event>
<event>
 5   0  0.2440590E-06  0.2586486E+04  0.7818609E-02  0.8372806E-01
        1   -1    0    0  501    0  0.00000000000E+00  0.00000000000E+00  0.13603217712E+04  0.13603217712E+04  0.50400001928E-02 0. -1.
       -1   -1    0    0    0  501  0.00000000000E+00  0.00000000000E+00 -0.12294719679E+04  0.12294719679E+04  0.50400001928E-02 0.  1.
    10030    2    1    2    0    0  0.00000000000E+00  0.00000000000E+00  0.13084980335E+03  0.25897937391E+04  0.25864860217E+04 0.  0.
        1    1    3    3  502    0  0.12314224078E+04 -0.34477049039E+03  0.25856961233E+03  0.13046555415E+04  0.50400001928E-02 0. -1.
       -1    1    3    3    0  502 -0.12314224078E+04  0.34477049039E+03 -0.12771980898E+03  0.12851381977E+04  0.50400001928E-02 0.  1.
</event>
<event>
 5   0  0.5942229E-06  0.2607983E+04  0.7818609E-02  0.8365495E-01
        2   -1    0    0  501    0  0.00000000000E+00  0.00000000000E+00  0.12201873557E+04  0.12201873557E+04  0.25500000920E-02 0. -1.
       -2   -1    0    0    0  501  0.00000000000E+00  0.00000000000E+00 -0.13935511553E+04  0.13935511553E+04  0.25500000920E-02 0.  1.
    10030    2    1    2    0    0  0.00000000000E+00  0.00000000000E+00 -0.17336379958E+03  0.26137385109E+04  0.26079827447E+04 0.  0.
        4    1    3    3  502    0  0.83688785013E+03 -0.68191935499E+03 -0.81973078320E+03  0.13554908521E+04  0.12699999809E+01 0.  1.
       -4    1    3    3    0  502 -0.83688785013E+03  0.68191935499E+03  0.64636698362E+03  0.12582476588E+04  0.12699999809E+01 0. -1.
</event>
<event>
 5   0  0.2440590E-06  0.2597152E+04  0.7818609E-02  0.8369169E-01
       -1   -1    0    0    0  501  0.00000000000E+00  0.00000000000E+00  0.17381879365E+04  0.17381879365E+04  0.50400001928E-02 0.  1.
        1   -1    0    0  501    0  0.00000000000E+00  0.00000000000E+00 -0.97014822912E+03  0.97014822913E+03  0.50400001928E-02 0. -1.
    10030    2    1    2    0    0  0.00000000000E+00  0.00000000000E+00  0.76803970736E+03  0.27083361656E+04  0.25971522470E+04 0.  0.
        1    1    3    3  502    0  0.81466942979E+03  0.66032066088E+03 -0.41465975446E+03  0.11276756480E+04  0.50400001928E-02 0. -1.
       -1    1    3    3    0  502 -0.81466942979E+03 -0.66032066088E+03  0.11826994618E+04  0.15806605176E+04  0.50400001928E-02 0.  1.
</event>
<event>
 5   0  0.6161834E-06  0.2614424E+04  0.7818609E-02  0.8363318E-01
        2   -1    0    0  501    0  0.00000000000E+00  0.00000000000E+00  0.13156861875E+04  0.13156861875E+04  0.25500000920E-02 0. -1.
       -2   -1    0    0    0  501  0.00000000000E+00  0.00000000000E+00 -0.12987927693E+04  0.12987927693E+04  0.25500000920E-02 0.  1.
    10030    2    1    2    0    0  0.00000000000E+00  0.00000000000E+00  0.16893418201E+02  0.26144789568E+04  0.26144243780E+04 0.  0.
        5    1    3    3  502    0 -0.30075862280E+03 -0.90169494987E+03 -0.88894156104E+03  0.13014410170E+04  0.46999998093E+01 0.  1.
       -5    1    3    3    0  502  0.30075862280E+03  0.90169494987E+03  0.90583497924E+03  0.13130379398E+04  0.46999998093E+01 0. -1.
</event>
<event>
 5   0  0.6161834E-06  0.2605122E+04  0.7818609E-02  0.8366463E-01
       -2   -1    0    0    0  501  0.00000000000E+00  0.00000000000E+00  0.95148213283E+03  0.95148213284E+03  0.25500000920E-02 0. -1.
        2   -1    0    0  501    0  0.00000000000E+00  0.00000000000E+00 -0.17831814152E+04  0.17831814152E+04  0.25500000920E-02 0.  1.
    10030    2    1    2    0    0  0.00000000000E+00  0.00000000000E+00 -0.83169928237E+03  0.27346635480E+04  0.26051220748E+04 0.  0.
        5    1    3    3  502    0  0.32939963132E+03 -0.50715051731E+03  0.79517962228E+03  0.99901876159E+03  0.46999998093E+01 0. -1.
       -5    1    3    3    0  502 -0.32939963132E+03  0.50715051731E+03 -0.16268789047E+04  0.17356447864E+04  0.46999998093E+01 0.  1.
</event>
<event>
 5   0  0.6158063E-06  0.2602482E+04  0.7818609E-02  0.8367359E-01
       -2   -1    0    0    0  501  0.00000000000E+00  0.00000000000E+00  0.99831989948E+03  0.99831989948E+03  0.25500000920E-02 0.  1.
        2   -1    0    0  501    0  0.00000000000E+00  0.00000000000E+00 -0.16960778467E+04  0.16960778467E+04  0.25500000920E-02 0. -1.
    10030    2    1    2    0    0  0.00000000000E+00  0.00000000000E+00 -0.69775794717E+03  0.26943977461E+04  0.26024820963E+04 0.  0.
        2    1    3    3  502    0  0.30748417802E+03  0.27908760893E+03  0.92787978145E+03  0.10165615092E+04  0.25500000920E-02 0.  1.
       -2    1    3    3    0  502 -0.30748417802E+03 -0.27908760893E+03 -0.16256377286E+04  0.16778362369E+04  0.25500000920E-02 0. -1.
</event>
<event>
 5   0  0.6158063E-06  0.2422251E+04  0.7818609E-02  0.8431220E-01
       -2   -1    0    0    0  501  0.00000000000E+00  0.00000000000E+00  0.10467928722E+04  0.10467928722E+04  0.25500000920E-02 0.  1.
        2   -1    0    0  501    0  0.00000000000E+00  0.00000000000E+00 -0.14012564175E+04  0.14012564175E+04  0.25500000920E-02 0. -1.
    10030    2    1    2    0    0  0.00000000000E+00  0.00000000000E+00 -0.35446354526E+03  0.24480492897E+04  0.24222512091E+04 0.  0.
        2    1    3    3  502    0  0.61639933690E+03  0.10423899030E+04 -0.15971578396E+03  0.12214884298E+04  0.25500000920E-02 0.  1.
       -2    1    3    3    0  502 -0.61639933690E+03 -0.10423899030E+04 -0.19474776130E+03  0.12265608599E+04  0.25500000920E-02 0. -1.
</event>
<event>
 5   0  0.5940748E-06  0.2508123E+04  0.7818609E-02  0.8400098E-01
       -2   -1    0    0    0  501  0.00000000000E+00  0.00000000000E+00  0.11344210324E+04  0.11344210324E+04  0.25500000920E-02 0. -1.
        2   -1    0    0  501    0  0.00000000000E+00  0.00000000000E+00 -0.13863192543E+04  0.13863192543E+04  0.25500000920E-02 0.  1.
    10030    2    1    2    0    0  0.00000000000E+00  0.00000000000E+00 -0.25189822198E+03  0.25207402867E+04  0.25081225805E+04 0.  0.
        1    1    3    3  502    0 -0.19662055598E+03 -0.24237370677E+03 -0.13466643693E+04  0.13823565315E+04  0.50400001928E-02 0.  1.
       -1    1    3    3    0  502  0.19662055598E+03  0.24237370677E+03  0.10947661473E+04  0.11383837552E+04  0.50400001928E-02 0. -1.
</event>
<event>
 5   0  0.2333979E-06  0.2602783E+04  0.7818609E-02  0.8367257E-01
        1   -1    0    0  501    0  0.00000000000E+00  0.00000000000E+00  0.17928342320E+04  0.17928342320E+04  0.50400001928E-02 0. -1.
       -1   -1    0    0    0  501  0.00000000000E+00  0.00000000000E+00 -0.94466031490E+03  0.94466031491E+03  0.50400001928E-02 0.  1.
    10030    2    1    2    0    0  0.00000000000E+00  0.00000000000E+00  0.84817391713E+03  0.27374945469E+04  0.26027826265E+04 0.  0.
        3    1    3    3  502    0 -0.10022864577E+04 -0.68812276146E+03 -0.64191400961E+02  0.12174611387E+04  0.10100000352E+00 0.  1.
       -3    1    3    3    0  502  0.10022864577E+04  0.68812276146E+03  0.91236531809E+03  0.15200334082E+04  0.10100000352E+00 0. -1.
</event>
<event>
 5   0  0.2333979E-06  0.2601633E+04  0.7818609E-02  0.8367647E-01
        1   -1    0    0  501    0  0.00000000000E+00  0.00000000000E+00  0.16639925378E+04  0.16639925378E+04  0.50400001928E-02 0.  1.
       -1   -1    0    0    0  501  0.00000000000E+00  0.00000000000E+00 -0.10169057797E+04  0.10169057797E+04  0.50400001928E-02 0. -1.
    10030    2    1    2    0    0  0.00000000000E+00  0.00000000000E+00  0.64708675806E+03  0.26808983175E+04  0.26016330480E+04 0.  0.
        3    1    3    3  502    0 -0.27558805141E+03  0.80633811769E+03 -0.68925137942E+03  0.10959915184E+04  0.10100000352E+00 0. -1.
       -3    1    3    3    0  502  0.27558805141E+03 -0.80633811769E+03  0.13363381375E+04  0.15849067992E+04  0.10100000352E+00 0.  1.
</event>
<event>
 5   0  0.2072125E-06  0.2601014E+04  0.7818609E-02  0.8367857E-01
       -3   -1    0    0    0  501  0.00000000000E+00  0.00000000000E+00  0.13300833627E+04  0.13300833666E+04  0.10100000352E+00 0. -1.
        3   -1    0    0  501    0  0.00000000000E+00  0.00000000000E+00 -0.12715883835E+04  0.12715883875E+04  0.10100000352E+00 0.  1.
    10030    2    1    2    0    0  0.00000000000E+00  0.00000000000E+00  0.58494979245E+02  0.26016717540E+04  0.26010140817E+04 0.  0.
        5    1    3    3  502    0 -0.11151543765E+04 -0.22144957836E+03 -0.60232904372E+03  0.12866357551E+04  0.46999998093E+01 0. -1.
       -5    1    3    3    0  502  0.11151543765E+04  0.22144957836E+03  0.66082402297E+03  0.13150359990E+04  0.46999998093E+01 0.  1.
</event>
<event>
 5   0  0.6173140E-06  0.2601800E+04  0.7818609E-02  0.8367590E-01
       -2   -1    0    0    0  501  0.00000000000E+00  0.00000000000E+00  0.93522453033E+03  0.93522453034E+03  0.25500000920E-02 0. -1.
        2   -1    0    0  501    0  0.00000000000E+00  0.00000000000E+00 -0.18095551187E+04  0.18095551187E+04  0.25500000920E-02 0.  1.
    10030    2    1    2    0    0  0.00000000000E+00  0.00000000000E+00 -0.87433058835E+03  0.27447796490E+04  0.26017996356E+04 0.  0.
        3    1    3    3  502    0 -0.34346183602E+03 -0.71454821912E+03 -0.15252498262E+04  0.17189916326E+04  0.10100000352E+00 0.  1.
       -3    1    3    3    0  502  0.34346183602E+03  0.71454821912E+03  0.65091923788E+03  0.10257880164E+04  0.10100000352E+00 0. -1.
</event>
<event>
 5   0  0.2440590E-06  0.2606643E+04  0.7818609E-02  0.8365948E-01
       -1   -1    0    0    0  501  0.00000000000E+00  0.00000000000E+00  0.10107957050E+04  0.10107957050E+04  0.50400001928E-02 0. -1.
        1   -1    0    0  501    0  0.00000000000E+00  0.00000000000E+00 -0.16805041668E+04  0.16805041668E+04  0.50400001928E-02 0.  1.
    10030    2    1    2    0    0  0.00000000000E+00  0.00000000000E+00 -0.66970846179E+03  0.26912998718E+04  0.26066425870E+04 0.  0.
        1    1    3    3  502    0 -0.37022417423E+03 -0.11183030625E+03  0.95018606976E+03  0.10258779283E+04  0.50400001928E-02 0. -1.
       -1    1    3    3    0  502  0.37022417423E+03  0.11183030625E+03 -0.16198945315E+04  0.16654219435E+04  0.50400001928E-02 0.  1.
</event>
<event>
 5   0  0.6158063E-06  0.2604423E+04  0.7818609E-02  0.8366700E-01
       -2   -1    0    0    0  501  0.00000000000E+00  0.00000000000E+00  0.59860000444E+03  0.59860000445E+03  0.25500000920E-02 0.  1.
        2   -1    0    0  501    0  0.00000000000E+00  0.00000000000E+00 -0.28328688613E+04  0.28328688613E+04  0.25500000920E-02 0. -1.
    10030    2    1    2    0    0  0.00000000000E+00  0.00000000000E+00 -0.22342688569E+04  0.34314688658E+04  0.26044234010E+04 0.  0.
        2    1    3    3  502    0  0.10908377740E+04  0.18376972521E+03 -0.21189039128E+03  0.11263196256E+04  0.25500000920E-02 0.  1.
       -2    1    3    3    0  502 -0.10908377740E+04 -0.18376972521E+03 -0.20223784656E+04  0.23051492401E+04  0.25500000920E-02 0. -1.
</event>
<event>
 5   0  0.2471488E-06  0.2653339E+04  0.7818609E-02  0.8350305E-01
       -1   -1    0    0    0  501  0.00000000000E+00  0.00000000000E+00  0.26113180308E+04  0.26113180308E+04  0.50400001928E-02 0. -1.
        1   -1    0    0  501    0  0.00000000000E+00  0.00000000000E+00 -0.67400920944E+03  0.67400920946E+03  0.50400001928E-02 0.  1.
    10030    2    1    2    0    0  0.00000000000E+00  0.00000000000E+00  0.19373088213E+04  0.32853272402E+04  0.26533393312E+04 0.  0.
        4    1    3    3  502    0  0.41924332082E+03  0.42768522637E+03 -0.49710411785E+03  0.77832752219E+03  0.12699999809E+01 0.  1.
       -4    1    3    3    0  502 -0.41924332082E+03 -0.42768522637E+03  0.24344129392E+04  0.25069997181E+04  0.12699999809E+01 0. -1.
</event>
<event>
 5   0  0.2440590E-06  0.2658667E+04  0.7818609E-02  0.8348542E-01
        1   -1    0    0  501    0  0.00000000000E+00  0.00000000000E+00  0.17133088219E+04  0.17133088219E+04  0.50400001928E-02 0.  1.
       -1   -1    0    0    0  501  0.00000000000E+00  0.00000000000E+00 -0.10314122410E+04  0.10314122410E+04  0.50400001928E-02 0. -1.
    10030    2    1    2    0    0  0.00000000000E+00  0.00000000000E+00  0.68189658093E+03  0.27447210629E+04  0.26586671033E+04 0.  0.
        1    1    3    3  502    0 -0.31799887154E+03 -0.15500704585E+03  0.16638202704E+04  0.17010139208E+04  0.50400001928E-02 0.  1.
       -1    1    3    3    0  502  0.31799887154E+03  0.15500704585E+03 -0.98192368944E+03  0.10437071421E+04  0.50400001928E-02 0. -1.
</event>
<event>
 5   0  0.2503292E-06  0.2615461E+04  0.7818609E-02  0.8362968E-01
       -1   -1    0    0    0  501  0.00000000000E+00  0.00000000000E+00  0.18345022375E+04  0.18345022375E+04  0.50400001928E-02 0. -1.
        1   -1    0    0  501    0  0.00000000000E+00  0.00000000000E+00 -0.93221991930E+03  0.93221991931E+03  0.50400001928E-02 0.  1.
    10030    2    1    2    0    0  0.00000000000E+00  0.00000000000E+00  0.90228231822E+03  0.27667221568E+04  0.26154613573E+04 0.  0.
        2    1    3    3  502    0 -0.53099741951E+03 -0.11829330568E+04  0.63088148804E+03  0.14419779223E+04  0.25500000920E-02 0.  1.
       -2    1    3    3    0  502  0.53099741951E+03  0.11829330568E+04  0.27140083018E+03  0.13247442346E+04  0.25500000920E-02 0. -1.
</event>
<event>
 5   0  0.2333979E-06  0.2634612E+04  0.7818609E-02  0.8356538E-01
       -1   -1    0    0    0  501  0.00000000000E+00  0.00000000000E+00  0.11464637163E+04  0.11464637163E+04  0.50400001928E-02 0.  1.
        1   -1    0    0  501    0  0.00000000000E+00  0.00000000000E+00 -0.15136069029E+04  0.15136069030E+04  0.50400001928E-02 0. -1.
    10030    2    1    2    0    0  0.00000000000E+00  0.00000000000E+00 -0.36714318661E+03  0.26600706193E+04  0.26346122258E+04 0.  0.
        3    1    3    3  502    0 -0.26236542841E+03  0.12371975896E+04  0.18850244897E+03  0.12786816168E+04  0.10100000352E+00 0.  1.
       -3    1    3    3    0  502  0.26236542841E+03 -0.12371975896E+04 -0.55564563558E+03  0.13813890025E+04  0.10100000352E+00 0. -1.
</event>
<event>
 5   0  0.5942229E-06  0.2595355E+04  0.7818609E-02  0.8369781E-01
       -2   -1    0    0    0  501  0.00000000000E+00  0.00000000000E+00  0.65297507848E+03  0.65297507849E+03  0.25500000920E-02 0. -1.
        2   -1    0    0  501    0  0.00000000000E+00  0.00000000000E+00 -0.25789145500E+04  0.25789145500E+04  0.25500000920E-02 0.  1.
    10030    2    1    2    0    0  0.00000000000E+00  0.00000000000E+00 -0.19259394715E+04  0.32318896285E+04  0.25953550283E+04 0.  0.
        4    1    3    3  502    0  0.66784732126E+03  0.67077329198E+03  0.14244484053E+03  0.95720896321E+03  0.12699999809E+01 0. -1.
       -4    1    3    3    0  502 -0.66784732126E+03 -0.67077329198E+03 -0.20683843120E+04  0.22746806653E+04  0.12699999809E+01 0.  1.
</event>
<event>
 5   0  0.5942229E-06  0.2596966E+04  0.7818609E-02  0.8369233E-01
        2   -1    0    0  501    0  0.00000000000E+00  0.00000000000E+00  0.16706589192E+04  0.16706589192E+04  0.25500000920E-02 0.  1.
       -2   -1    0    0    0  501  0.00000000000E+00  0.00000000000E+00 -0.10092170733E+04  0.10092170733E+04  0.25500000920E-02 0. -1.
    10030    2    1    2    0    0  0.00000000000E+00  0.00000000000E+00  0.66144184598E+03  0.26798759925E+04  0.25969655407E+04 0.  0.
        4    1    3    3  502    0 -0.35284751485E+03  0.93158270782E+03  0.11902031876E+04  0.15520737582E+04  0.12699999809E+01 0.  1.
       -4    1    3    3    0  502  0.35284751485E+03 -0.93158270782E+03 -0.52876134166E+03  0.11278022343E+04  0.12699999809E+01 0. -1.
</event>
<event>
 5   0  0.2503292E-06  0.2599662E+04  0.7818609E-02  0.8368316E-01
       -1   -1    0    0    0  501  0.00000000000E+00  0.00000000000E+00  0.78713513166E+03  0.78713513168E+03  0.50400001928E-02 0.  1.
        1   -1    0    0  501    0  0.00000000000E+00  0.00000000000E+00 -0.21464679933E+04  0.21464679933E+04  0.50400001928E-02 0. -1.
    10030    2    1    2    0    0  0.00000000000E+00  0.00000000000E+00 -0.13593328616E+04  0.29336031250E+04  0.25996617984E+04 0.  0.
        2    1    3    3  502    0  0.11944846427E+03 -0.12431925144E+04 -0.10861686897E+04  0.16551610151E+04  0.25500000920E-02 0.  1.
       -2    1    3    3    0  502 -0.11944846427E+03  0.12431925144E+04 -0.27316417192E+03  0.12784421099E+04  0.25500000920E-02 0. -1.
</event>
<event>
 5   0  0.5942229E-06  0.2593140E+04  0.7818609E-02  0.8370535E-01
       -2   -1    0    0    0  501  0.00000000000E+00  0.00000000000E+00  0.14815729615E+04  0.14815729615E+04  0.25500000920E-02 0.  1.
        2   -1    0    0  501    0  0.00000000000E+00  0.00000000000E+00 -0.11346681216E+04  0.11346681216E+04  0.25500000920E-02 0. -1.
    10030    2    1    2    0    0  0.00000000000E+00  0.00000000000E+00  0.34690483988E+03  0.26162410831E+04  0.25931398799E+04 0.  0.
        4    1    3    3  502    0  0.10764800440E+04  0.57110604034E+03 -0.27334784874E+03  0.12488763164E+04  0.12699999809E+01 0.  1.
       -4    1    3    3    0  502 -0.10764800440E+04 -0.57110604034E+03  0.62025268862E+03  0.13673647666E+04  0.12699999809E+01 0. -1.
</event>
<event>
 5   0  0.5940748E-06  0.2607659E+04  0.7818609E-02  0.8365604E-01
       -2   -1    0    0    0  501  0.00000000000E+00  0.00000000000E+00  0.76436961277E+03  0.76436961278E+03  0.25500000920E-02 0.  1.
        2   -1    0    0  501    0  0.00000000000E+00  0.00000000000E+00 -0.22240177663E+04  0.22240177663E+04  0.25500000920E-02 0. -1.
    10030    2    1    2    0    0  0.00000000000E+00  0.00000000000E+00 -0.14596481535E+04  0.29883873791E+04  0.26076591793E+04 0.  0.
        1    1    3    3  502    0  0.35360119054E+03 -0.10296949131E+04 -0.15519699506E+04  0.18957626813E+04  0.50400001928E-02 0. -1.
       -1    1    3    3    0  502 -0.35360119054E+03  0.10296949131E+04  0.92321797067E+02  0.10926246978E+04  0.50400001928E-02 0.  1.
</event>
<event>
 5   0  0.5942229E-06  0.2603116E+04  0.7818609E-02  0.8367144E-01
       -2   -1    0    0    0  501  0.00000000000E+00  0.00000000000E+00  0.87370899371E+03  0.87370899371E+03  0.25500000920E-02 0. -1.
        2   -1    0    0  501    0  0.00000000000E+00  0.00000000000E+00 -0.19389211899E+04  0.19389211899E+04  0.25500000920E-02 0.  1.
    10030    2    1    2    0    0  0.00000000000E+00  0.00000000000E+00 -0.10652121962E+04  0.28126301836E+04  0.26031157345E+04 0.  0.
        4    1    3    3  502    0 -0.11679244069E+04 -0.32152431412E+03 -0.18238043916E+02  0.12115112645E+04  0.12699999809E+01 0. -1.
       -4    1    3    3    0  502  0.11679244069E+04  0.32152431412E+03 -0.10469741523E+04  0.16011189192E+04  0.12699999809E+01 0.  1.
</event>
<event>
 5   0  0.2333979E-06  0.2599887E+04  0.7818609E-02  0.8368240E-01
        1   -1    0    0  501    0  0.00000000000E+00  0.00000000000E+00  0.18605495610E+04  0.18605495610E+04  0.50400001928E-02 0. -1.
       -1   -1    0    0    0  501  0.00000000000E+00  0.00000000000E+00 -0.90825490287E+03  0.90825490289E+03  0.50400001928E-02 0.  1.
    10030    2    1    2    0    0  0.00000000000E+00  0.00000000000E+00  0.95229465808E+03  0.27688044638E+04  0.25998871212E+04 0.  0.
        3    1    3    3  502    0 -0.50697473340E+03 -0.10518865855E+04 -0.13225271639E+03  0.11751508670E+04  0.10100000352E+00 0.  1.
       -3    1    3    3    0  502  0.50697473340E+03  0.10518865855E+04  0.10845473745E+04  0.15936535968E+04  0.10100000352E+00 0. -1.
</event>
<event>
 5   0  0.6161834E-06  0.2613510E+04  0.7818609E-02  0.8363626E-01
       -2   -1    0    0    0  501  0.00000000000E+00  0.00000000000E+00  0.13934041242E+04  0.13934041242E+04  0.25500000920E-02 0.  1.
        2   -1    0    0  501    0  0.00000000000E+00  0.00000000000E+00 -0.12254946299E+04  0.12254946299E+04  0.25500000920E-02 0. -1.
    10030    2    1    2    0    0  0.00000000000E+00  0.00000000000E+00  0.16790949426E+03  0.26188987541E+04  0.26135104908E+04 0.  0.
        5    1    3    3  502    0 -0.33293132564E+03  0.12081550107E+04 -0.28708609411E+03  0.12856602634E+04  0.46999998093E+01 0.  1.
       -5    1    3    3    0  502  0.33293132564E+03 -0.12081550107E+04  0.45499558837E+03  0.13332384906E+04  0.46999998093E+01 0. -1.
</event>
<event>
 5   0  0.2333979E-06  0.2473003E+04  0.7818609E-02  0.8412667E-01
       -1   -1    0    0    0  501  0.00000000000E+00  0.00000000000E+00  0.17031416689E+04  0.17031416689E+04  0.50400001928E-02 0.  1.
        1   -1    0    0  501    0  0.00000000000E+00  0.00000000000E+00 -0.89771517731E+03  0.89771517732E+03  0.50400001928E-02 0. -1.
    10030    2    1    2    0    0  0.00000000000E+00  0.00000000000E+00  0.80542649161E+03  0.26008568462E+04  0.24730031341E+04 0.  0.
        3    1    3    3  502    0  0.90135961222E+03  0.25005133813E+03 -0.44777399766E+03  0.10370517757E+04  0.10100000352E+00 0. -1.
       -3    1    3    3    0  502 -0.90135961222E+03 -0.25005133813E+03  0.12532004893E+04  0.15638050706E+04  0.10100000352E+00 0.  1.
</event>
<event>
 5   0  0.2333979E-06  0.2608228E+04  0.7818609E-02  0.8365412E-01
        1   -1    0    0  501    0  0.00000000000E+00  0.00000000000E+00  0.19876426103E+04  0.19876426103E+04  0.50400001928E-02 0.  1.
       -1   -1    0    0    0  501  0.00000000000E+00  0.00000000000E+00 -0.85564364104E+03  0.85564364105E+03  0.50400001928E-02 0. -1.
    10030    2    1    2    0    0  0.00000000000E+00  0.00000000000E+00  0.11319989692E+04  0.28432862513E+04  0.26082283337E+04 0.  0.
        3    1    3    3  502    0  0.70144861762E+03  0.10790596429E+04  0.79547948125E+03  0.15130061108E+04  0.10100000352E+00 0.  1.
       -3    1    3    3    0  502 -0.70144861762E+03 -0.10790596429E+04  0.33651948798E+03  0.13302801405E+04  0.10100000352E+00 0. -1.
</event>
<event>
 5   0  0.6173140E-06  0.2598340E+04  0.7818609E-02  0.8368765E-01
        2   -1    0    0  501    0  0.00000000000E+00  0.00000000000E+00  0.18778322877E+04  0.18778322877E+04  0.25500000920E-02 0.  1.
       -2   -1    0    0    0  501  0.00000000000E+00  0.00000000000E+00 -0.89882473669E+03  0.89882473669E+03  0.25500000920E-02 0. -1.
    10030    2    1    2    0    0  0.00000000000E+00  0.00000000000E+00  0.97900755104E+03  0.27766570244E+04  0.25983395556E+04 0.  0.
        3    1    3    3  502    0  0.80662150875E+03  0.68025878498E+03  0.12994443239E+04  0.16739013812E+04  0.10100000352E+00 0.  1.
       -3    1    3    3    0  502 -0.80662150875E+03 -0.68025878498E+03 -0.32043677290E+03  0.11027556432E+04  0.10100000352E+00 0. -1.
</event>
<event>
 5   0  0.2440590E-06  0.2601566E+04  0.7818609E-02  0.8367669E-01
       -1   -1    0    0    0  501  0.00000000000E+00  0.00000000000E+00  0.97774014583E+03  0.97774014584E+03  0.50400001928E-02 0. -1.
        1   -1    0    0  501    0  0.00000000000E+00  0.00000000000E+00 -0.17305590487E+04  0.17305590487E+04  0.50400001928E-02 0.  1.
    10030    2    1    2    0    0  0.00000000000E+00  0.00000000000E+00 -0.75281890288E+03  0.27082991946E+04  0.26015664948E+04 0.  0.
        1    1    3    3  502    0  0.71091356765E+03 -0.25608081929E+03  0.72583124660E+03  0.10477626092E+04  0.50400001928E-02 0. -1.
       -1    1    3    3    0  502 -0.71091356765E+03  0.25608081929E+03 -0.14786501495E+04  0.16605365853E+04  0.50400001928E-02 0.  1.
</event>
<event>
 5   0  0.2471488E-06  0.2606010E+04  0.7818609E-02  0.8366163E-01
        1   -1    0    0  501    0  0.00000000000E+00  0.00000000000E+00  0.10122980423E+04  0.10122980423E+04  0.50400001928E-02 0. -1.
       -1   -1    0    0    0  501  0.00000000000E+00  0.00000000000E+00 -0.16771956530E+04  0.16771956530E+04  0.50400001928E-02 0.  1.
    10030    2    1    2    0    0  0.00000000000E+00  0.00000000000E+00 -0.66489761068E+03  0.26894936952E+04  0.26060098818E+04 0.  0.
        4    1    3    3  502    0 -0.88661816572E+03 -0.52565492595E+03 -0.11551144045E+04  0.15481265366E+04  0.12699999809E+01 0.  1.
       -4    1    3    3    0  502  0.88661816572E+03  0.52565492595E+03  0.49021679383E+03  0.11413671586E+04  0.12699999809E+01 0. -1.
</event>
<event>
 5   0  0.2456600E-06  0.2658062E+04  0.7818609E-02  0.8348742E-01
       -1   -1    0    0    0  501  0.00000000000E+00  0.00000000000E+00  0.20118662639E+04  0.20118662639E+04  0.50400001928E-02 0. -1.
        1   -1    0    0  501    0  0.00000000000E+00  0.00000000000E+00 -0.87795276763E+03  0.87795276765E+03  0.50400001928E-02 0.  1.
    10030    2    1    2    0    0  0.00000000000E+00  0.00000000000E+00  0.11339134962E+04  0.28898190315E+04  0.26580621170E+04 0.  0.
        5    1    3    3  502    0  0.11664875515E+04  0.42832967647E+03  0.10793705347E+04  0.16459715553E+04  0.46999998093E+01 0. -1.
       -5    1    3    3    0  502 -0.11664875515E+04 -0.42832967647E+03  0.54542961516E+02  0.12438474763E+04  0.46999998093E+01 0.  1.
</event>
<event>
 5   0  0.2471488E-06  0.2590642E+04  0.7818609E-02  0.8371387E-01
        1   -1    0    0  501    0  0.00000000000E+00  0.00000000000E+00  0.11604150186E+04  0.11604150186E+04  0.50400001928E-02 0. -1.
       -1   -1    0    0    0  501  0.00000000000E+00  0.00000000000E+00 -0.14459111941E+04  0.14459111942E+04  0.50400001928E-02 0.  1.
    10030    2    1    2    0    0  0.00000000000E+00  0.00000000000E+00 -0.28549617559E+03  0.26063262127E+04  0.25906424417E+04 0.  0.
        4    1    3    3  502    0 -0.38867998136E+03  0.31804471960E+03  0.10584782415E+04  0.11715811419E+04  0.12699999809E+01 0. -1.
       -4    1    3    3    0  502  0.38867998136E+03 -0.31804471960E+03 -0.13439744171E+04  0.14347450708E+04  0.12699999809E+01 0.  1.
</event>
<event>
 5   0  0.2440590E-06  0.2591787E+04  0.7818609E-02  0.8370996E-01
        1   -1    0    0  501    0  0.00000000000E+00  0.00000000000E+00  0.21323333200E+04  0.21323333200E+04  0.50400001928E-02 0.  1.
       -1   -1    0    0    0  501  0.00000000000E+00  0.00000000000E+00 -0.78755997953E+03  0.78755997954E+03  0.50400001928E-02 0. -1.
    10030    2    1    2    0    0  0.00000000000E+00  0.00000000000E+00  0.13447733405E+04  0.29198932996E+04  0.25917873261E+04 0.  0.
        1    1    3    3  502    0  0.95313629323E+03 -0.65935363976E+03  0.13255437225E+04  0.17607618170E+04  0.50400001928E-02 0.  1.
       -1    1    3    3    0  502 -0.95313629323E+03  0.65935363976E+03  0.19229617963E+02  0.11591314826E+04  0.50400001928E-02 0. -1.
</event>
<event>
 5   0  0.5942229E-06  0.2598634E+04  0.7818609E-02  0.8368665E-01
        2   -1    0    0  501    0  0.00000000000E+00  0.00000000000E+00  0.18671694135E+04  0.18671694135E+04  0.25500000920E-02 0. -1.
       -2   -1    0    0    0  501  0.00000000000E+00  0.00000000000E+00 -0.90416264383E+03  0.90416264383E+03  0.25500000920E-02 0.  1.
    10030    2    1    2    0    0  0.00000000000E+00  0.00000000000E+00  0.96300676967E+03  0.27713320573E+04  0.25986341285E+04 0.  0.
        4    1    3    3  502    0 -0.65939752655E+03  0.65153886285E+03 -0.48945024117E+03  0.10482705468E+04  0.12699999809E+01 0.  1.
       -4    1    3    3    0  502  0.65939752655E+03 -0.65153886285E+03  0.14524570108E+04  0.17230615105E+04  0.12699999809E+01 0. -1.
</event>
<event>
 5   0  0.2471488E-06  0.2600415E+04  0.7818609E-02  0.8368060E-01
        1   -1    0    0  501    0  0.00000000000E+00  0.00000000000E+00  0.66512775048E+03  0.66512775050E+03  0.50400001928E-02 0. -1.
       -1   -1    0    0    0  501  0.00000000000E+00  0.00000000000E+00 -0.25416772953E+04  0.25416772953E+04  0.50400001928E-02 0.  1.
    10030    2    1    2    0    0  0.00000000000E+00  0.00000000000E+00 -0.18765495448E+04  0.32068050458E+04  0.26004154298E+04 0.  0.
        4    1    3    3  502    0 -0.35946994610E+03 -0.68981893760E+03 -0.22230840752E+04  0.23552437723E+04  0.12699999809E+01 0.  1.
       -4    1    3    3    0  502  0.35946994610E+03  0.68981893760E+03  0.34653453038E+03  0.85156127347E+03  0.12699999809E+01 0. -1.
</event>
<event>
 5   0  0.2440590E-06  0.2594351E+04  0.7818609E-02  0.8370123E-01
        1   -1    0    0  501    0  0.00000000000E+00  0.00000000000E+00  0.13720798491E+04  0.13720798491E+04  0.50400001928E-02 0. -1.
       -1   -1    0    0    0  501  0.00000000000E+00  0.00000000000E+00 -0.12263599582E+04  0.12263599582E+04  0.50400001928E-02 0.  1.
    10030    2    1    2    0    0  0.00000000000E+00  0.00000000000E+00  0.14571989090E+03  0.25984398073E+04  0.25943506211E+04 0.  0.
        1    1    3    3  502    0 -0.44102068941E+03 -0.25561503564E+03  0.12675625483E+04  0.13662185435E+04  0.50400001928E-02 0. -1.
       -1    1    3    3    0  502  0.44102068941E+03  0.25561503564E+03 -0.11218426574E+04  0.12322212637E+04  0.50400001928E-02 0.  1.
</event>
<event>
 5   0  0.2333979E-06  0.2591412E+04  0.7818609E-02  0.8371124E-01
        1   -1    0    0  501    0  0.00000000000E+00  0.00000000000E+00  0.24654711315E+04  0.24654711315E+04  0.50400001928E-02 0. -1.
       -1   -1    0    0    0  501  0.00000000000E+00  0.00000000000E+00 -0.68094671375E+03  0.68094671376E+03  0.50400001928E-02 0.  1.
    10030    2    1    2    0    0  0.00000000000E+00  0.00000000000E+00  0.17845244178E+04  0.31464178453E+04  0.25914123291E+04 0.  0.
        3    1    3    3  502    0  0.13808713936E+03  0.14195090960E+03 -0.66246300903E+03  0.69142994391E+03  0.10100000352E+00 0.  1.
       -3    1    3    3    0  502 -0.13808713936E+03 -0.14195090960E+03  0.24469874268E+04  0.24549879014E+04  0.10100000352E+00 0. -1.
</event>
<event>
 5   0  0.2333979E-06  0.2439843E+04  0.7818609E-02  0.8424736E-01
       -1   -1    0    0    0  501  0.00000000000E+00  0.00000000000E+00  0.69009646898E+03  0.69009646900E+03  0.50400001928E-02 0. -1.
        1   -1    0    0  501    0  0.00000000000E+00  0.00000000000E+00 -0.21565231568E+04  0.21565231568E+04  0.50400001928E-02 0.  1.
    10030    2    1    2    0    0  0.00000000000E+00  0.00000000000E+00 -0.14664266878E+04  0.28466196258E+04  0.24398434506E+04 0.  0.
        3    1    3    3  502    0  0.50275972677E+03  0.54755282930E+03  0.39533191702E+03  0.84194345330E+03  0.10100000352E+00 0. -1.
       -3    1    3    3    0  502 -0.50275972677E+03 -0.54755282930E+03 -0.18617586048E+04  0.20046761725E+04  0.10100000352E+00 0.  1.
</event>
<event>
 5   0  0.5942229E-06  0.2426125E+04  0.7818609E-02  0.8429787E-01
       -2   -1    0    0    0  501  0.00000000000E+00  0.00000000000E+00  0.85426533658E+03  0.85426533658E+03  0.25500000920E-02 0. -1.
        2   -1    0    0  501    0  0.00000000000E+00  0.00000000000E+00 -0.17225571405E+04  0.17225571406E+04  0.25500000920E-02 0.  1.
    10030    2    1    2    0    0  0.00000000000E+00  0.00000000000E+00 -0.86829180397E+03  0.25768224771E+04  0.24261251868E+04 0.  0.
        4    1    3    3  502    0  0.24627408471E+03 -0.11154536177E+04 -0.86770659683E+03  0.14345048097E+04  0.12699999809E+01 0.  1.
       -4    1    3    3    0  502 -0.24627408471E+03  0.11154536177E+04 -0.58520714642E+00  0.11423176674E+04  0.12699999809E+01 0. -1.
</event>
<event>
 5   0  0.2503292E-06  0.2637261E+04  0.7818609E-02  0.8355654E-01
        1   -1    0    0  501    0  0.00000000000E+00  0.00000000000E+00  0.16716519381E+04  0.16716519381E+04  0.50400001928E-02 0.  1.
       -1   -1    0    0    0  501  0.00000000000E+00  0.00000000000E+00 -0.10401603717E+04  0.10401603717E+04  0.50400001928E-02 0. -1.
    10030    2    1    2    0    0  0.00000000000E+00  0.00000000000E+00  0.63149156637E+03  0.27118123098E+04  0.26372607769E+04 0.  0.
        2    1    3    3  502    0  0.92420212301E+03 -0.59623872432E+03  0.10637261087E+04  0.15300860809E+04  0.25500000920E-02 0.  1.
       -2    1    3    3    0  502 -0.92420212301E+03  0.59623872432E+03 -0.43223454236E+03  0.11817262289E+04  0.25500000920E-02 0. -1.
</event>
<event>
 5   0  0.2471488E-06  0.2590083E+04  0.7818609E-02  0.8371578E-01
        1   -1    0    0  501    0  0.00000000000E+00  0.00000000000E+00  0.13904497956E+04  0.13904497956E+04  0.50400001928E-02 0. -1.
       -1   -1    0    0    0  501  0.00000000000E+00  0.00000000000E+00 -0.12061798305E+04  0.12061798305E+04  0.50400001928E-02 0.  1.
    10030    2    1    2    0    0  0.00000000000E+00  0.00000000000E+00  0.18426996518E+03  0.25966296261E+04  0.25900830093E+04 0.  0.
        4    1    3    3  502    0 -0.99261998533E+03 -0.71144564106E+03 -0.33986198847E+03  0.12676581241E+04  0.12699999809E+01 0.  1.
       -4    1    3    3    0  502  0.99261998533E+03  0.71144564106E+03  0.52413195366E+03  0.13289715020E+04  0.12699999809E+01 0. -1.
</event>
<event>
 5   0  0.5942229E-06  0.2569214E+04  0.7818609E-02  0.8378734E-01
        2   -1    0    0  501    0  0.00000000000E+00  0.00000000000E+00  0.16525405486E+04  0.16525405486E+04  0.25500000920E-02 0. -1.
       -2   -1    0    0    0  501  0.00000000000E+00  0.00000000000E+00 -0.99859265251E+03  0.99859265251E+03  0.25500000920E-02 0.  1.
    10030    2    1    2    0    0  0.00000000000E+00  0.00000000000E+00  0.65394789605E+03  0.26511332011E+04  0.25692137706E+04 0.  0.
        4    1    3    3  502    0  0.63968530713E+03 -0.42798089922E+03  0.13882857718E+04  0.15873575335E+04  0.12699999809E+01 0. -1.
       -4    1    3    3    0  502 -0.63968530713E+03  0.42798089922E+03 -0.73433787571E+03  0.10637756675E+04  0.12699999809E+01 0.  1.
</event>
<event>
 5   0  0.6161834E-06  0.2599239E+04  0.7818609E-02  0.8368460E-01
        2   -1    0    0  501    0  0.00000000000E+00  0.00000000000E+00  0.92344540691E+03  0.92344540691E+03  0.25500000920E-02 0.  1.
       -2   -1    0    0    0  501  0.00000000000E+00  0.00000000000E+00 -0.18290315488E+04  0.18290315488E+04  0.25500000920E-02 0. -1.
    10030    2    1    2    0    0  0.00000000000E+00  0.00000000000E+00 -0.90558614192E+03  0.27524769557E+04  0.25992389524E+04 0.  0.
        5    1    3    3  502    0 -0.30807488305E+03 -0.77734010322E+03  0.60075850200E+03  0.10296118868E+04  0.46999998093E+01 0.  1.
       -5    1    3    3    0  502  0.30807488305E+03  0.77734010322E+03 -0.15063446439E+04  0.17228650690E+04  0.46999998093E+01 0. -1.
</event>
<event>
 5   0  0.2471488E-06  0.2610201E+04  0.7818609E-02  0.8364744E-01
       -1   -1    0    0    0  501  0.00000000000E+00  0.00000000000E+00  0.13485784189E+04  0.13485784189E+04  0.50400001928E-02 0. -1.
        1   -1    0    0  501    0  0.00000000000E+00  0.00000000000E+00 -0.12630243792E+04  0.12630243792E+04  0.50400001928E-02 0.  1.
    10030    2    1    2    0    0  0.00000000000E+00  0.00000000000E+00  0.85554039718E+02  0.26116027981E+04  0.26102010806E+04 0.  0.
        4    1    3    3  502    0 -0.73195932980E+03  0.94640522323E+03  0.56443834828E+03  0.13228906111E+04  0.12699999809E+01 0. -1.
       -4    1    3    3    0  502  0.73195932980E+03 -0.94640522323E+03 -0.47888430856E+03  0.12887121870E+04  0.12699999809E+01 0.  1.
</event>
<event>
 5   0  0.5942229E-06  0.2596403E+04  0.7818609E-02  0.8369424E-01
       -2   -1    0    0    0  501  0.00000000000E+00  0.00000000000E+00  0.79275234020E+03  0.79275234021E+03  0.25500000920E-02 0.  1.
        2   -1    0    0  501    0  0.00000000000E+00  0.00000000000E+00 -0.21259189516E+04  0.21259189516E+04  0.25500000920E-02 0. -1.
    10030    2    1    2    0    0  0.00000000000E+00  0.00000000000E+00 -0.13331666114E+04  0.29186712918E+04  0.25964030688E+04 0.  0.
        4    1    3    3  502    0  0.12651115203E+03 -0.95766466966E+03  0.30836014314E+03  0.10140090147E+04  0.12699999809E+01 0.  1.
       -4    1    3    3    0  502 -0.12651115203E+03  0.95766466966E+03 -0.16415267545E+04  0.19046622771E+04  0.12699999809E+01 0. -1.
</event>
<event>
 5   0  0.6173140E-06  0.2609356E+04  0.7818609E-02  0.8365030E-01
        2   -1    0    0  501    0  0.00000000000E+00  0.00000000000E+00  0.25247011932E+04  0.25247011932E+04  0.25500000920E-02 0. -1.
       -2   -1    0    0    0  501  0.00000000000E+00  0.00000000000E+00 -0.67421218580E+03  0.67421218581E+03  0.25500000920E-02 0.  1.
    10030    2    1    2    0    0  0.00000000000E+00  0.00000000000E+00  0.18504890074E+04  0.31989133790E+04  0.26093557136E+04 0.  0.
        3    1    3    3  502    0 -0.21428451260E+03  0.71651693363E+03 -0.38534774916E+03  0.84131282321E+03  0.10100000352E+00 0.  1.
       -3    1    3    3    0  502  0.21428451260E+03 -0.71651693363E+03  0.22358367566E+04  0.23576005558E+04  0.10100000352E+00 0. -1.
</event>
<event>
 5   0  0.2456600E-06  0.2604917E+04  0.7818609E-02  0.8366533E-01
        1   -1    0    0  501    0  0.00000000000E+00  0.00000000000E+00  0.23162303882E+04  0.23162303882E+04  0.50400001928E-02 0. -1.
       -1   -1    0    0    0  501  0.00000000000E+00  0.00000000000E+00 -0.73239595665E+03  0.73239595666E+03  0.50400001928E-02 0.  1.
    10030    2    1    2    0    0  0.00000000000E+00  0.00000000000E+00  0.15838344315E+04  0.30486263449E+04  0.26049167135E+04 0.  0.
        5    1    3    3  502    0 -0.70840058905E+03 -0.38630497959E+03 -0.40464002647E+03  0.90267301546E+03  0.46999998093E+01 0.  1.
       -5    1    3    3    0  502  0.70840058905E+03  0.38630497959E+03  0.19884744580E+04  0.21459533294E+04  0.46999998093E+01 0. -1.
</event>
<event>
 5   0  0.6158063E-06  0.2600992E+04  0.7818609E-02  0.8367864E-01
        2   -1    0    0  501    0  0.00000000000E+00  0.00000000000E+00  0.18835002883E+04  0.18835002883E+04  0.25500000920E-02 0.  1.
       -2   -1    0    0    0  501  0.00000000000E+00  0.00000000000E+00 -0.89795036212E+03  0.89795036213E+03  0.25500000920E-02 0. -1.
    10030    2    1    2    0    0  0.00000000000E+00  0.00000000000E+00  0.98554992619E+03  0.27814506504E+04  0.26009919384E+04 0.  0.
        2    1    3    3  502    0  0.99652016079E+03  0.83042053649E+03  0.59217024983E+03  0.14259440042E+04  0.25500000920E-02 0. -1.
       -2    1    3    3    0  502 -0.99652016079E+03 -0.83042053649E+03  0.39337967636E+03  0.13555066463E+04  0.25500000920E-02 0.  1.
</event>
<event>
 5   0  0.2456600E-06  0.2603054E+04  0.7818609E-02  0.8367165E-01
       -1   -1    0    0    0  501  0.00000000000E+00  0.00000000000E+00  0.97899122168E+03  0.97899122169E+03  0.50400001928E-02 0. -1.
        1   -1    0    0  501    0  0.00000000000E+00  0.00000000000E+00 -0.17303243070E+04  0.17303243070E+04  0.50400001928E-02 0.  1.
    10030    2    1    2    0    0  0.00000000000E+00  0.00000000000E+00 -0.75133308529E+03  0.27093155287E+04  0.26030538275E+04 0.  0.
        5    1    3    3  502    0  0.16725732375E+03  0.15325105230E+03 -0.17095801859E+04  0.17245716568E+04  0.46999998093E+01 0.  1.
       -5    1    3    3    0  502 -0.16725732375E+03 -0.15325105230E+03  0.95824710061E+03  0.98474387188E+03  0.46999998093E+01 0. -1.
</event>
<event>
 5   0  0.6158063E-06  0.2671434E+04  0.7818609E-02  0.8344334E-01
        2   -1    0    0  501    0  0.00000000000E+00  0.00000000000E+00  0.12021801497E+04  0.12021801497E+04  0.25500000920E-02 0.  1.
       -2   -1    0    0    0  501  0.00000000000E+00  0.00000000000E+00 -0.14840870758E+04  0.14840870758E+04  0.25500000920E-02 0. -1.
    10030    2    1    2    0    0  0.00000000000E+00  0.00000000000E+00 -0.28190692610E+03  0.26862672254E+04  0.26714340889E+04 0.  0.
        2    1    3    3  502    0 -0.20751829117E+03  0.98498659457E+03 -0.10238248871E+04  0.14357854408E+04  0.25500000920E-02 0. -1.
       -2    1    3    3    0  502  0.20751829117E+03 -0.98498659457E+03  0.74191796102E+03  0.12504817846E+04  0.25500000920E-02 0.  1.
</event>
<event>
 5   0  0.2333979E-06  0.2607153E+04  0.7818609E-02  0.8365776E-01
        1   -1    0    0  501    0  0.00000000000E+00  0.00000000000E+00  0.16318262074E+04  0.16318262074E+04  0.50400001928E-02 0.  1.
       -1   -1    0    0    0  501  0.00000000000E+00  0.00000000000E+00 -0.10413554514E+04  0.10413554514E+04  0.50400001928E-02 0. -1.
    10030    2    1    2    0    0  0.00000000000E+00  0.00000000000E+00  0.59047075596E+03  0.26731816588E+04  0.26071525592E+04 0.  0.
        3    1    3    3  502    0  0.96310062635E+03  0.29022320161E+03  0.11454025115E+04  0.15243815949E+04  0.10100000352E+00 0.  1.
       -3    1    3    3    0  502 -0.96310062635E+03 -0.29022320161E+03 -0.55493175557E+03  0.11488000639E+04  0.10100000352E+00 0. -1.
</event>
<event>
 5   0  0.6173140E-06  0.2599267E+04  0.7818609E-02  0.8368450E-01
       -2   -1    0    0    0  501  0.00000000000E+00  0.00000000000E+00  0.11227150652E+04  0.11227150652E+04  0.25500000920E-02 0. -1.
        2   -1    0    0  501    0  0.00000000000E+00  0.00000000000E+00 -0.15044309169E+04  0.15044309169E+04  0.25500000920E-02 0.  1.
    10030    2    1    2    0    0  0.00000000000E+00  0.00000000000E+00 -0.38171585167E+03  0.26271459821E+04  0.25992670159E+04 0.  0.
        3    1    3    3  502    0  0.72395683530E+03  0.76622320448E+03 -0.95916620397E+03  0.14252057099E+04  0.10100000352E+00 0.  1.
       -3    1    3    3    0  502 -0.72395683530E+03 -0.76622320448E+03  0.57745035230E+03  0.12019402722E+04  0.10100000352E+00 0. -1.
</event>
<event>
 5   0  0.2471488E-06  0.2603977E+04  0.7818609E-02  0.8366851E-01
       -1   -1    0    0    0  501  0.00000000000E+00  0.00000000000E+00  0.12273552627E+04  0.12273552627E+04  0.50400001928E-02 0. -1.
        1   -1    0    0  501    0  0.00000000000E+00  0.00000000000E+00 -0.13811603810E+04  0.13811603810E+04  0.50400001928E-02 0.  1.
    10030    2    1    2    0    0  0.00000000000E+00  0.00000000000E+00 -0.15380511831E+03  0.26085156438E+04  0.26039773135E+04 0.  0.
        4    1    3    3  502    0  0.11705757314E+04  0.30676306774E+03 -0.55817898815E+03  0.13326351783E+04  0.12699999809E+01 0.  1.
       -4    1    3    3    0  502 -0.11705757314E+04 -0.30676306774E+03  0.40437386985E+03  0.12758804655E+04  0.12699999809E+01 0. -1.
</event>
<event>
 5   0  0.2440590E-06  0.2602614E+04  0.7818609E-02  0.8367314E-01
        1   -1    0    0  501    0  0.00000000000E+00  0.00000000000E+00  0.14872354813E+04  0.14872354813E+04  0.50400001928E-02 0.  1.
       -1   -1    0    0    0  501  0.00000000000E+00  0.00000000000E+00 -0.11386223293E+04  0.11386223293E+04  0.50400001928E-02 0. -1.
    10030    2    1    2    0    0  0.00000000000E+00  0.00000000000E+00  0.34861315203E+03  0.26258578106E+04  0.26026137077E+04 0.  0.
        1    1    3    3  502    0 -0.89575324050E+03 -0.93470133221E+03  0.30723713773E+03  0.13305769828E+04  0.50400001928E-02 0. -1.
       -1    1    3    3    0  502  0.89575324050E+03  0.93470133221E+03  0.41376014300E+02  0.12952808278E+04  0.50400001928E-02 0.  1.
</event>
<event>
 5   0  0.6158063E-06  0.2576614E+04  0.7818609E-02  0.8376189E-01
       -2   -1    0    0    0  501  0.00000000000E+00  0.00000000000E+00  0.95917756929E+03  0.95917756929E+03  0.25500000920E-02 0. -1.
        2   -1    0    0  501    0  0.00000000000E+00  0.00000000000E+00 -0.17303723038E+04  0.17303723038E+04  0.25500000920E-02 0.  1.
    10030    2    1    2    0    0  0.00000000000E+00  0.00000000000E+00 -0.77119473452E+03  0.26895498731E+04  0.25766135142E+04 0.  0.
        2    1    3    3  502    0  0.35919091038E+03 -0.35936236989E+03  0.85017498278E+03  0.99043269552E+03  0.25500000920E-02 0. -1.
       -2    1    3    3    0  502 -0.35919091038E+03  0.35936236989E+03 -0.16213697173E+04  0.16991171776E+04  0.25500000920E-02 0.  1.
</event>
<event>
 5   0  0.2333979E-06  0.2587476E+04  0.7818609E-02  0.8372468E-01
        1   -1    0    0  501    0  0.00000000000E+00  0.00000000000E+00  0.13462137734E+04  0.13462137734E+04  0.50400001928E-02 0.  1.
       -1   -1    0    0    0  501  0.00000000000E+00  0.00000000000E+00 -0.12433073964E+04  0.12433073964E+04  0.50400001928E-02 0. -1.
    10030    2    1    2    0    0  0.00000000000E+00  0.00000000000E+00  0.10290637701E+03  0.25895211698E+04  0.25874756359E+04 0.  0.
        3    1    3    3  502    0  0.96694686327E+02 -0.86562393867E+03 -0.90591315231E+03  0.12567152881E+04  0.10100000352E+00 0. -1.
       -3    1    3    3    0  502 -0.96694686327E+02  0.86562393867E+03  0.10088195293E+04  0.13328058818E+04  0.10100000352E+00 0.  1.
</event>
<event>
 5   0  0.5942229E-06  0.2605694E+04  0.7818609E-02  0.8366270E-01
        2   -1    0    0  501    0  0.00000000000E+00  0.00000000000E+00  0.18910083002E+04  0.18910083002E+04  0.25500000920E-02 0. -1.
       -2   -1    0    0    0  501  0.00000000000E+00  0.00000000000E+00 -0.89762177095E+03  0.89762177095E+03  0.25500000920E-02 0.  1.
    10030    2    1    2    0    0  0.00000000000E+00  0.00000000000E+00  0.99338652929E+03  0.27886300712E+04  0.26056939339E+04 0.  0.
        4    1    3    3  502    0  0.23559267503E+03 -0.73564865990E+03 -0.62611879079E+03  0.99433858038E+03  0.12699999809E+01 0.  1.
       -4    1    3    3    0  502 -0.23559267503E+03  0.73564865990E+03  0.16195053201E+04  0.17942914908E+04  0.12699999809E+01 0. -1.
</event>
<event>
 5   0  0.6173140E-06  0.2626834E+04  0.7818609E-02  0.8359143E-01
       -2   -1    0    0    0  501  0.00000000000E+00  0.00000000000E+00  0.11597705579E+04  0.11597705579E+04  0.25500000920E-02 0.  1.
        2   -1    0    0  501    0  0.00000000000E+00  0.00000000000E+00 -0.14874183951E+04  0.14874183951E+04  0.25500000920E-02 0. -1.
    10030    2    1    2    0    0  0.00000000000E+00  0.00000000000E+00 -0.32764783714E+03  0.26471889530E+04  0.26268338828E+04 0.  0.
        3    1    3    3  502    0  0.97537922440E+02  0.13037498770E+04 -0.37205317851E+02  0.13079226407E+04  0.10100000352E+00 0.  1.
       -3    1    3    3    0  502 -0.97537922440E+02 -0.13037498770E+04 -0.29044251929E+03  0.13392663123E+04  0.10100000352E+00 0. -1.
</event>
<event>
 5   0  0.6161834E-06  0.2572355E+04  0.7818609E-02  0.8377653E-01
       -2   -1    0    0    0  501  0.00000000000E+00  0.00000000000E+00  0.10317386487E+04  0.10317386487E+04  0.25500000920E-02 0.  1.
        2   -1    0    0  501    0  0.00000000000E+00  0.00000000000E+00 -0.16033641743E+04  0.16033641743E+04  0.25500000920E-02 0. -1.
    10030    2    1    2    0    0  0.00000000000E+00  0.00000000000E+00 -0.57162552559E+03  0.26351028230E+04  0.25723551750E+04 0.  0.
        5    1    3    3  502    0 -0.26784978892E+03 -0.88472108741E+03  0.63029239474E+03  0.11188232679E+04  0.46999998093E+01 0.  1.
       -5    1    3    3    0  502  0.26784978892E+03  0.88472108741E+03 -0.12019179203E+04  0.15162795551E+04  0.46999998093E+01 0. -1.
</event>
<event>
 5   0  0.2471488E-06  0.2604715E+04  0.7818609E-02  0.8366601E-01
        1   -1    0    0  501    0  0.00000000000E+00  0.00000000000E+00  0.15333831505E+04  0.15333831506E+04  0.50400001928E-02 0.  1.
       -1   -1    0    0    0  501  0.00000000000E+00  0.00000000000E+00 -0.11061392946E+04  0.11061392946E+04  0.50400001928E-02 0. -1.
    10030    2    1    2    0    0  0.00000000000E+00  0.00000000000E+00  0.42724385592E+03  0.26395224452E+04  0.26047152294E+04 0.  0.
        4    1    3    3  502    0 -0.60470566583E+03  0.56247084321E+03 -0.80685607961E+03  0.11545824950E+04  0.12699999809E+01 0. -1.
       -4    1    3    3    0  502  0.60470566583E+03 -0.56247084321E+03  0.12340999355E+04  0.14849399501E+04  0.12699999809E+01 0.  1.
</event>
<event>
 5   0  0.2333979E-06  0.2608936E+04  0.7818609E-02  0.8365172E-01
       -1   -1    0    0    0  501  0.00000000000E+00  0.00000000000E+00  0.16578289502E+04  0.16578289503E+04  0.50400001928E-02 0. -1.
        1   -1    0    0  501    0  0.00000000000E+00  0.00000000000E+00 -0.10264248117E+04  0.10264248117E+04  0.50400001928E-02 0.  1.
    10030    2    1    2    0    0  0.00000000000E+00  0.00000000000E+00  0.63140413852E+03  0.26842537620E+04  0.26089360039E+04 0.  0.
        3    1    3    3  502    0  0.11501401711E+04  0.21204353136E+03  0.91018181288E+03  0.14819634999E+04  0.10100000352E+00 0. -1.
       -3    1    3    3    0  502 -0.11501401711E+04 -0.21204353136E+03 -0.27877767436E+03  0.12022902621E+04  0.10100000352E+00 0.  1.
</event>
<event>
 5   0  0.2456600E-06  0.2598529E+04  0.7818609E-02  0.8368701E-01
       -1   -1    0    0    0  501  0.00000000000E+00  0.00000000000E+00  0.11543796885E+04  0.11543796885E+04  0.50400001928E-02 0.  1.
        1   -1    0    0  501    0  0.00000000000E+00  0.00000000000E+00 -0.14623333509E+04  0.14623333509E+04  0.50400001928E-02 0. -1.
    10030    2    1    2    0    0  0.00000000000E+00  0.00000000000E+00 -0.30795366234E+03  0.26167130394E+04  0.25985287515E+04 0.  0.
        5    1    3    3  502    0  0.30043883360E+03 -0.12008145808E+04  0.24355997727E+03  0.12615715210E+04  0.46999998093E+01 0.  1.
       -5    1    3    3    0  502 -0.30043883360E+03  0.12008145808E+04 -0.55151363961E+03  0.13551415184E+04  0.46999998093E+01 0. -1.
</event>
<event>
 5   0  0.5942229E-06  0.2604454E+04  0.7818609E-02  0.8366690E-01
        2   -1    0    0  501    0  0.00000000000E+00  0.00000000000E+00  0.28728608115E+04  0.28728608115E+04  0.25500000920E-02 0. -1.
       -2   -1    0    0    0  501  0.00000000000E+00  0.00000000000E+00 -0.59028118090E+03  0.59028118090E+03  0.25500000920E-02 0.  1.
    10030    2    1    2    0    0  0.00000000000E+00  0.00000000000E+00  0.22825796306E+04  0.34631419924E+04  0.26044543938E+04 0.  0.
        4    1    3    3  502    0 -0.88409502704E+03 -0.71743578773E+03  0.19816935613E+04  0.22854866244E+04  0.12699999809E+01 0. -1.
       -4    1    3    3    0  502  0.88409502704E+03  0.71743578773E+03  0.30088606935E+03  0.11776553681E+04  0.12699999809E+01 0.  1.
</event>
<event>
 5   0  0.5942229E-06  0.2594233E+04  0.7818609E-02  0.8370163E-01
       -2   -1    0    0    0  501  0.00000000000E+00  0.00000000000E+00  0.11621430830E+04  0.11621430830E+04  0.25500000920E-02 0. -1.
        2   -1    0    0  501    0  0.00000000000E+00  0.00000000000E+00 -0.14477659923E+04  0.14477659923E+04  0.25500000920E-02 0.  1.
    10030    2    1    2    0    0  0.00000000000E+00  0.00000000000E+00 -0.28562290926E+03  0.26099090753E+04  0.25942330148E+04 0.  0.
        4    1    3    3  502    0 -0.43489019718E+03  0.56038023412E+03  0.94973147738E+03  0.11853889583E+04  0.12699999809E+01 0. -1.
       -4    1    3    3    0  502  0.43489019718E+03 -0.56038023412E+03 -0.12353543866E+04  0.14245201171E+04  0.12699999809E+01 0.  1.
</event>
<event>
 5   0  0.6161834E-06  0.2602128E+04  0.7818609E-02  0.8367479E-01
        2   -1    0    0  501    0  0.00000000000E+00  0.00000000000E+00  0.19089684571E+04  0.19089684571E+04  0.25500000920E-02 0. -1.
       -2   -1    0    0    0  501  0.00000000000E+00  0.00000000000E+00 -0.88674454875E+03  0.88674454875E+03  0.25500000920E-02 0.  1.
    10030    2    1    2    0    0  0.00000000000E+00  0.00000000000E+00  0.10222239084E+04  0.27957130059E+04  0.26021278778E+04 0.  0.
        5    1    3    3  502    0  0.10171219999E+04  0.66747358318E+03  0.10066015768E+04  0.15790272231E+04  0.46999998093E+01 0. -1.
       -5    1    3    3    0  502 -0.10171219999E+04 -0.66747358318E+03  0.15622331580E+02  0.12166857828E+04  0.46999998093E+01 0.  1.
</event>
<event>
 5   0  0.5942229E-06  0.2565018E+04  0.7818609E-02  0.8380182E-01
       -2   -1    0    0    0  501  0.00000000000E+00  0.00000000000E+00  0.11061374819E+04  0.11061374819E+04  0.25500000920E-02 0.  1.
        2   -1    0    0  501    0  0.00000000000E+00  0.00000000000E+00 -0.14870023507E+04  0.14870023507E+04  0.25500000920E-02 0. -1.
    10030    2    1    2    0    0  0.00000000000E+00  0.00000000000E+00 -0.38086486877E+03  0.25931398325E+04  0.25650177666E+04 0.  0.
        4    1    3    3  502    0  0.35754668245E+03 -0.28111958665E+03 -0.14027290607E+04  0.14746247939E+04  0.12699999809E+01 0. -1.
       -4    1    3    3    0  502 -0.35754668245E+03  0.28111958665E+03  0.10218641919E+04  0.11185150387E+04  0.12699999809E+01 0.  1.
</event>
<event>
 5   0  0.6158063E-06  0.2619222E+04  0.7818609E-02  0.8361701E-01
       -2   -1    0    0    0  501  0.00000000000E+00  0.00000000000E+00  0.14912226204E+04  0.14912226204E+04  0.25500000920E-02 0.  1.
        2   -1    0    0  501    0  0.00000000000E+00  0.00000000000E+00 -0.11501174970E+04  0.11501174970E+04  0.25500000920E-02 0. -1.
    10030    2    1    2    0    0  0.00000000000E+00  0.00000000000E+00  0.34110512335E+03  0.26413401174E+04  0.26192221957E+04 0.  0.
        2    1    3    3  502    0 -0.62293051050E+03  0.10668459944E+04  0.60882399937E+03  0.13772688404E+04  0.25500000920E-02 0.  1.
       -2    1    3    3    0  502  0.62293051050E+03 -0.10668459944E+04 -0.26771887602E+03  0.12640712769E+04  0.25500000920E-02 0. -1.
</event>
<event>
 5   0  0.6161834E-06  0.2595531E+04  0.7818609E-02  0.8369721E-01
       -2   -1    0    0    0  501  0.00000000000E+00  0.00000000000E+00  0.82189668467E+03  0.82189668467E+03  0.25500000920E-02 0. -1.
        2   -1    0    0  501    0  0.00000000000E+00  0.00000000000E+00 -0.20491573156E+04  0.20491573156E+04  0.25500000920E-02 0.  1.
    10030    2    1    2    0    0  0.00000000000E+00  0.00000000000E+00 -0.12272606309E+04  0.28710540002E+04  0.25955312397E+04 0.  0.
        5    1    3    3  502    0  0.60244714835E+03 -0.95852778865E+03 -0.13153666985E+04  0.17354912070E+04  0.46999998093E+01 0.  1.
       -5    1    3    3    0  502 -0.60244714835E+03  0.95852778865E+03  0.88106067592E+02  0.11355627932E+04  0.46999998093E+01 0. -1.
</event>
<event>
 5   0  0.6161834E-06  0.2608366E+04  0.7818609E-02  0.8365365E-01
       -2   -1    0    0    0  501  0.00000000000E+00  0.00000000000E+00  0.12266092571E+04  0.12266092571E+04  0.25500000920E-02 0. -1.
        2   -1    0    0  501    0  0.00000000000E+00  0.00000000000E+00 -0.13866631252E+04  0.13866631252E+04  0.25500000920E-02 0.  1.
    10030    2    1    2    0    0  0.00000000000E+00  0.00000000000E+00 -0.16005386808E+03  0.26132723822E+04  0.26083664051E+04 0.  0.
        5    1    3    3  502    0 -0.43146038890E+03 -0.12076928143E+04  0.15746687928E+03  0.12920905189E+04  0.46999998093E+01 0.  1.
       -5    1    3    3    0  502  0.43146038890E+03  0.12076928143E+04 -0.31752074736E+03  0.13211818633E+04  0.46999998093E+01 0. -1.
</event>
<event>
 5   0  0.2503292E-06  0.2551843E+04  0.7818609E-02  0.8384745E-01
        1   -1    0    0  501    0  0.00000000000E+00  0.00000000000E+00  0.85252340345E+03  0.85252340346E+03  0.50400001928E-02 0.  1.
       -1   -1    0    0    0  501  0.00000000000E+00  0.00000000000E+00 -0.19095971391E+04  0.19095971391E+04  0.50400001928E-02 0. -1.
    10030    2    1    2    0    0  0.00000000000E+00  0.00000000000E+00 -0.10570737357E+04  0.27621205426E+04  0.25518434531E+04 0.  0.
        2    1    3    3  502    0 -0.29131812068E+03  0.52681494348E+02 -0.18719084102E+04  0.18951735233E+04  0.25500000920E-02 0. -1.
       -2    1    3    3    0  502  0.29131812068E+03 -0.52681494348E+02  0.81483467457E+03  0.86694701924E+03  0.25500000920E-02 0.  1.
</event>
<event>
 5   0  0.2503292E-06  0.2653590E+04  0.7818609E-02  0.8350222E-01
        1   -1    0    0  501    0  0.00000000000E+00  0.00000000000E+00  0.14805314539E+04  0.14805314539E+04  0.50400001928E-02 0.  1.
       -1   -1    0    0    0  501  0.00000000000E+00  0.00000000000E+00 -0.11890222731E+04  0.11890222731E+04  0.50400001928E-02 0. -1.
    10030    2    1    2    0    0  0.00000000000E+00  0.00000000000E+00  0.29150918080E+03  0.26695537270E+04  0.26535899267E+04 0.  0.
        2    1    3    3  502    0 -0.86627250936E+03  0.98344126734E+03 -0.62371816467E+02  0.13120499344E+04  0.25500000920E-02 0. -1.
       -2    1    3    3    0  502  0.86627250936E+03 -0.98344126734E+03  0.35388099727E+03  0.13575037926E+04  0.25500000920E-02 0.  1.
</event>
<event>
 5   0  0.2072125E-06  0.2601762E+04  0.7818609E-02  0.8367603E-01
       -4   -1    0    0    0  501  0.00000000000E+00  0.00000000000E+00  0.88156435444E+03  0.88156526924E+03  0.12699999809E+01 0.  1.
        4   -1    0    0  501    0  0.00000000000E+00  0.00000000000E+00 -0.19196430639E+04  0.19196434840E+04  0.12699999809E+01 0. -1.
    10030    2    1    2    0    0  0.00000000000E+00  0.00000000000E+00 -0.10380787095E+04  0.28012087532E+04  0.26017615325E+04 0.  0.
        5    1    3    3  502    0 -0.59862762290E+03  0.69453668229E+03  0.47448515702E+03  0.10324216620E+04  0.46999998093E+01 0.  1.
       -5    1    3    3    0  502  0.59862762290E+03 -0.69453668229E+03 -0.15125638665E+04  0.17687870912E+04  0.46999998093E+01 0. -1.
</event>
<event>
 5   0  0.2456600E-06  0.2635858E+04  0.7818609E-02  0.8356122E-01
        1   -1    0    0  501    0  0.00000000000E+00  0.00000000000E+00  0.12551949236E+04  0.12551949237E+04  0.50400001928E-02 0.  1.
       -1   -1    0    0    0  501  0.00000000000E+00  0.00000000000E+00 -0.13837987802E+04  0.13837987802E+04  0.50400001928E-02 0. -1.
    10030    2    1    2    0    0  0.00000000000E+00  0.00000000000E+00 -0.12860385651E+03  0.26389937038E+04  0.26358582695E+04 0.  0.
        5    1    3    3  502    0 -0.11310331632E+04  0.64434266906E+03  0.14210252134E+03  0.13094383178E+04  0.46999998093E+01 0.  1.
       -5    1    3    3    0  502  0.11310331632E+04 -0.64434266906E+03 -0.27070637785E+03  0.13295553860E+04  0.46999998093E+01 0. -1.
</event>
<event>
 5   0  0.6173140E-06  0.2603465E+04  0.7818609E-02  0.8367025E-01
        2   -1    0    0  501    0  0.00000000000E+00  0.00000000000E+00  0.14563708650E+04  0.14563708650E+04  0.25500000920E-02 0. -1.
       -2   -1    0    0    0  501  0.00000000000E+00  0.00000000000E+00 -0.11635137171E+04  0.11635137171E+04  0.25500000920E-02 0.  1.
    10030    2    1    2    0    0  0.00000000000E+00  0.00000000000E+00  0.29285714786E+03  0.26198845821E+04  0.26034649823E+04 0.  0.
        3    1    3    3  502    0 -0.17497463758E+03  0.96986459863E+03 -0.70937844106E+03  0.12142780762E+04  0.10100000352E+00 0.  1.
       -3    1    3    3    0  502  0.17497463758E+03 -0.96986459863E+03  0.10022355889E+04  0.14056065059E+04  0.10100000352E+00 0. -1.
</event>
<event>
 5   0  0.2440590E-06  0.2594074E+04  0.7818609E-02  0.8370217E-01
       -1   -1    0    0    0  501  0.00000000000E+00  0.00000000000E+00  0.11152743196E+04  0.11152743197E+04  0.50400001928E-02 0. -1.
        1   -1    0    0  501    0  0.00000000000E+00  0.00000000000E+00 -0.15084226725E+04  0.15084226725E+04  0.50400001928E-02 0.  1.
    10030    2    1    2    0    0  0.00000000000E+00  0.00000000000E+00 -0.39314835287E+03  0.26236969922E+04  0.25940740698E+04 0.  0.
        1    1    3    3  502    0  0.94050731008E+03  0.85721447191E+03 -0.45030627846E+03  0.13498690291E+04  0.50400001928E-02 0.  1.
       -1    1    3    3    0  502 -0.94050731008E+03 -0.85721447191E+03  0.57157925585E+02  0.12738279631E+04  0.50400001928E-02 0. -1.
</event>
<event>
 5   0  0.2503292E-06  0.2599515E+04  0.7818609E-02  0.8368366E-01
       -1   -1    0    0    0  501  0.00000000000E+00  0.00000000000E+00  0.91766090707E+03  0.91766090709E+03  0.50400001928E-02 0. -1.
        1   -1    0    0  501    0  0.00000000000E+00  0.00000000000E+00 -0.18409525674E+04  0.18409525674E+04  0.50400001928E-02 0.  1.
    10030    2    1    2    0    0  0.00000000000E+00  0.00000000000E+00 -0.92329166029E+03  0.27586134745E+04  0.25995154955E+04 0.  0.
        2    1    3    3  502    0 -0.87289717041E+03 -0.33954284420E+03 -0.14179842226E+04  0.16993875569E+04  0.25500000920E-02 0.  1.
       -2    1    3    3    0  502  0.87289717041E+03  0.33954284420E+03  0.49469256230E+03  0.10592259175E+04  0.25500000920E-02 0. -1.
</event>
<event>
 5   0  0.2456600E-06  0.2597523E+04  0.7818609E-02  0.8369043E-01
        1   -1    0    0  501    0  0.00000000000E+00  0.00000000000E+00  0.11117822046E+04  0.11117822047E+04  0.50400001928E-02 0.  1.
       -1   -1    0    0    0  501  0.00000000000E+00  0.00000000000E+00 -0.15171873077E+04  0.15171873077E+04  0.50400001928E-02 0. -1.
    10030    2    1    2    0    0  0.00000000000E+00  0.00000000000E+00 -0.40540510305E+03  0.26289695124E+04  0.25975233203E+04 0.  0.
        5    1    3    3  502    0  0.95782375896E+03  0.73301629926E+03  0.28481390973E+03  0.12393063791E+04  0.46999998093E+01 0.  1.
       -5    1    3    3    0  502 -0.95782375896E+03 -0.73301629926E+03 -0.69021901278E+03  0.13896631332E+04  0.46999998093E+01 0. -1.
</event>
<event>
 5   0  0.6158063E-06  0.2572660E+04  0.7818609E-02  0.8377548E-01
        2   -1    0    0  501    0  0.00000000000E+00  0.00000000000E+00  0.12406181087E+04  0.12406181087E+04  0.25500000920E-02 0.  1.
       -2   -1    0    0    0  501  0.00000000000E+00  0.00000000000E+00 -0.13337263259E+04  0.13337263259E+04  0.25500000920E-02 0. -1.
    10030    2    1    2    0    0  0.00000000000E+00  0.00000000000E+00 -0.93108217182E+02  0.25743444346E+04  0.25726601267E+04 0.  0.
        2    1    3    3  502    0  0.94914734978E+03  0.13084426899E+03  0.81228754612E+03  0.12561098566E+04  0.25500000920E-02 0.  1.
       -2    1    3    3    0  502 -0.94914734978E+03 -0.13084426899E+03 -0.90539576330E+03  0.13182345780E+04  0.25500000920E-02 0. -1.
</event>
<event>
 5   0  0.5942229E-06  0.2597151E+04  0.7818609E-02  0.8369170E-01
       -2   -1    0    0    0  501  0.00000000000E+00  0.00000000000E+00  0.13475233003E+04  0.13475233003E+04  0.25500000920E-02 0. -1.
        2   -1    0    0  501    0  0.00000000000E+00  0.00000000000E+00 -0.12514058888E+04  0.12514058888E+04  0.25500000920E-02 0.  1.
    10030    2    1    2    0    0  0.00000000000E+00  0.00000000000E+00  0.96117411487E+02  0.25989291890E+04  0.25971512033E+04 0.  0.
        4    1    3    3  502    0 -0.30707146133E+03 -0.87767124435E+01  0.13106383866E+04  0.13461591683E+04  0.12699999809E+01 0. -1.
       -4    1    3    3    0  502  0.30707146133E+03  0.87767124435E+01 -0.12145209751E+04  0.12527700208E+04  0.12699999809E+01 0.  1.
</event>
<event>
 5   0  0.2333979E-06  0.2608699E+04  0.7818609E-02  0.8365252E-01
       -1   -1    0    0    0  501  0.00000000000E+00  0.00000000000E+00  0.90625411049E+03  0.90625411051E+03  0.50400001928E-02 0. -1.
        1   -1    0    0  501    0  0.00000000000E+00  0.00000000000E+00 -0.18773189590E+04  0.18773189590E+04  0.50400001928E-02 0.  1.
    10030    2    1    2    0    0  0.00000000000E+00  0.00000000000E+00 -0.97106484846E+03  0.27835730695E+04  0.26086993106E+04 0.  0.
        3    1    3    3  502    0  0.99612400585E+03 -0.25396415357E+03 -0.13422007292E+04  0.16906400072E+04  0.10100000352E+00 0.  1.
       -3    1    3    3    0  502 -0.99612400585E+03  0.25396415357E+03  0.37113588077E+03  0.10929330622E+04  0.10100000352E+00 0. -1.
</event>
<event>
 5   0  0.6158063E-06  0.2642569E+04  0.7818609E-02  0.8353883E-01
       -2   -1    0    0    0  501  0.00000000000E+00  0.00000000000E+00  0.10405907961E+04  0.10405907961E+04  0.25500000920E-02 0. -1.
        2   -1    0    0  501    0  0.00000000000E+00  0.00000000000E+00 -0.16776942212E+04  0.16776942212E+04  0.25500000920E-02 0.  1.
    10030    2    1    2    0    0  0.00000000000E+00  0.00000000000E+00 -0.63710342508E+03  0.27182850173E+04  0.26425693295E+04 0.  0.
        2    1    3    3  502    0  0.80489774350E+03  0.53710802861E+03  0.60691970889E+03  0.11422333146E+04  0.25500000920E-02 0. -1.
       -2    1    3    3    0  502 -0.80489774350E+03 -0.53710802861E+03 -0.12440231340E+04  0.15760517028E+04  0.25500000920E-02 0.  1.
</event>
<event>
 5   0  0.2456600E-06  0.2604110E+04  0.7818609E-02  0.8366807E-01
        1   -1    0    0  501    0  0.00000000000E+00  0.00000000000E+00  0.12178958315E+04  0.12178958315E+04  0.50400001928E-02 0.  1.
       -1   -1    0    0    0  501  0.00000000000E+00  0.00000000000E+00 -0.13920293890E+04  0.13920293890E+04  0.50400001928E-02 0. -1.
    10030    2    1    2    0    0  0.00000000000E+00  0.00000000000E+00 -0.17413355753E+03  0.26099252205E+04  0.26041096676E+04 0.  0.
        5    1    3    3  502    0  0.72629267757E+03 -0.58438562658E+03  0.82398311281E+03  0.12441775895E+04  0.46999998093E+01 0.  1.
       -5    1    3    3    0  502 -0.72629267757E+03  0.58438562658E+03 -0.99811667034E+03  0.13657476310E+04  0.46999998093E+01 0. -1.
</event>
<event>
 5   0  0.2072125E-06  0.2582259E+04  0.7818609E-02  0.8374252E-01
        3   -1    0    0  501    0  0.00000000000E+00  0.00000000000E+00  0.79366867214E+03  0.79366867857E+03  0.10100000352E+00 0. -1.
       -3   -1    0    0    0  501  0.00000000000E+00  0.00000000000E+00 -0.21003923728E+04  0.21003923752E+04  0.10100000352E+00 0.  1.
    10030    2    1    2    0    0  0.00000000000E+00  0.00000000000E+00 -0.13067237006E+04  0.28940610538E+04  0.25822591956E+04 0.  0.
        5    1    3    3  502    0 -0.11820630698E+04  0.42107947089E+03 -0.31266095230E+03  0.12931975807E+04  0.46999998093E+01 0. -1.
       -5    1    3    3    0  502  0.11820630698E+04 -0.42107947089E+03 -0.99406274831E+03  0.16008634730E+04  0.46999998093E+01 0.  1.
</event>
<event>
 5   0  0.2471488E-06  0.2592588E+04  0.7818609E-02  0.8370723E-01
       -1   -1    0    0    0  501  0.00000000000E+00  0.00000000000E+00  0.13822150537E+04  0.13822150537E+04  0.50400001928E-02 0. -1.
        1   -1    0    0  501    0  0.00000000000E+00  0.00000000000E+00 -0.12157135709E+04  0.12157135709E+04  0.50400001928E-02 0.  1.
    10030    2    1    2    0    0  0.00000000000E+00  0.00000000000E+00  0.16650148284E+03  0.25979286246E+04  0.25925875867E+04 0.  0.
        4    1    3    3  502    0  0.33504791124E+02 -0.27758733165E+03  0.13516382715E+04  0.13802553850E+04  0.12699999809E+01 0. -1.
       -4    1    3    3    0  502 -0.33504791124E+02  0.27758733165E+03 -0.11851367887E+04  0.12176732397E+04  0.12699999809E+01 0.  1.
</event>
<event>
 5   0  0.2503292E-06  0.2596615E+04  0.7818609E-02  0.8369352E-01
        1   -1    0    0  501    0  0.00000000000E+00  0.00000000000E+00  0.17282124859E+04  0.17282124859E+04  0.50400001928E-02 0. -1.
       -1   -1    0    0    0  501  0.00000000000E+00  0.00000000000E+00 -0.97534450531E+03  0.97534450532E+03  0.50400001928E-02 0.  1.
    10030    2    1    2    0    0  0.00000000000E+00  0.00000000000E+00  0.75286798060E+03  0.27035569912E+04  0.25966151445E+04 0.  0.
        2    1    3    3  502    0 -0.60912863005E+03 -0.11391421612E+04  0.24099985691E+03  0.13140637284E+04  0.25500000920E-02 0.  1.
       -2    1    3    3    0  502  0.60912863005E+03  0.11391421612E+04  0.51186812369E+03  0.13894932628E+04  0.25500000920E-02 0. -1.
</event>
<event>
 5   0  0.2456600E-06  0.2593902E+04  0.7818609E-02  0.8370275E-01
        1   -1    0    0  501    0  0.00000000000E+00  0.00000000000E+00  0.12138253645E+04  0.12138253645E+04  0.50400001928E-02 0. -1.
       -1   -1    0    0    0  501  0.00000000000E+00  0.00000000000E+00 -0.13857697567E+04  0.13857697567E+04  0.50400001928E-02 0.  1.
    10030    2    1    2    0    0  0.00000000000E+00  0.00000000000E+00 -0.17194439219E+03  0.25995951211E+04  0.25939024499E+04 0.  0.
        5    1    3    3  502    0 -0.90033367186E+03 -0.67938380946E+03  0.55566511078E+03  0.12573578992E+04  0.46999998093E+01 0. -1.
       -5    1    3    3    0  502  0.90033367186E+03  0.67938380946E+03 -0.72760950297E+03  0.13422372220E+04  0.46999998093E+01 0.  1.
</event>
<event>
 5   0  0.2440590E-06  0.2602065E+04  0.7818609E-02  0.8367500E-01
        1   -1    0    0  501    0  0.00000000000E+00  0.00000000000E+00  0.11423296178E+04  0.11423296178E+04  0.50400001928E-02 0.  1.
       -1   -1    0    0    0  501  0.00000000000E+00  0.00000000000E+00 -0.14817840584E+04  0.14817840584E+04  0.50400001928E-02 0. -1.
    10030    2    1    2    0    0  0.00000000000E+00  0.00000000000E+00 -0.33945444056E+03  0.26241136762E+04  0.26020651930E+04 0.  0.
        1    1    3    3  502    0  0.12811790638E+03 -0.58624066551E+03  0.99443450551E+03  0.11614612786E+04  0.50400001928E-02 0.  1.
       -1    1    3    3    0  502 -0.12811790638E+03  0.58624066551E+03 -0.13338889461E+04  0.14626523976E+04  0.50400001928E-02 0. -1.
</event>
<event>
 5   0  0.6173140E-06  0.2599082E+04  0.7818609E-02  0.8368513E-01
       -2   -1    0    0    0  501  0.00000000000E+00  0.00000000000E+00  0.12867225038E+04  0.12867225038E+04  0.25500000920E-02 0.  1.
        2   -1    0    0  501    0  0.00000000000E+00  0.00000000000E+00 -0.13124874665E+04  0.13124874665E+04  0.25500000920E-02 0. -1.
    10030    2    1    2    0    0  0.00000000000E+00  0.00000000000E+00 -0.25764962733E+02  0.25992099703E+04  0.25990822681E+04 0.  0.
        3    1    3    3  502    0  0.32140926782E+03 -0.79233058545E+03  0.96579498804E+03  0.12899037341E+04  0.10100000352E+00 0.  1.
       -3    1    3    3    0  502 -0.32140926782E+03  0.79233058545E+03 -0.99155995077E+03  0.13093062362E+04  0.10100000352E+00 0. -1.
</event>
<event>
 5   0  0.6173140E-06  0.2598479E+04  0.7818609E-02  0.8368718E-01
        2   -1    0    0  501    0  0.00000000000E+00  0.00000000000E+00  0.13037630106E+04  0.13037630106E+04  0.25500000920E-02 0.  1.
       -2   -1    0    0    0  501  0.00000000000E+00  0.00000000000E+00 -0.12947319660E+04  0.12947319660E+04  0.25500000920E-02 0. -1.
    10030    2    1    2    0    0  0.00000000000E+00  0.00000000000E+00  0.90310446067E+01  0.25984949765E+04  0.25984792828E+04 0.  0.
        3    1    3    3  502    0  0.75269638296E+03  0.10118262076E+04 -0.30802358927E+03  0.12981612616E+04  0.10100000352E+00 0. -1.
       -3    1    3    3    0  502 -0.75269638296E+03 -0.10118262076E+04  0.31705463387E+03  0.13003337150E+04  0.10100000352E+00 0.  1.
</event>
<event>
 5   0  0.2456600E-06  0.2602140E+04  0.7818609E-02  0.8367475E-01
       -1   -1    0    0    0  501  0.00000000000E+00  0.00000000000E+00  0.11359700096E+04  0.11359700096E+04  0.50400001928E-02 0.  1.
        1   -1    0    0  501    0  0.00000000000E+00  0.00000000000E+00 -0.14901651201E+04  0.14901651201E+04  0.50400001928E-02 0. -1.
    10030    2    1    2    0    0  0.00000000000E+00  0.00000000000E+00 -0.35419511053E+03  0.26261351297E+04  0.26021398008E+04 0.  0.
        5    1    3    3  502    0 -0.10839671157E+04 -0.15966634964E+03  0.53100106869E+03  0.12175640747E+04  0.46999998093E+01 0.  1.
       -5    1    3    3    0  502  0.10839671157E+04  0.15966634964E+03 -0.88519617922E+03  0.14085710550E+04  0.46999998093E+01 0. -1.
</event>
<event>
 5   0  0.2333979E-06  0.2608934E+04  0.7818609E-02  0.8365173E-01
        1   -1    0    0  501    0  0.00000000000E+00  0.00000000000E+00  0.27209071464E+04  0.27209071464E+04  0.50400001928E-02 0.  1.
       -1   -1    0    0    0  501  0.00000000000E+00  0.00000000000E+00 -0.62539227348E+03  0.62539227350E+03  0.50400001928E-02 0. -1.
    10030    2    1    2    0    0  0.00000000000E+00  0.00000000000E+00  0.20955148729E+04  0.33462994199E+04  0.26089341166E+04 0.  0.
        3    1    3    3  502    0 -0.58504003542E+03  0.20073385817E+02  0.25429769116E+04  0.26094839273E+04  0.10100000352E+00 0.  1.
       -3    1    3    3    0  502  0.58504003542E+03 -0.20073385817E+02 -0.44746203867E+03  0.73681549259E+03  0.10100000352E+00 0. -1.
</event>
<event>
 5   0  0.2333979E-06  0.2594259E+04  0.7818609E-02  0.8370154E-01
        1   -1    0    0  501    0  0.00000000000E+00  0.00000000000E+00  0.71757411736E+03  0.71757411737E+03  0.50400001928E-02 0.  1.
       -1   -1    0    0    0  501  0.00000000000E+00  0.00000000000E+00 -0.23447679155E+04  0.23447679155E+04  0.50400001928E-02 0. -1.
    10030    2    1    2    0    0  0.00000000000E+00  0.00000000000E+00 -0.16271937981E+04  0.30623420328E+04  0.25942588671E+04 0.  0.
        3    1    3    3  502    0 -0.67519838984E+03  0.11071985088E+04 -0.78098295785E+03  0.15138414032E+04  0.10100000352E+00 0. -1.
       -3    1    3    3    0  502  0.67519838984E+03 -0.11071985088E+04 -0.84621084024E+03  0.15485006296E+04  0.10100000352E+00 0.  1.
</event>
<event>
 5   0  0.6158063E-06  0.2627409E+04  0.7818609E-02  0.8358950E-01
       -2   -1    0    0    0  501  0.00000000000E+00  0.00000000000E+00  0.94999105981E+03  0.94999105981E+03  0.25500000920E-02 0. -1.
        2   -1    0    0  501    0  0.00000000000E+00  0.00000000000E+00 -0.18166685823E+04  0.18166685823E+04  0.25500000920E-02 0.  1.
    10030    2    1    2    0    0  0.00000000000E+00  0.00000000000E+00 -0.86667752254E+03  0.27666596422E+04  0.26274085422E+04 0.  0.
        2    1    3    3  502    0  0.41596246232E+03 -0.94557939357E+03  0.42126206062E+03  0.11156195065E+04  0.25500000920E-02 0. -1.
       -2    1    3    3    0  502 -0.41596246232E+03  0.94557939357E+03 -0.12879395832E+04  0.16510401356E+04  0.25500000920E-02 0.  1.
</event>
<event>
 5   0  0.6158063E-06  0.2617231E+04  0.7818609E-02  0.8362372E-01
        2   -1    0    0  501    0  0.00000000000E+00  0.00000000000E+00  0.11544569884E+04  0.11544569884E+04  0.25500000920E-02 0. -1.
       -2   -1    0    0    0  501  0.00000000000E+00  0.00000000000E+00 -0.14833588800E+04  0.14833588800E+04  0.25500000920E-02 0.  1.
    10030    2    1    2    0    0  0.00000000000E+00  0.00000000000E+00 -0.32890189162E+03  0.26378158684E+04  0.26172306167E+04 0.  0.
        2    1    3    3  502    0  0.19043481848E+03  0.12488997920E+04 -0.50839435304E+03  0.13617932768E+04  0.25500000920E-02 0.  1.
       -2    1    3    3    0  502 -0.19043481848E+03 -0.12488997920E+04  0.17949246142E+03  0.12760225916E+04  0.25500000920E-02 0. -1.
</event>
<event>
 5   0  0.2471488E-06  0.2587750E+04  0.7818609E-02  0.8372374E-01
       -1   -1    0    0    0  501  0.00000000000E+00  0.00000000000E+00  0.90745667372E+03  0.90745667373E+03  0.50400001928E-02 0.  1.
        1   -1    0    0  501    0  0.00000000000E+00  0.00000000000E+00 -0.18448404869E+04  0.18448404869E+04  0.50400001928E-02 0. -1.
    10030    2    1    2    0    0  0.00000000000E+00  0.00000000000E+00 -0.93738381317E+03  0.27522971606E+04  0.25877502289E+04 0.  0.
        4    1    3    3  502    0  0.30212153956E+02  0.73923562761E+03  0.66027893180E+03  0.99164104799E+03  0.12699999809E+01 0.  1.
       -4    1    3    3    0  502 -0.30212153956E+02 -0.73923562761E+03 -0.15976627450E+04  0.17606561126E+04  0.12699999809E+01 0. -1.
</event>
<event>
 5   0  0.5940748E-06  0.2597331E+04  0.7818609E-02  0.8369109E-01
       -2   -1    0    0    0  501  0.00000000000E+00  0.00000000000E+00  0.12569544159E+04  0.12569544159E+04  0.25500000920E-02 0. -1.
        2   -1    0    0  501    0  0.00000000000E+00  0.00000000000E+00 -0.13417602798E+04  0.13417602798E+04  0.25500000920E-02 0.  1.
    10030    2    1    2    0    0  0.00000000000E+00  0.00000000000E+00 -0.84805863852E+02  0.25987146957E+04  0.25973305595E+04 0.  0.
        1    1    3    3  502    0  0.81617803937E+03  0.10001996365E+04  0.99042854429E+02  0.12947414383E+04  0.50400001928E-02 0. -1.
       -1    1    3    3    0  502 -0.81617803937E+03 -0.10001996365E+04 -0.18384871828E+03  0.13039732574E+04  0.50400001928E-02 0.  1.
</event>
<event>
 5   0  0.2072125E-06  0.2604242E+04  0.7818609E-02  0.8366762E-01
        3   -1    0    0  501    0  0.00000000000E+00  0.00000000000E+00  0.84788645401E+03  0.84788646003E+03  0.10100000352E+00 0. -1.
       -3   -1    0    0    0  501  0.00000000000E+00  0.00000000000E+00 -0.19997000110E+04  0.19997000136E+04  0.10100000352E+00 0.  1.
    10030    2    1    2    0    0  0.00000000000E+00  0.00000000000E+00 -0.11518135570E+04  0.28475864736E+04  0.26042415891E+04 0.  0.
        3    1    3    3  502    0 -0.12594753964E+03 -0.74031994863E+03  0.58725117342E+03  0.95331021183E+03  0.10100000352E+00 0. -1.
       -3    1    3    3    0  502  0.12594753964E+03  0.74031994863E+03 -0.17390647304E+04  0.18942762618E+04  0.10100000352E+00 0.  1.
</event>
<event>
 5   0  0.6161834E-06  0.2539123E+04  0.7818609E-02  0.8389179E-01
       -2   -1    0    0    0  501  0.00000000000E+00  0.00000000000E+00  0.63690265295E+03  0.63690265295E+03  0.25500000920E-02 0.  1.
        2   -1    0    0  501    0  0.00000000000E+00  0.00000000000E+00 -0.25306636919E+04  0.25306636919E+04  0.25500000920E-02 0. -1.
    10030    2    1    2    0    0  0.00000000000E+00  0.00000000000E+00 -0.18937610389E+04  0.31675663448E+04  0.25391230132E+04 0.  0.
        5    1    3    3  502    0 -0.33476432683E+02 -0.12683410476E+04 -0.10020343729E+04  0.16167574522E+04  0.46999998093E+01 0. -1.
       -5    1    3    3    0  502  0.33476432683E+02  0.12683410476E+04 -0.89172666598E+03  0.15508088926E+04  0.46999998093E+01 0.  1.
</event>
<event>
 5   0  0.6161834E-06  0.2604430E+04  0.7818609E-02  0.8366698E-01
        2   -1    0    0  501    0  0.00000000000E+00  0.00000000000E+00  0.22586811462E+04  0.22586811462E+04  0.25500000920E-02 0. -1.
       -2   -1    0    0    0  501  0.00000000000E+00  0.00000000000E+00 -0.75077595700E+03  0.75077595701E+03  0.25500000920E-02 0.  1.
    10030    2    1    2    0    0  0.00000000000E+00  0.00000000000E+00  0.15079051892E+04  0.30094571032E+04  0.26044296874E+04 0.  0.
        5    1    3    3  502    0  0.50430967155E+03  0.33334496924E+03 -0.57879953319E+03  0.83694569892E+03  0.46999998093E+01 0.  1.
       -5    1    3    3    0  502 -0.50430967155E+03 -0.33334496924E+03  0.20867047224E+04  0.21725114043E+04  0.46999998093E+01 0. -1.
</event>
<event>
 5   0  0.6158063E-06  0.2604054E+04  0.7818609E-02  0.8366826E-01
        2   -1    0    0  501    0  0.00000000000E+00  0.00000000000E+00  0.16126306049E+04  0.16126306049E+04  0.25500000920E-02 0. -1.
       -2   -1    0    0    0  501  0.00000000000E+00  0.00000000000E+00 -0.10512473721E+04  0.10512473721E+04  0.25500000920E-02 0.  1.
    10030    2    1    2    0    0  0.00000000000E+00  0.00000000000E+00  0.56138323275E+03  0.26638779770E+04  0.26040535214E+04 0.  0.
        2    1    3    3  502    0 -0.12054701498E+04  0.43238685063E+01  0.78402862413E+03  0.14380117737E+04  0.25500000920E-02 0.  1.
       -2    1    3    3    0  502  0.12054701498E+04 -0.43238685063E+01 -0.22264539137E+03  0.12258662032E+04  0.25500000920E-02 0. -1.
</event>
<event>
 5   0  0.2456600E-06  0.2602593E+04  0.7818609E-02  0.8367321E-01
        1   -1    0    0  501    0  0.00000000000E+00  0.00000000000E+00  0.21603347159E+04  0.21603347159E+04  0.50400001928E-02 0. -1.
       -1   -1    0    0    0  501  0.00000000000E+00  0.00000000000E+00 -0.78384715983E+03  0.78384715984E+03  0.50400001928E-02 0.  1.
    10030    2    1    2    0    0  0.00000000000E+00  0.00000000000E+00  0.13764875561E+04  0.29441818757E+04  0.26025927314E+04 0.  0.
        5    1    3    3  502    0 -0.98149425750E+03  0.33939412727E+03  0.15752695263E+04  0.18868003397E+04  0.46999998093E+01 0. -1.
       -5    1    3    3    0  502  0.98149425750E+03 -0.33939412727E+03 -0.19878197028E+03  0.10573815361E+04  0.46999998093E+01 0.  1.
</event>
<event>
 5   0  0.6173140E-06  0.2602006E+04  0.7818609E-02  0.8367520E-01
       -2   -1    0    0    0  501  0.00000000000E+00  0.00000000000E+00  0.98350200549E+03  0.98350200550E+03  0.25500000920E-02 0. -1.
        2   -1    0    0  501    0  0.00000000000E+00  0.00000000000E+00 -0.17210012824E+04  0.17210012824E+04  0.25500000920E-02 0.  1.
    10030    2    1    2    0    0  0.00000000000E+00  0.00000000000E+00 -0.73749927688E+03  0.27045032879E+04  0.26020055439E+04 0.  0.
        3    1    3    3  502    0  0.88509000401E+02  0.69869211243E+03  0.76823465509E+03  0.10422039180E+04  0.10100000352E+00 0. -1.
       -3    1    3    3    0  502 -0.88509000401E+02 -0.69869211243E+03 -0.15057339320E+04  0.16622993699E+04  0.10100000352E+00 0.  1.
</event>
<event>
 5   0  0.2333979E-06  0.2604181E+04  0.7818609E-02  0.8366782E-01
       -1   -1    0    0    0  501  0.00000000000E+00  0.00000000000E+00  0.11473069617E+04  0.11473069617E+04  0.50400001928E-02 0. -1.
        1   -1    0    0  501    0  0.00000000000E+00  0.00000000000E+00 -0.14777557618E+04  0.14777557618E+04  0.50400001928E-02 0.  1.
    10030    2    1    2    0    0  0.00000000000E+00  0.00000000000E+00 -0.33044880011E+03  0.26250627235E+04  0.26041808488E+04 0.  0.
        3    1    3    3  502    0  0.31517323179E+03  0.65672667940E+03 -0.12531447230E+04  0.14494812190E+04  0.10100000352E+00 0.  1.
       -3    1    3    3    0  502 -0.31517323179E+03 -0.65672667940E+03  0.92269592286E+03  0.11755815045E+04  0.10100000352E+00 0. -1.
</event>
<event>
 5   0  0.5942229E-06  0.2603903E+04  0.7818609E-02  0.8366877E-01
        2   -1    0    0  501    0  0.00000000000E+00  0.00000000000E+00  0.14847800286E+04  0.14847800286E+04  0.25500000920E-02 0.  1.
       -2   -1    0    0    0  501  0.00000000000E+00  0.00000000000E+00 -0.11416355065E+04  0.11416355065E+04  0.25500000920E-02 0. -1.
    10030    2    1    2    0    0  0.00000000000E+00  0.00000000000E+00  0.34314452209E+03  0.26264155352E+04  0.26039029168E+04 0.  0.
        4    1    3    3  502    0  0.53623227648E+03 -0.10453523255E+04  0.73746606267E+03  0.13871425108E+04  0.12699999809E+01 0.  1.
       -4    1    3    3    0  502 -0.53623227648E+03  0.10453523255E+04 -0.39432154058E+03  0.12392730244E+04  0.12699999809E+01 0. -1.
</event>
<event>
 5   0  0.2503292E-06  0.2590259E+04  0.7818609E-02  0.8371518E-01
       -1   -1    0    0    0  501  0.00000000000E+00  0.00000000000E+00  0.11461209218E+04  0.11461209218E+04  0.50400001928E-02 0. -1.
        1   -1    0    0  501    0  0.00000000000E+00  0.00000000000E+00 -0.14635106381E+04  0.14635106381E+04  0.50400001928E-02 0.  1.
    10030    2    1    2    0    0  0.00000000000E+00  0.00000000000E+00 -0.31738971626E+03  0.26096315599E+04  0.25902587991E+04 0.  0.
        2    1    3    3  502    0  0.25776620001E+03  0.78630443611E+03  0.84507090726E+03  0.11827353543E+04  0.25500000920E-02 0. -1.
       -2    1    3    3    0  502 -0.25776620001E+03 -0.78630443611E+03 -0.11624606235E+04  0.14268962055E+04  0.25500000920E-02 0.  1.
</event>
<event>
 5   0  0.2440590E-06  0.2605207E+04  0.7818609E-02  0.8366435E-01
       -1   -1    0    0    0  501  0.00000000000E+00  0.00000000000E+00  0.12231513215E+04  0.12231513216E+04  0.50400001928E-02 0.  1.
        1   -1    0    0  501    0  0.00000000000E+00  0.00000000000E+00 -0.13872171339E+04  0.13872171339E+04  0.50400001928E-02 0. -1.
    10030    2    1    2    0    0  0.00000000000E+00  0.00000000000E+00 -0.16406581239E+03  0.26103684555E+04  0.26052074548E+04 0.  0.
        1    1    3    3  502    0 -0.49647889940E+03 -0.57009279383E+03 -0.11449262337E+04  0.13719887652E+04  0.50400001928E-02 0. -1.
       -1    1    3    3    0  502  0.49647889940E+03  0.57009279383E+03  0.98086042135E+03  0.12383796903E+04  0.50400001928E-02 0.  1.
</event>
<event>
 5   0  0.6161834E-06  0.2614195E+04  0.7818609E-02  0.8363395E-01
       -2   -1    0    0    0  501  0.00000000000E+00  0.00000000000E+00  0.11378383378E+04  0.11378383378E+04  0.25500000920E-02 0. -1.
        2   -1    0    0  501    0  0.00000000000E+00  0.00000000000E+00 -0.15015350745E+04  0.15015350745E+04  0.25500000920E-02 0.  1.
    10030    2    1    2    0    0  0.00000000000E+00  0.00000000000E+00 -0.36369673673E+03  0.26393734124E+04  0.26141952287E+04 0.  0.
        5    1    3    3  502    0 -0.52514835153E+03  0.88277124205E+03  0.63427869101E+03  0.12072271554E+04  0.46999998093E+01 0. -1.
       -5    1    3    3    0  502  0.52514835153E+03 -0.88277124205E+03 -0.99797542774E+03  0.14321462569E+04  0.46999998093E+01 0.  1.
</event>
<event>
 5   0  0.2456600E-06  0.2594573E+04  0.7818609E-02  0.8370047E-01
       -1   -1    0    0    0  501  0.00000000000E+00  0.00000000000E+00  0.15307319276E+04  0.15307319276E+04  0.50400001928E-02 0.  1.
        1   -1    0    0  501    0  0.00000000000E+00  0.00000000000E+00 -0.10994424857E+04  0.10994424857E+04  0.50400001928E-02 0. -1.
    10030    2    1    2    0    0  0.00000000000E+00  0.00000000000E+00  0.43128944192E+03  0.26301744133E+04  0.25945725778E+04 0.  0.
        5    1    3    3  502    0 -0.67110264149E+03 -0.10828034503E+04 -0.32846472530E+02  0.12743402403E+04  0.46999998093E+01 0. -1.
       -5    1    3    3    0  502  0.67110264149E+03  0.10828034503E+04  0.46413591445E+03  0.13558341729E+04  0.46999998093E+01 0.  1.
</event>
<event>
 5   0  0.6173140E-06  0.2600455E+04  0.7818609E-02  0.8368047E-01
       -2   -1    0    0    0  501  0.00000000000E+00  0.00000000000E+00  0.21642932611E+04  0.21642932611E+04  0.25500000920E-02 0.  1.
        2   -1    0    0  501    0  0.00000000000E+00  0.00000000000E+00 -0.78112857559E+03  0.78112857560E+03  0.25500000920E-02 0. -1.
    10030    2    1    2    0    0  0.00000000000E+00  0.00000000000E+00  0.13831646855E+04  0.29454218367E+04  0.26004548158E+04 0.  0.
        3    1    3    3  502    0 -0.69698311740E+03 -0.70982951066E+03  0.16398721013E+04  0.19180260475E+04  0.10100000352E+00 0.  1.
       -3    1    3    3    0  502  0.69698311740E+03  0.70982951066E+03 -0.25670741577E+03  0.10273957892E+04  0.10100000352E+00 0. -1.
</event>
<event>
 5   0  0.5940748E-06  0.2576291E+04  0.7818609E-02  0.8376299E-01
       -2   -1    0    0    0  501  0.00000000000E+00  0.00000000000E+00  0.77005728325E+03  0.77005728326E+03  0.25500000920E-02 0.  1.
        2   -1    0    0  501    0  0.00000000000E+00  0.00000000000E+00 -0.21547999796E+04  0.21547999796E+04  0.25500000920E-02 0. -1.
    10030    2    1    2    0    0  0.00000000000E+00  0.00000000000E+00 -0.13847426963E+04  0.29248572629E+04  0.25762914573E+04 0.  0.
        1    1    3    3  502    0  0.22078046867E+02 -0.48456293526E+03 -0.20471531847E+04  0.21038357446E+04  0.50400001928E-02 0. -1.
       -1    1    3    3    0  502 -0.22078046867E+02  0.48456293526E+03  0.66241048837E+03  0.82102151830E+03  0.50400001928E-02 0.  1.
</event>
<event>
 5   0  0.2503292E-06  0.2585281E+04  0.7818609E-02  0.8373218E-01
        1   -1    0    0  501    0  0.00000000000E+00  0.00000000000E+00  0.11900079706E+04  0.11900079706E+04  0.50400001928E-02 0.  1.
       -1   -1    0    0    0  501  0.00000000000E+00  0.00000000000E+00 -0.14041247992E+04  0.14041247992E+04  0.50400001928E-02 0. -1.
    10030    2    1    2    0    0  0.00000000000E+00  0.00000000000E+00 -0.21411682864E+03  0.25941327698E+04  0.25852811861E+04 0.  0.
        2    1    3    3  502    0  0.36090681369E+03  0.83041783630E+03 -0.10327527673E+04  0.13734721655E+04  0.25500000920E-02 0. -1.
       -2    1    3    3    0  502 -0.36090681369E+03 -0.83041783630E+03  0.81863593862E+03  0.12206606044E+04  0.25500000920E-02 0.  1.
</event>
<event>
 5   0  0.2503292E-06  0.2600156E+04  0.7818609E-02  0.8368148E-01
        1   -1    0    0  501    0  0.00000000000E+00  0.00000000000E+00  0.28175135147E+04  0.28175135147E+04  0.50400001928E-02 0.  1.
       -1   -1    0    0    0  501  0.00000000000E+00  0.00000000000E+00 -0.59989171889E+03  0.59989171891E+03  0.50400001928E-02 0. -1.
    10030    2    1    2    0    0  0.00000000000E+00  0.00000000000E+00  0.22176217958E+04  0.34174052336E+04  0.26001561687E+04 0.  0.
        2    1    3    3  502    0 -0.38913470142E+02  0.10906962691E+04  0.18031933814E+03  0.11061860935E+04  0.25500000920E-02 0. -1.
       -2    1    3    3    0  502  0.38913470142E+02 -0.10906962691E+04  0.20373024577E+04  0.23112191401E+04  0.25500000920E-02 0.  1.
</event>
<event>
 5   0  0.6173140E-06  0.2599214E+04  0.7818609E-02  0.8368468E-01
       -2   -1    0    0    0  501  0.00000000000E+00  0.00000000000E+00  0.79120901859E+03  0.79120901860E+03  0.25500000920E-02 0.  1.
        2   -1    0    0  501    0  0.00000000000E+00  0.00000000000E+00 -0.21346798536E+04  0.21346798536E+04  0.25500000920E-02 0. -1.
    10030    2    1    2    0    0  0.00000000000E+00  0.00000000000E+00 -0.13434708350E+04  0.29258888722E+04  0.25992136903E+04 0.  0.
        3    1    3    3  502    0 -0.16159630456E+03  0.46338865821E+03  0.68289382206E+03  0.84094375354E+03  0.10100000352E+00 0.  1.
       -3    1    3    3    0  502  0.16159630456E+03 -0.46338865821E+03 -0.20263646570E+04  0.20849451186E+04  0.10100000352E+00 0. -1.
</event>
<event>
 5   0  0.6173140E-06  0.2607976E+04  0.7818609E-02  0.8365497E-01
       -2   -1    0    0    0  501  0.00000000000E+00  0.00000000000E+00  0.13200582094E+04  0.13200582094E+04  0.25500000920E-02 0.  1.
        2   -1    0    0  501    0  0.00000000000E+00  0.00000000000E+00 -0.12881138348E+04  0.12881138348E+04  0.25500000920E-02 0. -1.
    10030    2    1    2    0    0  0.00000000000E+00  0.00000000000E+00  0.31944374520E+02  0.26081720442E+04  0.26079764127E+04 0.  0.
        3    1    3    3  502    0  0.44712046605E+03 -0.41351079482E+03  0.11690883161E+04  0.13182091600E+04  0.10100000352E+00 0.  1.
       -3    1    3    3    0  502 -0.44712046605E+03  0.41351079482E+03 -0.11371439415E+04  0.12899628842E+04  0.10100000352E+00 0. -1.
</event>
<event>
 5   0  0.2471488E-06  0.2598456E+04  0.7818609E-02  0.8368726E-01
       -1   -1    0    0    0  501  0.00000000000E+00  0.00000000000E+00  0.11146921553E+04  0.11146921553E+04  0.50400001928E-02 0. -1.
        1   -1    0    0  501    0  0.00000000000E+00  0.00000000000E+00 -0.15143139174E+04  0.15143139174E+04  0.50400001928E-02 0.  1.
    10030    2    1    2    0    0  0.00000000000E+00  0.00000000000E+00 -0.39962176210E+03  0.26290060727E+04  0.25984563451E+04 0.  0.
        4    1    3    3  502    0 -0.74404742399E+02  0.83356996817E+03  0.80566232747E+03  0.11616661983E+04  0.12699999809E+01 0. -1.
       -4    1    3    3    0  502  0.74404742399E+02 -0.83356996817E+03 -0.12052840896E+04  0.14673398744E+04  0.12699999809E+01 0.  1.
</event>
<event>
 5   0  0.2471488E-06  0.2598835E+04  0.7818609E-02  0.8368597E-01
        1   -1    0    0  501    0  0.00000000000E+00  0.00000000000E+00  0.20080838661E+04  0.20080838661E+04  0.50400001928E-02 0. -1.
       -1   -1    0    0    0  501  0.00000000000E+00  0.00000000000E+00 -0.84084411080E+03  0.84084411082E+03  0.50400001928E-02 0.  1.
    10030    2    1    2    0    0  0.00000000000E+00  0.00000000000E+00  0.11672397553E+04  0.28489279769E+04  0.25988347333E+04 0.  0.
        4    1    3    3  502    0  0.10684406617E+04  0.14704953452E+03 -0.21089930298E+03  0.10989400084E+04  0.12699999809E+01 0.  1.
       -4    1    3    3    0  502 -0.10684406617E+04 -0.14704953452E+03  0.13781390582E+04  0.17499879685E+04  0.12699999809E+01 0. -1.
</event>
<event>
 5   0  0.2440590E-06  0.2601809E+04  0.7818609E-02  0.8367587E-01
        1   -1    0    0  501    0  0.00000000000E+00  0.00000000000E+00  0.11853512680E+04  0.11853512680E+04  0.50400001928E-02 0.  1.
       -1   -1    0    0    0  501  0.00000000000E+00  0.00000000000E+00 -0.14277224757E+04  0.14277224757E+04  0.50400001928E-02 0. -1.
    10030    2    1    2    0    0  0.00000000000E+00  0.00000000000E+00 -0.24237120767E+03  0.26130737438E+04  0.26018090991E+04 0.  0.
        1    1    3    3  502    0 -0.12895414341E+04 -0.13813029623E+03 -0.18982758023E+02  0.12970572209E+04  0.50400001928E-02 0.  1.
       -1    1    3    3    0  502  0.12895414341E+04  0.13813029623E+03 -0.22338844965E+03  0.13160165229E+04  0.50400001928E-02 0. -1.
</event>
<event>
 5   0  0.2440590E-06  0.2591461E+04  0.7818609E-02  0.8371108E-01
        1   -1    0    0  501    0  0.00000000000E+00  0.00000000000E+00  0.16772625220E+04  0.16772625220E+04  0.50400001928E-02 0.  1.
       -1   -1    0    0    0  501  0.00000000000E+00  0.00000000000E+00 -0.10009863969E+04  0.10009863969E+04  0.50400001928E-02 0. -1.
    10030    2    1    2    0    0  0.00000000000E+00  0.00000000000E+00  0.67627612507E+03  0.26782489189E+04  0.25914605678E+04 0.  0.
        1    1    3    3  502    0 -0.20089544992E+02  0.84091398373E+03  0.13567300435E+04  0.15963258843E+04  0.50400001928E-02 0.  1.
       -1    1    3    3    0  502  0.20089544992E+02 -0.84091398373E+03 -0.68045391842E+03  0.10819230347E+04  0.50400001928E-02 0. -1.
</event>
<event>
 5   0  0.2503292E-06  0.2598028E+04  0.7818609E-02  0.8368871E-01
       -1   -1    0    0    0  501  0.00000000000E+00  0.00000000000E+00  0.10463902470E+04  0.10463902470E+04  0.50400001928E-02 0. -1.
        1   -1    0    0  501    0  0.00000000000E+00  0.00000000000E+00 -0.16126267118E+04  0.16126267118E+04  0.50400001928E-02 0.  1.
    10030    2    1    2    0    0  0.00000000000E+00  0.00000000000E+00 -0.56623646484E+03  0.26590169588E+04  0.25980276082E+04 0.  0.
        2    1    3    3  502    0 -0.11581872709E+04 -0.58716726102E+03 -0.24659125524E+03  0.13217300761E+04  0.25500000920E-02 0. -1.
       -2    1    3    3    0  502  0.11581872709E+04  0.58716726102E+03 -0.31964520960E+03  0.13372868828E+04  0.25500000920E-02 0.  1.
</event>
<event>
 5   0  0.2456600E-06  0.2602666E+04  0.7818609E-02  0.8367296E-01
        1   -1    0    0  501    0  0.00000000000E+00  0.00000000000E+00  0.14091141027E+04  0.14091141027E+04  0.50400001928E-02 0. -1.
       -1   -1    0    0    0  501  0.00000000000E+00  0.00000000000E+00 -0.12017961166E+04  0.12017961166E+04  0.50400001928E-02 0.  1.
    10030    2    1    2    0    0  0.00000000000E+00  0.00000000000E+00  0.20731798609E+03  0.26109102194E+04  0.26026662149E+04 0.  0.
        5    1    3    3  502    0  0.71661241879E+03 -0.10464404364E+04  0.39591463152E+03  0.13286615187E+04  0.46999998093E+01 0. -1.
       -5    1    3    3    0  502 -0.71661241879E+03  0.10464404364E+04 -0.18859664543E+03  0.12822487007E+04  0.46999998093E+01 0.  1.
</event>
<event>
 5   0  0.2503292E-06  0.2600045E+04  0.7818609E-02  0.8368186E-01
        1   -1    0    0  501    0  0.00000000000E+00  0.00000000000E+00  0.23293851038E+04  0.23293851038E+04  0.50400001928E-02 0. -1.
       -1   -1    0    0    0  501  0.00000000000E+00  0.00000000000E+00 -0.72553857982E+03  0.72553857984E+03  0.50400001928E-02 0.  1.
    10030    2    1    2    0    0  0.00000000000E+00  0.00000000000E+00  0.16038465240E+04  0.30549236836E+04  0.26000451997E+04 0.  0.
        2    1    3    3  502    0 -0.77324273645E+03 -0.33573638674E+03 -0.36088307565E+03  0.91698410299E+03  0.25500000920E-02 0.  1.
       -2    1    3    3    0  502  0.77324273645E+03  0.33573638674E+03  0.19647295996E+04  0.21379395807E+04  0.25500000920E-02 0. -1.
</event>
<event>
 5   0  0.5940748E-06  0.2591133E+04  0.7818609E-02  0.8371219E-01
        2   -1    0    0  501    0  0.00000000000E+00  0.00000000000E+00  0.12230790676E+04  0.12230790676E+04  0.25500000920E-02 0.  1.
       -2   -1    0    0    0  501  0.00000000000E+00  0.00000000000E+00 -0.13723497857E+04  0.13723497857E+04  0.25500000920E-02 0. -1.
    10030    2    1    2    0    0  0.00000000000E+00  0.00000000000E+00 -0.14927071816E+03  0.25954288533E+04  0.25911327996E+04 0.  0.
        1    1    3    3  502    0 -0.10066526887E+04  0.56972344959E+03 -0.65917626094E+03  0.13313330867E+04  0.50400001928E-02 0. -1.
       -1    1    3    3    0  502  0.10066526887E+04 -0.56972344959E+03  0.50990554277E+03  0.12640957666E+04  0.50400001928E-02 0.  1.
</event>
<event>
 5   0  0.5940748E-06  0.2594383E+04  0.7818609E-02  0.8370112E-01
        2   -1    0    0  501    0  0.00000000000E+00  0.00000000000E+00  0.18477785334E+04  0.18477785334E+04  0.25500000920E-02 0.  1.
       -2   -1    0    0    0  501  0.00000000000E+00  0.00000000000E+00 -0.91066403389E+03  0.91066403389E+03  0.25500000920E-02 0. -1.
    10030    2    1    2    0    0  0.00000000000E+00  0.00000000000E+00  0.93711449951E+03  0.27584425673E+04  0.25943827420E+04 0.  0.
        1    1    3    3  502    0  0.12122094788E+04 -0.46179063619E+03  0.47041128427E+03  0.13798511473E+04  0.50400001928E-02 0.  1.
       -1    1    3    3    0  502 -0.12122094788E+04  0.46179063619E+03  0.46670321524E+03  0.13785914200E+04  0.50400001928E-02 0. -1.
</event>
<event>
 5   0  0.6158063E-06  0.2599006E+04  0.7818609E-02  0.8368539E-01
        2   -1    0    0  501    0  0.00000000000E+00  0.00000000000E+00  0.15388340198E+04  0.15388340198E+04  0.25500000920E-02 0.  1.
       -2   -1    0    0    0  501  0.00000000000E+00  0.00000000000E+00 -0.10973941587E+04  0.10973941587E+04  0.25500000920E-02 0. -1.
    10030    2    1    2    0    0  0.00000000000E+00  0.00000000000E+00  0.44143986104E+03  0.26362281785E+04  0.25990055518E+04 0.  0.
        2    1    3    3  502    0 -0.96429482657E+03  0.12173886401E+03  0.10956409589E+04  0.14646207613E+04  0.25500000920E-02 0.  1.
       -2    1    3    3    0  502  0.96429482657E+03 -0.12173886401E+03 -0.65420109788E+03  0.11716074172E+04  0.25500000920E-02 0. -1.
</event>
<event>
 5   0  0.2471488E-06  0.2609005E+04  0.7818609E-02  0.8365149E-01
       -1   -1    0    0    0  501  0.00000000000E+00  0.00000000000E+00  0.18630202096E+04  0.18630202096E+04  0.50400001928E-02 0. -1.
        1   -1    0    0  501    0  0.00000000000E+00  0.00000000000E+00 -0.91342343761E+03  0.91342343762E+03  0.50400001928E-02 0.  1.
    10030    2    1    2    0    0  0.00000000000E+00  0.00000000000E+00  0.94959677200E+03  0.27764436472E+04  0.26090046564E+04 0.  0.
        4    1    3    3  502    0 -0.62586742769E+03  0.94018890913E+03 -0.21982456743E+03  0.11506475026E+04  0.12699999809E+01 0.  1.
       -4    1    3    3    0  502  0.62586742769E+03 -0.94018890913E+03  0.11694213394E+04  0.16257961446E+04  0.12699999809E+01 0. -1.
</event>
<event>
 5   0  0.2471488E-06  0.2588085E+04  0.7818609E-02  0.8372260E-01
       -1   -1    0    0    0  501  0.00000000000E+00  0.00000000000E+00  0.90207588453E+03  0.90207588454E+03  0.50400001928E-02 0.  1.
        1   -1    0    0  501    0  0.00000000000E+00  0.00000000000E+00 -0.18563254468E+04  0.18563254468E+04  0.50400001928E-02 0. -1.
    10030    2    1    2    0    0  0.00000000000E+00  0.00000000000E+00 -0.95424956228E+03  0.27584013314E+04  0.25880853305E+04 0.  0.
        4    1    3    3  502    0  0.27581777054E+03 -0.99065573210E+03  0.36010811626E+03  0.10895658265E+04  0.12699999809E+01 0.  1.
       -4    1    3    3    0  502 -0.27581777054E+03  0.99065573210E+03 -0.13143576785E+04  0.16688355048E+04  0.12699999809E+01 0. -1.
</event>
<event>
 5   0  0.2440590E-06  0.2595565E+04  0.7818609E-02  0.8369709E-01
       -1   -1    0    0    0  501  0.00000000000E+00  0.00000000000E+00  0.90893927709E+03  0.90893927710E+03  0.50400001928E-02 0.  1.
        1   -1    0    0  501    0  0.00000000000E+00  0.00000000000E+00 -0.18529724122E+04  0.18529724123E+04  0.50400001928E-02 0. -1.
    10030    2    1    2    0    0  0.00000000000E+00  0.00000000000E+00 -0.94403313516E+03  0.27619116894E+04  0.25955649904E+04 0.  0.
        1    1    3    3  502    0 -0.81480453586E+03  0.26706839091E+03 -0.15086201153E+04  0.17352713360E+04  0.50400001928E-02 0. -1.
       -1    1    3    3    0  502  0.81480453586E+03 -0.26706839091E+03  0.56458698013E+03  0.10266403534E+04  0.50400001928E-02 0.  1.
</event>
<event>
 5   0  0.2503292E-06  0.2584938E+04  0.7818609E-02  0.8373335E-01
        1   -1    0    0  501    0  0.00000000000E+00  0.00000000000E+00  0.15214885616E+04  0.15214885616E+04  0.50400001928E-02 0.  1.
       -1   -1    0    0    0  501  0.00000000000E+00  0.00000000000E+00 -0.10979223503E+04  0.10979223503E+04  0.50400001928E-02 0. -1.
    10030    2    1    2    0    0  0.00000000000E+00  0.00000000000E+00  0.42356621133E+03  0.26194109119E+04  0.25849381404E+04 0.  0.
        2    1    3    3  502    0 -0.10626141283E+04 -0.42555635662E+03  0.81997831411E+03  0.14080523549E+04  0.25500000920E-02 0.  1.
       -2    1    3    3    0  502  0.10626141283E+04  0.42555635662E+03 -0.39641210278E+03  0.12113585570E+04  0.25500000920E-02 0. -1.
</event>
<event>
 5   0  0.2503292E-06  0.2594241E+04  0.7818609E-02  0.8370160E-01
       -1   -1    0    0    0  501  0.00000000000E+00  0.00000000000E+00  0.10960076329E+04  0.10960076329E+04  0.50400001928E-02 0.  1.
        1   -1    0    0  501    0  0.00000000000E+00  0.00000000000E+00 -0.15351362830E+04  0.15351362830E+04  0.50400001928E-02 0. -1.
    10030    2    1    2    0    0  0.00000000000E+00  0.00000000000E+00 -0.43912865009E+03  0.26311439159E+04  0.25942406086E+04 0.  0.
        2    1    3    3  502    0 -0.12660388301E+03  0.62247323929E+02 -0.15273318980E+04  0.15338337586E+04  0.25500000920E-02 0. -1.
       -2    1    3    3    0  502  0.12660388301E+03 -0.62247323929E+02  0.10882032479E+04  0.10973101573E+04  0.25500000920E-02 0.  1.
</event>
<event>
 5   0  0.6173140E-06  0.2595770E+04  0.7818609E-02  0.8369639E-01
       -2   -1    0    0    0  501  0.00000000000E+00  0.00000000000E+00  0.12238692412E+04  0.12238692412E+04  0.25500000920E-02 0. -1.
        2   -1    0    0  501    0  0.00000000000E+00  0.00000000000E+00 -0.13763770950E+04  0.13763770950E+04  0.25500000920E-02 0.  1.
    10030    2    1    2    0    0  0.00000000000E+00  0.00000000000E+00 -0.15250785378E+03  0.26002463362E+04  0.25957700906E+04 0.  0.
        3    1    3    3  502    0 -0.73708760166E+03 -0.55372802383E+03 -0.99138977092E+03  0.13537970841E+04  0.10100000352E+00 0.  1.
       -3    1    3    3    0  502  0.73708760166E+03  0.55372802383E+03  0.83888191714E+03  0.12464492521E+04  0.10100000352E+00 0. -1.
</event>
<event>
 5   0  0.5940748E-06  0.2594389E+04  0.7818609E-02  0.8370110E-01
        2   -1    0    0  501    0  0.00000000000E+00  0.00000000000E+00  0.16858100811E+04  0.16858100811E+04  0.25500000920E-02 0.  1.
       -2   -1    0    0    0  501  0.00000000000E+00  0.00000000000E+00 -0.99816342808E+03  0.99816342808E+03  0.25500000920E-02 0. -1.
    10030    2    1    2    0    0  0.00000000000E+00  0.00000000000E+00  0.68764665301E+03  0.26839735092E+04  0.25943893074E+04 0.  0.
        1    1    3    3  502    0 -0.12736970178E+04  0.23794093819E+03  0.28010109669E+03  0.13256608192E+04  0.50400001928E-02 0.  1.
       -1    1    3    3    0  502  0.12736970178E+04 -0.23794093819E+03  0.40754555632E+03  0.13583126900E+04  0.50400001928E-02 0. -1.
</event>
<event>
 5   0  0.6173140E-06  0.2620340E+04  0.7818609E-02  0.8361325E-01
        2   -1    0    0  501    0  0.00000000000E+00  0.00000000000E+00  0.25398044540E+04  0.25398044540E+04  0.25500000920E-02 0. -1.
       -2   -1    0    0    0  501  0.00000000000E+00  0.00000000000E+00 -0.67585710626E+03  0.67585710626E+03  0.25500000920E-02 0.  1.
    10030    2    1    2    0    0  0.00000000000E+00  0.00000000000E+00  0.18639473478E+04  0.32156615603E+04  0.26203395877E+04 0.  0.
        3    1    3    3  502    0  0.37101307219E+02  0.54855419246E+03 -0.52743483410E+03  0.76188957434E+03  0.10100000352E+00 0.  1.
       -3    1    3    3    0  502 -0.37101307219E+02 -0.54855419246E+03  0.23913821819E+04  0.24537719860E+04  0.10100000352E+00 0. -1.
</event>
<event>
 5   0  0.2440590E-06  0.2679050E+04  0.7818609E-02  0.8341835E-01
        1   -1    0    0  501    0  0.00000000000E+00  0.00000000000E+00  0.15127275668E+04  0.15127275668E+04  0.50400001928E-02 0. -1.
       -1   -1    0    0    0  501  0.00000000000E+00  0.00000000000E+00 -0.11861539676E+04  0.11861539676E+04  0.50400001928E-02 0.  1.
    10030    2    1    2    0    0  0.00000000000E+00  0.00000000000E+00  0.32657359915E+03  0.26988815344E+04  0.26790504328E+04 0.  0.
        1    1    3    3  502    0 -0.79605618188E+03 -0.99508986576E+03  0.57916037568E+03  0.13997628465E+04  0.50400001928E-02 0. -1.
       -1    1    3    3    0  502  0.79605618188E+03  0.99508986576E+03 -0.25258677653E+03  0.12991186879E+04  0.50400001928E-02 0.  1.
</event>
<event>
 5   0  0.6158063E-06  0.2600992E+04  0.7818609E-02  0.8367864E-01
        2   -1    0    0  501    0  0.00000000000E+00  0.00000000000E+00  0.19424563932E+04  0.19424563932E+04  0.25500000920E-02 0. -1.
       -2   -1    0    0    0  501  0.00000000000E+00  0.00000000000E+00 -0.87069615644E+03  0.87069615644E+03  0.25500000920E-02 0.  1.
    10030    2    1    2    0    0  0.00000000000E+00  0.00000000000E+00  0.10717602367E+04  0.28131525496E+04  0.26009915921E+04 0.  0.
        2    1    3    3  502    0  0.73124978743E+03 -0.49343605328E+03  0.15693782211E+04  0.18003203579E+04  0.25500000920E-02 0. -1.
       -2    1    3    3    0  502 -0.73124978743E+03  0.49343605328E+03 -0.49761798432E+03  0.10128321917E+04  0.25500000920E-02 0.  1.
</event>
<event>
 5   0  0.6158063E-06  0.2597203E+04  0.7818609E-02  0.8369152E-01
       -2   -1    0    0    0  501  0.00000000000E+00  0.00000000000E+00  0.74056853186E+03  0.74056853186E+03  0.25500000920E-02 0.  1.
        2   -1    0    0  501    0  0.00000000000E+00  0.00000000000E+00 -0.22771226055E+04  0.22771226055E+04  0.25500000920E-02 0. -1.
    10030    2    1    2    0    0  0.00000000000E+00  0.00000000000E+00 -0.15365540736E+04  0.30176911373E+04  0.25972026065E+04 0.  0.
        2    1    3    3  502    0 -0.10074441156E+04 -0.50029276218E+03 -0.14268166578E+02  0.11249178079E+04  0.25500000920E-02 0.  1.
       -2    1    3    3    0  502  0.10074441156E+04  0.50029276218E+03 -0.15222859070E+04  0.18927733295E+04  0.25500000920E-02 0. -1.
</event>
<event>
 5   0  0.2440590E-06  0.2606222E+04  0.7818609E-02  0.8366091E-01
        1   -1    0    0  501    0  0.00000000000E+00  0.00000000000E+00  0.97913968709E+03  0.97913968710E+03  0.50400001928E-02 0. -1.
       -1   -1    0    0    0  501  0.00000000000E+00  0.00000000000E+00 -0.17342763600E+04  0.17342763600E+04  0.50400001928E-02 0.  1.
    10030    2    1    2    0    0  0.00000000000E+00  0.00000000000E+00 -0.75513667295E+03  0.27134160471E+04  0.26062224099E+04 0.  0.
        1    1    3    3  502    0  0.77748985902E+03  0.20561300549E+03 -0.14450852836E+04  0.16537952309E+04  0.50400001928E-02 0.  1.
       -1    1    3    3    0  502 -0.77748985902E+03 -0.20561300549E+03  0.68994861062E+03  0.10596208163E+04  0.50400001928E-02 0. -1.
</event>
<event>
 5   0  0.2471488E-06  0.2603210E+04  0.7818609E-02  0.8367112E-01
        1   -1    0    0  501    0  0.00000000000E+00  0.00000000000E+00  0.95160331379E+03  0.95160331381E+03  0.50400001928E-02 0.  1.
       -1   -1    0    0    0  501  0.00000000000E+00  0.00000000000E+00 -0.17803378931E+04  0.17803378931E+04  0.50400001928E-02 0. -1.
    10030    2    1    2    0    0  0.00000000000E+00  0.00000000000E+00 -0.82873457927E+03  0.27319412069E+04  0.26032098945E+04 0.  0.
        4    1    3    3  502    0 -0.53962357336E+03 -0.73620809400E+03 -0.13881412484E+04  0.16613650102E+04  0.12699999809E+01 0. -1.
       -4    1    3    3    0  502  0.53962357336E+03  0.73620809400E+03  0.55940666913E+03  0.10705761967E+04  0.12699999809E+01 0.  1.
</event>
<event>
 5   0  0.2456600E-06  0.2602049E+04  0.7818609E-02  0.8367506E-01
        1   -1    0    0  501    0  0.00000000000E+00  0.00000000000E+00  0.18984211530E+04  0.18984211531E+04  0.50400001928E-02 0. -1.
       -1   -1    0    0    0  501  0.00000000000E+00  0.00000000000E+00 -0.89161679417E+03  0.89161679418E+03  0.50400001928E-02 0.  1.
    10030    2    1    2    0    0  0.00000000000E+00  0.00000000000E+00  0.10068043589E+04  0.27900379472E+04  0.26020485641E+04 0.  0.
        5    1    3    3  502    0  0.21862758789E+03 -0.10953034388E+04 -0.21199968973E+03  0.11368612948E+04  0.46999998093E+01 0.  1.
       -5    1    3    3    0  502 -0.21862758789E+03  0.10953034388E+04  0.12188040486E+04  0.16531766524E+04  0.46999998093E+01 0. -1.
</event>
<event>
 5   0  0.5942229E-06  0.2598151E+04  0.7818609E-02  0.8368829E-01
        2   -1    0    0  501    0  0.00000000000E+00  0.00000000000E+00  0.22037768189E+04  0.22037768189E+04  0.25500000920E-02 0. -1.
       -2   -1    0    0    0  501  0.00000000000E+00  0.00000000000E+00 -0.76577513518E+03  0.76577513519E+03  0.25500000920E-02 0.  1.
    10030    2    1    2    0    0  0.00000000000E+00  0.00000000000E+00  0.14380016837E+04  0.29695519541E+04  0.25981512592E+04 0.  0.
        4    1    3    3  502    0 -0.95196606443E+03 -0.40573971920E+03  0.16165839224E+04  0.19194294201E+04  0.12699999809E+01 0. -1.
       -4    1    3    3    0  502  0.95196606443E+03  0.40573971920E+03 -0.17858223868E+03  0.10501225340E+04  0.12699999809E+01 0.  1.
</event>
<event>
 5   0  0.2456600E-06  0.2605842E+04  0.7818609E-02  0.8366220E-01
       -1   -1    0    0    0  501  0.00000000000E+00  0.00000000000E+00  0.12480960837E+04  0.12480960837E+04  0.50400001928E-02 0. -1.
        1   -1    0    0  501    0  0.00000000000E+00  0.00000000000E+00 -0.13601539902E+04  0.13601539902E+04  0.50400001928E-02 0.  1.
    10030    2    1    2    0    0  0.00000000000E+00  0.00000000000E+00 -0.11205790649E+03  0.26082500739E+04  0.26058417975E+04 0.  0.
        5    1    3    3  502    0 -0.55200159570E+03  0.11469316806E+04  0.22247761527E+03  0.12921595957E+04  0.46999998093E+01 0. -1.
       -5    1    3    3    0  502  0.55200159570E+03 -0.11469316806E+04 -0.33453552177E+03  0.13160904782E+04  0.46999998093E+01 0.  1.
</event>
<event>
 5   0  0.5940748E-06  0.2594488E+04  0.7818609E-02  0.8370076E-01
        2   -1    0    0  501    0  0.00000000000E+00  0.00000000000E+00  0.14193197284E+04  0.14193197284E+04  0.25500000920E-02 0.  1.
       -2   -1    0    0    0  501  0.00000000000E+00  0.00000000000E+00 -0.11856678714E+04  0.11856678714E+04  0.25500000920E-02 0. -1.
    10030    2    1    2    0    0  0.00000000000E+00  0.00000000000E+00  0.23365185707E+03  0.26049875998E+04  0.25944878502E+04 0.  0.
        1    1    3    3  502    0 -0.51425803538E+03  0.72567035405E+03 -0.83133840875E+03  0.12174491117E+04  0.50400001928E-02 0. -1.
       -1    1    3    3    0  502  0.51425803538E+03 -0.72567035405E+03  0.10649902658E+04  0.13875384881E+04  0.50400001928E-02 0.  1.
</event>
<event>
 5   0  0.2456600E-06  0.2597870E+04  0.7818609E-02  0.8368925E-01
        1   -1    0    0  501    0  0.00000000000E+00  0.00000000000E+00  0.23299449784E+04  0.23299449784E+04  0.50400001928E-02 0.  1.
       -1   -1    0    0    0  501  0.00000000000E+00  0.00000000000E+00 -0.72415109255E+03  0.72415109256E+03  0.50400001928E-02 0. -1.
    10030    2    1    2    0    0  0.00000000000E+00  0.00000000000E+00  0.16057938858E+04  0.30540960709E+04  0.25978700519E+04 0.  0.
        5    1    3    3  502    0 -0.38168469839E+03 -0.29882379463E+03 -0.61382023131E+03  0.78216125933E+03  0.46999998093E+01 0. -1.
       -5    1    3    3    0  502  0.38168469839E+03  0.29882379463E+03  0.22196141171E+04  0.22719348116E+04  0.46999998093E+01 0.  1.
</event>
<event>
 5   0  0.2333979E-06  0.2602735E+04  0.7818609E-02  0.8367273E-01
       -1   -1    0    0    0  501  0.00000000000E+00  0.00000000000E+00  0.81191528302E+03  0.81191528303E+03  0.50400001928E-02 0.  1.
        1   -1    0    0  501    0  0.00000000000E+00  0.00000000000E+00 -0.20858794363E+04  0.20858794363E+04  0.50400001928E-02 0. -1.
    10030    2    1    2    0    0  0.00000000000E+00  0.00000000000E+00 -0.12739641533E+04  0.28977947193E+04  0.26027350176E+04 0.  0.
        3    1    3    3  502    0  0.48829600625E+03 -0.10244028552E+03 -0.19751666945E+04  0.20372065392E+04  0.10100000352E+00 0. -1.
       -3    1    3    3    0  502 -0.48829600625E+03  0.10244028552E+03  0.70120254125E+03  0.86058818018E+03  0.10100000352E+00 0.  1.
</event>
<event>
 5   0  0.2333979E-06  0.2608054E+04  0.7818609E-02  0.8365471E-01
       -1   -1    0    0    0  501  0.00000000000E+00  0.00000000000E+00  0.13862221147E+04  0.13862221147E+04  0.50400001928E-02 0. -1.
        1   -1    0    0  501    0  0.00000000000E+00  0.00000000000E+00 -0.12267057171E+04  0.12267057171E+04  0.50400001928E-02 0.  1.
    10030    2    1    2    0    0  0.00000000000E+00  0.00000000000E+00  0.15951639762E+03  0.26129278318E+04  0.26080541354E+04 0.  0.
        3    1    3    3  502    0 -0.28438086996E+03 -0.83928276500E+03 -0.87870009243E+03  0.12479510814E+04  0.10100000352E+00 0.  1.
       -3    1    3    3    0  502  0.28438086996E+03  0.83928276500E+03  0.10382164900E+04  0.13649767504E+04  0.10100000352E+00 0. -1.
</event>
<event>
 5   0  0.2456600E-06  0.2602539E+04  0.7818609E-02  0.8367339E-01
       -1   -1    0    0    0  501  0.00000000000E+00  0.00000000000E+00  0.12249590030E+04  0.12249590030E+04  0.50400001928E-02 0.  1.
        1   -1    0    0  501    0  0.00000000000E+00  0.00000000000E+00 -0.13823339633E+04  0.13823339633E+04  0.50400001928E-02 0. -1.
    10030    2    1    2    0    0  0.00000000000E+00  0.00000000000E+00 -0.15737496029E+03  0.26072929663E+04  0.26025390936E+04 0.  0.
        5    1    3    3  502    0  0.41913833104E+03  0.28148605022E+03  0.11228234594E+04  0.12311238557E+04  0.46999998093E+01 0.  1.
       -5    1    3    3    0  502 -0.41913833104E+03 -0.28148605022E+03 -0.12801984197E+04  0.13761691106E+04  0.46999998093E+01 0. -1.
</event>
<event>
 5   0  0.5942229E-06  0.2604807E+04  0.7818609E-02  0.8366570E-01
        2   -1    0    0  501    0  0.00000000000E+00  0.00000000000E+00  0.13596331886E+04  0.13596331886E+04  0.25500000920E-02 0. -1.
       -2   -1    0    0    0  501  0.00000000000E+00  0.00000000000E+00 -0.12475826565E+04  0.12475826566E+04  0.25500000920E-02 0.  1.
    10030    2    1    2    0    0  0.00000000000E+00  0.00000000000E+00  0.11205053201E+03  0.26072158451E+04  0.26048069298E+04 0.  0.
        4    1    3    3  502    0 -0.75802914673E+03 -0.17463703908E+03 -0.98952052436E+03  0.12586734142E+04  0.12699999809E+01 0.  1.
       -4    1    3    3    0  502  0.75802914673E+03  0.17463703908E+03  0.11015710564E+04  0.13485424309E+04  0.12699999809E+01 0. -1.
</event>
<event>
 5   0  0.6173140E-06  0.2601753E+04  0.7818609E-02  0.8367606E-01
        2   -1    0    0  501    0  0.00000000000E+00  0.00000000000E+00  0.15025649052E+04  0.15025649052E+04  0.25500000920E-02 0. -1.
       -2   -1    0    0    0  501  0.00000000000E+00  0.00000000000E+00 -0.11262604936E+04  0.11262604936E+04  0.25500000920E-02 0.  1.
    10030    2    1    2    0    0  0.00000000000E+00  0.00000000000E+00  0.37630441163E+03  0.26288253988E+04  0.26017528644E+04 0.  0.
        3    1    3    3  502    0 -0.11910613279E+04 -0.10577150990E+03 -0.32949183615E+03  0.12403143067E+04  0.10100000352E+00 0.  1.
       -3    1    3    3    0  502  0.11910613279E+04  0.10577150990E+03  0.70579624778E+03  0.13885110921E+04  0.10100000352E+00 0. -1.
</event>
<event>
 5   0  0.6158063E-06  0.2592565E+04  0.7818609E-02  0.8370731E-01
       -2   -1    0    0    0  501  0.00000000000E+00  0.00000000000E+00  0.76049101046E+03  0.76049101047E+03  0.25500000920E-02 0.  1.
        2   -1    0    0  501    0  0.00000000000E+00  0.00000000000E+00 -0.22095570962E+04  0.22095570962E+04  0.25500000920E-02 0. -1.
    10030    2    1    2    0    0  0.00000000000E+00  0.00000000000E+00 -0.14490660857E+04  0.29700481067E+04  0.25925649915E+04 0.  0.
        2    1    3    3  502    0  0.41980303299E+03 -0.28388587227E+03 -0.20913677707E+04  0.21518933355E+04  0.25500000920E-02 0. -1.
       -2    1    3    3    0  502 -0.41980303299E+03  0.28388587227E+03  0.64230168500E+03  0.81815477115E+03  0.25500000920E-02 0.  1.
</event>
<event>
 5   0  0.5940748E-06  0.2608003E+04  0.7818609E-02  0.8365488E-01
       -2   -1    0    0    0  501  0.00000000000E+00  0.00000000000E+00  0.69066478438E+03  0.69066478439E+03  0.25500000920E-02 0.  1.
        2   -1    0    0  501    0  0.00000000000E+00  0.00000000000E+00 -0.24620053183E+04  0.24620053183E+04  0.25500000920E-02 0. -1.
    10030    2    1    2    0    0  0.00000000000E+00  0.00000000000E+00 -0.17713405339E+04  0.31526701027E+04  0.26080033530E+04 0.  0.
        1    1    3    3  502    0  0.64539354335E+03  0.73619920370E+03  0.15554988440E+03  0.99132126977E+03  0.50400001928E-02 0.  1.
       -1    1    3    3    0  502 -0.64539354335E+03 -0.73619920370E+03 -0.19268904183E+04  0.21613488329E+04  0.50400001928E-02 0. -1.
</event>
<event>
 5   0  0.6161834E-06  0.2599130E+04  0.7818609E-02  0.8368497E-01
       -2   -1    0    0    0  501  0.00000000000E+00  0.00000000000E+00  0.10616966867E+04  0.10616966867E+04  0.25500000920E-02 0. -1.
        2   -1    0    0  501    0  0.00000000000E+00  0.00000000000E+00 -0.15907262105E+04  0.15907262105E+04  0.25500000920E-02 0.  1.
    10030    2    1    2    0    0  0.00000000000E+00  0.00000000000E+00 -0.52902952383E+03  0.26524228972E+04  0.25991296598E+04 0.  0.
        5    1    3    3  502    0 -0.10051759543E+04  0.81681788969E+03 -0.37288295993E+03  0.13478256400E+04  0.46999998093E+01 0.  1.
       -5    1    3    3    0  502  0.10051759543E+04 -0.81681788969E+03 -0.15614656390E+03  0.13045972572E+04  0.46999998093E+01 0. -1.
</event>
<event>
 5   0  0.6173140E-06  0.2598894E+04  0.7818609E-02  0.8368577E-01
        2   -1    0    0  501    0  0.00000000000E+00  0.00000000000E+00  0.15010964283E+04  0.15010964283E+04  0.25500000920E-02 0. -1.
       -2   -1    0    0    0  501  0.00000000000E+00  0.00000000000E+00 -0.11248860868E+04  0.11248860869E+04  0.25500000920E-02 0.  1.
    10030    2    1    2    0    0  0.00000000000E+00  0.00000000000E+00  0.37621034149E+03  0.26259825152E+04  0.25988939857E+04 0.  0.
        3    1    3    3  502    0 -0.88635297515E+03  0.59884952270E+03  0.93357567346E+03  0.14197907929E+04  0.10100000352E+00 0. -1.
       -3    1    3    3    0  502  0.88635297515E+03 -0.59884952270E+03 -0.55736533196E+03  0.12061917223E+04  0.10100000352E+00 0.  1.
</event>
<event>
 5   0  0.2440590E-06  0.2423226E+04  0.7818609E-02  0.8430859E-01
       -1   -1    0    0    0  501  0.00000000000E+00  0.00000000000E+00  0.62332148053E+03  0.62332148055E+03  0.50400001928E-02 0.  1.
        1   -1    0    0  501    0  0.00000000000E+00  0.00000000000E+00 -0.23551347002E+04  0.23551347003E+04  0.50400001928E-02 0. -1.
    10030    2    1    2    0    0  0.00000000000E+00  0.00000000000E+00 -0.17318132197E+04  0.29784561808E+04  0.24232259888E+04 0.  0.
        1    1    3    3  502    0  0.10183880385E+02 -0.11881285687E+04 -0.57438582317E+03  0.13197243201E+04  0.50400001928E-02 0. -1.
       -1    1    3    3    0  502 -0.10183880385E+02  0.11881285687E+04 -0.11574273966E+04  0.16587318607E+04  0.50400001928E-02 0.  1.
</event>
<event>
 5   0  0.2333979E-06  0.2603297E+04  0.7818609E-02  0.8367082E-01
       -1   -1    0    0    0  501  0.00000000000E+00  0.00000000000E+00  0.90081386339E+03  0.90081386340E+03  0.50400001928E-02 0. -1.
        1   -1    0    0  501    0  0.00000000000E+00  0.00000000000E+00 -0.18808428281E+04  0.18808428281E+04  0.50400001928E-02 0.  1.
    10030    2    1    2    0    0  0.00000000000E+00  0.00000000000E+00 -0.98002896468E+03  0.27816566915E+04  0.26032973663E+04 0.  0.
        3    1    3    3  502    0  0.12969925484E+04 -0.15590900717E+02 -0.37366654481E+03  0.13498368211E+04  0.10100000352E+00 0.  1.
       -3    1    3    3    0  502 -0.12969925484E+04  0.15590900717E+02 -0.60636241987E+03  0.14318198704E+04  0.10100000352E+00 0. -1.
</event>
<event>
 5   0  0.2456600E-06  0.2600884E+04  0.7818609E-02  0.8367901E-01
       -1   -1    0    0    0  501  0.00000000000E+00  0.00000000000E+00  0.91920971069E+03  0.91920971070E+03  0.50400001928E-02 0.  1.
        1   -1    0    0  501    0  0.00000000000E+00  0.00000000000E+00 -0.18397863275E+04  0.18397863275E+04  0.50400001928E-02 0. -1.
    10030    2    1    2    0    0  0.00000000000E+00  0.00000000000E+00 -0.92057661684E+03  0.27589960382E+04  0.26008840481E+04 0.  0.
        5    1    3    3  502    0 -0.21932313535E+02 -0.85636751130E+03  0.57759806858E+03  0.10331930892E+04  0.46999998093E+01 0. -1.
       -5    1    3    3    0  502  0.21932313535E+02  0.85636751130E+03 -0.14981746854E+04  0.17258029490E+04  0.46999998093E+01 0.  1.
</event>
<event>
 5   0  0.2333979E-06  0.2629513E+04  0.7818609E-02  0.8358245E-01
        1   -1    0    0  501    0  0.00000000000E+00  0.00000000000E+00  0.20643644617E+04  0.20643644617E+04  0.50400001928E-02 0. -1.
       -1   -1    0    0    0  501  0.00000000000E+00  0.00000000000E+00 -0.83734497743E+03  0.83734497745E+03  0.50400001928E-02 0.  1.
    10030    2    1    2    0    0  0.00000000000E+00  0.00000000000E+00  0.12270194842E+04  0.29017094391E+04  0.26295134254E+04 0.  0.
        3    1    3    3  502    0 -0.11430440653E+04 -0.61176149601E+03  0.85473166913E+03  0.15528580423E+04  0.10100000352E+00 0. -1.
       -3    1    3    3    0  502  0.11430440653E+04  0.61176149601E+03  0.37228781511E+03  0.13488513968E+04  0.10100000352E+00 0.  1.
</event>
<event>
 5   0  0.6158063E-06  0.2600198E+04  0.7818609E-02  0.8368134E-01
        2   -1    0    0  501    0  0.00000000000E+00  0.00000000000E+00  0.18104115027E+04  0.18104115027E+04  0.25500000920E-02 0. -1.
       -2   -1    0    0    0  501  0.00000000000E+00  0.00000000000E+00 -0.93363178868E+03  0.93363178868E+03  0.25500000920E-02 0.  1.
    10030    2    1    2    0    0  0.00000000000E+00  0.00000000000E+00  0.87677971404E+03  0.27440432914E+04  0.26001982459E+04 0.  0.
        2    1    3    3  502    0  0.16082442362E+03 -0.23730615524E+02 -0.92286356684E+03  0.93707246270E+03  0.25500000920E-02 0.  1.
       -2    1    3    3    0  502 -0.16082442362E+03  0.23730615524E+02  0.17996432809E+04  0.18069708287E+04  0.25500000920E-02 0. -1.
</event>
<event>
 5   0  0.6173140E-06  0.2587647E+04  0.7818609E-02  0.8372409E-01
        2   -1    0    0  501    0  0.00000000000E+00  0.00000000000E+00  0.19390443950E+04  0.19390443950E+04  0.25500000920E-02 0. -1.
       -2   -1    0    0    0  501  0.00000000000E+00  0.00000000000E+00 -0.86330090603E+03  0.86330090603E+03  0.25500000920E-02 0.  1.
    10030    2    1    2    0    0  0.00000000000E+00  0.00000000000E+00  0.10757434889E+04  0.28023453010E+04  0.25876466397E+04 0.  0.
        3    1    3    3  502    0 -0.86941543047E+03 -0.60158854798E+03 -0.26978535748E+03  0.10911352442E+04  0.10100000352E+00 0.  1.
       -3    1    3    3    0  502  0.86941543047E+03  0.60158854798E+03  0.13455288464E+04  0.17112100568E+04  0.10100000352E+00 0. -1.
</event>
<event>
 5   0  0.2333979E-06  0.2592303E+04  0.7818609E-02  0.8370820E-01
        1   -1    0    0  501    0  0.00000000000E+00  0.00000000000E+00  0.12032736261E+04  0.12032736261E+04  0.50400001928E-02 0.  1.
       -1   -1    0    0    0  501  0.00000000000E+00  0.00000000000E+00 -0.13961988381E+04  0.13961988381E+04  0.50400001928E-02 0. -1.
    10030    2    1    2    0    0  0.00000000000E+00  0.00000000000E+00 -0.19292521201E+03  0.25994724643E+04  0.25923034072E+04 0.  0.
        3    1    3    3  502    0 -0.12212652597E+03  0.10423286900E+04 -0.85925364770E+03  0.13563483430E+04  0.10100000352E+00 0. -1.
       -3    1    3    3    0  502  0.12212652597E+03 -0.10423286900E+04  0.66632843569E+03  0.12431241212E+04  0.10100000352E+00 0.  1.
</event>
<event>
 5   0  0.2503292E-06  0.2584329E+04  0.7818609E-02  0.8373544E-01
        1   -1    0    0  501    0  0.00000000000E+00  0.00000000000E+00  0.81706422825E+03  0.81706422827E+03  0.50400001928E-02 0. -1.
       -1   -1    0    0    0  501  0.00000000000E+00  0.00000000000E+00 -0.20435224192E+04  0.20435224192E+04  0.50400001928E-02 0.  1.
    10030    2    1    2    0    0  0.00000000000E+00  0.00000000000E+00 -0.12264581909E+04  0.28605866474E+04  0.25843289793E+04 0.  0.
        2    1    3    3  502    0  0.10416285202E+04 -0.65931896723E+03 -0.10419251193E+04  0.16140939963E+04  0.25500000920E-02 0.  1.
       -2    1    3    3    0  502 -0.10416285202E+04  0.65931896723E+03 -0.18453307163E+03  0.12464926511E+04  0.25500000920E-02 0. -1.
</event>
<event>
 5   0  0.6158063E-06  0.2602555E+04  0.7818609E-02  0.8367334E-01
        2   -1    0    0  501    0  0.00000000000E+00  0.00000000000E+00  0.13700072562E+04  0.13700072562E+04  0.25500000920E-02 0. -1.
       -2   -1    0    0    0  501  0.00000000000E+00  0.00000000000E+00 -0.12359961174E+04  0.12359961174E+04  0.25500000920E-02 0.  1.
    10030    2    1    2    0    0  0.00000000000E+00  0.00000000000E+00  0.13401113881E+03  0.26060033735E+04  0.26025553976E+04 0.  0.
        2    1    3    3  502    0  0.69446240003E+03  0.40037923325E+03 -0.95940958720E+03  0.12502193054E+04  0.25500000920E-02 0.  1.
       -2    1    3    3    0  502 -0.69446240003E+03 -0.40037923325E+03  0.10934207260E+04  0.13557840682E+04  0.25500000920E-02 0. -1.
</event>
<event>
 5   0  0.2471488E-06  0.2596811E+04  0.7818609E-02  0.8369285E-01
        1   -1    0    0  501    0  0.00000000000E+00  0.00000000000E+00  0.17732451405E+04  0.17732451405E+04  0.50400001928E-02 0.  1.
       -1   -1    0    0    0  501  0.00000000000E+00  0.00000000000E+00 -0.95071847438E+03  0.95071847440E+03  0.50400001928E-02 0. -1.
    10030    2    1    2    0    0  0.00000000000E+00  0.00000000000E+00  0.82252666614E+03  0.27239636149E+04  0.25968110557E+04 0.  0.
        4    1    3    3  502    0  0.22612615622E+02 -0.61447173815E+03 -0.78830883087E+03  0.99975960765E+03  0.12699999809E+01 0. -1.
       -4    1    3    3    0  502 -0.22612615622E+02  0.61447173815E+03  0.16108354970E+04  0.17242040073E+04  0.12699999809E+01 0.  1.
</event>
<event>
 5   0  0.2072125E-06  0.2603622E+04  0.7818609E-02  0.8366972E-01
       -3   -1    0    0    0  501  0.00000000000E+00  0.00000000000E+00  0.67640671170E+03  0.67640671924E+03  0.10100000352E+00 0. -1.
        3   -1    0    0  501    0  0.00000000000E+00  0.00000000000E+00 -0.25054621112E+04  0.25054621133E+04  0.10100000352E+00 0.  1.
    10030    2    1    2    0    0  0.00000000000E+00  0.00000000000E+00 -0.18290553995E+04  0.31818688325E+04  0.26036216339E+04 0.  0.
        5    1    3    3  502    0 -0.87094077989E+03  0.96499352436E+03 -0.82864166479E+03  0.15415639600E+04  0.46999998093E+01 0.  1.
       -5    1    3    3    0  502  0.87094077989E+03 -0.96499352436E+03 -0.10004137347E+04  0.16403048725E+04  0.46999998093E+01 0. -1.
</event>
<event>
 5   0  0.5940748E-06  0.2589336E+04  0.7818609E-02  0.8371832E-01
       -2   -1    0    0    0  501  0.00000000000E+00  0.00000000000E+00  0.92800840387E+03  0.92800840388E+03  0.25500000920E-02 0.  1.
        2   -1    0    0  501    0  0.00000000000E+00  0.00000000000E+00 -0.18061964596E+04  0.18061964596E+04  0.25500000920E-02 0. -1.
    10030    2    1    2    0    0  0.00000000000E+00  0.00000000000E+00 -0.87818805575E+03  0.27342048635E+04  0.25893362034E+04 0.  0.
        1    1    3    3  502    0  0.11182368801E+04  0.50145699777E+03  0.16965547930E+01  0.12255267108E+04  0.50400001928E-02 0. -1.
       -1    1    3    3    0  502 -0.11182368801E+04 -0.50145699777E+03 -0.87988461054E+03  0.15086781527E+04  0.50400001928E-02 0.  1.
</event>
<event>
 5   0  0.2471488E-06  0.2600196E+04  0.7818609E-02  0.8368135E-01
       -1   -1    0    0    0  501  0.00000000000E+00  0.00000000000E+00  0.16678928624E+04  0.16678928624E+04  0.50400001928E-02 0.  1.
        1   -1    0    0  501    0  0.00000000000E+00  0.00000000000E+00 -0.10134074514E+04  0.10134074514E+04  0.50400001928E-02 0. -1.
    10030    2    1    2    0    0  0.00000000000E+00  0.00000000000E+00  0.65448541103E+03  0.26813003139E+04  0.26001961887E+04 0.  0.
        4    1    3    3  502    0  0.10662337362E+04 -0.14578748967E+03  0.10794791372E+04  0.15242654602E+04  0.12699999809E+01 0.  1.
       -4    1    3    3    0  502 -0.10662337362E+04  0.14578748967E+03 -0.42499372622E+03  0.11570348537E+04  0.12699999809E+01 0. -1.
</event>
<event>
 5   0  0.2333979E-06  0.2603248E+04  0.7818609E-02  0.8367099E-01
       -1   -1    0    0    0  501  0.00000000000E+00  0.00000000000E+00  0.15168500017E+04  0.15168500017E+04  0.50400001928E-02 0.  1.
        1   -1    0    0  501    0  0.00000000000E+00  0.00000000000E+00 -0.11169367006E+04  0.11169367006E+04  0.50400001928E-02 0. -1.
    10030    2    1    2    0    0  0.00000000000E+00  0.00000000000E+00  0.39991330108E+03  0.26337867023E+04  0.26032483064E+04 0.  0.
        3    1    3    3  502    0  0.11995167267E+04  0.68098714226E+02  0.70657791004E+03  0.13938185555E+04  0.10100000352E+00 0.  1.
       -3    1    3    3    0  502 -0.11995167267E+04 -0.68098714226E+02 -0.30666460896E+03  0.12399681468E+04  0.10100000352E+00 0. -1.
</event>
<event>
 5   0  0.2503292E-06  0.2602994E+04  0.7818609E-02  0.8367185E-01
       -1   -1    0    0    0  501  0.00000000000E+00  0.00000000000E+00  0.21149129611E+04  0.21149129611E+04  0.50400001928E-02 0.  1.
        1   -1    0    0  501    0  0.00000000000E+00  0.00000000000E+00 -0.80092877592E+03  0.80092877593E+03  0.50400001928E-02 0. -1.
    10030    2    1    2    0    0  0.00000000000E+00  0.00000000000E+00  0.13139841851E+04  0.29158417370E+04  0.26029941599E+04 0.  0.
        2    1    3    3  502    0 -0.11276021552E+04 -0.54557982510E+03  0.10526430498E+04  0.16362155592E+04  0.25500000920E-02 0. -1.
       -2    1    3    3    0  502  0.11276021552E+04  0.54557982510E+03  0.26134113534E+03  0.12796261778E+04  0.25500000920E-02 0.  1.
</event>
<event>
 5   0  0.5940748E-06  0.2603099E+04  0.7818609E-02  0.8367149E-01
        2   -1    0    0  501    0  0.00000000000E+00  0.00000000000E+00  0.20650185147E+04  0.20650185147E+04  0.25500000920E-02 0.  1.
       -2   -1    0    0    0  501  0.00000000000E+00  0.00000000000E+00 -0.82034675982E+03  0.82034675982E+03  0.25500000920E-02 0. -1.
    10030    2    1    2    0    0  0.00000000000E+00  0.00000000000E+00  0.12446717549E+04  0.28853652745E+04  0.26030991126E+04 0.  0.
        1    1    3    3  502    0  0.19539799432E+02 -0.25030796135E+03  0.20379225346E+04  0.20533300116E+04  0.50400001928E-02 0.  1.
       -1    1    3    3    0  502 -0.19539799432E+02  0.25030796135E+03 -0.79325077972E+03  0.83203526297E+03  0.50400001928E-02 0. -1.
</event>
<event>
 5   0  0.6161834E-06  0.2585490E+04  0.7818609E-02  0.8373146E-01
        2   -1    0    0  501    0  0.00000000000E+00  0.00000000000E+00  0.13878117436E+04  0.13878117436E+04  0.25500000920E-02 0. -1.
       -2   -1    0    0    0  501  0.00000000000E+00  0.00000000000E+00 -0.12041908866E+04  0.12041908866E+04  0.25500000920E-02 0.  1.
    10030    2    1    2    0    0  0.00000000000E+00  0.00000000000E+00  0.18362085697E+03  0.25920026302E+04  0.25854904788E+04 0.  0.
        5    1    3    3  502    0  0.94889172654E+03  0.45755205505E+03  0.84297649404E+03  0.13492149018E+04  0.46999998093E+01 0. -1.
       -5    1    3    3    0  502 -0.94889172654E+03 -0.45755205505E+03 -0.65935563707E+03  0.12427877284E+04  0.46999998093E+01 0.  1.
</event>
<event>
 5   0  0.2456600E-06  0.2585439E+04  0.7818609E-02  0.8373164E-01
        1   -1    0    0  501    0  0.00000000000E+00  0.00000000000E+00  0.20888397593E+04  0.20888397593E+04  0.50400001928E-02 0. -1.
       -1   -1    0    0    0  501  0.00000000000E+00  0.00000000000E+00 -0.80002456887E+03  0.80002456889E+03  0.50400001928E-02 0.  1.
    10030    2    1    2    0    0  0.00000000000E+00  0.00000000000E+00  0.12888151904E+04  0.28888643282E+04  0.25854385530E+04 0.  0.
        5    1    3    3  502    0 -0.61399193594E+03 -0.11106482315E+04  0.36940218548E+03  0.13217434154E+04  0.46999998093E+01 0.  1.
       -5    1    3    3    0  502  0.61399193594E+03  0.11106482315E+04  0.91941300494E+03  0.15671209128E+04  0.46999998093E+01 0. -1.
</event>
<event>
 5   0  0.5942229E-06  0.2599615E+04  0.7818609E-02  0.8368332E-01
        2   -1    0    0  501    0  0.00000000000E+00  0.00000000000E+00  0.11415898938E+04  0.11415898938E+04  0.25500000920E-02 0.  1.
       -2   -1    0    0    0  501  0.00000000000E+00  0.00000000000E+00 -0.14799533200E+04  0.14799533200E+04  0.25500000920E-02 0. -1.
    10030    2    1    2    0    0  0.00000000000E+00  0.00000000000E+00 -0.33836342614E+03  0.26215432138E+04  0.25996151665E+04 0.  0.
        4    1    3    3  502    0 -0.18998706393E+03  0.31783583755E+03  0.10872747921E+04  0.11486003615E+04  0.12699999809E+01 0.  1.
       -4    1    3    3    0  502  0.18998706393E+03 -0.31783583755E+03 -0.14256382182E+04  0.14729428523E+04  0.12699999809E+01 0. -1.
</event>
<event>
 5   0  0.2440590E-06  0.2584033E+04  0.7818609E-02  0.8373645E-01
        1   -1    0    0  501    0  0.00000000000E+00  0.00000000000E+00  0.10736209688E+04  0.10736209688E+04  0.50400001928E-02 0. -1.
       -1   -1    0    0    0  501  0.00000000000E+00  0.00000000000E+00 -0.15548382848E+04  0.15548382848E+04  0.50400001928E-02 0.  1.
    10030    2    1    2    0    0  0.00000000000E+00  0.00000000000E+00 -0.48121731602E+03  0.26284592536E+04  0.25840332704E+04 0.  0.
        1    1    3    3  502    0  0.18030135596E+03 -0.41885557103E+03  0.98904136032E+03  0.10891057712E+04  0.50400001928E-02 0. -1.
       -1    1    3    3    0  502 -0.18030135596E+03  0.41885557103E+03 -0.14702586763E+04  0.15393534824E+04  0.50400001928E-02 0.  1.
</event>
<event>
 5   0  0.2456600E-06  0.2600468E+04  0.7818609E-02  0.8368042E-01
       -1   -1    0    0    0  501  0.00000000000E+00  0.00000000000E+00  0.14235344896E+04  0.14235344896E+04  0.50400001928E-02 0. -1.
        1   -1    0    0  501    0  0.00000000000E+00  0.00000000000E+00 -0.11876130379E+04  0.11876130379E+04  0.50400001928E-02 0.  1.
    10030    2    1    2    0    0  0.00000000000E+00  0.00000000000E+00  0.23592145167E+03  0.26111475275E+04  0.26004677423E+04 0.  0.
        5    1    3    3  502    0  0.10036934273E+04 -0.27271567994E+03  0.90142902895E+03  0.13763614069E+04  0.46999998093E+01 0. -1.
       -5    1    3    3    0  502 -0.10036934273E+04  0.27271567994E+03 -0.66550757728E+03  0.12347861206E+04  0.46999998093E+01 0.  1.
</event>
<event>
 5   0  0.2503292E-06  0.2596388E+04  0.7818609E-02  0.8369429E-01
        1   -1    0    0  501    0  0.00000000000E+00  0.00000000000E+00  0.20654881766E+04  0.20654881766E+04  0.50400001928E-02 0. -1.
       -1   -1    0    0    0  501  0.00000000000E+00  0.00000000000E+00 -0.81593689158E+03  0.81593689160E+03  0.50400001928E-02 0.  1.
    10030    2    1    2    0    0  0.00000000000E+00  0.00000000000E+00  0.12495512850E+04  0.28814250682E+04  0.25963882625E+04 0.  0.
        2    1    3    3  502    0 -0.10999249199E+04  0.59679355386E+03  0.10081095686E+04  0.16069481254E+04  0.25500000920E-02 0. -1.
       -2    1    3    3    0  502  0.10999249199E+04 -0.59679355386E+03  0.24144171642E+03  0.12744769428E+04  0.25500000920E-02 0.  1.
</event>
<event>
 5   0  0.2503292E-06  0.2601453E+04  0.7818609E-02  0.8367708E-01
       -1   -1    0    0    0  501  0.00000000000E+00  0.00000000000E+00  0.12585408060E+04  0.12585408061E+04  0.50400001928E-02 0.  1.
        1   -1    0    0  501    0  0.00000000000E+00  0.00000000000E+00 -0.13443263381E+04  0.13443263381E+04  0.50400001928E-02 0. -1.
    10030    2    1    2    0    0  0.00000000000E+00  0.00000000000E+00 -0.85785532010E+02  0.26028671441E+04  0.26014530963E+04 0.  0.
        2    1    3    3  502    0 -0.10140834574E+04  0.67987980154E+03 -0.49178766868E+03  0.13162282911E+04  0.25500000920E-02 0. -1.
       -2    1    3    3    0  502  0.10140834574E+04 -0.67987980154E+03  0.40600213667E+03  0.12866388530E+04  0.25500000920E-02 0.  1.
</event>
<event>
 5   0  0.2456600E-06  0.2589632E+04  0.7818609E-02  0.8371731E-01
       -1   -1    0    0    0  501  0.00000000000E+00  0.00000000000E+00  0.87204578845E+03  0.87204578846E+03  0.50400001928E-02 0.  1.
        1   -1    0    0  501    0  0.00000000000E+00  0.00000000000E+00 -0.19225465796E+04  0.19225465797E+04  0.50400001928E-02 0. -1.
    10030    2    1    2    0    0  0.00000000000E+00  0.00000000000E+00 -0.10505007912E+04  0.27945923681E+04  0.25896321344E+04 0.  0.
        5    1    3    3  502    0 -0.10988120786E+04 -0.37577252511E+03  0.92728068164E+02  0.11649950898E+04  0.46999998093E+01 0.  1.
       -5    1    3    3    0  502  0.10988120786E+04  0.37577252511E+03 -0.11432288594E+04  0.16295972783E+04  0.46999998093E+01 0. -1.
</event>
<event>
 5   0  0.2456600E-06  0.2596205E+04  0.7818609E-02  0.8369491E-01
       -1   -1    0    0    0  501  0.00000000000E+00  0.00000000000E+00  0.93447041625E+03  0.93447041626E+03  0.50400001928E-02 0.  1.
        1   -1    0    0  501    0  0.00000000000E+00  0.00000000000E+00 -0.18032358850E+04  0.18032358850E+04  0.50400001928E-02 0. -1.
    10030    2    1    2    0    0  0.00000000000E+00  0.00000000000E+00 -0.86876546876E+03  0.27377063013E+04  0.25962053756E+04 0.  0.
        5    1    3    3  502    0  0.63371913687E+03 -0.59529658762E+03 -0.14508002773E+04  0.16913963185E+04  0.46999998093E+01 0. -1.
       -5    1    3    3    0  502 -0.63371913687E+03  0.59529658762E+03  0.58203480854E+03  0.10463099828E+04  0.46999998093E+01 0.  1.
</event>
<event>
 5   0  0.2503292E-06  0.2613827E+04  0.7818609E-02  0.8363520E-01
       -1   -1    0    0    0  501  0.00000000000E+00  0.00000000000E+00  0.14779085181E+04  0.14779085181E+04  0.50400001928E-02 0. -1.
        1   -1    0    0  501    0  0.00000000000E+00  0.00000000000E+00 -0.11557023571E+04  0.11557023571E+04  0.50400001928E-02 0.  1.
    10030    2    1    2    0    0  0.00000000000E+00  0.00000000000E+00  0.32220616099E+03  0.26336108753E+04  0.26138265880E+04 0.  0.
        2    1    3    3  502    0 -0.20759939522E+03  0.12672249754E+04 -0.83770850335E+02  0.12868466119E+04  0.25500000920E-02 0. -1.
       -2    1    3    3    0  502  0.20759939522E+03 -0.12672249754E+04  0.40597701132E+03  0.13467642633E+04  0.25500000920E-02 0.  1.
</event>
<event>
 5   0  0.2503292E-06  0.2626291E+04  0.7818609E-02  0.8359325E-01
       -1   -1    0    0    0  501  0.00000000000E+00  0.00000000000E+00  0.15402659060E+04  0.15402659060E+04  0.50400001928E-02 0.  1.
        1   -1    0    0  501    0  0.00000000000E+00  0.00000000000E+00 -0.11195150974E+04  0.11195150974E+04  0.50400001928E-02 0. -1.
    10030    2    1    2    0    0  0.00000000000E+00  0.00000000000E+00  0.42075080858E+03  0.26597810035E+04  0.26262908718E+04 0.  0.
        2    1    3    3  502    0  0.80718714056E+03  0.52239617023E+03  0.11161527897E+04  0.14731754439E+04  0.25500000920E-02 0.  1.
       -2    1    3    3    0  502 -0.80718714056E+03 -0.52239617023E+03 -0.69540198115E+03  0.11866055595E+04  0.25500000920E-02 0. -1.
</event>
<event>
 5   0  0.2072125E-06  0.2605865E+04  0.7818609E-02  0.8366212E-01
       -4   -1    0    0    0  501  0.00000000000E+00  0.00000000000E+00  0.11616947322E+04  0.11616954264E+04  0.12699999809E+01 0. -1.
        4   -1    0    0  501    0  0.00000000000E+00  0.00000000000E+00 -0.14613401751E+04  0.14613407270E+04  0.12699999809E+01 0.  1.
    10030    2    1    2    0    0  0.00000000000E+00  0.00000000000E+00 -0.29964544287E+03  0.26230361534E+04  0.26058647837E+04 0.  0.
        5    1    3    3  502    0 -0.67782602922E+03 -0.68619037464E+03  0.73190910894E+03  0.12107924636E+04  0.46999998093E+01 0. -1.
       -5    1    3    3    0  502  0.67782602922E+03  0.68619037464E+03 -0.10315545518E+04  0.14122436898E+04  0.46999998093E+01 0.  1.
</event>
<event>
 5   0  0.5940748E-06  0.2602287E+04  0.7818609E-02  0.8367425E-01
       -2   -1    0    0    0  501  0.00000000000E+00  0.00000000000E+00  0.16082898490E+04  0.16082898490E+04  0.25500000920E-02 0.  1.
        2   -1    0    0  501    0  0.00000000000E+00  0.00000000000E+00 -0.10526549835E+04  0.10526549835E+04  0.25500000920E-02 0. -1.
    10030    2    1    2    0    0  0.00000000000E+00  0.00000000000E+00  0.55563486553E+03  0.26609448325E+04  0.26022869361E+04 0.  0.
        1    1    3    3  502    0 -0.11765185386E+03  0.23097091058E+03 -0.10259862974E+04  0.10582237016E+04  0.50400001928E-02 0. -1.
       -1    1    3    3    0  502  0.11765185386E+03 -0.23097091058E+03  0.15816211629E+04  0.16027211308E+04  0.50400001928E-02 0.  1.
</event>
<event>
 5   0  0.2456600E-06  0.2600267E+04  0.7818609E-02  0.8368111E-01
       -1   -1    0    0    0  501  0.00000000000E+00  0.00000000000E+00  0.10819480261E+04  0.10819480261E+04  0.50400001928E-02 0.  1.
        1   -1    0    0  501    0  0.00000000000E+00  0.00000000000E+00 -0.15623179494E+04  0.15623179494E+04  0.50400001928E-02 0. -1.
    10030    2    1    2    0    0  0.00000000000E+00  0.00000000000E+00 -0.48036992334E+03  0.26442659756E+04  0.26002667721E+04 0.  0.
        5    1    3    3  502    0 -0.21183265720E+03  0.20424105145E+03 -0.15280010279E+04  0.15560837744E+04  0.46999998093E+01 0. -1.
       -5    1    3    3    0  502  0.21183265720E+03 -0.20424105145E+03  0.10476311045E+04  0.10881822012E+04  0.46999998093E+01 0.  1.
</event>
<event>
 5   0  0.2503292E-06  0.2596389E+04  0.7818609E-02  0.8369429E-01
       -1   -1    0    0    0  501  0.00000000000E+00  0.00000000000E+00  0.12691075393E+04  0.12691075393E+04  0.50400001928E-02 0. -1.
        1   -1    0    0  501    0  0.00000000000E+00  0.00000000000E+00 -0.13279484997E+04  0.13279484997E+04  0.50400001928E-02 0.  1.
    10030    2    1    2    0    0  0.00000000000E+00  0.00000000000E+00 -0.58840960378E+02  0.25970560390E+04  0.25963893797E+04 0.  0.
        2    1    3    3  502    0 -0.52613327599E+03 -0.35601828374E+03 -0.11618526001E+04  0.13241852993E+04  0.25500000920E-02 0.  1.
       -2    1    3    3    0  502  0.52613327599E+03  0.35601828374E+03  0.11030116397E+04  0.12728707397E+04  0.25500000920E-02 0. -1.
</event>
<event>
 5   0  0.2440590E-06  0.2604239E+04  0.7818609E-02  0.8366763E-01
       -1   -1    0    0    0  501  0.00000000000E+00  0.00000000000E+00  0.16605861996E+04  0.16605861997E+04  0.50400001928E-02 0. -1.
        1   -1    0    0  501    0  0.00000000000E+00  0.00000000000E+00 -0.10210344513E+04  0.10210344514E+04  0.50400001928E-02 0.  1.
    10030    2    1    2    0    0  0.00000000000E+00  0.00000000000E+00  0.63955174830E+03  0.26816206510E+04  0.26042394047E+04 0.  0.
        1    1    3    3  502    0  0.87745096742E+03 -0.77051433864E+03  0.91300455219E+03  0.14822920963E+04  0.50400001928E-02 0. -1.
       -1    1    3    3    0  502 -0.87745096742E+03  0.77051433864E+03 -0.27345280389E+03  0.11993285548E+04  0.50400001928E-02 0.  1.
</event>
<event>
 5   0  0.6161834E-06  0.2517409E+04  0.7818609E-02  0.8396809E-01
       -2   -1    0    0    0  501  0.00000000000E+00  0.00000000000E+00  0.14589746472E+04  0.14589746472E+04  0.25500000920E-02 0.  1.
        2   -1    0    0  501    0  0.00000000000E+00  0.00000000000E+00 -0.10859253992E+04  0.10859253992E+04  0.25500000920E-02 0. -1.
    10030    2    1    2    0    0  0.00000000000E+00  0.00000000000E+00  0.37304924797E+03  0.25449000464E+04  0.25174094829E+04 0.  0.
        5    1    3    3  502    0 -0.22884732758E+03  0.70409430026E+03 -0.84252838966E+03  0.11216042352E+04  0.46999998093E+01 0. -1.
       -5    1    3    3    0  502  0.22884732758E+03 -0.70409430026E+03  0.12155776376E+04  0.14232958112E+04  0.46999998093E+01 0.  1.
</event>
<event>
 5   0  0.6161834E-06  0.2584052E+04  0.7818609E-02  0.8373638E-01
        2   -1    0    0  501    0  0.00000000000E+00  0.00000000000E+00  0.17421617894E+04  0.17421617894E+04  0.25500000920E-02 0.  1.
       -2   -1    0    0    0  501  0.00000000000E+00  0.00000000000E+00 -0.95819554875E+03  0.95819554876E+03  0.25500000920E-02 0. -1.
    10030    2    1    2    0    0  0.00000000000E+00  0.00000000000E+00  0.78396624069E+03  0.27003573382E+04  0.25840523771E+04 0.  0.
        5    1    3    3  502    0  0.90494624923E+03 -0.71645907764E+03 -0.21472366784E+03  0.11740398918E+04  0.46999998093E+01 0. -1.
       -5    1    3    3    0  502 -0.90494624923E+03  0.71645907764E+03  0.99868990853E+03  0.15263174464E+04  0.46999998093E+01 0.  1.
</event>
<event>
 5   0  0.5942229E-06  0.2594691E+04  0.7818609E-02  0.8370007E-01
       -2   -1    0    0    0  501  0.00000000000E+00  0.00000000000E+00  0.15896903493E+04  0.15896903493E+04  0.25500000920E-02 0.  1.
        2   -1    0    0  501    0  0.00000000000E+00  0.00000000000E+00 -0.10587632159E+04  0.10587632159E+04  0.25500000920E-02 0. -1.
    10030    2    1    2    0    0  0.00000000000E+00  0.00000000000E+00  0.53092713336E+03  0.26484535652E+04  0.25946912468E+04 0.  0.
        4    1    3    3  502    0  0.12623842090E+04 -0.29616455969E+03  0.30848805216E+03  0.13328517655E+04  0.12699999809E+01 0.  1.
       -4    1    3    3    0  502 -0.12623842090E+04  0.29616455969E+03  0.22243908121E+03  0.13156017997E+04  0.12699999809E+01 0. -1.
</event>
<event>
 5   0  0.2456600E-06  0.2598342E+04  0.7818609E-02  0.8368765E-01
        1   -1    0    0  501    0  0.00000000000E+00  0.00000000000E+00  0.12545826827E+04  0.12545826827E+04  0.50400001928E-02 0. -1.
       -1   -1    0    0    0  501  0.00000000000E+00  0.00000000000E+00 -0.13453440798E+04  0.13453440798E+04  0.50400001928E-02 0.  1.
    10030    2    1    2    0    0  0.00000000000E+00  0.00000000000E+00 -0.90761397124E+02  0.25999267625E+04  0.25983420751E+04 0.  0.
        5    1    3    3  502    0 -0.19428933867E+03 -0.83402666874E+03  0.93218723057E+03  0.12658372542E+04  0.46999998093E+01 0. -1.
       -5    1    3    3    0  502  0.19428933867E+03  0.83402666874E+03 -0.10229486277E+04  0.13340895083E+04  0.46999998093E+01 0.  1.
</event>
<event>
 5   0  0.6158063E-06  0.2673408E+04  0.7818609E-02  0.8343685E-01
        2   -1    0    0  501    0  0.00000000000E+00  0.00000000000E+00  0.14274820794E+04  0.14274820794E+04  0.25500000920E-02 0.  1.
       -2   -1    0    0    0  501  0.00000000000E+00  0.00000000000E+00 -0.12516983996E+04  0.12516983996E+04  0.25500000920E-02 0. -1.
    10030    2    1    2    0    0  0.00000000000E+00  0.00000000000E+00  0.17578367980E+03  0.26791804790E+04  0.26734075890E+04 0.  0.
        2    1    3    3  502    0  0.74992625500E+03 -0.49356378306E+03  0.10803749713E+04  0.14047080389E+04  0.25500000920E-02 0.  1.
       -2    1    3    3    0  502 -0.74992625500E+03  0.49356378306E+03 -0.90459129151E+03  0.12744724401E+04  0.25500000920E-02 0. -1.
</event>
<event>
 5   0  0.2503292E-06  0.2597472E+04  0.7818609E-02  0.8369060E-01
       -1   -1    0    0    0  501  0.00000000000E+00  0.00000000000E+00  0.79349722636E+03  0.79349722638E+03  0.50400001928E-02 0.  1.
        1   -1    0    0  501    0  0.00000000000E+00  0.00000000000E+00 -0.21256732640E+04  0.21256732640E+04  0.50400001928E-02 0. -1.
    10030    2    1    2    0    0  0.00000000000E+00  0.00000000000E+00 -0.13321760376E+04  0.29191704904E+04  0.25974724939E+04 0.  0.
        2    1    3    3  502    0 -0.73575797879E+03 -0.99146991679E+02 -0.18636854383E+04  0.20061139903E+04  0.25500000920E-02 0. -1.
       -2    1    3    3    0  502  0.73575797879E+03  0.99146991679E+02  0.53150940065E+03  0.91305650006E+03  0.25500000920E-02 0.  1.
</event>
<event>
 5   0  0.6158063E-06  0.2611326E+04  0.7818609E-02  0.8364364E-01
        2   -1    0    0  501    0  0.00000000000E+00  0.00000000000E+00  0.18049308778E+04  0.18049308778E+04  0.25500000920E-02 0.  1.
       -2   -1    0    0    0  501  0.00000000000E+00  0.00000000000E+00 -0.94449892776E+03  0.94449892777E+03  0.25500000920E-02 0. -1.
    10030    2    1    2    0    0  0.00000000000E+00  0.00000000000E+00  0.86043195004E+03  0.27494298056E+04  0.26113255475E+04 0.  0.
        2    1    3    3  502    0 -0.11650606018E+04 -0.52759975009E+03  0.70684193375E+03  0.14612847845E+04  0.25500000920E-02 0. -1.
       -2    1    3    3    0  502  0.11650606018E+04  0.52759975009E+03  0.15359001629E+03  0.12881450211E+04  0.25500000920E-02 0.  1.
</event>
<event>
 5   0  0.2456600E-06  0.2596834E+04  0.7818609E-02  0.8369277E-01
        1   -1    0    0  501    0  0.00000000000E+00  0.00000000000E+00  0.15780400299E+04  0.15780400299E+04  0.50400001928E-02 0.  1.
       -1   -1    0    0    0  501  0.00000000000E+00  0.00000000000E+00 -0.10683425017E+04  0.10683425017E+04  0.50400001928E-02 0. -1.
    10030    2    1    2    0    0  0.00000000000E+00  0.00000000000E+00  0.50969752818E+03  0.26463825316E+04  0.25968344063E+04 0.  0.
        5    1    3    3  502    0 -0.42026085301E+03 -0.41623984239E+03  0.14327531138E+04  0.15500575364E+04  0.46999998093E+01 0.  1.
       -5    1    3    3    0  502  0.42026085301E+03  0.41623984239E+03 -0.92305558566E+03  0.10963249952E+04  0.46999998093E+01 0. -1.
</event>
<event>
 5   0  0.5942229E-06  0.2698465E+04  0.7818609E-02  0.8335503E-01
        2   -1    0    0  501    0  0.00000000000E+00  0.00000000000E+00  0.12426501756E+04  0.12426501756E+04  0.25500000920E-02 0.  1.
       -2   -1    0    0    0  501  0.00000000000E+00  0.00000000000E+00 -0.14649567380E+04  0.14649567380E+04  0.25500000920E-02 0. -1.
    10030    2    1    2    0    0  0.00000000000E+00  0.00000000000E+00 -0.22230656232E+03  0.27076069136E+04  0.26984653029E+04 0.  0.
        4    1    3    3  502    0 -0.22800910485E+03  0.74781912459E+03  0.99221079580E+03  0.12632123619E+04  0.12699999809E+01 0.  1.
       -4    1    3    3    0  502  0.22800910485E+03 -0.74781912459E+03 -0.12145173581E+04  0.14443945517E+04  0.12699999809E+01 0. -1.
</event>
<event>
 5   0  0.2440590E-06  0.2578177E+04  0.7818609E-02  0.8375652E-01
       -1   -1    0    0    0  501  0.00000000000E+00  0.00000000000E+00  0.94092069292E+03  0.94092069293E+03  0.50400001928E-02 0.  1.
        1   -1    0    0  501    0  0.00000000000E+00  0.00000000000E+00 -0.17660882543E+04  0.17660882543E+04  0.50400001928E-02 0. -1.
    10030    2    1    2    0    0  0.00000000000E+00  0.00000000000E+00 -0.82516756140E+03  0.27070089473E+04  0.25781768629E+04 0.  0.
        1    1    3    3  502    0 -0.35512185690E+03  0.67137570055E+03  0.68104583339E+03  0.10201373887E+04  0.50400001928E-02 0.  1.
       -1    1    3    3    0  502  0.35512185690E+03 -0.67137570055E+03 -0.15062133948E+04  0.16868715586E+04  0.50400001928E-02 0. -1.
</event>
<event>
 5   0  0.2456600E-06  0.2596330E+04  0.7818609E-02  0.8369449E-01
       -1   -1    0    0    0  501  0.00000000000E+00  0.00000000000E+00  0.97819612521E+03  0.97819612523E+03  0.50400001928E-02 0. -1.
        1   -1    0    0  501    0  0.00000000000E+00  0.00000000000E+00 -0.17227954288E+04  0.17227954288E+04  0.50400001928E-02 0.  1.
    10030    2    1    2    0    0  0.00000000000E+00  0.00000000000E+00 -0.74459930356E+03  0.27009915540E+04  0.25963295731E+04 0.  0.
        5    1    3    3  502    0 -0.50862514733E+03  0.11929167438E+04 -0.43349106279E+03  0.13673647976E+04  0.46999998093E+01 0.  1.
       -5    1    3    3    0  502  0.50862514733E+03 -0.11929167438E+04 -0.31110824076E+03  0.13336267565E+04  0.46999998093E+01 0. -1.
</event>
<event>
 5   0  0.2440590E-06  0.2570740E+04  0.7818609E-02  0.8378209E-01
       -1   -1    0    0    0  501  0.00000000000E+00  0.00000000000E+00  0.18807595028E+04  0.18807595028E+04  0.50400001928E-02 0. -1.
        1   -1    0    0  501    0  0.00000000000E+00  0.00000000000E+00 -0.87846182063E+03  0.87846182064E+03  0.50400001928E-02 0.  1.
    10030    2    1    2    0    0  0.00000000000E+00  0.00000000000E+00  0.10022976822E+04  0.27592213234E+04  0.25707395177E+04 0.  0.
        1    1    3    3  502    0  0.93177359716E+03  0.20493472332E+03 -0.42338569975E+03  0.10437699593E+04  0.50400001928E-02 0.  1.
       -1    1    3    3    0  502 -0.93177359716E+03 -0.20493472332E+03  0.14256833819E+04  0.17154513641E+04  0.50400001928E-02 0. -1.
</event>
<event>
 5   0  0.6158063E-06  0.2595721E+04  0.7818609E-02  0.8369656E-01
        2   -1    0    0  501    0  0.00000000000E+00  0.00000000000E+00  0.13819804143E+04  0.13819804143E+04  0.25500000920E-02 0.  1.
       -2   -1    0    0    0  501  0.00000000000E+00  0.00000000000E+00 -0.12188609167E+04  0.12188609167E+04  0.25500000920E-02 0. -1.
    10030    2    1    2    0    0  0.00000000000E+00  0.00000000000E+00  0.16311949758E+03  0.26008413311E+04  0.25957210287E+04 0.  0.
        2    1    3    3  502    0  0.61742549163E+03  0.46569649738E+03 -0.96277953892E+03  0.12349218218E+04  0.25500000920E-02 0. -1.
       -2    1    3    3    0  502 -0.61742549163E+03 -0.46569649738E+03  0.11258990365E+04  0.13659195093E+04  0.25500000920E-02 0.  1.
</event>
<event>
 5   0  0.5940748E-06  0.2603837E+04  0.7818609E-02  0.8366899E-01
       -2   -1    0    0    0  501  0.00000000000E+00  0.00000000000E+00  0.93900289429E+03  0.93900289429E+03  0.25500000920E-02 0.  1.
        2   -1    0    0  501    0  0.00000000000E+00  0.00000000000E+00 -0.18050974939E+04  0.18050974939E+04  0.25500000920E-02 0. -1.
    10030    2    1    2    0    0  0.00000000000E+00  0.00000000000E+00 -0.86609459958E+03  0.27441003882E+04  0.26038369928E+04 0.  0.
        1    1    3    3  502    0  0.16448304266E+03  0.55410503062E+03 -0.16624666996E+04  0.17600802776E+04  0.50400001928E-02 0. -1.
       -1    1    3    3    0  502 -0.16448304266E+03 -0.55410503062E+03  0.79637210002E+03  0.98402011057E+03  0.50400001928E-02 0.  1.
</event>
<event>
 5   0  0.2456600E-06  0.2592629E+04  0.7818609E-02  0.8370709E-01
        1   -1    0    0  501    0  0.00000000000E+00  0.00000000000E+00  0.26453997628E+04  0.26453997628E+04  0.50400001928E-02 0.  1.
       -1   -1    0    0    0  501  0.00000000000E+00  0.00000000000E+00 -0.63522790158E+03  0.63522790160E+03  0.50400001928E-02 0. -1.
    10030    2    1    2    0    0  0.00000000000E+00  0.00000000000E+00  0.20101718613E+04  0.32806276644E+04  0.25926293528E+04 0.  0.
        5    1    3    3  502    0  0.73820461786E+03  0.14265259588E+03  0.23413002149E+04  0.24590657997E+04  0.46999998093E+01 0.  1.
       -5    1    3    3    0  502 -0.73820461786E+03 -0.14265259588E+03 -0.33112835368E+03  0.82156186471E+03  0.46999998093E+01 0. -1.
</event>
<event>
 5   0  0.6161834E-06  0.2589198E+04  0.7818609E-02  0.8371880E-01
       -2   -1    0    0    0  501  0.00000000000E+00  0.00000000000E+00  0.10803693877E+04  0.10803693877E+04  0.25500000920E-02 0.  1.
        2   -1    0    0  501    0  0.00000000000E+00  0.00000000000E+00 -0.15513092347E+04  0.15513092347E+04  0.25500000920E-02 0. -1.
    10030    2    1    2    0    0  0.00000000000E+00  0.00000000000E+00 -0.47093984699E+03  0.26316786224E+04  0.25891983377E+04 0.  0.
        5    1    3    3  502    0  0.54278644100E+03 -0.11086186488E+02 -0.14300072683E+04  0.15296022037E+04  0.46999998093E+01 0. -1.
       -5    1    3    3    0  502 -0.54278644100E+03  0.11086186488E+02  0.95906742131E+03  0.11020764187E+04  0.46999998093E+01 0.  1.
</event>
<event>
 5   0  0.6161834E-06  0.2602247E+04  0.7818609E-02  0.8367438E-01
       -2   -1    0    0    0  501  0.00000000000E+00  0.00000000000E+00  0.61671169709E+03  0.61671169710E+03  0.25500000920E-02 0.  1.
        2   -1    0    0  501    0  0.00000000000E+00  0.00000000000E+00 -0.27450785280E+04  0.27450785280E+04  0.25500000920E-02 0. -1.
    10030    2    1    2    0    0  0.00000000000E+00  0.00000000000E+00 -0.21283668309E+04  0.33617902251E+04  0.26022467505E+04 0.  0.
        5    1    3    3  502    0  0.11580659165E+02 -0.31489243107E+02 -0.27445086214E+04  0.27447177172E+04  0.46999998093E+01 0. -1.
       -5    1    3    3    0  502 -0.11580659165E+02  0.31489243107E+02  0.61614179047E+03  0.61707250794E+03  0.46999998093E+01 0.  1.
</event>
<event>
 5   0  0.6161834E-06  0.2606253E+04  0.7818609E-02  0.8366080E-01
       -2   -1    0    0    0  501  0.00000000000E+00  0.00000000000E+00  0.19983171077E+04  0.19983171077E+04  0.25500000920E-02 0. -1.
        2   -1    0    0  501    0  0.00000000000E+00  0.00000000000E+00 -0.84978466913E+03  0.84978466913E+03  0.25500000920E-02 0.  1.
    10030    2    1    2    0    0  0.00000000000E+00  0.00000000000E+00  0.11485324385E+04  0.28481017768E+04  0.26062534352E+04 0.  0.
        5    1    3    3  502    0 -0.35516256722E+02 -0.13014450958E+04  0.63507525431E+03  0.14485728875E+04  0.46999998093E+01 0. -1.
       -5    1    3    3    0  502  0.35516256722E+02  0.13014450958E+04  0.51345718423E+03  0.13995288893E+04  0.46999998093E+01 0.  1.
</event>
<event>
 5   0  0.2440590E-06  0.2601331E+04  0.7818609E-02  0.8367749E-01
        1   -1    0    0  501    0  0.00000000000E+00  0.00000000000E+00  0.19416090785E+04  0.19416090785E+04  0.50400001928E-02 0.  1.
       -1   -1    0    0    0  501  0.00000000000E+00  0.00000000000E+00 -0.87130372994E+03  0.87130372995E+03  0.50400001928E-02 0. -1.
    10030    2    1    2    0    0  0.00000000000E+00  0.00000000000E+00  0.10703053486E+04  0.28129128085E+04  0.26013313762E+04 0.  0.
        1    1    3    3  502    0  0.89850773800E+03  0.16978504448E+03  0.15353667526E+04  0.17870350252E+04  0.50400001928E-02 0.  1.
       -1    1    3    3    0  502 -0.89850773800E+03 -0.16978504448E+03 -0.46506140400E+03  0.10258777832E+04  0.50400001928E-02 0. -1.
</event>
<event>
 5   0  0.5942229E-06  0.2602664E+04  0.7818609E-02  0.8367297E-01
       -2   -1    0    0    0  501  0.00000000000E+00  0.00000000000E+00  0.85026139804E+03  0.85026139804E+03  0.25500000920E-02 0.  1.
        2   -1    0    0  501    0  0.00000000000E+00  0.00000000000E+00 -0.19916995492E+04  0.19916995492E+04  0.25500000920E-02 0. -1.
    10030    2    1    2    0    0  0.00000000000E+00  0.00000000000E+00 -0.11414381512E+04  0.28419609472E+04  0.26026642067E+04 0.  0.
        4    1    3    3  502    0  0.60410153661E+02  0.81440388219E+03  0.53563019489E+03  0.97662909467E+03  0.12699999809E+01 0.  1.
       -4    1    3    3    0  502 -0.60410153661E+02 -0.81440388219E+03 -0.16770683461E+04  0.18653318526E+04  0.12699999809E+01 0. -1.
</event>
<event>
 5   0  0.2440590E-06  0.2615439E+04  0.7818609E-02  0.8362976E-01
        1   -1    0    0  501    0  0.00000000000E+00  0.00000000000E+00  0.12452893605E+04  0.12452893605E+04  0.50400001928E-02 0. -1.
       -1   -1    0    0    0  501  0.00000000000E+00  0.00000000000E+00 -0.13732791202E+04  0.13732791202E+04  0.50400001928E-02 0.  1.
    10030    2    1    2    0    0  0.00000000000E+00  0.00000000000E+00 -0.12798975967E+03  0.26185684807E+04  0.26154386839E+04 0.  0.
        1    1    3    3  502    0  0.34763399411E+03 -0.82233003997E+03  0.89268705807E+03  0.12625237709E+04  0.50400001928E-02 0. -1.
       -1    1    3    3    0  502 -0.34763399411E+03  0.82233003997E+03 -0.10206768177E+04  0.13560447097E+04  0.50400001928E-02 0.  1.
</event>
<event>
 5   0  0.2333979E-06  0.2598661E+04  0.7818609E-02  0.8368656E-01
       -1   -1    0    0    0  501  0.00000000000E+00  0.00000000000E+00  0.71958255211E+03  0.71958255213E+03  0.50400001928E-02 0.  1.
        1   -1    0    0  501    0  0.00000000000E+00  0.00000000000E+00 -0.23461647459E+04  0.23461647459E+04  0.50400001928E-02 0. -1.
    10030    2    1    2    0    0  0.00000000000E+00  0.00000000000E+00 -0.16265821938E+04  0.30657472980E+04  0.25986605900E+04 0.  0.
        3    1    3    3  502    0  0.60954821338E+03 -0.94786142816E+03 -0.50308595153E+02  0.11280608478E+04  0.10100000352E+00 0.  1.
       -3    1    3    3    0  502 -0.60954821338E+03  0.94786142816E+03 -0.15762735986E+04  0.19376864502E+04  0.10100000352E+00 0. -1.
</event>
<event>
 5   0  0.2503292E-06  0.2562155E+04  0.7818609E-02  0.8381171E-01
       -1   -1    0    0    0  501  0.00000000000E+00  0.00000000000E+00  0.67412236770E+03  0.67412236772E+03  0.50400001928E-02 0.  1.
        1   -1    0    0  501    0  0.00000000000E+00  0.00000000000E+00 -0.24345124342E+04  0.24345124343E+04  0.50400001928E-02 0. -1.
    10030    2    1    2    0    0  0.00000000000E+00  0.00000000000E+00 -0.17603900665E+04  0.31086348020E+04  0.25621547856E+04 0.  0.
        2    1    3    3  502    0 -0.88671330017E+03  0.50546093546E+03  0.59151048735E+02  0.10223747261E+04  0.25500000920E-02 0.  1.
       -2    1    3    3    0  502  0.88671330017E+03 -0.50546093546E+03 -0.18195411153E+04  0.20862600759E+04  0.25500000920E-02 0. -1.
</event>
<event>
 5   0  0.5942229E-06  0.2639209E+04  0.7818609E-02  0.8355004E-01
        2   -1    0    0  501    0  0.00000000000E+00  0.00000000000E+00  0.24190156427E+04  0.24190156427E+04  0.25500000920E-02 0. -1.
       -2   -1    0    0    0  501  0.00000000000E+00  0.00000000000E+00 -0.71986123809E+03  0.71986123810E+03  0.25500000920E-02 0.  1.
    10030    2    1    2    0    0  0.00000000000E+00  0.00000000000E+00  0.16991544046E+04  0.31388768808E+04  0.26392086659E+04 0.  0.
        4    1    3    3  502    0  0.47808100458E+03 -0.20669964219E+03  0.22915903971E+04  0.23500370954E+04  0.12699999809E+01 0. -1.
       -4    1    3    3    0  502 -0.47808100458E+03  0.20669964219E+03 -0.59243599242E+03  0.78883978541E+03  0.12699999809E+01 0.  1.
</event>
<event>
 5   0  0.2471488E-06  0.2594015E+04  0.7818609E-02  0.8370237E-01
       -1   -1    0    0    0  501  0.00000000000E+00  0.00000000000E+00  0.80147941711E+03  0.80147941713E+03  0.50400001928E-02 0. -1.
        1   -1    0    0  501    0  0.00000000000E+00  0.00000000000E+00 -0.20989042780E+04  0.20989042780E+04  0.50400001928E-02 0.  1.
    10030    2    1    2    0    0  0.00000000000E+00  0.00000000000E+00 -0.12974248609E+04  0.29003836951E+04  0.25940150943E+04 0.  0.
        4    1    3    3  502    0 -0.95110708058E+03 -0.41224970970E+03 -0.15203134593E+04  0.18400840006E+04  0.12699999809E+01 0.  1.
       -4    1    3    3    0  502  0.95110708058E+03  0.41224970970E+03  0.22288859847E+03  0.10602996945E+04  0.12699999809E+01 0. -1.
</event>
<event>
 5   0  0.2333979E-06  0.2545096E+04  0.7818609E-02  0.8387094E-01
       -1   -1    0    0    0  501  0.00000000000E+00  0.00000000000E+00  0.49642629698E+03  0.49642629701E+03  0.50400001928E-02 0. -1.
        1   -1    0    0  501    0  0.00000000000E+00  0.00000000000E+00 -0.32620718807E+04  0.32620718807E+04  0.50400001928E-02 0.  1.
    10030    2    1    2    0    0  0.00000000000E+00  0.00000000000E+00 -0.27656455837E+04  0.37584981777E+04  0.25450958837E+04 0.  0.
        3    1    3    3  502    0  0.69142797206E+03 -0.74963679400E+02  0.19094025328E+03  0.72121452031E+03  0.10100000352E+00 0. -1.
       -3    1    3    3    0  502 -0.69142797206E+03  0.74963679400E+02 -0.29565858370E+04  0.30372836574E+04  0.10100000352E+00 0.  1.
</event>
<event>
 5   0  0.5940748E-06  0.2597657E+04  0.7818609E-02  0.8368997E-01
        2   -1    0    0  501    0  0.00000000000E+00  0.00000000000E+00  0.19824187455E+04  0.19824187455E+04  0.25500000920E-02 0. -1.
       -2   -1    0    0    0  501  0.00000000000E+00  0.00000000000E+00 -0.85095846257E+03  0.85095846257E+03  0.25500000920E-02 0.  1.
    10030    2    1    2    0    0  0.00000000000E+00  0.00000000000E+00  0.11314602829E+04  0.28333772081E+04  0.25976574122E+04 0.  0.
        1    1    3    3  502    0  0.52366902246E+03 -0.11740827764E+04  0.36385011038E+03  0.13360712981E+04  0.50400001928E-02 0. -1.
       -1    1    3    3    0  502 -0.52366902246E+03  0.11740827764E+04  0.76761017255E+03  0.14973059099E+04  0.50400001928E-02 0.  1.
</event>
<event>
 5   0  0.6161834E-06  0.2600462E+04  0.7818609E-02  0.8368044E-01
        2   -1    0    0  501    0  0.00000000000E+00  0.00000000000E+00  0.16743898746E+04  0.16743898746E+04  0.25500000920E-02 0.  1.
       -2   -1    0    0    0  501  0.00000000000E+00  0.00000000000E+00 -0.10096819328E+04  0.10096819328E+04  0.25500000920E-02 0. -1.
    10030    2    1    2    0    0  0.00000000000E+00  0.00000000000E+00  0.66470794174E+03  0.26840718074E+04  0.26004624242E+04 0.  0.
        5    1    3    3  502    0  0.54266123388E+03 -0.89169317494E+03  0.11325087148E+04  0.15401934982E+04  0.46999998093E+01 0.  1.
       -5    1    3    3    0  502 -0.54266123388E+03  0.89169317494E+03 -0.46780077303E+03  0.11438783092E+04  0.46999998093E+01 0. -1.
</event>
<event>
 5   0  0.2471488E-06  0.2597951E+04  0.7818609E-02  0.8368898E-01
        1   -1    0    0  501    0  0.00000000000E+00  0.00000000000E+00  0.18033414142E+04  0.18033414142E+04  0.50400001928E-02 0.  1.
       -1   -1    0    0    0  501  0.00000000000E+00  0.00000000000E+00 -0.93567258960E+03  0.93567258962E+03  0.50400001928E-02 0. -1.
    10030    2    1    2    0    0  0.00000000000E+00  0.00000000000E+00  0.86766882462E+03  0.27390140038E+04  0.25979508317E+04 0.  0.
        4    1    3    3  502    0 -0.96190032372E+03 -0.60135407020E+03  0.11010113652E+04  0.15808562837E+04  0.12699999809E+01 0.  1.
       -4    1    3    3    0  502  0.96190032372E+03  0.60135407020E+03 -0.23334254061E+03  0.11581577201E+04  0.12699999809E+01 0. -1.
</event>
<event>
 5   0  0.5942229E-06  0.2603986E+04  0.7818609E-02  0.8366848E-01
       -2   -1    0    0    0  501  0.00000000000E+00  0.00000000000E+00  0.14858364368E+04  0.14858364368E+04  0.25500000920E-02 0.  1.
        2   -1    0    0  501    0  0.00000000000E+00  0.00000000000E+00 -0.11408970371E+04  0.11408970371E+04  0.25500000920E-02 0. -1.
    10030    2    1    2    0    0  0.00000000000E+00  0.00000000000E+00  0.34493939965E+03  0.26267334739E+04  0.26039864734E+04 0.  0.
        4    1    3    3  502    0 -0.26738630027E+03  0.11983551090E+04 -0.26448205379E+03  0.12559867717E+04  0.12699999809E+01 0. -1.
       -4    1    3    3    0  502  0.26738630027E+03 -0.11983551090E+04  0.60942145344E+03  0.13707467023E+04  0.12699999809E+01 0.  1.
</event>
<event>
 5   0  0.6158063E-06  0.2577080E+04  0.7818609E-02  0.8376028E-01
        2   -1    0    0  501    0  0.00000000000E+00  0.00000000000E+00  0.10957076256E+04  0.10957076256E+04  0.25500000920E-02 0. -1.
       -2   -1    0    0    0  501  0.00000000000E+00  0.00000000000E+00 -0.15153092054E+04  0.15153092054E+04  0.25500000920E-02 0.  1.
    10030    2    1    2    0    0  0.00000000000E+00  0.00000000000E+00 -0.41960157975E+03  0.26110168310E+04  0.25770804035E+04 0.  0.
        2    1    3    3  502    0 -0.11934704160E+03 -0.88412067062E+03 -0.11517875598E+04  0.14568897211E+04  0.25500000920E-02 0.  1.
       -2    1    3    3    0  502  0.11934704160E+03  0.88412067062E+03  0.73218598001E+03  0.11541271099E+04  0.25500000920E-02 0. -1.
</event>
<event>
 5   0  0.2440590E-06  0.2598729E+04  0.7818609E-02  0.8368633E-01
       -1   -1    0    0    0  501  0.00000000000E+00  0.00000000000E+00  0.15405025736E+04  0.15405025737E+04  0.50400001928E-02 0.  1.
        1   -1    0    0  501    0  0.00000000000E+00  0.00000000000E+00 -0.10959721483E+04  0.10959721483E+04  0.50400001928E-02 0. -1.
    10030    2    1    2    0    0  0.00000000000E+00  0.00000000000E+00  0.44453042536E+03  0.26364747220E+04  0.25987288547E+04 0.  0.
        1    1    3    3  502    0 -0.13254254284E+03 -0.71725580976E+02 -0.10870754952E+04  0.10974721942E+04  0.50400001928E-02 0. -1.
       -1    1    3    3    0  502  0.13254254284E+03  0.71725580976E+02  0.15316059206E+04  0.15390025278E+04  0.50400001928E-02 0.  1.
</event>
<event>
 5   0  0.6158063E-06  0.2597221E+04  0.7818609E-02  0.8369146E-01
        2   -1    0    0  501    0  0.00000000000E+00  0.00000000000E+00  0.18299631368E+04  0.18299631368E+04  0.25500000920E-02 0. -1.
       -2   -1    0    0    0  501  0.00000000000E+00  0.00000000000E+00 -0.92154303696E+03  0.92154303697E+03  0.25500000920E-02 0.  1.
    10030    2    1    2    0    0  0.00000000000E+00  0.00000000000E+00  0.90842009982E+03  0.27515061738E+04  0.25972214281E+04 0.  0.
        2    1    3    3  502    0 -0.79300298690E+03 -0.63629994770E+02  0.15415770808E+04  0.17347513970E+04  0.25500000920E-02 0. -1.
       -2    1    3    3    0  502  0.79300298690E+03  0.63629994770E+02 -0.63315698095E+03  0.10167547767E+04  0.25500000920E-02 0.  1.
</event>
<event>
 5   0  0.2503292E-06  0.2604860E+04  0.7818609E-02  0.8366552E-01
       -1   -1    0    0    0  501  0.00000000000E+00  0.00000000000E+00  0.97752900653E+03  0.97752900655E+03  0.50400001928E-02 0.  1.
        1   -1    0    0  501    0  0.00000000000E+00  0.00000000000E+00 -0.17353186574E+04  0.17353186574E+04  0.50400001928E-02 0. -1.
    10030    2    1    2    0    0  0.00000000000E+00  0.00000000000E+00 -0.75778965090E+03  0.27128476640E+04  0.26048603212E+04 0.  0.
        2    1    3    3  502    0  0.33349426741E+03 -0.77414714753E+03 -0.14129312430E+04  0.16452650029E+04  0.25500000920E-02 0. -1.
       -2    1    3    3    0  502 -0.33349426741E+03  0.77414714753E+03  0.65514159212E+03  0.10675826610E+04  0.25500000920E-02 0.  1.
</event>
<event>
 5   0  0.2471488E-06  0.2620871E+04  0.7818609E-02  0.8361146E-01
        1   -1    0    0  501    0  0.00000000000E+00  0.00000000000E+00  0.20150842444E+04  0.20150842444E+04  0.50400001928E-02 0. -1.
       -1   -1    0    0    0  501  0.00000000000E+00  0.00000000000E+00 -0.85219330578E+03  0.85219330580E+03  0.50400001928E-02 0.  1.
    10030    2    1    2    0    0  0.00000000000E+00  0.00000000000E+00  0.11628909387E+04  0.28672775502E+04  0.26208710794E+04 0.  0.
        4    1    3    3  502    0  0.81951363233E+03 -0.78691213716E+03  0.12958363889E+04  0.17233765883E+04  0.12699999809E+01 0. -1.
       -4    1    3    3    0  502 -0.81951363233E+03  0.78691213716E+03 -0.13294545027E+03  0.11439009620E+04  0.12699999809E+01 0.  1.
</event>
<event>
 5   0  0.5940748E-06  0.2599697E+04  0.7818609E-02  0.8368304E-01
        2   -1    0    0  501    0  0.00000000000E+00  0.00000000000E+00  0.12550788834E+04  0.12550788834E+04  0.25500000920E-02 0. -1.
       -2   -1    0    0    0  501  0.00000000000E+00  0.00000000000E+00 -0.13462155991E+04  0.13462155991E+04  0.25500000920E-02 0.  1.
    10030    2    1    2    0    0  0.00000000000E+00  0.00000000000E+00 -0.91136715606E+02  0.26012944825E+04  0.25996974985E+04 0.  0.
        1    1    3    3  502    0 -0.69911394646E+02 -0.55697882895E+03  0.11275398908E+04  0.12595472299E+04  0.50400001928E-02 0. -1.
       -1    1    3    3    0  502  0.69911394646E+02  0.55697882895E+03 -0.12186766064E+04  0.13417472526E+04  0.50400001928E-02 0.  1.
</event>
<event>
 5   0  0.6158063E-06  0.2590949E+04  0.7818609E-02  0.8371282E-01
       -2   -1    0    0    0  501  0.00000000000E+00  0.00000000000E+00  0.12877692913E+04  0.12877692913E+04  0.25500000920E-02 0.  1.
        2   -1    0    0  501    0  0.00000000000E+00  0.00000000000E+00 -0.13032261070E+04  0.13032261070E+04  0.25500000920E-02 0. -1.
    10030    2    1    2    0    0  0.00000000000E+00  0.00000000000E+00 -0.15456815704E+02  0.25909953983E+04  0.25909492934E+04 0.  0.
        2    1    3    3  502    0 -0.16352361540E+03  0.21626058152E+03  0.12590798098E+04  0.12879404410E+04  0.25500000920E-02 0.  1.
       -2    1    3    3    0  502  0.16352361540E+03 -0.21626058152E+03 -0.12745366255E+04  0.13030549573E+04  0.25500000920E-02 0. -1.
</event>
<event>
 5   0  0.2440590E-06  0.2587794E+04  0.7818609E-02  0.8372359E-01
        1   -1    0    0  501    0  0.00000000000E+00  0.00000000000E+00  0.17501705035E+04  0.17501705035E+04  0.50400001928E-02 0. -1.
       -1   -1    0    0    0  501  0.00000000000E+00  0.00000000000E+00 -0.95657469738E+03  0.95657469739E+03  0.50400001928E-02 0.  1.
    10030    2    1    2    0    0  0.00000000000E+00  0.00000000000E+00  0.79359580612E+03  0.27067452009E+04  0.25877935155E+04 0.  0.
        1    1    3    3  502    0  0.24864305749E+03 -0.11566856949E+04  0.94473225124E+03  0.15140225207E+04  0.50400001928E-02 0. -1.
       -1    1    3    3    0  502 -0.24864305749E+03  0.11566856949E+04 -0.15113644512E+03  0.11927226802E+04  0.50400001928E-02 0.  1.
</event>
<event>
 5   0  0.2503292E-06  0.2604420E+04  0.7818609E-02  0.8366701E-01
       -1   -1    0    0    0  501  0.00000000000E+00  0.00000000000E+00  0.15327826739E+04  0.15327826739E+04  0.50400001928E-02 0. -1.
        1   -1    0    0  501    0  0.00000000000E+00  0.00000000000E+00 -0.11063221851E+04  0.11063221852E+04  0.50400001928E-02 0.  1.
    10030    2    1    2    0    0  0.00000000000E+00  0.00000000000E+00  0.42646048871E+03  0.26391048590E+04  0.26044204554E+04 0.  0.
        2    1    3    3  502    0 -0.42705069171E+03  0.29263261695E+03  0.14240260939E+04  0.15152083876E+04  0.25500000920E-02 0. -1.
       -2    1    3    3    0  502  0.42705069171E+03 -0.29263261695E+03 -0.99756560518E+03  0.11238964714E+04  0.25500000920E-02 0.  1.
</event>
<event>
 5   0  0.5940748E-06  0.2601818E+04  0.7818609E-02  0.8367584E-01
       -2   -1    0    0    0  501  0.00000000000E+00  0.00000000000E+00  0.21190682266E+04  0.21190682266E+04  0.25500000920E-02 0. -1.
        2   -1    0    0  501    0  0.00000000000E+00  0.00000000000E+00 -0.79863581278E+03  0.79863581279E+03  0.25500000920E-02 0.  1.
    10030    2    1    2    0    0  0.00000000000E+00  0.00000000000E+00  0.13204324138E+04  0.29177040394E+04  0.26018176535E+04 0.  0.
        1    1    3    3  502    0 -0.33243273191E+03  0.67709412371E+03  0.18488026676E+04  0.19967571904E+04  0.50400001928E-02 0. -1.
       -1    1    3    3    0  502  0.33243273191E+03 -0.67709412371E+03 -0.52837025377E+03  0.92094684901E+03  0.50400001928E-02 0.  1.
</event>
<event>
 5   0  0.2503292E-06  0.2500323E+04  0.7818609E-02  0.8402871E-01
       -1   -1    0    0    0  501  0.00000000000E+00  0.00000000000E+00  0.17632510201E+04  0.17632510201E+04  0.50400001928E-02 0. -1.
        1   -1    0    0  501    0  0.00000000000E+00  0.00000000000E+00 -0.88637597808E+03  0.88637597810E+03  0.50400001928E-02 0.  1.
    10030    2    1    2    0    0  0.00000000000E+00  0.00000000000E+00  0.87687504203E+03  0.26496269982E+04  0.25003226572E+04 0.  0.
        2    1    3    3  502    0 -0.67816414525E+03 -0.78999994739E+03  0.11717847611E+04  0.15675095059E+04  0.25500000920E-02 0. -1.
       -2    1    3    3    0  502  0.67816414525E+03  0.78999994739E+03 -0.29490971905E+03  0.10821174923E+04  0.25500000920E-02 0.  1.
</event>
<event>
 5   0  0.2333979E-06  0.2664130E+04  0.7818609E-02  0.8346738E-01
       -1   -1    0    0    0  501  0.00000000000E+00  0.00000000000E+00  0.11434238314E+04  0.11434238314E+04  0.50400001928E-02 0.  1.
        1   -1    0    0  501    0  0.00000000000E+00  0.00000000000E+00 -0.15518284632E+04  0.15518284632E+04  0.50400001928E-02 0. -1.
    10030    2    1    2    0    0  0.00000000000E+00  0.00000000000E+00 -0.40840463182E+03  0.26952522946E+04  0.26641303625E+04 0.  0.
        3    1    3    3  502    0 -0.86647671115E+03 -0.71386617572E+03 -0.92952304044E+03  0.14575321268E+04  0.10100000352E+00 0. -1.
       -3    1    3    3    0  502  0.86647671115E+03  0.71386617572E+03  0.52111840862E+03  0.12377201678E+04  0.10100000352E+00 0.  1.
</event>
<event>
 5   0  0.5942229E-06  0.2606861E+04  0.7818609E-02  0.8365874E-01
        2   -1    0    0  501    0  0.00000000000E+00  0.00000000000E+00  0.11803547279E+04  0.11803547279E+04  0.25500000920E-02 0.  1.
       -2   -1    0    0    0  501  0.00000000000E+00  0.00000000000E+00 -0.14393393516E+04  0.14393393516E+04  0.25500000920E-02 0. -1.
    10030    2    1    2    0    0  0.00000000000E+00  0.00000000000E+00 -0.25898462362E+03  0.26196940795E+04  0.26068609543E+04 0.  0.
        4    1    3    3  502    0 -0.81501686226E+03  0.96396382049E+03 -0.45582258785E+03  0.13421082585E+04  0.12699999809E+01 0. -1.
       -4    1    3    3    0  502  0.81501686226E+03 -0.96396382049E+03  0.19683796423E+03  0.12775858210E+04  0.12699999809E+01 0.  1.
</event>
<event>
 5   0  0.5942229E-06  0.2617036E+04  0.7818609E-02  0.8362437E-01
       -2   -1    0    0    0  501  0.00000000000E+00  0.00000000000E+00  0.83681946084E+03  0.83681946084E+03  0.25500000920E-02 0.  1.
        2   -1    0    0  501    0  0.00000000000E+00  0.00000000000E+00 -0.20461034583E+04  0.20461034583E+04  0.25500000920E-02 0. -1.
    10030    2    1    2    0    0  0.00000000000E+00  0.00000000000E+00 -0.12092839975E+04  0.28829229192E+04  0.26170358750E+04 0.  0.
        4    1    3    3  502    0 -0.50509639269E+03 -0.13240222462E+03  0.71707651664E+03  0.88704738240E+03  0.12699999809E+01 0.  1.
       -4    1    3    3    0  502  0.50509639269E+03  0.13240222462E+03 -0.19263605141E+04  0.19958755368E+04  0.12699999809E+01 0. -1.
</event>
<event>
 5   0  0.5942229E-06  0.2598159E+04  0.7818609E-02  0.8368827E-01
        2   -1    0    0  501    0  0.00000000000E+00  0.00000000000E+00  0.25358625219E+04  0.25358625219E+04  0.25500000920E-02 0. -1.
       -2   -1    0    0    0  501  0.00000000000E+00  0.00000000000E+00 -0.66549635404E+03  0.66549635404E+03  0.25500000920E-02 0.  1.
    10030    2    1    2    0    0  0.00000000000E+00  0.00000000000E+00  0.18703661679E+04  0.32013588759E+04  0.25981587809E+04 0.  0.
        4    1    3    3  502    0 -0.37204503567E+03  0.65117602336E+03 -0.37181639828E+03  0.83707632202E+03  0.12699999809E+01 0.  1.
       -4    1    3    3    0  502  0.37204503567E+03 -0.65117602336E+03  0.22421825661E+04  0.23642825539E+04  0.12699999809E+01 0. -1.
</event>
<event>
 5   0  0.6173140E-06  0.2603006E+04  0.7818609E-02  0.8367181E-01
        2   -1    0    0  501    0  0.00000000000E+00  0.00000000000E+00  0.14987617958E+04  0.14987617958E+04  0.25500000920E-02 0. -1.
       -2   -1    0    0    0  501  0.00000000000E+00  0.00000000000E+00 -0.11302059216E+04  0.11302059216E+04  0.25500000920E-02 0.  1.
    10030    2    1    2    0    0  0.00000000000E+00  0.00000000000E+00  0.36855587415E+03  0.26289677174E+04  0.26030055372E+04 0.  0.
        3    1    3    3  502    0 -0.87027554300E+03 -0.96287186796E+03  0.86317278217E+02  0.13007507208E+04  0.10100000352E+00 0. -1.
       -3    1    3    3    0  502  0.87027554300E+03  0.96287186796E+03  0.28223859593E+03  0.13282169966E+04  0.10100000352E+00 0.  1.
</event>
<event>
 5   0  0.2440590E-06  0.2613270E+04  0.7818609E-02  0.8363708E-01
       -1   -1    0    0    0  501  0.00000000000E+00  0.00000000000E+00  0.10672929361E+04  0.10672929362E+04  0.50400001928E-02 0. -1.
        1   -1    0    0  501    0  0.00000000000E+00  0.00000000000E+00 -0.15996494998E+04  0.15996494998E+04  0.50400001928E-02 0.  1.
    10030    2    1    2    0    0  0.00000000000E+00  0.00000000000E+00 -0.53235656366E+03  0.26669424360E+04  0.26132696849E+04 0.  0.
        1    1    3    3  502    0 -0.35503865086E+03 -0.12132592456E+04  0.71131198678E+02  0.12661398375E+04  0.50400001928E-02 0. -1.
       -1    1    3    3    0  502  0.35503865086E+03  0.12132592456E+04 -0.60348776234E+03  0.14008025985E+04  0.50400001928E-02 0.  1.
</event>
<event>
 5   0  0.6158063E-06  0.2616121E+04  0.7818609E-02  0.8362746E-01
        2   -1    0    0  501    0  0.00000000000E+00  0.00000000000E+00  0.11446067501E+04  0.11446067501E+04  0.25500000920E-02 0.  1.
       -2   -1    0    0    0  501  0.00000000000E+00  0.00000000000E+00 -0.14948561583E+04  0.14948561583E+04  0.25500000920E-02 0. -1.
    10030    2    1    2    0    0  0.00000000000E+00  0.00000000000E+00 -0.35024940827E+03  0.26394629084E+04  0.26161211358E+04 0.  0.
        2    1    3    3  502    0 -0.67785842502E+02  0.10464495676E+03  0.11385978632E+04  0.11454041127E+04  0.25500000920E-02 0.  1.
       -2    1    3    3    0  502  0.67785842502E+02 -0.10464495676E+03 -0.14888472714E+04  0.14940587957E+04  0.25500000920E-02 0. -1.
</event>
<event>
 5   0  0.5940748E-06  0.2611138E+04  0.7818609E-02  0.8364428E-01
       -2   -1    0    0    0  501  0.00000000000E+00  0.00000000000E+00  0.70765361386E+03  0.70765361386E+03  0.25500000920E-02 0. -1.
        2   -1    0    0  501    0  0.00000000000E+00  0.00000000000E+00 -0.24086785114E+04  0.24086785114E+04  0.25500000920E-02 0.  1.
    10030    2    1    2    0    0  0.00000000000E+00  0.00000000000E+00 -0.17010248975E+04  0.31163321252E+04  0.26111377238E+04 0.  0.
        1    1    3    3  502    0 -0.71656087911E+03  0.65286591332E+03 -0.18942531684E+04  0.21278835636E+04  0.50400001928E-02 0. -1.
       -1    1    3    3    0  502  0.71656087911E+03 -0.65286591332E+03  0.19322827091E+03  0.98844856161E+03  0.50400001928E-02 0.  1.
</event>
<event>
 5   0  0.2503292E-06  0.2595828E+04  0.7818609E-02  0.8369620E-01
        1   -1    0    0  501    0  0.00000000000E+00  0.00000000000E+00  0.13921935936E+04  0.13921935936E+04  0.50400001928E-02 0. -1.
       -1   -1    0    0    0  501  0.00000000000E+00  0.00000000000E+00 -0.12100191820E+04  0.12100191820E+04  0.50400001928E-02 0.  1.
    10030    2    1    2    0    0  0.00000000000E+00  0.00000000000E+00  0.18217441165E+03  0.26022127756E+04  0.25958281556E+04 0.  0.
        2    1    3    3  502    0 -0.60858660641E+01  0.77406913517E+03 -0.95328174083E+03  0.12279927285E+04  0.25500000920E-02 0.  1.
       -2    1    3    3    0  502  0.60858660641E+01 -0.77406913517E+03  0.11354561525E+04  0.13742200472E+04  0.25500000920E-02 0. -1.
</event>
<event>
 5   0  0.2503292E-06  0.2603780E+04  0.7818609E-02  0.8366918E-01
       -1   -1    0    0    0  501  0.00000000000E+00  0.00000000000E+00  0.69712804725E+03  0.69712804727E+03  0.50400001928E-02 0. -1.
        1   -1    0    0  501    0  0.00000000000E+00  0.00000000000E+00 -0.24312859380E+04  0.24312859380E+04  0.50400001928E-02 0.  1.
    10030    2    1    2    0    0  0.00000000000E+00  0.00000000000E+00 -0.17341578907E+04  0.31284139853E+04  0.26037800355E+04 0.  0.
        2    1    3    3  502    0 -0.10863378940E+04  0.66768899981E+03 -0.11826363436E+04  0.17391283281E+04  0.25500000920E-02 0.  1.
       -2    1    3    3    0  502  0.10863378940E+04 -0.66768899981E+03 -0.55152154714E+03  0.13892856572E+04  0.25500000920E-02 0. -1.
</event>
<event>
 5   0  0.5942229E-06  0.2603146E+04  0.7818609E-02  0.8367133E-01
       -2   -1    0    0    0  501  0.00000000000E+00  0.00000000000E+00  0.10777844052E+04  0.10777844052E+04  0.25500000920E-02 0. -1.
        2   -1    0    0  501    0  0.00000000000E+00  0.00000000000E+00 -0.15718282820E+04  0.15718282821E+04  0.25500000920E-02 0.  1.
    10030    2    1    2    0    0  0.00000000000E+00  0.00000000000E+00 -0.49404387683E+03  0.26496126873E+04  0.26031457970E+04 0.  0.
        4    1    3    3  502    0  0.55136750113E+03 -0.71519160054E+02  0.95083229755E+03  0.11014557560E+04  0.12699999809E+01 0. -1.
       -4    1    3    3    0  502 -0.55136750113E+03  0.71519160054E+02 -0.14448761744E+04  0.15481569312E+04  0.12699999809E+01 0.  1.
</event>
<event>
 5   0  0.5942229E-06  0.2608168E+04  0.7818609E-02  0.8365432E-01
        2   -1    0    0  501    0  0.00000000000E+00  0.00000000000E+00  0.10931379839E+04  0.10931379839E+04  0.25500000920E-02 0.  1.
       -2   -1    0    0    0  501  0.00000000000E+00  0.00000000000E+00 -0.15557364273E+04  0.15557364273E+04  0.25500000920E-02 0. -1.
    10030    2    1    2    0    0  0.00000000000E+00  0.00000000000E+00 -0.46259844340E+03  0.26488744111E+04  0.26081676185E+04 0.  0.
        4    1    3    3  502    0  0.11118866105E+04 -0.55933388147E+02  0.45842653821E+03  0.12039837550E+04  0.12699999809E+01 0.  1.
       -4    1    3    3    0  502 -0.11118866105E+04  0.55933388147E+02 -0.92102498161E+03  0.14448906561E+04  0.12699999809E+01 0. -1.
</event>
<event>
 5   0  0.5942229E-06  0.2596381E+04  0.7818609E-02  0.8369431E-01
        2   -1    0    0  501    0  0.00000000000E+00  0.00000000000E+00  0.19562879407E+04  0.19562879407E+04  0.25500000920E-02 0. -1.
       -2   -1    0    0    0  501  0.00000000000E+00  0.00000000000E+00 -0.86147807764E+03  0.86147807764E+03  0.25500000920E-02 0.  1.
    10030    2    1    2    0    0  0.00000000000E+00  0.00000000000E+00  0.10948098631E+04  0.28177660184E+04  0.25963814623E+04 0.  0.
        4    1    3    3  502    0  0.47502863784E+03  0.63355997390E+03  0.16638310139E+04  0.18426572397E+04  0.12699999809E+01 0. -1.
       -4    1    3    3    0  502 -0.47502863784E+03 -0.63355997390E+03 -0.56902115081E+03  0.97510877868E+03  0.12699999809E+01 0.  1.
</event>
<event>
 5   0  0.2333979E-06  0.2602715E+04  0.7818609E-02  0.8367279E-01
        1   -1    0    0  501    0  0.00000000000E+00  0.00000000000E+00  0.10659123331E+04  0.10659123331E+04  0.50400001928E-02 0.  1.
       -1   -1    0    0    0  501  0.00000000000E+00  0.00000000000E+00 -0.15888094868E+04  0.15888094868E+04  0.50400001928E-02 0. -1.
    10030    2    1    2    0    0  0.00000000000E+00  0.00000000000E+00 -0.52289715370E+03  0.26547218199E+04  0.26027152183E+04 0.  0.
        3    1    3    3  502    0 -0.16937505479E+03  0.86904558934E+03 -0.12342370648E+04  0.15189698114E+04  0.10100000352E+00 0. -1.
       -3    1    3    3    0  502  0.16937505479E+03 -0.86904558934E+03  0.71133991108E+03  0.11357520085E+04  0.10100000352E+00 0.  1.
</event>
<event>
 5   0  0.2456600E-06  0.2600524E+04  0.7818609E-02  0.8368023E-01
       -1   -1    0    0    0  501  0.00000000000E+00  0.00000000000E+00  0.83168065988E+03  0.83168065989E+03  0.50400001928E-02 0.  1.
        1   -1    0    0  501    0  0.00000000000E+00  0.00000000000E+00 -0.20328483163E+04  0.20328483163E+04  0.50400001928E-02 0. -1.
    10030    2    1    2    0    0  0.00000000000E+00  0.00000000000E+00 -0.12011676565E+04  0.28645289762E+04  0.26005235082E+04 0.  0.
        5    1    3    3  502    0 -0.32118857285E+03 -0.11615091735E+03  0.78137640219E+03  0.85277447595E+03  0.46999998093E+01 0.  1.
       -5    1    3    3    0  502  0.32118857285E+03  0.11615091735E+03 -0.19825440586E+04  0.20117545003E+04  0.46999998093E+01 0. -1.
</event>
<event>
 5   0  0.6158063E-06  0.2596564E+04  0.7818609E-02  0.8369369E-01
        2   -1    0    0  501    0  0.00000000000E+00  0.00000000000E+00  0.15711996513E+04  0.15711996513E+04  0.25500000920E-02 0. -1.
       -2   -1    0    0    0  501  0.00000000000E+00  0.00000000000E+00 -0.10727703743E+04  0.10727703743E+04  0.25500000920E-02 0.  1.
    10030    2    1    2    0    0  0.00000000000E+00  0.00000000000E+00  0.49842927707E+03  0.26439700256E+04  0.25965642207E+04 0.  0.
        2    1    3    3  502    0 -0.63560684427E+03 -0.81338655831E+03 -0.55252476486E+03  0.11708447248E+04  0.25500000920E-02 0.  1.
       -2    1    3    3    0  502  0.63560684427E+03  0.81338655831E+03  0.10509540419E+04  0.14731253008E+04  0.25500000920E-02 0. -1.
</event>
<event>
 5   0  0.2503292E-06  0.2597686E+04  0.7818609E-02  0.8368988E-01
       -1   -1    0    0    0  501  0.00000000000E+00  0.00000000000E+00  0.13841908966E+04  0.13841908966E+04  0.50400001928E-02 0. -1.
        1   -1    0    0  501    0  0.00000000000E+00  0.00000000000E+00 -0.12187579141E+04  0.12187579141E+04  0.50400001928E-02 0.  1.
    10030    2    1    2    0    0  0.00000000000E+00  0.00000000000E+00  0.16543298256E+03  0.26029488107E+04  0.25976863628E+04 0.  0.
        2    1    3    3  502    0  0.99054544035E+03 -0.16553763605E+03 -0.74260895534E+03  0.12490200314E+04  0.25500000920E-02 0.  1.
       -2    1    3    3    0  502 -0.99054544035E+03  0.16553763605E+03  0.90804193791E+03  0.13539287793E+04  0.25500000920E-02 0. -1.
</event>
<event>
 5   0  0.2503292E-06  0.2563421E+04  0.7818609E-02  0.8380734E-01
        1   -1    0    0  501    0  0.00000000000E+00  0.00000000000E+00  0.24922376046E+04  0.24922376046E+04  0.50400001928E-02 0.  1.
       -1   -1    0    0    0  501  0.00000000000E+00  0.00000000000E+00 -0.65915926314E+03  0.65915926316E+03  0.50400001928E-02 0. -1.
    10030    2    1    2    0    0  0.00000000000E+00  0.00000000000E+00  0.18330783415E+04  0.31513968678E+04  0.25634207638E+04 0.  0.
        2    1    3    3  502    0 -0.12003779985E+04 -0.30522280904E+03  0.51119461677E+03  0.13399209822E+04  0.25500000920E-02 0. -1.
       -2    1    3    3    0  502  0.12003779985E+04  0.30522280904E+03  0.13218837247E+04  0.18114758856E+04  0.25500000920E-02 0.  1.
</event>
<event>
 5   0  0.2440590E-06  0.2571471E+04  0.7818609E-02  0.8377957E-01
       -1   -1    0    0    0  501  0.00000000000E+00  0.00000000000E+00  0.13620696404E+04  0.13620696405E+04  0.50400001928E-02 0. -1.
        1   -1    0    0  501    0  0.00000000000E+00  0.00000000000E+00 -0.12136794597E+04  0.12136794597E+04  0.50400001928E-02 0.  1.
    10030    2    1    2    0    0  0.00000000000E+00  0.00000000000E+00  0.14839018073E+03  0.25757491002E+04  0.25714711317E+04 0.  0.
        1    1    3    3  502    0 -0.79612415529E+03  0.66623377530E+03  0.83403128429E+03  0.13316490894E+04  0.50400001928E-02 0. -1.
       -1    1    3    3    0  502  0.79612415529E+03 -0.66623377530E+03 -0.68564110356E+03  0.12441000108E+04  0.50400001928E-02 0.  1.
</event>
<event>
 5   0  0.6158063E-06  0.2595213E+04  0.7818609E-02  0.8369829E-01
        2   -1    0    0  501    0  0.00000000000E+00  0.00000000000E+00  0.16088483285E+04  0.16088483285E+04  0.25500000920E-02 0. -1.
       -2   -1    0    0    0  501  0.00000000000E+00  0.00000000000E+00 -0.10465760252E+04  0.10465760252E+04  0.25500000920E-02 0.  1.
    10030    2    1    2    0    0  0.00000000000E+00  0.00000000000E+00  0.56227230325E+03  0.26554243537E+04  0.25952125838E+04 0.  0.
        2    1    3    3  502    0  0.93812090161E+03  0.83141802930E+03  0.62426007961E+03  0.14003668850E+04  0.25500000920E-02 0. -1.
       -2    1    3    3    0  502 -0.93812090161E+03 -0.83141802930E+03 -0.61987776370E+02  0.12550574688E+04  0.25500000920E-02 0.  1.
</event>
<event>
 5   0  0.5942229E-06  0.2600377E+04  0.7818609E-02  0.8368073E-01
       -2   -1    0    0    0  501  0.00000000000E+00  0.00000000000E+00  0.11050910814E+04  0.11050910814E+04  0.25500000920E-02 0.  1.
        2   -1    0    0  501    0  0.00000000000E+00  0.00000000000E+00 -0.15297289769E+04  0.15297289769E+04  0.25500000920E-02 0. -1.
    10030    2    1    2    0    0  0.00000000000E+00  0.00000000000E+00 -0.42463789555E+03  0.26348200583E+04  0.26003767799E+04 0.  0.
        4    1    3    3  502    0  0.28874428443E+03  0.13379384957E+03 -0.14896571392E+04  0.15232708430E+04  0.12699999809E+01 0. -1.
       -4    1    3    3    0  502 -0.28874428443E+03 -0.13379384957E+03  0.10650192436E+04  0.11115492153E+04  0.12699999809E+01 0.  1.
</event>
<event>
 5   0  0.2440590E-06  0.2597998E+04  0.7818609E-02  0.8368882E-01
        1   -1    0    0  501    0  0.00000000000E+00  0.00000000000E+00  0.10084279619E+04  0.10084279619E+04  0.50400001928E-02 0. -1.
       -1   -1    0    0    0  501  0.00000000000E+00  0.00000000000E+00 -0.16732953405E+04  0.16732953405E+04  0.50400001928E-02 0.  1.
    10030    2    1    2    0    0  0.00000000000E+00  0.00000000000E+00 -0.66486737864E+03  0.26817233025E+04  0.25979975442E+04 0.  0.
        1    1    3    3  502    0 -0.28190221858E+03  0.12669704356E+04 -0.27865016075E+03  0.13275273473E+04  0.50400001928E-02 0.  1.
       -1    1    3    3    0  502  0.28190221858E+03 -0.12669704356E+04 -0.38621721789E+03  0.13541959552E+04  0.50400001928E-02 0. -1.
</event>
<event>
 5   0  0.5940748E-06  0.2592611E+04  0.7818609E-02  0.8370716E-01
        2   -1    0    0  501    0  0.00000000000E+00  0.00000000000E+00  0.14630030249E+04  0.14630030249E+04  0.25500000920E-02 0.  1.
       -2   -1    0    0    0  501  0.00000000000E+00  0.00000000000E+00 -0.11486015381E+04  0.11486015381E+04  0.25500000920E-02 0. -1.
    10030    2    1    2    0    0  0.00000000000E+00  0.00000000000E+00  0.31440148681E+03  0.26116045631E+04  0.25926106724E+04 0.  0.
        1    1    3    3  502    0 -0.30378509234E+03  0.11724337324E+04  0.62266967857E+03  0.13618383780E+04  0.50400001928E-02 0.  1.
       -1    1    3    3    0  502  0.30378509234E+03 -0.11724337324E+04 -0.30826819176E+03  0.12497661850E+04  0.50400001928E-02 0. -1.
</event>
<event>
 5   0  0.2503292E-06  0.2610550E+04  0.7818609E-02  0.8364627E-01
       -1   -1    0    0    0  501  0.00000000000E+00  0.00000000000E+00  0.10605823721E+04  0.10605823722E+04  0.50400001928E-02 0. -1.
        1   -1    0    0  501    0  0.00000000000E+00  0.00000000000E+00 -0.16064215953E+04  0.16064215953E+04  0.50400001928E-02 0.  1.
    10030    2    1    2    0    0  0.00000000000E+00  0.00000000000E+00 -0.54583922318E+03  0.26670039675E+04  0.26105496940E+04 0.  0.
        2    1    3    3  502    0  0.12437181809E+03 -0.12890810740E+04 -0.10647283603E+03  0.12994363506E+04  0.25500000920E-02 0. -1.
       -2    1    3    3    0  502 -0.12437181809E+03  0.12890810740E+04 -0.43936638715E+03  0.13675676169E+04  0.25500000920E-02 0.  1.
</event>
<event>
 5   0  0.2440590E-06  0.2580481E+04  0.7818609E-02  0.8374862E-01
        1   -1    0    0  501    0  0.00000000000E+00  0.00000000000E+00  0.21307435570E+04  0.21307435570E+04  0.50400001928E-02 0.  1.
       -1   -1    0    0    0  501  0.00000000000E+00  0.00000000000E+00 -0.78128612023E+03  0.78128612025E+03  0.50400001928E-02 0. -1.
    10030    2    1    2    0    0  0.00000000000E+00  0.00000000000E+00  0.13494574367E+04  0.29120296772E+04  0.25804808597E+04 0.  0.
        1    1    3    3  502    0 -0.13772992023E+03  0.99967523605E+03 -0.23256084508E+03  0.10355697249E+04  0.50400001928E-02 0. -1.
       -1    1    3    3    0  502  0.13772992023E+03 -0.99967523605E+03  0.15820182818E+04  0.18764599523E+04  0.50400001928E-02 0.  1.
</event>
<event>
 5   0  0.2440590E-06  0.2585834E+04  0.7818609E-02  0.8373029E-01
        1   -1    0    0  501    0  0.00000000000E+00  0.00000000000E+00  0.22258529598E+04  0.22258529598E+04  0.50400001928E-02 0. -1.
       -1   -1    0    0    0  501  0.00000000000E+00  0.00000000000E+00 -0.75100864731E+03  0.75100864733E+03  0.50400001928E-02 0.  1.
    10030    2    1    2    0    0  0.00000000000E+00  0.00000000000E+00  0.14748443125E+04  0.29768616071E+04  0.25858343493E+04 0.  0.
        1    1    3    3  502    0 -0.59321437767E+03  0.39950546309E+03  0.19773907766E+04  0.21027558575E+04  0.50400001928E-02 0. -1.
       -1    1    3    3    0  502  0.59321437767E+03 -0.39950546309E+03 -0.50254646410E+03  0.87410574962E+03  0.50400001928E-02 0.  1.
</event>
<event>
 5   0  0.2440590E-06  0.2594107E+04  0.7818609E-02  0.8370206E-01
       -1   -1    0    0    0  501  0.00000000000E+00  0.00000000000E+00  0.72391520292E+03  0.72391520294E+03  0.50400001928E-02 0.  1.
        1   -1    0    0  501    0  0.00000000000E+00  0.00000000000E+00 -0.23239569729E+04  0.23239569729E+04  0.50400001928E-02 0. -1.
    10030    2    1    2    0    0  0.00000000000E+00  0.00000000000E+00 -0.16000417700E+04  0.30478721758E+04  0.25941070014E+04 0.  0.
        1    1    3    3  502    0  0.95198152132E+03 -0.77816791210E+03 -0.31482855242E+03  0.12692246191E+04  0.50400001928E-02 0.  1.
       -1    1    3    3    0  502 -0.95198152132E+03  0.77816791210E+03 -0.12852132176E+04  0.17786475567E+04  0.50400001928E-02 0. -1.
</event>
<event>
 5   0  0.2440590E-06  0.2600736E+04  0.7818609E-02  0.8367951E-01
        1   -1    0    0  501    0  0.00000000000E+00  0.00000000000E+00  0.13880440169E+04  0.13880440169E+04  0.50400001928E-02 0. -1.
       -1   -1    0    0    0  501  0.00000000000E+00  0.00000000000E+00 -0.12182298413E+04  0.12182298413E+04  0.50400001928E-02 0.  1.
    10030    2    1    2    0    0  0.00000000000E+00  0.00000000000E+00  0.16981417561E+03  0.26062738582E+04  0.26007357746E+04 0.  0.
        1    1    3    3  502    0  0.37604605365E+03 -0.81083230380E+03 -0.86161303531E+03  0.12414655380E+04  0.50400001928E-02 0.  1.
       -1    1    3    3    0  502 -0.37604605365E+03  0.81083230380E+03  0.10314272109E+04  0.13648083202E+04  0.50400001928E-02 0. -1.
</event>
<event>
 5   0  0.2503292E-06  0.2630536E+04  0.7818609E-02  0.8357902E-01
        1   -1    0    0  501    0  0.00000000000E+00  0.00000000000E+00  0.10667674645E+04  0.10667674646E+04  0.50400001928E-02 0. -1.
       -1   -1    0    0    0  501  0.00000000000E+00  0.00000000000E+00 -0.16216558267E+04  0.16216558267E+04  0.50400001928E-02 0.  1.
    10030    2    1    2    0    0  0.00000000000E+00  0.00000000000E+00 -0.55488836217E+03  0.26884232913E+04  0.26305358197E+04 0.  0.
        2    1    3    3  502    0 -0.62670215028E+03 -0.32481820051E+03  0.85678318626E+03  0.11101080474E+04  0.25500000920E-02 0. -1.
       -2    1    3    3    0  502  0.62670215028E+03  0.32481820051E+03 -0.14116715484E+04  0.15783152439E+04  0.25500000920E-02 0.  1.
</event>
<event>
 5   0  0.2440590E-06  0.2599919E+04  0.7818609E-02  0.8368229E-01
        1   -1    0    0  501    0  0.00000000000E+00  0.00000000000E+00  0.20886013073E+04  0.20886013074E+04  0.50400001928E-02 0.  1.
       -1   -1    0    0    0  501  0.00000000000E+00  0.00000000000E+00 -0.80910354321E+03  0.80910354322E+03  0.50400001928E-02 0. -1.
    10030    2    1    2    0    0  0.00000000000E+00  0.00000000000E+00  0.12794977641E+04  0.28977048506E+04  0.25999190127E+04 0.  0.
        1    1    3    3  502    0  0.46704657166E+01 -0.11500465658E+04  0.13151854552E+04  0.17470952173E+04  0.50400001928E-02 0.  1.
       -1    1    3    3    0  502 -0.46704657166E+01  0.11500465658E+04 -0.35687691014E+02  0.11506096333E+04  0.50400001928E-02 0. -1.
</event>
<event>
 5   0  0.6158063E-06  0.2587503E+04  0.7818609E-02  0.8372459E-01
       -2   -1    0    0    0  501  0.00000000000E+00  0.00000000000E+00  0.90216841111E+03  0.90216841111E+03  0.25500000920E-02 0. -1.
        2   -1    0    0  501    0  0.00000000000E+00  0.00000000000E+00 -0.18552998881E+04  0.18552998881E+04  0.25500000920E-02 0.  1.
    10030    2    1    2    0    0  0.00000000000E+00  0.00000000000E+00 -0.95313147694E+03  0.27574682992E+04  0.25875030065E+04 0.  0.
        2    1    3    3  502    0  0.68944930552E+03 -0.69205138604E+03 -0.13805280869E+04  0.16911928526E+04  0.25500000920E-02 0.  1.
       -2    1    3    3    0  502 -0.68944930552E+03  0.69205138604E+03  0.42739660997E+03  0.10662754466E+04  0.25500000920E-02 0. -1.
</event>
<event>
 5   0  0.2503292E-06  0.2646871E+04  0.7818609E-02  0.8352452E-01
       -1   -1    0    0    0  501  0.00000000000E+00  0.00000000000E+00  0.71709521696E+03  0.71709521698E+03  0.50400001928E-02 0. -1.
        1   -1    0    0  501    0  0.00000000000E+00  0.00000000000E+00 -0.24424669030E+04  0.24424669030E+04  0.50400001928E-02 0.  1.
    10030    2    1    2    0    0  0.00000000000E+00  0.00000000000E+00 -0.17253716860E+04  0.31595621199E+04  0.26468708572E+04 0.  0.
        2    1    3    3  502    0  0.12564235060E+04 -0.36442382742E+03 -0.62371799112E+03  0.14492856464E+04  0.25500000920E-02 0. -1.
       -2    1    3    3    0  502 -0.12564235060E+04  0.36442382742E+03 -0.11016536949E+04  0.17102764735E+04  0.25500000920E-02 0.  1.
</event>
<event>
 5   0  0.2456600E-06  0.2601997E+04  0.7818609E-02  0.8367523E-01
       -1   -1    0    0    0  501  0.00000000000E+00  0.00000000000E+00  0.11333068530E+04  0.11333068530E+04  0.50400001928E-02 0. -1.
        1   -1    0    0  501    0  0.00000000000E+00  0.00000000000E+00 -0.14935023845E+04  0.14935023845E+04  0.50400001928E-02 0.  1.
    10030    2    1    2    0    0  0.00000000000E+00  0.00000000000E+00 -0.36019553150E+03  0.26268092375E+04  0.26019965313E+04 0.  0.
        5    1    3    3  502    0 -0.87227903188E+03  0.87839229719E+03 -0.58407702497E+03  0.13687994003E+04  0.46999998093E+01 0.  1.
       -5    1    3    3    0  502  0.87227903188E+03 -0.87839229719E+03  0.22388149347E+03  0.12580098371E+04  0.46999998093E+01 0. -1.
</event>
<event>
 5   0  0.5940748E-06  0.2534139E+04  0.7818609E-02  0.8390923E-01
       -2   -1    0    0    0  501  0.00000000000E+00  0.00000000000E+00  0.74479296382E+03  0.74479296383E+03  0.25500000920E-02 0.  1.
        2   -1    0    0  501    0  0.00000000000E+00  0.00000000000E+00 -0.21555857122E+04  0.21555857122E+04  0.25500000920E-02 0. -1.
    10030    2    1    2    0    0  0.00000000000E+00  0.00000000000E+00 -0.14107927484E+04  0.29003786761E+04  0.25341389633E+04 0.  0.
        1    1    3    3  502    0 -0.50967322272E+03  0.10662780734E+04 -0.12283182863E+04  0.17045473113E+04  0.50400001928E-02 0. -1.
       -1    1    3    3    0  502  0.50967322272E+03 -0.10662780734E+04 -0.18247446206E+03  0.11958313648E+04  0.50400001928E-02 0.  1.
</event>
<event>
 5   0  0.5940748E-06  0.2579234E+04  0.7818609E-02  0.8375289E-01
        2   -1    0    0  501    0  0.00000000000E+00  0.00000000000E+00  0.16682182658E+04  0.16682182658E+04  0.25500000920E-02 0.  1.
       -2   -1    0    0    0  501  0.00000000000E+00  0.00000000000E+00 -0.99693940807E+03  0.99693940808E+03  0.25500000920E-02 0. -1.
    10030    2    1    2    0    0  0.00000000000E+00  0.00000000000E+00  0.67127885768E+03  0.26651576738E+04  0.25792344061E+04 0.  0.
        1    1    3    3  502    0 -0.15882097653E+03 -0.22584819731E+03  0.16373195629E+04  0.16604357446E+04  0.50400001928E-02 0.  1.
       -1    1    3    3    0  502  0.15882097653E+03  0.22584819731E+03 -0.96604070525E+03  0.10047219292E+04  0.50400001928E-02 0. -1.
</event>
<event>
 5   0  0.6158063E-06  0.2598257E+04  0.7818609E-02  0.8368794E-01
       -2   -1    0    0    0  501  0.00000000000E+00  0.00000000000E+00  0.10811063751E+04  0.10811063751E+04  0.25500000920E-02 0.  1.
        2   -1    0    0  501    0  0.00000000000E+00  0.00000000000E+00 -0.15611178942E+04  0.15611178942E+04  0.25500000920E-02 0. -1.
    10030    2    1    2    0    0  0.00000000000E+00  0.00000000000E+00 -0.48001151913E+03  0.26422242693E+04  0.25982567292E+04 0.  0.
        2    1    3    3  502    0 -0.26276244232E+03 -0.10743757274E+04  0.45300039261E+03  0.11952140647E+04  0.25500000920E-02 0.  1.
       -2    1    3    3    0  502  0.26276244232E+03  0.10743757274E+04 -0.93301191174E+03  0.14470102046E+04  0.25500000920E-02 0. -1.
</event>
<event>
 5   0  0.6161834E-06  0.2605983E+04  0.7818609E-02  0.8366172E-01
        2   -1    0    0  501    0  0.00000000000E+00  0.00000000000E+00  0.15173074985E+04  0.15173074985E+04  0.25500000920E-02 0.  1.
       -2   -1    0    0    0  501  0.00000000000E+00  0.00000000000E+00 -0.11189467627E+04  0.11189467627E+04  0.25500000920E-02 0. -1.
    10030    2    1    2    0    0  0.00000000000E+00  0.00000000000E+00  0.39836073582E+03  0.26362542613E+04  0.26059825890E+04 0.  0.
        5    1    3    3  502    0  0.43282526725E+03 -0.11929114737E+04  0.49823015146E+03  0.13633161299E+04  0.46999998093E+01 0.  1.
       -5    1    3    3    0  502 -0.43282526725E+03  0.11929114737E+04 -0.99869415644E+02  0.12729381314E+04  0.46999998093E+01 0. -1.
</event>
<event>
 5   0  0.2471488E-06  0.2617429E+04  0.7818609E-02  0.8362305E-01
       -1   -1    0    0    0  501  0.00000000000E+00  0.00000000000E+00  0.79655227366E+03  0.79655227368E+03  0.50400001928E-02 0. -1.
        1   -1    0    0  501    0  0.00000000000E+00  0.00000000000E+00 -0.21501837658E+04  0.21501837658E+04  0.50400001928E-02 0.  1.
    10030    2    1    2    0    0  0.00000000000E+00  0.00000000000E+00 -0.13536314922E+04  0.29467360395E+04  0.26174290955E+04 0.  0.
        4    1    3    3  502    0  0.37690128474E+03 -0.96311754526E+03 -0.15796323616E+04  0.18880916278E+04  0.12699999809E+01 0.  1.
       -4    1    3    3    0  502 -0.37690128474E+03  0.96311754526E+03  0.22600086944E+03  0.10586444117E+04  0.12699999809E+01 0. -1.
</event>
<event>
 5   0  0.5940748E-06  0.2604069E+04  0.7818609E-02  0.8366821E-01
        2   -1    0    0  501    0  0.00000000000E+00  0.00000000000E+00  0.81485690459E+03  0.81485690460E+03  0.25500000920E-02 0. -1.
       -2   -1    0    0    0  501  0.00000000000E+00  0.00000000000E+00 -0.20804797318E+04  0.20804797318E+04  0.25500000920E-02 0.  1.
    10030    2    1    2    0    0  0.00000000000E+00  0.00000000000E+00 -0.12656228272E+04  0.28953366364E+04  0.26040685662E+04 0.  0.
        1    1    3    3  502    0 -0.12692438953E+04 -0.28182057901E+03 -0.55505835199E+03  0.14136805434E+04  0.50400001928E-02 0. -1.
       -1    1    3    3    0  502  0.12692438953E+04  0.28182057901E+03 -0.71056447521E+03  0.14816560930E+04  0.50400001928E-02 0.  1.
</event>
<event>
 5   0  0.2440590E-06  0.2598683E+04  0.7818609E-02  0.8368649E-01
        1   -1    0    0  501    0  0.00000000000E+00  0.00000000000E+00  0.12747518313E+04  0.12747518313E+04  0.50400001928E-02 0.  1.
       -1   -1    0    0    0  501  0.00000000000E+00  0.00000000000E+00 -0.13244050478E+04  0.13244050478E+04  0.50400001928E-02 0. -1.
    10030    2    1    2    0    0  0.00000000000E+00  0.00000000000E+00 -0.49653216504E+02  0.25991568791E+04  0.25986825586E+04 0.  0.
        1    1    3    3  502    0  0.31916214161E+03 -0.20966595571E+03 -0.12670128251E+04  0.13233086506E+04  0.50400001928E-02 0. -1.
       -1    1    3    3    0  502 -0.31916214161E+03  0.20966595571E+03  0.12173596086E+04  0.12758482286E+04  0.50400001928E-02 0.  1.
</event>
<event>
 5   0  0.2503292E-06  0.2608268E+04  0.7818609E-02  0.8365398E-01
       -1   -1    0    0    0  501  0.00000000000E+00  0.00000000000E+00  0.89252809764E+03  0.89252809765E+03  0.50400001928E-02 0.  1.
        1   -1    0    0  501    0  0.00000000000E+00  0.00000000000E+00 -0.19055602683E+04  0.19055602683E+04  0.50400001928E-02 0. -1.
    10030    2    1    2    0    0  0.00000000000E+00  0.00000000000E+00 -0.10130321707E+04  0.27980883660E+04  0.26082684534E+04 0.  0.
        2    1    3    3  502    0  0.45169055839E+03  0.50819243100E+03 -0.17003777774E+04  0.18312751004E+04  0.25500000920E-02 0. -1.
       -2    1    3    3    0  502 -0.45169055839E+03 -0.50819243100E+03  0.68734560670E+03  0.96681326559E+03  0.25500000920E-02 0.  1.
</event>
<event>
 5   0  0.2440590E-06  0.2604101E+04  0.7818609E-02  0.8366809E-01
        1   -1    0    0  501    0  0.00000000000E+00  0.00000000000E+00  0.17638947069E+04  0.17638947069E+04  0.50400001928E-02 0.  1.
       -1   -1    0    0    0  501  0.00000000000E+00  0.00000000000E+00 -0.96113207031E+03  0.96113207033E+03  0.50400001928E-02 0. -1.
    10030    2    1    2    0    0  0.00000000000E+00  0.00000000000E+00  0.80276263654E+03  0.27250267772E+04  0.26041012050E+04 0.  0.
        1    1    3    3  502    0  0.83358983100E+03 -0.10291207262E+03  0.14425057223E+04  0.16692170799E+04  0.50400001928E-02 0.  1.
       -1    1    3    3    0  502 -0.83358983100E+03  0.10291207262E+03 -0.63974308576E+03  0.10558096973E+04  0.50400001928E-02 0. -1.
</event>
<event>
 5   0  0.2456600E-06  0.2595297E+04  0.7818609E-02  0.8369800E-01
        1   -1    0    0  501    0  0.00000000000E+00  0.00000000000E+00  0.10830785623E+04  0.10830785623E+04  0.50400001928E-02 0.  1.
       -1   -1    0    0    0  501  0.00000000000E+00  0.00000000000E+00 -0.15547270383E+04  0.15547270383E+04  0.50400001928E-02 0. -1.
    10030    2    1    2    0    0  0.00000000000E+00  0.00000000000E+00 -0.47164847599E+03  0.26378056006E+04  0.25952969197E+04 0.  0.
        5    1    3    3  502    0  0.99695786397E+03  0.62558483676E+03  0.31955796242E+03  0.12195986028E+04  0.46999998093E+01 0.  1.
       -5    1    3    3    0  502 -0.99695786397E+03 -0.62558483676E+03 -0.79120643841E+03  0.14182069978E+04  0.46999998093E+01 0. -1.
</event>
<event>
 5   0  0.2503292E-06  0.2604673E+04  0.7818609E-02  0.8366616E-01
       -1   -1    0    0    0  501  0.00000000000E+00  0.00000000000E+00  0.10361776324E+04  0.10361776324E+04  0.50400001928E-02 0. -1.
        1   -1    0    0  501    0  0.00000000000E+00  0.00000000000E+00 -0.16368622876E+04  0.16368622876E+04  0.50400001928E-02 0.  1.
    10030    2    1    2    0    0  0.00000000000E+00  0.00000000000E+00 -0.60068465523E+03  0.26730399201E+04  0.26046727931E+04 0.  0.
        2    1    3    3  502    0  0.93252236722E+03 -0.43964389656E+03 -0.11169644407E+04  0.15200310138E+04  0.25500000920E-02 0.  1.
       -2    1    3    3    0  502 -0.93252236722E+03  0.43964389656E+03  0.51627978542E+03  0.11530089063E+04  0.25500000920E-02 0. -1.
</event>
<event>
 5   0  0.5940748E-06  0.2605605E+04  0.7818609E-02  0.8366300E-01
        2   -1    0    0  501    0  0.00000000000E+00  0.00000000000E+00  0.11081230031E+04  0.11081230031E+04  0.25500000920E-02 0.  1.
       -2   -1    0    0    0  501  0.00000000000E+00  0.00000000000E+00 -0.15316839370E+04  0.15316839370E+04  0.25500000920E-02 0. -1.
    10030    2    1    2    0    0  0.00000000000E+00  0.00000000000E+00 -0.42356093389E+03  0.26398069401E+04  0.26056048849E+04 0.  0.
        1    1    3    3  502    0  0.14601451333E+03 -0.47038693740E+03 -0.14337259571E+04  0.15159664340E+04  0.50400001928E-02 0. -1.
       -1    1    3    3    0  502 -0.14601451333E+03  0.47038693740E+03  0.10101650232E+04  0.11238405061E+04  0.50400001928E-02 0.  1.
</event>
<event>
 5   0  0.6173140E-06  0.2599140E+04  0.7818609E-02  0.8368493E-01
        2   -1    0    0  501    0  0.00000000000E+00  0.00000000000E+00  0.25688934622E+04  0.25688934622E+04  0.25500000920E-02 0. -1.
       -2   -1    0    0    0  501  0.00000000000E+00  0.00000000000E+00 -0.65743573431E+03  0.65743573431E+03  0.25500000920E-02 0.  1.
    10030    2    1    2    0    0  0.00000000000E+00  0.00000000000E+00  0.19114577279E+04  0.32263291965E+04  0.25991401345E+04 0.  0.
        3    1    3    3  502    0 -0.11801938838E+04  0.40919472493E+03  0.14008448209E+04  0.18768761677E+04  0.10100000352E+00 0. -1.
       -3    1    3    3    0  502  0.11801938838E+04 -0.40919472493E+03  0.51061290696E+03  0.13494530289E+04  0.10100000352E+00 0.  1.
</event>
<event>
 5   0  0.2440590E-06  0.2599139E+04  0.7818609E-02  0.8368494E-01
        1   -1    0    0  501    0  0.00000000000E+00  0.00000000000E+00  0.27062206156E+04  0.27062206156E+04  0.50400001928E-02 0.  1.
       -1   -1    0    0    0  501  0.00000000000E+00  0.00000000000E+00 -0.62407349452E+03  0.62407349454E+03  0.50400001928E-02 0. -1.
    10030    2    1    2    0    0  0.00000000000E+00  0.00000000000E+00  0.20821471211E+04  0.33302941101E+04  0.25991387470E+04 0.  0.
        1    1    3    3  502    0  0.27917223643E+03 -0.90021523987E+03  0.21875073244E+04  0.23819137075E+04  0.50400001928E-02 0.  1.
       -1    1    3    3    0  502 -0.27917223643E+03  0.90021523987E+03 -0.10536020330E+03  0.94838040266E+03  0.50400001928E-02 0. -1.
</event>
<event>
 5   0  0.2503292E-06  0.2581548E+04  0.7818609E-02  0.8374496E-01
        1   -1    0    0  501    0  0.00000000000E+00  0.00000000000E+00  0.15229969178E+04  0.15229969178E+04  0.50400001928E-02 0. -1.
       -1   -1    0    0    0  501  0.00000000000E+00  0.00000000000E+00 -0.10939602728E+04  0.10939602728E+04  0.50400001928E-02 0.  1.
    10030    2    1    2    0    0  0.00000000000E+00  0.00000000000E+00  0.42903664505E+03  0.26169571906E+04  0.25815484684E+04 0.  0.
        2    1    3    3  502    0  0.70769569952E+03  0.90892596411E+03  0.80484455723E+03  0.14052595393E+04  0.25500000920E-02 0. -1.
       -2    1    3    3    0  502 -0.70769569952E+03 -0.90892596411E+03 -0.37580791218E+03  0.12116976513E+04  0.25500000920E-02 0.  1.
</event>
<event>
 5   0  0.2440590E-06  0.2592966E+04  0.7818609E-02  0.8370594E-01
       -1   -1    0    0    0  501  0.00000000000E+00  0.00000000000E+00  0.98744606790E+03  0.98744606791E+03  0.50400001928E-02 0. -1.
        1   -1    0    0  501    0  0.00000000000E+00  0.00000000000E+00 -0.17022376094E+04  0.17022376094E+04  0.50400001928E-02 0.  1.
    10030    2    1    2    0    0  0.00000000000E+00  0.00000000000E+00 -0.71479154149E+03  0.26896836773E+04  0.25929657414E+04 0.  0.
        1    1    3    3  502    0  0.54207798950E+03  0.70769488934E+03  0.61909281814E+03  0.10853370539E+04  0.50400001928E-02 0. -1.
       -1    1    3    3    0  502 -0.54207798950E+03 -0.70769488934E+03 -0.13338843596E+04  0.16043466234E+04  0.50400001928E-02 0.  1.
</event>
<event>
 5   0  0.2503292E-06  0.2604884E+04  0.7818609E-02  0.8366544E-01
        1   -1    0    0  501    0  0.00000000000E+00  0.00000000000E+00  0.14081938785E+04  0.14081938785E+04  0.50400001928E-02 0.  1.
       -1   -1    0    0    0  501  0.00000000000E+00  0.00000000000E+00 -0.12046320427E+04  0.12046320427E+04  0.50400001928E-02 0. -1.
    10030    2    1    2    0    0  0.00000000000E+00  0.00000000000E+00  0.20356183580E+03  0.26128259211E+04  0.26048842341E+04 0.  0.
        2    1    3    3  502    0 -0.63292772405E+03  0.15947692833E+03 -0.10287422944E+04  0.12183353819E+04  0.25500000920E-02 0. -1.
       -2    1    3    3    0  502  0.63292772405E+03 -0.15947692833E+03  0.12323041302E+04  0.13944905392E+04  0.25500000920E-02 0.  1.
</event>
<event>
 5   0  0.2333979E-06  0.2614545E+04  0.7818609E-02  0.8363277E-01
        1   -1    0    0  501    0  0.00000000000E+00  0.00000000000E+00  0.13622893466E+04  0.13622893466E+04  0.50400001928E-02 0.  1.
       -1   -1    0    0    0  501  0.00000000000E+00  0.00000000000E+00 -0.12544780019E+04  0.12544780019E+04  0.50400001928E-02 0. -1.
    10030    2    1    2    0    0  0.00000000000E+00  0.00000000000E+00  0.10781134473E+03  0.26167673485E+04  0.26145454806E+04 0.  0.
        3    1    3    3  502    0  0.43531109413E+02 -0.93234145544E+02  0.13582301193E+04  0.13621221056E+04  0.10100000352E+00 0.  1.
       -3    1    3    3    0  502 -0.43531109413E+02  0.93234145544E+02 -0.12504187746E+04  0.12546452429E+04  0.10100000352E+00 0. -1.
</event>
<event>
 5   0  0.5940748E-06  0.2600113E+04  0.7818609E-02  0.8368163E-01
       -2   -1    0    0    0  501  0.00000000000E+00  0.00000000000E+00  0.18157707048E+04  0.18157707048E+04  0.25500000920E-02 0.  1.
        2   -1    0    0  501    0  0.00000000000E+00  0.00000000000E+00 -0.93081488849E+03  0.93081488849E+03  0.25500000920E-02 0. -1.
    10030    2    1    2    0    0  0.00000000000E+00  0.00000000000E+00  0.88495581628E+03  0.27465855933E+04  0.26001126176E+04 0.  0.
        1    1    3    3  502    0  0.75485018939E+03 -0.40467252086E+03  0.14756279225E+04  0.17061759649E+04  0.50400001928E-02 0.  1.
       -1    1    3    3    0  502 -0.75485018939E+03  0.40467252086E+03 -0.59067210625E+03  0.10404096283E+04  0.50400001928E-02 0. -1.
</event>
<event>
 5   0  0.2456600E-06  0.2598763E+04  0.7818609E-02  0.8368621E-01
       -1   -1    0    0    0  501  0.00000000000E+00  0.00000000000E+00  0.20485229335E+04  0.20485229336E+04  0.50400001928E-02 0. -1.
        1   -1    0    0  501    0  0.00000000000E+00  0.00000000000E+00 -0.82419999682E+03  0.82419999684E+03  0.50400001928E-02 0.  1.
    10030    2    1    2    0    0  0.00000000000E+00  0.00000000000E+00  0.12243229367E+04  0.28727229304E+04  0.25987632407E+04 0.  0.
        5    1    3    3  502    0  0.32867032480E+03  0.10356544825E+04 -0.17553497413E+03  0.11006538996E+04  0.46999998093E+01 0. -1.
       -5    1    3    3    0  502 -0.32867032480E+03 -0.10356544825E+04  0.13998579108E+04  0.17720690308E+04  0.46999998093E+01 0.  1.
</event>
<event>
 5   0  0.6158063E-06  0.2597231E+04  0.7818609E-02  0.8369142E-01
        2   -1    0    0  501    0  0.00000000000E+00  0.00000000000E+00  0.14203847894E+04  0.14203847894E+04  0.25500000920E-02 0.  1.
       -2   -1    0    0    0  501  0.00000000000E+00  0.00000000000E+00 -0.11872858925E+04  0.11872858925E+04  0.25500000920E-02 0. -1.
    10030    2    1    2    0    0  0.00000000000E+00  0.00000000000E+00  0.23309889685E+03  0.26076706819E+04  0.25972314663E+04 0.  0.
        2    1    3    3  502    0 -0.35097260880E+03  0.65028493317E+03 -0.95561469193E+03  0.12079949114E+04  0.25500000920E-02 0. -1.
       -2    1    3    3    0  502  0.35097260880E+03 -0.65028493317E+03  0.11887135888E+04  0.13996757705E+04  0.25500000920E-02 0.  1.
</event>
<event>
 5   0  0.2503292E-06  0.2608469E+04  0.7818609E-02  0.8365330E-01
       -1   -1    0    0    0  501  0.00000000000E+00  0.00000000000E+00  0.11589355602E+04  0.11589355602E+04  0.50400001928E-02 0.  1.
        1   -1    0    0  501    0  0.00000000000E+00  0.00000000000E+00 -0.14677503701E+04  0.14677503701E+04  0.50400001928E-02 0. -1.
    10030    2    1    2    0    0  0.00000000000E+00  0.00000000000E+00 -0.30881480989E+03  0.26266859303E+04  0.26084693576E+04 0.  0.
        2    1    3    3  502    0 -0.51258836524E+03 -0.10047558183E+04  0.50495314759E+03  0.12358231135E+04  0.25500000920E-02 0.  1.
       -2    1    3    3    0  502  0.51258836524E+03  0.10047558183E+04 -0.81376795749E+03  0.13908628168E+04  0.25500000920E-02 0. -1.
</event>
<event>
 5   0  0.6173140E-06  0.2597544E+04  0.7818609E-02  0.8369036E-01
        2   -1    0    0  501    0  0.00000000000E+00  0.00000000000E+00  0.13318405540E+04  0.13318405540E+04  0.25500000920E-02 0. -1.
       -2   -1    0    0    0  501  0.00000000000E+00  0.00000000000E+00 -0.12665243760E+04  0.12665243760E+04  0.25500000920E-02 0.  1.
    10030    2    1    2    0    0  0.00000000000E+00  0.00000000000E+00  0.65316177999E+02  0.25983649300E+04  0.25975438604E+04 0.  0.
        3    1    3    3  502    0 -0.68074846722E+03 -0.81897289415E+03  0.77631317631E+03  0.13178760317E+04  0.10100000352E+00 0. -1.
       -3    1    3    3    0  502  0.68074846722E+03  0.81897289415E+03 -0.71099699831E+03  0.12804888983E+04  0.10100000352E+00 0.  1.
</event>
<event>
 5   0  0.2440590E-06  0.2603414E+04  0.7818609E-02  0.8367042E-01
        1   -1    0    0  501    0  0.00000000000E+00  0.00000000000E+00  0.27266071364E+04  0.27266071364E+04  0.50400001928E-02 0.  1.
       -1   -1    0    0    0  501  0.00000000000E+00  0.00000000000E+00 -0.62144684666E+03  0.62144684668E+03  0.50400001928E-02 0. -1.
    10030    2    1    2    0    0  0.00000000000E+00  0.00000000000E+00  0.21051602898E+04  0.33480539831E+04  0.26034142252E+04 0.  0.
        1    1    3    3  502    0 -0.64618593607E+02 -0.24895949764E+03  0.26936020984E+04  0.27058545154E+04  0.50400001928E-02 0.  1.
       -1    1    3    3    0  502  0.64618593607E+02  0.24895949764E+03 -0.58844180864E+03  0.64219946768E+03  0.50400001928E-02 0. -1.
</event>
<event>
 5   0  0.6173140E-06  0.2606544E+04  0.7818609E-02  0.8365982E-01
        2   -1    0    0  501    0  0.00000000000E+00  0.00000000000E+00  0.21620339583E+04  0.21620339583E+04  0.25500000920E-02 0. -1.
       -2   -1    0    0    0  501  0.00000000000E+00  0.00000000000E+00 -0.78561114195E+03  0.78561114195E+03  0.25500000920E-02 0.  1.
    10030    2    1    2    0    0  0.00000000000E+00  0.00000000000E+00  0.13764228164E+04  0.29476451003E+04  0.26065440468E+04 0.  0.
        3    1    3    3  502    0 -0.27616718901E+03 -0.44865330066E+03  0.20362459758E+04  0.21032964091E+04  0.10100000352E+00 0. -1.
       -3    1    3    3    0  502  0.27616718901E+03  0.44865330066E+03 -0.65982315938E+03  0.84434869120E+03  0.10100000352E+00 0.  1.
</event>
<event>
 5   0  0.2333979E-06  0.2656144E+04  0.7818609E-02  0.8349377E-01
       -1   -1    0    0    0  501  0.00000000000E+00  0.00000000000E+00  0.11035591459E+04  0.11035591459E+04  0.50400001928E-02 0. -1.
        1   -1    0    0  501    0  0.00000000000E+00  0.00000000000E+00 -0.15982610159E+04  0.15982610159E+04  0.50400001928E-02 0.  1.
    10030    2    1    2    0    0  0.00000000000E+00  0.00000000000E+00 -0.49470187001E+03  0.27018201618E+04  0.26561442443E+04 0.  0.
        3    1    3    3  502    0  0.13756669453E+03  0.15144994084E+03 -0.15821334053E+04  0.15953080587E+04  0.10100000352E+00 0.  1.
       -3    1    3    3    0  502 -0.13756669453E+03 -0.15144994084E+03  0.10874315353E+04  0.11065121030E+04  0.10100000352E+00 0. -1.
</event>
<event>
 5   0  0.2456600E-06  0.2598506E+04  0.7818609E-02  0.8368709E-01
        1   -1    0    0  501    0  0.00000000000E+00  0.00000000000E+00  0.10778845139E+04  0.10778845139E+04  0.50400001928E-02 0.  1.
       -1   -1    0    0    0  501  0.00000000000E+00  0.00000000000E+00 -0.15660841534E+04  0.15660841534E+04  0.50400001928E-02 0. -1.
    10030    2    1    2    0    0  0.00000000000E+00  0.00000000000E+00 -0.48819963952E+03  0.26439686673E+04  0.25985056139E+04 0.  0.
        5    1    3    3  502    0  0.26230464849E+03  0.36124843343E+02  0.10501321115E+04  0.10830088987E+04  0.46999998093E+01 0.  1.
       -5    1    3    3    0  502 -0.26230464849E+03 -0.36124843343E+02 -0.15383317510E+04  0.15609597686E+04  0.46999998093E+01 0. -1.
</event>
<event>
 5   0  0.2333979E-06  0.2577544E+04  0.7818609E-02  0.8375869E-01
        1   -1    0    0  501    0  0.00000000000E+00  0.00000000000E+00  0.90754674235E+03  0.90754674236E+03  0.50400001928E-02 0.  1.
       -1   -1    0    0    0  501  0.00000000000E+00  0.00000000000E+00 -0.18301357907E+04  0.18301357907E+04  0.50400001928E-02 0. -1.
    10030    2    1    2    0    0  0.00000000000E+00  0.00000000000E+00 -0.92258904834E+03  0.27376825331E+04  0.25775443933E+04 0.  0.
        3    1    3    3  502    0 -0.10151897527E+04  0.27208881189E+03  0.33089305674E+03  0.11018769354E+04  0.10100000352E+00 0.  1.
       -3    1    3    3    0  502  0.10151897527E+04 -0.27208881189E+03 -0.12534821051E+04  0.16358055977E+04  0.10100000352E+00 0. -1.
</event>
<event>
 5   0  0.6161834E-06  0.2653864E+04  0.7818609E-02  0.8350132E-01
       -2   -1    0    0    0  501  0.00000000000E+00  0.00000000000E+00  0.16630491161E+04  0.16630491161E+04  0.25500000920E-02 0. -1.
        2   -1    0    0  501    0  0.00000000000E+00  0.00000000000E+00 -0.10587472919E+04  0.10587472919E+04  0.25500000920E-02 0.  1.
    10030    2    1    2    0    0  0.00000000000E+00  0.00000000000E+00  0.60430182415E+03  0.27217964080E+04  0.26538641623E+04 0.  0.
        5    1    3    3  502    0 -0.76725313359E+03 -0.10716954421E+04  0.45943278668E+03  0.13958184219E+04  0.46999998093E+01 0. -1.
       -5    1    3    3    0  502  0.76725313359E+03  0.10716954421E+04  0.14486903746E+03  0.13259779861E+04  0.46999998093E+01 0.  1.
</event>
<event>
 5   0  0.5940748E-06  0.2631057E+04  0.7818609E-02  0.8357728E-01
        2   -1    0    0  501    0  0.00000000000E+00  0.00000000000E+00  0.20235587068E+04  0.20235587069E+04  0.25500000920E-02 0. -1.
       -2   -1    0    0    0  501  0.00000000000E+00  0.00000000000E+00 -0.85523360857E+03  0.85523360857E+03  0.25500000920E-02 0.  1.
    10030    2    1    2    0    0  0.00000000000E+00  0.00000000000E+00  0.11683250983E+04  0.28787923154E+04  0.26310571374E+04 0.  0.
        1    1    3    3  502    0 -0.11231421552E+04  0.15644593047E+02 -0.16509396360E+03  0.11353189291E+04  0.50400001928E-02 0.  1.
       -1    1    3    3    0  502  0.11231421552E+04 -0.15644593047E+02  0.13334190619E+04  0.17434733863E+04  0.50400001928E-02 0. -1.
</event>
<event>
 5   0  0.5940748E-06  0.2599889E+04  0.7818609E-02  0.8368239E-01
        2   -1    0    0  501    0  0.00000000000E+00  0.00000000000E+00  0.14271715656E+04  0.14271715657E+04  0.25500000920E-02 0.  1.
       -2   -1    0    0    0  501  0.00000000000E+00  0.00000000000E+00 -0.11840594818E+04  0.11840594818E+04  0.25500000920E-02 0. -1.
    10030    2    1    2    0    0  0.00000000000E+00  0.00000000000E+00  0.24311208386E+03  0.26112310474E+04  0.25998892472E+04 0.  0.
        1    1    3    3  502    0 -0.10759614637E+04 -0.23284668832E+02 -0.61074799125E+03  0.12374362028E+04  0.50400001928E-02 0. -1.
       -1    1    3    3    0  502  0.10759614637E+04  0.23284668832E+02  0.85386007512E+03  0.13737948446E+04  0.50400001928E-02 0.  1.
</event>
<event>
 5   0  0.2503292E-06  0.2631000E+04  0.7818609E-02  0.8357747E-01
       -1   -1    0    0    0  501  0.00000000000E+00  0.00000000000E+00  0.11786442784E+04  0.11786442785E+04  0.50400001928E-02 0.  1.
        1   -1    0    0  501    0  0.00000000000E+00  0.00000000000E+00 -0.14682468341E+04  0.14682468341E+04  0.50400001928E-02 0. -1.
    10030    2    1    2    0    0  0.00000000000E+00  0.00000000000E+00 -0.28960255569E+03  0.26468911126E+04  0.26310003652E+04 0.  0.
        2    1    3    3  502    0 -0.87526869216E+03 -0.77190309671E+03 -0.75560172466E+03  0.13902746637E+04  0.25500000920E-02 0. -1.
       -2    1    3    3    0  502  0.87526869216E+03  0.77190309671E+03  0.46599916896E+03  0.12566164489E+04  0.25500000920E-02 0.  1.
</event>
<event>
 5   0  0.2072125E-06  0.2595149E+04  0.7818609E-02  0.8369851E-01
       -4   -1    0    0    0  501  0.00000000000E+00  0.00000000000E+00  0.68717155829E+03  0.68717273186E+03  0.12699999809E+01 0. -1.
        4   -1    0    0  501    0  0.00000000000E+00  0.00000000000E+00 -0.24501853515E+04  0.24501856806E+04  0.12699999809E+01 0.  1.
    10030    2    1    2    0    0  0.00000000000E+00  0.00000000000E+00 -0.17630137932E+04  0.31373584125E+04  0.25951493547E+04 0.  0.
        4    1    3    3  502    0  0.82418924998E+03  0.99620726430E+03 -0.74917664554E+03  0.14943172663E+04  0.12699999809E+01 0.  1.
       -4    1    3    3    0  502 -0.82418924998E+03 -0.99620726430E+03 -0.10138371477E+04  0.16430411462E+04  0.12699999809E+01 0. -1.
</event>
<event>
 5   0  0.6158063E-06  0.2609213E+04  0.7818609E-02  0.8365079E-01
        2   -1    0    0  501    0  0.00000000000E+00  0.00000000000E+00  0.11440655221E+04  0.11440655222E+04  0.25500000920E-02 0.  1.
       -2   -1    0    0    0  501  0.00000000000E+00  0.00000000000E+00 -0.14876752838E+04  0.14876752838E+04  0.25500000920E-02 0. -1.
    10030    2    1    2    0    0  0.00000000000E+00  0.00000000000E+00 -0.34360976164E+03  0.26317408059E+04  0.26092129084E+04 0.  0.
        2    1    3    3  502    0  0.12439466325E+03  0.98713822499E+03 -0.10229402305E+04  0.14269977655E+04  0.25500000920E-02 0. -1.
       -2    1    3    3    0  502 -0.12439466325E+03 -0.98713822499E+03  0.67933046890E+03  0.12047430404E+04  0.25500000920E-02 0.  1.
</event>
<event>
 5   0  0.2456600E-06  0.2593282E+04  0.7818609E-02  0.8370487E-01
        1   -1    0    0  501    0  0.00000000000E+00  0.00000000000E+00  0.13645240682E+04  0.13645240682E+04  0.50400001928E-02 0. -1.
       -1   -1    0    0    0  501  0.00000000000E+00  0.00000000000E+00 -0.12321348249E+04  0.12321348250E+04  0.50400001928E-02 0.  1.
    10030    2    1    2    0    0  0.00000000000E+00  0.00000000000E+00  0.13238924325E+03  0.25966588932E+04  0.25932818003E+04 0.  0.
        5    1    3    3  502    0  0.21404101377E+03  0.64928939871E+03 -0.10369956692E+04  0.12420838888E+04  0.46999998093E+01 0.  1.
       -5    1    3    3    0  502 -0.21404101377E+03 -0.64928939871E+03  0.11693849125E+04  0.13545750043E+04  0.46999998093E+01 0. -1.
</event>
<event>
 5   0  0.2471488E-06  0.2598312E+04  0.7818609E-02  0.8368775E-01
        1   -1    0    0  501    0  0.00000000000E+00  0.00000000000E+00  0.26010109296E+04  0.26010109296E+04  0.50400001928E-02 0.  1.
       -1   -1    0    0    0  501  0.00000000000E+00  0.00000000000E+00 -0.64890382810E+03  0.64890382812E+03  0.50400001928E-02 0. -1.
    10030    2    1    2    0    0  0.00000000000E+00  0.00000000000E+00  0.19521071015E+04  0.32499147577E+04  0.25983117205E+04 0.  0.
        4    1    3    3  502    0 -0.61832225277E+03  0.94326045798E+03  0.16957563710E+03  0.11405350540E+04  0.12699999809E+01 0. -1.
       -4    1    3    3    0  502  0.61832225277E+03 -0.94326045798E+03  0.17825314644E+04  0.21093797037E+04  0.12699999809E+01 0.  1.
</event>
<event>
 5   0  0.2333979E-06  0.2595134E+04  0.7818609E-02  0.8369856E-01
        1   -1    0    0  501    0  0.00000000000E+00  0.00000000000E+00  0.69876358348E+03  0.69876358350E+03  0.50400001928E-02 0. -1.
       -1   -1    0    0    0  501  0.00000000000E+00  0.00000000000E+00 -0.24095136098E+04  0.24095136098E+04  0.50400001928E-02 0.  1.
    10030    2    1    2    0    0  0.00000000000E+00  0.00000000000E+00 -0.17107500263E+04  0.31082771933E+04  0.25951341888E+04 0.  0.
        3    1    3    3  502    0  0.20286879152E+03  0.39000597592E+03  0.60685013782E+03  0.74935139140E+03  0.10100000352E+00 0. -1.
       -3    1    3    3    0  502 -0.20286879152E+03 -0.39000597592E+03 -0.23176001642E+04  0.23589258019E+04  0.10100000352E+00 0.  1.
</event>
<event>
 5   0  0.2456600E-06  0.2605023E+04  0.7818609E-02  0.8366497E-01
        1   -1    0    0  501    0  0.00000000000E+00  0.00000000000E+00  0.13652514818E+04  0.13652514819E+04  0.50400001928E-02 0.  1.
       -1   -1    0    0    0  501  0.00000000000E+00  0.00000000000E+00 -0.12426548613E+04  0.12426548613E+04  0.50400001928E-02 0. -1.
    10030    2    1    2    0    0  0.00000000000E+00  0.00000000000E+00  0.12259662056E+03  0.26079063431E+04  0.26050231406E+04 0.  0.
        5    1    3    3  502    0  0.15468363197E+03 -0.75111512573E+03  0.11152756595E+04  0.13535002197E+04  0.46999998093E+01 0.  1.
       -5    1    3    3    0  502 -0.15468363197E+03  0.75111512573E+03 -0.99267903896E+03  0.12544061234E+04  0.46999998093E+01 0. -1.
</event>
<event>
 5   0  0.6158063E-06  0.2598014E+04  0.7818609E-02  0.8368876E-01
       -2   -1    0    0    0  501  0.00000000000E+00  0.00000000000E+00  0.12309338582E+04  0.12309338582E+04  0.25500000920E-02 0. -1.
        2   -1    0    0  501    0  0.00000000000E+00  0.00000000000E+00 -0.13708445993E+04  0.13708445993E+04  0.25500000920E-02 0.  1.
    10030    2    1    2    0    0  0.00000000000E+00  0.00000000000E+00 -0.13991074111E+03  0.26017784574E+04  0.25980138810E+04 0.  0.
        2    1    3    3  502    0  0.50393477998E+03 -0.32143226585E+03 -0.12249478774E+04  0.13629989972E+04  0.25500000920E-02 0.  1.
       -2    1    3    3    0  502 -0.50393477998E+03  0.32143226585E+03  0.10850371363E+04  0.12387794602E+04  0.25500000920E-02 0. -1.
</event>
<event>
 5   0  0.6158063E-06  0.2598094E+04  0.7818609E-02  0.8368849E-01
       -2   -1    0    0    0  501  0.00000000000E+00  0.00000000000E+00  0.16186753463E+04  0.16186753463E+04  0.25500000920E-02 0. -1.
        2   -1    0    0  501    0  0.00000000000E+00  0.00000000000E+00 -0.10425330298E+04  0.10425330298E+04  0.25500000920E-02 0.  1.
    10030    2    1    2    0    0  0.00000000000E+00  0.00000000000E+00  0.57614231646E+03  0.26612083761E+04  0.25980935418E+04 0.  0.
        2    1    3    3  502    0 -0.65729720033E+03  0.68624196464E+03  0.11953395054E+04  0.15270246157E+04  0.25500000920E-02 0. -1.
       -2    1    3    3    0  502  0.65729720033E+03 -0.68624196464E+03 -0.61919718896E+03  0.11341837604E+04  0.25500000920E-02 0.  1.
</event>
<event>
 5   0  0.2471488E-06  0.2599520E+04  0.7818609E-02  0.8368364E-01
       -1   -1    0    0    0  501  0.00000000000E+00  0.00000000000E+00  0.84563815256E+03  0.84563815258E+03  0.50400001928E-02 0. -1.
        1   -1    0    0  501    0  0.00000000000E+00  0.00000000000E+00 -0.19977534994E+04  0.19977534994E+04  0.50400001928E-02 0.  1.
    10030    2    1    2    0    0  0.00000000000E+00  0.00000000000E+00 -0.11521153468E+04  0.28433916519E+04  0.25995204008E+04 0.  0.
        4    1    3    3  502    0 -0.96457671454E+03 -0.80467107419E+03 -0.21086271606E+03  0.12737222907E+04  0.12699999809E+01 0. -1.
       -4    1    3    3    0  502  0.96457671454E+03  0.80467107419E+03 -0.94125263074E+03  0.15696693613E+04  0.12699999809E+01 0.  1.
</event>
<event>
 5   0  0.2440590E-06  0.2503475E+04  0.7818609E-02  0.8401749E-01
        1   -1    0    0  501    0  0.00000000000E+00  0.00000000000E+00  0.12079082088E+04  0.12079082088E+04  0.50400001928E-02 0.  1.
       -1   -1    0    0    0  501  0.00000000000E+00  0.00000000000E+00 -0.12971574201E+04  0.12971574201E+04  0.50400001928E-02 0. -1.
    10030    2    1    2    0    0  0.00000000000E+00  0.00000000000E+00 -0.89249211271E+02  0.25050656289E+04  0.25034752612E+04 0.  0.
        1    1    3    3  502    0  0.10982799484E+04  0.25033209707E+03 -0.59083041065E+03  0.12719927586E+04  0.50400001928E-02 0. -1.
       -1    1    3    3    0  502 -0.10982799484E+04 -0.25033209707E+03  0.50158119938E+03  0.12330728703E+04  0.50400001928E-02 0.  1.
</event>
<event>
 5   0  0.2440590E-06  0.2597870E+04  0.7818609E-02  0.8368925E-01
       -1   -1    0    0    0  501  0.00000000000E+00  0.00000000000E+00  0.11161557829E+04  0.11161557829E+04  0.50400001928E-02 0. -1.
        1   -1    0    0  501    0  0.00000000000E+00  0.00000000000E+00 -0.15116456785E+04  0.15116456785E+04  0.50400001928E-02 0.  1.
    10030    2    1    2    0    0  0.00000000000E+00  0.00000000000E+00 -0.39548989561E+03  0.26278014614E+04  0.25978699473E+04 0.  0.
        1    1    3    3  502    0  0.65935776933E+03 -0.90844305247E+03 -0.85888910326E+03  0.14134043792E+04  0.50400001928E-02 0.  1.
       -1    1    3    3    0  502 -0.65935776933E+03  0.90844305247E+03  0.46339920765E+03  0.12143970822E+04  0.50400001928E-02 0. -1.
</event>
<event>
 5   0  0.2456600E-06  0.2597912E+04  0.7818609E-02  0.8368911E-01
        1   -1    0    0  501    0  0.00000000000E+00  0.00000000000E+00  0.13116758610E+04  0.13116758610E+04  0.50400001928E-02 0. -1.
       -1   -1    0    0    0  501  0.00000000000E+00  0.00000000000E+00 -0.12863598345E+04  0.12863598346E+04  0.50400001928E-02 0.  1.
    10030    2    1    2    0    0  0.00000000000E+00  0.00000000000E+00  0.25316026495E+02  0.25980356956E+04  0.25979123493E+04 0.  0.
        5    1    3    3  502    0 -0.16797328874E+03 -0.49805673850E+03  0.12005652071E+04  0.13105931660E+04  0.46999998093E+01 0. -1.
       -5    1    3    3    0  502  0.16797328874E+03  0.49805673850E+03 -0.11752491806E+04  0.12874425296E+04  0.46999998093E+01 0.  1.
</event>
<event>
 5   0  0.5942229E-06  0.2617516E+04  0.7818609E-02  0.8362276E-01
        2   -1    0    0  501    0  0.00000000000E+00  0.00000000000E+00  0.27531973651E+04  0.27531973651E+04  0.25500000920E-02 0. -1.
       -2   -1    0    0    0  501  0.00000000000E+00  0.00000000000E+00 -0.62213047659E+03  0.62213047659E+03  0.25500000920E-02 0.  1.
    10030    2    1    2    0    0  0.00000000000E+00  0.00000000000E+00  0.21310668885E+04  0.33753278417E+04  0.26175163716E+04 0.  0.
        4    1    3    3  502    0 -0.30171767386E+03  0.53336199672E+03  0.25567719712E+04  0.26291810702E+04  0.12699999809E+01 0. -1.
       -4    1    3    3    0  502  0.30171767386E+03 -0.53336199672E+03 -0.42570508270E+03  0.74614677149E+03  0.12699999809E+01 0.  1.
</event>
<event>
 5   0  0.6173140E-06  0.2606648E+04  0.7818609E-02  0.8365947E-01
       -2   -1    0    0    0  501  0.00000000000E+00  0.00000000000E+00  0.10460280407E+04  0.10460280407E+04  0.25500000920E-02 0. -1.
        2   -1    0    0  501    0  0.00000000000E+00  0.00000000000E+00 -0.16239082468E+04  0.16239082468E+04  0.25500000920E-02 0.  1.
    10030    2    1    2    0    0  0.00000000000E+00  0.00000000000E+00 -0.57788020610E+03  0.26699362875E+04  0.26066480865E+04 0.  0.
        3    1    3    3  502    0  0.38329071817E+02  0.17816781876E+03  0.10329126417E+04  0.10488667337E+04  0.10100000352E+00 0. -1.
       -3    1    3    3    0  502 -0.38329071817E+02 -0.17816781876E+03 -0.16107928478E+04  0.16210695538E+04  0.10100000352E+00 0.  1.
</event>
<event>
 5   0  0.5940748E-06  0.2532477E+04  0.7818609E-02  0.8391506E-01
       -2   -1    0    0    0  501  0.00000000000E+00  0.00000000000E+00  0.13023318144E+04  0.13023318145E+04  0.25500000920E-02 0. -1.
        2   -1    0    0  501    0  0.00000000000E+00  0.00000000000E+00 -0.12311457835E+04  0.12311457835E+04  0.25500000920E-02 0.  1.
    10030    2    1    2    0    0  0.00000000000E+00  0.00000000000E+00  0.71186030994E+02  0.25334775979E+04  0.25324773026E+04 0.  0.
        1    1    3    3  502    0 -0.11525633419E+04 -0.27051838969E+03  0.48496735427E+03  0.12793653861E+04  0.50400001928E-02 0. -1.
       -1    1    3    3    0  502  0.11525633419E+04  0.27051838969E+03 -0.41378132328E+03  0.12541122118E+04  0.50400001928E-02 0.  1.
</event>
<event>
 5   0  0.6173140E-06  0.2596691E+04  0.7818609E-02  0.8369326E-01
        2   -1    0    0  501    0  0.00000000000E+00  0.00000000000E+00  0.13401017138E+04  0.13401017138E+04  0.25500000920E-02 0. -1.
       -2   -1    0    0    0  501  0.00000000000E+00  0.00000000000E+00 -0.12578908408E+04  0.12578908408E+04  0.25500000920E-02 0.  1.
    10030    2    1    2    0    0  0.00000000000E+00  0.00000000000E+00  0.82210872966E+02  0.25979925546E+04  0.25966914885E+04 0.  0.
        3    1    3    3  502    0  0.44865796845E+03 -0.11866784335E+04 -0.23507994511E+03  0.12902566675E+04  0.10100000352E+00 0.  1.
       -3    1    3    3    0  502 -0.44865796845E+03  0.11866784335E+04  0.31729081807E+03  0.13077358872E+04  0.10100000352E+00 0. -1.
</event>
<event>
 5   0  0.6161834E-06  0.2609881E+04  0.7818609E-02  0.8364852E-01
       -2   -1    0    0    0  501  0.00000000000E+00  0.00000000000E+00  0.78110635499E+03  0.78110635499E+03  0.25500000920E-02 0. -1.
        2   -1    0    0  501    0  0.00000000000E+00  0.00000000000E+00 -0.21800745753E+04  0.21800745753E+04  0.25500000920E-02 0.  1.
    10030    2    1    2    0    0  0.00000000000E+00  0.00000000000E+00 -0.13989682203E+04  0.29611809303E+04  0.26098813039E+04 0.  0.
        5    1    3    3  502    0  0.61212654445E+03  0.62295542769E+03 -0.17995674511E+04  0.20003093442E+04  0.46999998093E+01 0.  1.
       -5    1    3    3    0  502 -0.61212654445E+03 -0.62295542769E+03  0.40059923080E+03  0.96087158612E+03  0.46999998093E+01 0. -1.
</event>
<event>
 5   0  0.2072125E-06  0.2590220E+04  0.7818609E-02  0.8371531E-01
        4   -1    0    0  501    0  0.00000000000E+00  0.00000000000E+00  0.95243749206E+03  0.95243833878E+03  0.12699999809E+01 0. -1.
       -4   -1    0    0    0  501  0.00000000000E+00  0.00000000000E+00 -0.17610688549E+04  0.17610693128E+04  0.12699999809E+01 0.  1.
    10030    2    1    2    0    0  0.00000000000E+00  0.00000000000E+00 -0.80863136280E+03  0.27135076516E+04  0.25902198930E+04 0.  0.
        2    1    3    3  502    0  0.37680094241E+03 -0.12068169601E+04 -0.11001044322E+03  0.12690502051E+04  0.25500000920E-02 0. -1.
       -2    1    3    3    0  502 -0.37680094241E+03  0.12068169601E+04 -0.69862091958E+03  0.14444574465E+04  0.25500000920E-02 0.  1.
</event>
<event>
 5   0  0.2333979E-06  0.2593990E+04  0.7818609E-02  0.8370245E-01
        1   -1    0    0  501    0  0.00000000000E+00  0.00000000000E+00  0.11822323932E+04  0.11822323932E+04  0.50400001928E-02 0.  1.
       -1   -1    0    0    0  501  0.00000000000E+00  0.00000000000E+00 -0.14228980316E+04  0.14228980316E+04  0.50400001928E-02 0. -1.
    10030    2    1    2    0    0  0.00000000000E+00  0.00000000000E+00 -0.24066563842E+03  0.26051304249E+04  0.25939900888E+04 0.  0.
        3    1    3    3  502    0  0.10061458378E+04  0.51549255339E+03  0.51811280591E+03  0.12435847013E+04  0.10100000352E+00 0.  1.
       -3    1    3    3    0  502 -0.10061458378E+04 -0.51549255339E+03 -0.75877844433E+03  0.13615457235E+04  0.10100000352E+00 0. -1.
</event>
<event>
 5   0  0.5940748E-06  0.2602053E+04  0.7818609E-02  0.8367504E-01
       -2   -1    0    0    0  501  0.00000000000E+00  0.00000000000E+00  0.13093618604E+04  0.13093618604E+04  0.25500000920E-02 0.  1.
        2   -1    0    0  501    0  0.00000000000E+00  0.00000000000E+00 -0.12927446458E+04  0.12927446458E+04  0.25500000920E-02 0. -1.
    10030    2    1    2    0    0  0.00000000000E+00  0.00000000000E+00  0.16617214588E+02  0.26021065063E+04  0.26020534465E+04 0.  0.
        1    1    3    3  502    0 -0.11127466245E+04 -0.66477440942E+03  0.12029512548E+03  0.13017684060E+04  0.50400001928E-02 0.  1.
       -1    1    3    3    0  502  0.11127466245E+04  0.66477440942E+03 -0.10367791089E+03  0.13003381002E+04  0.50400001928E-02 0. -1.
</event>
<event>
 5   0  0.2333979E-06  0.2601588E+04  0.7818609E-02  0.8367662E-01
       -1   -1    0    0    0  501  0.00000000000E+00  0.00000000000E+00  0.21180434922E+04  0.21180434922E+04  0.50400001928E-02 0.  1.
        1   -1    0    0  501    0  0.00000000000E+00  0.00000000000E+00 -0.79888130299E+03  0.79888130300E+03  0.50400001928E-02 0. -1.
    10030    2    1    2    0    0  0.00000000000E+00  0.00000000000E+00  0.13191621892E+04  0.29169247952E+04  0.26015882417E+04 0.  0.
        3    1    3    3  502    0 -0.11883947573E+04 -0.45279776554E+03  0.96613991808E+03  0.15971018337E+04  0.10100000352E+00 0.  1.
       -3    1    3    3    0  502  0.11883947573E+04  0.45279776554E+03  0.35302227117E+03  0.13198229615E+04  0.10100000352E+00 0. -1.
</event>
<event>
 5   0  0.2503292E-06  0.2607847E+04  0.7818609E-02  0.8365541E-01
       -1   -1    0    0    0  501  0.00000000000E+00  0.00000000000E+00  0.12791192771E+04  0.12791192771E+04  0.50400001928E-02 0. -1.
        1   -1    0    0  501    0  0.00000000000E+00  0.00000000000E+00 -0.13292090674E+04  0.13292090674E+04  0.50400001928E-02 0.  1.
    10030    2    1    2    0    0  0.00000000000E+00  0.00000000000E+00 -0.50089790342E+02  0.26083283445E+04  0.26078473433E+04 0.  0.
        2    1    3    3  502    0 -0.57639508920E+03  0.86875829383E+03  0.75819894214E+03  0.12891229219E+04  0.25500000920E-02 0.  1.
       -2    1    3    3    0  502  0.57639508920E+03 -0.86875829383E+03 -0.80828873248E+03  0.13192054226E+04  0.25500000920E-02 0. -1.
</event>
<event>
 5   0  0.2471488E-06  0.2595782E+04  0.7818609E-02  0.8369635E-01
       -1   -1    0    0    0  501  0.00000000000E+00  0.00000000000E+00  0.10292785794E+04  0.10292785794E+04  0.50400001928E-02 0. -1.
        1   -1    0    0  501    0  0.00000000000E+00  0.00000000000E+00 -0.16366036669E+04  0.16366036669E+04  0.50400001928E-02 0.  1.
    10030    2    1    2    0    0  0.00000000000E+00  0.00000000000E+00 -0.60732508754E+03  0.26658822464E+04  0.25957820381E+04 0.  0.
        4    1    3    3  502    0 -0.93000684273E+02 -0.33638111583E+03 -0.15875089241E+04  0.16254192011E+04  0.12699999809E+01 0.  1.
       -4    1    3    3    0  502  0.93000684273E+02  0.33638111583E+03  0.98018383651E+03  0.10404630453E+04  0.12699999809E+01 0. -1.
</event>
<event>
 5   0  0.5942229E-06  0.2582379E+04  0.7818609E-02  0.8374211E-01
       -2   -1    0    0    0  501  0.00000000000E+00  0.00000000000E+00  0.13284695548E+04  0.13284695548E+04  0.25500000920E-02 0.  1.
        2   -1    0    0  501    0  0.00000000000E+00  0.00000000000E+00 -0.12549557305E+04  0.12549557305E+04  0.25500000920E-02 0. -1.
    10030    2    1    2    0    0  0.00000000000E+00  0.00000000000E+00  0.73513824296E+02  0.25834252853E+04  0.25823791205E+04 0.  0.
        4    1    3    3  502    0 -0.84581260169E+03  0.91610188466E+03  0.37234362102E+03  0.13012620817E+04  0.12699999809E+01 0.  1.
       -4    1    3    3    0  502  0.84581260169E+03 -0.91610188466E+03 -0.29882979673E+03  0.12821632036E+04  0.12699999809E+01 0. -1.
</event>
<event>
 5   0  0.2456600E-06  0.2600801E+04  0.7818609E-02  0.8367929E-01
        1   -1    0    0  501    0  0.00000000000E+00  0.00000000000E+00  0.20022269544E+04  0.20022269544E+04  0.50400001928E-02 0.  1.
       -1   -1    0    0    0  501  0.00000000000E+00  0.00000000000E+00 -0.84458032400E+03  0.84458032401E+03  0.50400001928E-02 0. -1.
    10030    2    1    2    0    0  0.00000000000E+00  0.00000000000E+00  0.11576466304E+04  0.28468072784E+04  0.26008010227E+04 0.  0.
        5    1    3    3  502    0 -0.30922391883E+03 -0.11206547058E+04 -0.58987581327E+02  0.11640395295E+04  0.46999998093E+01 0. -1.
       -5    1    3    3    0  502  0.30922391883E+03  0.11206547058E+04  0.12166342117E+04  0.16827677489E+04  0.46999998093E+01 0.  1.
</event>
<event>
 5   0  0.2456600E-06  0.2605768E+04  0.7818609E-02  0.8366245E-01
        1   -1    0    0  501    0  0.00000000000E+00  0.00000000000E+00  0.12155903334E+04  0.12155903334E+04  0.50400001928E-02 0.  1.
       -1   -1    0    0    0  501  0.00000000000E+00  0.00000000000E+00 -0.13964462800E+04  0.13964462801E+04  0.50400001928E-02 0. -1.
    10030    2    1    2    0    0  0.00000000000E+00  0.00000000000E+00 -0.18085594667E+03  0.26120366135E+04  0.26057679092E+04 0.  0.
        5    1    3    3  502    0 -0.10610736035E+04  0.68750450922E+03  0.22488378270E+03  0.12841862980E+04  0.46999998093E+01 0.  1.
       -5    1    3    3    0  502  0.10610736035E+04 -0.68750450922E+03 -0.40573972936E+03  0.13278503155E+04  0.46999998093E+01 0. -1.
</event>
<event>
 5   0  0.2456600E-06  0.2586773E+04  0.7818609E-02  0.8372708E-01
        1   -1    0    0  501    0  0.00000000000E+00  0.00000000000E+00  0.14234759265E+04  0.14234759265E+04  0.50400001928E-02 0.  1.
       -1   -1    0    0    0  501  0.00000000000E+00  0.00000000000E+00 -0.11751856549E+04  0.11751856549E+04  0.50400001928E-02 0. -1.
    10030    2    1    2    0    0  0.00000000000E+00  0.00000000000E+00  0.24829027157E+03  0.25986615814E+04  0.25867728844E+04 0.  0.
        5    1    3    3  502    0 -0.15716816256E+03  0.97159669498E+03 -0.71883265406E+03  0.12187881045E+04  0.46999998093E+01 0. -1.
       -5    1    3    3    0  502  0.15716816256E+03 -0.97159669498E+03  0.96712292563E+03  0.13798734769E+04  0.46999998093E+01 0.  1.
</event>
<event>
 5   0  0.6161834E-06  0.2603786E+04  0.7818609E-02  0.8366916E-01
        2   -1    0    0  501    0  0.00000000000E+00  0.00000000000E+00  0.96615536821E+03  0.96615536821E+03  0.25500000920E-02 0. -1.
       -2   -1    0    0    0  501  0.00000000000E+00  0.00000000000E+00 -0.17542991394E+04  0.17542991394E+04  0.25500000920E-02 0.  1.
    10030    2    1    2    0    0  0.00000000000E+00  0.00000000000E+00 -0.78814377121E+03  0.27204545076E+04  0.26037861133E+04 0.  0.
        5    1    3    3  502    0  0.78905299297E+03  0.46899598705E+03 -0.13586624268E+04  0.16396790971E+04  0.46999998093E+01 0.  1.
       -5    1    3    3    0  502 -0.78905299297E+03 -0.46899598705E+03  0.57051865558E+03  0.10807754105E+04  0.46999998093E+01 0. -1.
</event>
<event>
 5   0  0.5940748E-06  0.2647143E+04  0.7818609E-02  0.8352362E-01
       -2   -1    0    0    0  501  0.00000000000E+00  0.00000000000E+00  0.76203291529E+03  0.76203291529E+03  0.25500000920E-02 0. -1.
        2   -1    0    0  501    0  0.00000000000E+00  0.00000000000E+00 -0.22989061555E+04  0.22989061555E+04  0.25500000920E-02 0.  1.
    10030    2    1    2    0    0  0.00000000000E+00  0.00000000000E+00 -0.15368732402E+04  0.30609390708E+04  0.26471434866E+04 0.  0.
        1    1    3    3  502    0  0.10298783604E+04 -0.46881953422E+03  0.25475508577E+02  0.11318525498E+04  0.50400001928E-02 0. -1.
       -1    1    3    3    0  502 -0.10298783604E+04  0.46881953422E+03 -0.15623487488E+04  0.19290865211E+04  0.50400001928E-02 0.  1.
</event>
<event>
 5   0  0.2503292E-06  0.2615363E+04  0.7818609E-02  0.8363001E-01
       -1   -1    0    0    0  501  0.00000000000E+00  0.00000000000E+00  0.95372244149E+03  0.95372244150E+03  0.50400001928E-02 0.  1.
        1   -1    0    0  501    0  0.00000000000E+00  0.00000000000E+00 -0.17930068155E+04  0.17930068155E+04  0.50400001928E-02 0. -1.
    10030    2    1    2    0    0  0.00000000000E+00  0.00000000000E+00 -0.83928437399E+03  0.27467292570E+04  0.26153629482E+04 0.  0.
        2    1    3    3  502    0 -0.85959222502E+03  0.10465067055E+03 -0.14487485847E+04  0.16878160498E+04  0.25500000920E-02 0. -1.
       -2    1    3    3    0  502  0.85959222502E+03 -0.10465067055E+03  0.60946421075E+03  0.10589132072E+04  0.25500000920E-02 0.  1.
</event>
<event>
 5   0  0.6161834E-06  0.2588000E+04  0.7818609E-02  0.8372289E-01
       -2   -1    0    0    0  501  0.00000000000E+00  0.00000000000E+00  0.18629143783E+04  0.18629143783E+04  0.25500000920E-02 0. -1.
        2   -1    0    0  501    0  0.00000000000E+00  0.00000000000E+00 -0.89882583321E+03  0.89882583322E+03  0.25500000920E-02 0.  1.
    10030    2    1    2    0    0  0.00000000000E+00  0.00000000000E+00  0.96408854505E+03  0.27617402115E+04  0.25879996663E+04 0.  0.
        5    1    3    3  502    0  0.90541399284E+03 -0.90078640132E+03  0.70390235345E+03  0.14583179531E+04  0.46999998093E+01 0.  1.
       -5    1    3    3    0  502 -0.90541399284E+03  0.90078640132E+03  0.26018619160E+03  0.13034222583E+04  0.46999998093E+01 0. -1.
</event>
<event>
 5   0  0.5940748E-06  0.2650416E+04  0.7818609E-02  0.8351275E-01
        2   -1    0    0  501    0  0.00000000000E+00  0.00000000000E+00  0.24854363057E+04  0.24854363057E+04  0.25500000920E-02 0. -1.
       -2   -1    0    0    0  501  0.00000000000E+00  0.00000000000E+00 -0.70658669872E+03  0.70658669873E+03  0.25500000920E-02 0.  1.
    10030    2    1    2    0    0  0.00000000000E+00  0.00000000000E+00  0.17788496070E+04  0.31920230044E+04  0.26504159931E+04 0.  0.
        1    1    3    3  502    0 -0.12982526359E+04  0.45606224734E+02  0.12049464914E+04  0.17718453323E+04  0.50400001928E-02 0. -1.
       -1    1    3    3    0  502  0.12982526359E+04 -0.45606224734E+02  0.57390311563E+03  0.14201776722E+04  0.50400001928E-02 0.  1.
</event>
<event>
 5   0  0.2072125E-06  0.2589044E+04  0.7818609E-02  0.8371932E-01
       -3   -1    0    0    0  501  0.00000000000E+00  0.00000000000E+00  0.15868303273E+04  0.15868303305E+04  0.10100000352E+00 0. -1.
        3   -1    0    0  501    0  0.00000000000E+00  0.00000000000E+00 -0.10560596044E+04  0.10560596092E+04  0.10100000352E+00 0.  1.
    10030    2    1    2    0    0  0.00000000000E+00  0.00000000000E+00  0.53077072289E+03  0.26428899397E+04  0.25890441621E+04 0.  0.
        3    1    3    3  502    0 -0.12547080266E+04 -0.30565666528E+03  0.35708218526E+03  0.13398604130E+04  0.10100000352E+00 0. -1.
       -3    1    3    3    0  502  0.12547080266E+04  0.30565666528E+03  0.17368853763E+03  0.13030295267E+04  0.10100000352E+00 0.  1.
</event>
<event>
 5   0  0.5940748E-06  0.2599663E+04  0.7818609E-02  0.8368316E-01
        2   -1    0    0  501    0  0.00000000000E+00  0.00000000000E+00  0.19306786851E+04  0.19306786851E+04  0.25500000920E-02 0.  1.
       -2   -1    0    0    0  501  0.00000000000E+00  0.00000000000E+00 -0.87511284034E+03  0.87511284034E+03  0.25500000920E-02 0. -1.
    10030    2    1    2    0    0  0.00000000000E+00  0.00000000000E+00  0.10555658448E+04  0.28057915255E+04  0.25996628304E+04 0.  0.
        1    1    3    3  502    0 -0.12379066157E+03  0.77686794780E+02 -0.86621696183E+03  0.87845955567E+03  0.50400001928E-02 0. -1.
       -1    1    3    3    0  502  0.12379066157E+03 -0.77686794780E+02  0.19217828066E+04  0.19273319698E+04  0.50400001928E-02 0.  1.
</event>
<event>
 5   0  0.6173140E-06  0.2599595E+04  0.7818609E-02  0.8368339E-01
       -2   -1    0    0    0  501  0.00000000000E+00  0.00000000000E+00  0.13862871417E+04  0.13862871417E+04  0.25500000920E-02 0.  1.
        2   -1    0    0  501    0  0.00000000000E+00  0.00000000000E+00 -0.12187041698E+04  0.12187041698E+04  0.25500000920E-02 0. -1.
    10030    2    1    2    0    0  0.00000000000E+00  0.00000000000E+00  0.16758297193E+03  0.26049913115E+04  0.25995952917E+04 0.  0.
        3    1    3    3  502    0 -0.81958952828E+03  0.30368807057E+03 -0.88024517965E+03  0.12404777409E+04  0.10100000352E+00 0. -1.
       -3    1    3    3    0  502  0.81958952828E+03 -0.30368807057E+03  0.10478281516E+04  0.13645135707E+04  0.10100000352E+00 0.  1.
</event>
<event>
 5   0  0.2471488E-06  0.2592075E+04  0.7818609E-02  0.8370898E-01
       -1   -1    0    0    0  501  0.00000000000E+00  0.00000000000E+00  0.10068266652E+04  0.10068266652E+04  0.50400001928E-02 0. -1.
        1   -1    0    0  501    0  0.00000000000E+00  0.00000000000E+00 -0.16683245873E+04  0.16683245873E+04  0.50400001928E-02 0.  1.
    10030    2    1    2    0    0  0.00000000000E+00  0.00000000000E+00 -0.66149792212E+03  0.26751512525E+04  0.25920753698E+04 0.  0.
        4    1    3    3  502    0 -0.57027665055E+03  0.11121190693E+02 -0.15318231908E+04  0.16345712098E+04  0.12699999809E+01 0.  1.
       -4    1    3    3    0  502  0.57027665055E+03 -0.11121190693E+02  0.87032526869E+03  0.10405800427E+04  0.12699999809E+01 0. -1.
</event>
<event>
 5   0  0.2471488E-06  0.2607554E+04  0.7818609E-02  0.8365640E-01
       -1   -1    0    0    0  501  0.00000000000E+00  0.00000000000E+00  0.12593311886E+04  0.12593311886E+04  0.50400001928E-02 0.  1.
        1   -1    0    0  501    0  0.00000000000E+00  0.00000000000E+00 -0.13497915478E+04  0.13497915478E+04  0.50400001928E-02 0. -1.
    10030    2    1    2    0    0  0.00000000000E+00  0.00000000000E+00 -0.90460359200E+02  0.26091227364E+04  0.26075540985E+04 0.  0.
        4    1    3    3  502    0  0.41245607706E+03  0.11567155558E+04  0.39289403608E+03  0.12893712534E+04  0.12699999809E+01 0.  1.
       -4    1    3    3    0  502 -0.41245607706E+03 -0.11567155558E+04 -0.48335439528E+03  0.13197514830E+04  0.12699999809E+01 0. -1.
</event>
<event>
 5   0  0.2440590E-06  0.2586254E+04  0.7818609E-02  0.8372885E-01
       -1   -1    0    0    0  501  0.00000000000E+00  0.00000000000E+00  0.10648762546E+04  0.10648762546E+04  0.50400001928E-02 0. -1.
        1   -1    0    0  501    0  0.00000000000E+00  0.00000000000E+00 -0.15703020790E+04  0.15703020790E+04  0.50400001928E-02 0.  1.
    10030    2    1    2    0    0  0.00000000000E+00  0.00000000000E+00 -0.50542582440E+03  0.26351783337E+04  0.25862539679E+04 0.  0.
        1    1    3    3  502    0  0.59793643090E+00  0.49595880813E+03 -0.14695413376E+04  0.15509762216E+04  0.50400001928E-02 0.  1.
       -1    1    3    3    0  502 -0.59793643090E+00 -0.49595880813E+03  0.96411551325E+03  0.10842021121E+04  0.50400001928E-02 0. -1.
</event>
<event>
 5   0  0.6161834E-06  0.2597330E+04  0.7818609E-02  0.8369109E-01
        2   -1    0    0  501    0  0.00000000000E+00  0.00000000000E+00  0.12849902255E+04  0.12849902255E+04  0.25500000920E-02 0. -1.
       -2   -1    0    0    0  501  0.00000000000E+00  0.00000000000E+00 -0.13124851857E+04  0.13124851857E+04  0.25500000920E-02 0.  1.
    10030    2    1    2    0    0  0.00000000000E+00  0.00000000000E+00 -0.27494960295E+02  0.25974754112E+04  0.25973298864E+04 0.  0.
        5    1    3    3  502    0 -0.49016335945E+03  0.52274910666E+03 -0.10968510034E+04  0.13102026412E+04  0.46999998093E+01 0.  1.
       -5    1    3    3    0  502  0.49016335945E+03 -0.52274910666E+03  0.10693560431E+04  0.12872727700E+04  0.46999998093E+01 0. -1.
</event>
<event>
 5   0  0.2440590E-06  0.2594173E+04  0.7818609E-02  0.8370183E-01
        1   -1    0    0  501    0  0.00000000000E+00  0.00000000000E+00  0.75710414396E+03  0.75710414397E+03  0.50400001928E-02 0.  1.
       -1   -1    0    0    0  501  0.00000000000E+00  0.00000000000E+00 -0.22221959857E+04  0.22221959857E+04  0.50400001928E-02 0. -1.
    10030    2    1    2    0    0  0.00000000000E+00  0.00000000000E+00 -0.14650918418E+04  0.29793001297E+04  0.25941733092E+04 0.  0.
        1    1    3    3  502    0  0.51656588008E+03 -0.85461292931E+03  0.21813225344E+03  0.10221473707E+04  0.50400001928E-02 0.  1.
       -1    1    3    3    0  502 -0.51656588008E+03  0.85461292931E+03 -0.16832240952E+04  0.19571527590E+04  0.50400001928E-02 0. -1.
</event>
<event>
 5   0  0.6161834E-06  0.2595318E+04  0.7818609E-02  0.8369793E-01
       -2   -1    0    0    0  501  0.00000000000E+00  0.00000000000E+00  0.26412882226E+04  0.26412882226E+04  0.25500000920E-02 0. -1.
        2   -1    0    0  501    0  0.00000000000E+00  0.00000000000E+00 -0.63753702206E+03  0.63753702207E+03  0.25500000920E-02 0.  1.
    10030    2    1    2    0    0  0.00000000000E+00  0.00000000000E+00  0.20037512005E+04  0.32788252447E+04  0.25953181137E+04 0.  0.
        5    1    3    3  502    0 -0.77342214611E+03  0.10267647443E+04  0.12259906842E+04  0.17763735260E+04  0.46999998093E+01 0. -1.
       -5    1    3    3    0  502  0.77342214611E+03 -0.10267647443E+04  0.77776051634E+03  0.15024517187E+04  0.46999998093E+01 0.  1.
</event>
<event>
 5   0  0.5940748E-06  0.2599852E+04  0.7818609E-02  0.8368251E-01
       -2   -1    0    0    0  501  0.00000000000E+00  0.00000000000E+00  0.95916721985E+03  0.95916721985E+03  0.25500000920E-02 0. -1.
        2   -1    0    0  501    0  0.00000000000E+00  0.00000000000E+00 -0.17617449226E+04  0.17617449226E+04  0.25500000920E-02 0.  1.
    10030    2    1    2    0    0  0.00000000000E+00  0.00000000000E+00 -0.80257770274E+03  0.27209121425E+04  0.25998522877E+04 0.  0.
        1    1    3    3  502    0 -0.12743058426E+04  0.17276505582E+03 -0.20242835262E+03  0.13017989026E+04  0.50400001928E-02 0. -1.
       -1    1    3    3    0  502  0.12743058426E+04 -0.17276505582E+03 -0.60014935012E+03  0.14191132398E+04  0.50400001928E-02 0.  1.
</event>
<event>
 5   0  0.5942229E-06  0.2602349E+04  0.7818609E-02  0.8367404E-01
        2   -1    0    0  501    0  0.00000000000E+00  0.00000000000E+00  0.19434175104E+04  0.19434175104E+04  0.25500000920E-02 0.  1.
       -2   -1    0    0    0  501  0.00000000000E+00  0.00000000000E+00 -0.87117413839E+03  0.87117413839E+03  0.25500000920E-02 0. -1.
    10030    2    1    2    0    0  0.00000000000E+00  0.00000000000E+00  0.10722433720E+04  0.28145916488E+04  0.26023489967E+04 0.  0.
        4    1    3    3  502    0  0.11103716999E+04 -0.67080915815E+03  0.42719410608E+03  0.13657989076E+04  0.12699999809E+01 0.  1.
       -4    1    3    3    0  502 -0.11103716999E+04  0.67080915815E+03  0.64504926594E+03  0.14487927412E+04  0.12699999809E+01 0. -1.
</event>
<event>
 5   0  0.6161834E-06  0.2592028E+04  0.7818609E-02  0.8370914E-01
       -2   -1    0    0    0  501  0.00000000000E+00  0.00000000000E+00  0.12014184537E+04  0.12014184537E+04  0.25500000920E-02 0. -1.
        2   -1    0    0  501    0  0.00000000000E+00  0.00000000000E+00 -0.13980572445E+04  0.13980572445E+04  0.25500000920E-02 0.  1.
    10030    2    1    2    0    0  0.00000000000E+00  0.00000000000E+00 -0.19663879086E+03  0.25994756982E+04  0.25920276023E+04 0.  0.
        5    1    3    3  502    0 -0.19285983459E+03 -0.67476336229E+03  0.99436597452E+03  0.12170810541E+04  0.46999998093E+01 0. -1.
       -5    1    3    3    0  502  0.19285983459E+03  0.67476336229E+03 -0.11910047654E+04  0.13823946441E+04  0.46999998093E+01 0.  1.
</event>
<event>
 5   0  0.2471488E-06  0.2703347E+04  0.7818609E-02  0.8333920E-01
        1   -1    0    0  501    0  0.00000000000E+00  0.00000000000E+00  0.25432651078E+04  0.25432651078E+04  0.50400001928E-02 0.  1.
       -1   -1    0    0    0  501  0.00000000000E+00  0.00000000000E+00 -0.71837602767E+03  0.71837602768E+03  0.50400001928E-02 0. -1.
    10030    2    1    2    0    0  0.00000000000E+00  0.00000000000E+00  0.18248890801E+04  0.32616411355E+04  0.27033465819E+04 0.  0.
        4    1    3    3  502    0 -0.12082137406E+04  0.58375050090E+03  0.71613378870E+03  0.15209846503E+04  0.12699999809E+01 0.  1.
       -4    1    3    3    0  502  0.12082137406E+04 -0.58375050090E+03  0.11087552914E+04  0.17406564852E+04  0.12699999809E+01 0. -1.
</event>
<event>
 5   0  0.5940748E-06  0.2599905E+04  0.7818609E-02  0.8368233E-01
       -2   -1    0    0    0  501  0.00000000000E+00  0.00000000000E+00  0.10899564644E+04  0.10899564644E+04  0.25500000920E-02 0.  1.
        2   -1    0    0  501    0  0.00000000000E+00  0.00000000000E+00 -0.15504073441E+04  0.15504073441E+04  0.25500000920E-02 0. -1.
    10030    2    1    2    0    0  0.00000000000E+00  0.00000000000E+00 -0.46045087969E+03  0.26403638085E+04  0.25999050037E+04 0.  0.
        1    1    3    3  502    0 -0.11070002720E+04  0.36107870986E+03 -0.81718938476E+03  0.14225420653E+04  0.50400001928E-02 0. -1.
       -1    1    3    3    0  502  0.11070002720E+04 -0.36107870986E+03  0.35673850506E+03  0.12178217431E+04  0.50400001928E-02 0.  1.
</event>
<event>
 5   0  0.2471488E-06  0.2592387E+04  0.7818609E-02  0.8370792E-01
       -1   -1    0    0    0  501  0.00000000000E+00  0.00000000000E+00  0.10721502599E+04  0.10721502600E+04  0.50400001928E-02 0.  1.
        1   -1    0    0  501    0  0.00000000000E+00  0.00000000000E+00 -0.15670538215E+04  0.15670538215E+04  0.50400001928E-02 0. -1.
    10030    2    1    2    0    0  0.00000000000E+00  0.00000000000E+00 -0.49490356153E+03  0.26392040814E+04  0.25923866703E+04 0.  0.
        4    1    3    3  502    0 -0.44298544471E+03  0.11497566745E+04  0.16223218531E+03  0.12427781015E+04  0.12699999809E+01 0.  1.
       -4    1    3    3    0  502  0.44298544471E+03 -0.11497566745E+04 -0.65713574685E+03  0.13964259799E+04  0.12699999809E+01 0. -1.
</event>
<event>
 5   0  0.2503292E-06  0.2598204E+04  0.7818609E-02  0.8368811E-01
        1   -1    0    0  501    0  0.00000000000E+00  0.00000000000E+00  0.60806306143E+03  0.60806306145E+03  0.50400001928E-02 0. -1.
       -1   -1    0    0    0  501  0.00000000000E+00  0.00000000000E+00 -0.27754794453E+04  0.27754794453E+04  0.50400001928E-02 0.  1.
    10030    2    1    2    0    0  0.00000000000E+00  0.00000000000E+00 -0.21674163839E+04  0.33835425068E+04  0.25982044019E+04 0.  0.
        2    1    3    3  502    0  0.66767230443E+03  0.27671119836E+03 -0.24894943759E+04  0.25922842516E+04  0.25500000920E-02 0.  1.
       -2    1    3    3    0  502 -0.66767230443E+03 -0.27671119836E+03  0.32207799203E+03  0.79125825516E+03  0.25500000920E-02 0. -1.
</event>
<event>
 5   0  0.2503292E-06  0.2587139E+04  0.7818609E-02  0.8372583E-01
       -1   -1    0    0    0  501  0.00000000000E+00  0.00000000000E+00  0.10456308101E+04  0.10456308101E+04  0.50400001928E-02 0. -1.
        1   -1    0    0  501    0  0.00000000000E+00  0.00000000000E+00 -0.16002995374E+04  0.16002995374E+04  0.50400001928E-02 0.  1.
    10030    2    1    2    0    0  0.00000000000E+00  0.00000000000E+00 -0.55466872729E+03  0.26459303475E+04  0.25871393482E+04 0.  0.
        2    1    3    3  502    0  0.79049139867E+03 -0.15713643005E+03  0.75746556590E+03  0.11060391460E+04  0.25500000920E-02 0. -1.
       -2    1    3    3    0  502 -0.79049139867E+03  0.15713643005E+03 -0.13121342932E+04  0.15398912015E+04  0.25500000920E-02 0.  1.
</event>
<event>
 5   0  0.2440590E-06  0.2605362E+04  0.7818609E-02  0.8366382E-01
       -1   -1    0    0    0  501  0.00000000000E+00  0.00000000000E+00  0.90995540922E+03  0.90995540923E+03  0.50400001928E-02 0. -1.
        1   -1    0    0  501    0  0.00000000000E+00  0.00000000000E+00 -0.18649028129E+04  0.18649028129E+04  0.50400001928E-02 0.  1.
    10030    2    1    2    0    0  0.00000000000E+00  0.00000000000E+00 -0.95494740364E+03  0.27748582221E+04  0.26053624717E+04 0.  0.
        1    1    3    3  502    0 -0.10424789068E+03  0.98134495531E+02 -0.18564978950E+04  0.18620103211E+04  0.50400001928E-02 0.  1.
       -1    1    3    3    0  502  0.10424789068E+03 -0.98134495531E+02  0.90155049131E+03  0.91284790099E+03  0.50400001928E-02 0. -1.
</event>
<event>
 5   0  0.2471488E-06  0.2610906E+04  0.7818609E-02  0.8364506E-01
       -1   -1    0    0    0  501  0.00000000000E+00  0.00000000000E+00  0.98750665417E+03  0.98750665418E+03  0.50400001928E-02 0.  1.
        1   -1    0    0  501    0  0.00000000000E+00  0.00000000000E+00 -0.17257677197E+04  0.17257677197E+04  0.50400001928E-02 0. -1.
    10030    2    1    2    0    0  0.00000000000E+00  0.00000000000E+00 -0.73826106550E+03  0.27132743739E+04  0.26109056718E+04 0.  0.
        4    1    3    3  502    0 -0.26779704979E+03 -0.94944843518E+03  0.51940025095E+03  0.11148748022E+04  0.12699999809E+01 0.  1.
       -4    1    3    3    0  502  0.26779704979E+03  0.94944843518E+03 -0.12576613165E+04  0.15983995717E+04  0.12699999809E+01 0. -1.
</event>
<event>
 5   0  0.5942229E-06  0.2599706E+04  0.7818609E-02  0.8368301E-01
       -2   -1    0    0    0  501  0.00000000000E+00  0.00000000000E+00  0.69442668184E+03  0.69442668184E+03  0.25500000920E-02 0.  1.
        2   -1    0    0  501    0  0.00000000000E+00  0.00000000000E+00 -0.24331122826E+04  0.24331122826E+04  0.25500000920E-02 0. -1.
    10030    2    1    2    0    0  0.00000000000E+00  0.00000000000E+00 -0.17386856007E+04  0.31275389644E+04  0.25997062057E+04 0.  0.
        4    1    3    3  502    0 -0.87295753931E+03 -0.96066345152E+03 -0.95170763848E+03  0.16095583787E+04  0.12699999809E+01 0. -1.
       -4    1    3    3    0  502  0.87295753931E+03  0.96066345152E+03 -0.78697796227E+03  0.15179805857E+04  0.12699999809E+01 0.  1.
</event>
<event>
 5   0  0.5942229E-06  0.2597544E+04  0.7818609E-02  0.8369036E-01
       -2   -1    0    0    0  501  0.00000000000E+00  0.00000000000E+00  0.10283096902E+04  0.10283096902E+04  0.25500000920E-02 0. -1.
        2   -1    0    0  501    0  0.00000000000E+00  0.00000000000E+00 -0.16403708917E+04  0.16403708917E+04  0.25500000920E-02 0.  1.
    10030    2    1    2    0    0  0.00000000000E+00  0.00000000000E+00 -0.61206120145E+03  0.26686805819E+04  0.25975444431E+04 0.  0.
        4    1    3    3  502    0 -0.36273462672E+03  0.59953246756E+03 -0.14295005110E+04  0.15920078244E+04  0.12699999809E+01 0.  1.
       -4    1    3    3    0  502  0.36273462672E+03 -0.59953246756E+03  0.81743930954E+03  0.10766727575E+04  0.12699999809E+01 0. -1.
</event>
<event>
 5   0  0.2456600E-06  0.2599444E+04  0.7818609E-02  0.8368390E-01
        1   -1    0    0  501    0  0.00000000000E+00  0.00000000000E+00  0.13986343649E+04  0.13986343649E+04  0.50400001928E-02 0. -1.
       -1   -1    0    0    0  501  0.00000000000E+00  0.00000000000E+00 -0.12078051085E+04  0.12078051085E+04  0.50400001928E-02 0.  1.
    10030    2    1    2    0    0  0.00000000000E+00  0.00000000000E+00  0.19082925639E+03  0.26064394734E+04  0.25994443489E+04 0.  0.
        5    1    3    3  502    0  0.53447201178E+03  0.33952986732E+03  0.12335085776E+04  0.13865447570E+04  0.46999998093E+01 0. -1.
       -5    1    3    3    0  502 -0.53447201178E+03 -0.33952986732E+03 -0.10426793212E+04  0.12198947164E+04  0.46999998093E+01 0.  1.
</event>
<event>
 5   0  0.6158063E-06  0.2600858E+04  0.7818609E-02  0.8367910E-01
        2   -1    0    0  501    0  0.00000000000E+00  0.00000000000E+00  0.95488909612E+03  0.95488909613E+03  0.25500000920E-02 0. -1.
       -2   -1    0    0    0  501  0.00000000000E+00  0.00000000000E+00 -0.17710079248E+04  0.17710079248E+04  0.25500000920E-02 0.  1.
    10030    2    1    2    0    0  0.00000000000E+00  0.00000000000E+00 -0.81611882869E+03  0.27258970209E+04  0.26008584403E+04 0.  0.
        2    1    3    3  502    0  0.48623664531E+03  0.11314776324E+04  0.29690717871E+02  0.12318884879E+04  0.25500000920E-02 0.  1.
       -2    1    3    3    0  502 -0.48623664531E+03 -0.11314776324E+04 -0.84580954656E+03  0.14940085331E+04  0.25500000920E-02 0. -1.
</event>
<event>
 5   0  0.2456600E-06  0.2622208E+04  0.7818609E-02  0.8360697E-01
       -1   -1    0    0    0  501  0.00000000000E+00  0.00000000000E+00  0.85693140484E+03  0.85693140486E+03  0.50400001928E-02 0.  1.
        1   -1    0    0  501    0  0.00000000000E+00  0.00000000000E+00 -0.20059869628E+04  0.20059869628E+04  0.50400001928E-02 0. -1.
    10030    2    1    2    0    0  0.00000000000E+00  0.00000000000E+00 -0.11490555579E+04  0.28629183676E+04  0.26222076395E+04 0.  0.
        5    1    3    3  502    0  0.77602217396E+03  0.10479985998E+04 -0.72286621417E+03  0.14909960205E+04  0.46999998093E+01 0. -1.
       -5    1    3    3    0  502 -0.77602217396E+03 -0.10479985998E+04 -0.42618934375E+03  0.13719223471E+04  0.46999998093E+01 0.  1.
</event>
<event>
 5   0  0.5940748E-06  0.2611718E+04  0.7818609E-02  0.8364232E-01
       -2   -1    0    0    0  501  0.00000000000E+00  0.00000000000E+00  0.79628758046E+03  0.79628758046E+03  0.25500000920E-02 0. -1.
        2   -1    0    0  501    0  0.00000000000E+00  0.00000000000E+00 -0.21415225687E+04  0.21415225687E+04  0.25500000920E-02 0.  1.
    10030    2    1    2    0    0  0.00000000000E+00  0.00000000000E+00 -0.13452349883E+04  0.29378101492E+04  0.26117180742E+04 0.  0.
        1    1    3    3  502    0  0.41628894713E+02 -0.34933854201E+03 -0.20872110629E+04  0.21166531135E+04  0.50400001928E-02 0.  1.
       -1    1    3    3    0  502 -0.41628894713E+02  0.34933854201E+03  0.74197607466E+03  0.82115703565E+03  0.50400001928E-02 0. -1.
</event>
<event>
 5   0  0.5942229E-06  0.2591194E+04  0.7818609E-02  0.8371199E-01
       -2   -1    0    0    0  501  0.00000000000E+00  0.00000000000E+00  0.67395663702E+03  0.67395663702E+03  0.25500000920E-02 0.  1.
        2   -1    0    0  501    0  0.00000000000E+00  0.00000000000E+00 -0.24906222374E+04  0.24906222374E+04  0.25500000920E-02 0. -1.
    10030    2    1    2    0    0  0.00000000000E+00  0.00000000000E+00 -0.18166656004E+04  0.31645788745E+04  0.25911938463E+04 0.  0.
        4    1    3    3  502    0  0.65639648649E+03  0.17573963823E+03 -0.22555288410E+04  0.23556639687E+04  0.12699999809E+01 0. -1.
       -4    1    3    3    0  502 -0.65639648649E+03 -0.17573963823E+03  0.43886324059E+03  0.80891490576E+03  0.12699999809E+01 0.  1.
</event>
<event>
 5   0  0.2333979E-06  0.2606340E+04  0.7818609E-02  0.8366051E-01
       -1   -1    0    0    0  501  0.00000000000E+00  0.00000000000E+00  0.70614648548E+03  0.70614648550E+03  0.50400001928E-02 0.  1.
        1   -1    0    0  501    0  0.00000000000E+00  0.00000000000E+00 -0.24049576823E+04  0.24049576823E+04  0.50400001928E-02 0. -1.
    10030    2    1    2    0    0  0.00000000000E+00  0.00000000000E+00 -0.16988111968E+04  0.31111041678E+04  0.26063402810E+04 0.  0.
        3    1    3    3  502    0 -0.36776872269E+03  0.10486245341E+04 -0.16619638338E+04  0.19992476189E+04  0.10100000352E+00 0. -1.
       -3    1    3    3    0  502  0.36776872269E+03 -0.10486245341E+04 -0.36847363066E+02  0.11118565489E+04  0.10100000352E+00 0.  1.
</event>
<event>
 5   0  0.5942229E-06  0.2603005E+04  0.7818609E-02  0.8367181E-01
       -2   -1    0    0    0  501  0.00000000000E+00  0.00000000000E+00  0.10545262397E+04  0.10545262397E+04  0.25500000920E-02 0. -1.
        2   -1    0    0  501    0  0.00000000000E+00  0.00000000000E+00 -0.16063221778E+04  0.16063221778E+04  0.25500000920E-02 0.  1.
    10030    2    1    2    0    0  0.00000000000E+00  0.00000000000E+00 -0.55179593809E+03  0.26608484175E+04  0.26030050986E+04 0.  0.
        4    1    3    3  502    0  0.79464378545E+03  0.10142866534E+04 -0.46347248945E+03  0.13693226510E+04  0.12699999809E+01 0.  1.
       -4    1    3    3    0  502 -0.79464378545E+03 -0.10142866534E+04 -0.88323448640E+02  0.12915257665E+04  0.12699999809E+01 0. -1.
</event>
<event>
 5   0  0.6161834E-06  0.2598507E+04  0.7818609E-02  0.8368708E-01
       -2   -1    0    0    0  501  0.00000000000E+00  0.00000000000E+00  0.61269266685E+03  0.61269266685E+03  0.25500000920E-02 0. -1.
        2   -1    0    0  501    0  0.00000000000E+00  0.00000000000E+00 -0.27551498965E+04  0.27551498965E+04  0.25500000920E-02 0.  1.
    10030    2    1    2    0    0  0.00000000000E+00  0.00000000000E+00 -0.21424572297E+04  0.33678425634E+04  0.25985073698E+04 0.  0.
        5    1    3    3  502    0 -0.10891770635E+04 -0.27891032982E+03 -0.19151077149E+04  0.22207560193E+04  0.46999998093E+01 0.  1.
       -5    1    3    3    0  502  0.10891770635E+04  0.27891032982E+03 -0.22734951482E+03  0.11470865441E+04  0.46999998093E+01 0. -1.
</event>
<event>
 5   0  0.5940748E-06  0.2608884E+04  0.7818609E-02  0.8365190E-01
        2   -1    0    0  501    0  0.00000000000E+00  0.00000000000E+00  0.16228144531E+04  0.16228144531E+04  0.25500000920E-02 0.  1.
       -2   -1    0    0    0  501  0.00000000000E+00  0.00000000000E+00 -0.10485296809E+04  0.10485296809E+04  0.25500000920E-02 0. -1.
    10030    2    1    2    0    0  0.00000000000E+00  0.00000000000E+00  0.57428477220E+03  0.26713441339E+04  0.26088841451E+04 0.  0.
        1    1    3    3  502    0  0.83294904316E+03 -0.10005339337E+04  0.37093594625E+03  0.13536859818E+04  0.50400001928E-02 0. -1.
       -1    1    3    3    0  502 -0.83294904316E+03  0.10005339337E+04  0.20334882595E+03  0.13176581522E+04  0.50400001928E-02 0.  1.
</event>
<event>
 5   0  0.2471488E-06  0.2597995E+04  0.7818609E-02  0.8368883E-01
        1   -1    0    0  501    0  0.00000000000E+00  0.00000000000E+00  0.13348396569E+04  0.13348396570E+04  0.50400001928E-02 0. -1.
       -1   -1    0    0    0  501  0.00000000000E+00  0.00000000000E+00 -0.12641177286E+04  0.12641177286E+04  0.50400001928E-02 0.  1.
    10030    2    1    2    0    0  0.00000000000E+00  0.00000000000E+00  0.70721928337E+02  0.25989573856E+04  0.25979949771E+04 0.  0.
        4    1    3    3  502    0  0.18884784212E+03 -0.21650856995E+03  0.13026583353E+04  0.13339639500E+04  0.12699999809E+01 0. -1.
       -4    1    3    3    0  502 -0.18884784212E+03  0.21650856995E+03 -0.12319364070E+04  0.12649934356E+04  0.12699999809E+01 0.  1.
</event>
<event>
 5   0  0.5940748E-06  0.2571711E+04  0.7818609E-02  0.8377874E-01
       -2   -1    0    0    0  501  0.00000000000E+00  0.00000000000E+00  0.95353788689E+03  0.95353788689E+03  0.25500000920E-02 0. -1.
        2   -1    0    0  501    0  0.00000000000E+00  0.00000000000E+00 -0.17339885142E+04  0.17339885142E+04  0.25500000920E-02 0.  1.
    10030    2    1    2    0    0  0.00000000000E+00  0.00000000000E+00 -0.78045062729E+03  0.26875264011E+04  0.25717105154E+04 0.  0.
        1    1    3    3  502    0  0.47261939390E+03  0.11320891891E+04 -0.79284001604E+03  0.14606814555E+04  0.50400001928E-02 0.  1.
       -1    1    3    3    0  502 -0.47261939390E+03 -0.11320891891E+04  0.12389388744E+02  0.12268449456E+04  0.50400001928E-02 0. -1.
</event>
<event>
 5   0  0.2503292E-06  0.2598081E+04  0.7818609E-02  0.8368853E-01
        1   -1    0    0  501    0  0.00000000000E+00  0.00000000000E+00  0.20126037396E+04  0.20126037397E+04  0.50400001928E-02 0. -1.
       -1   -1    0    0    0  501  0.00000000000E+00  0.00000000000E+00 -0.83846888537E+03  0.83846888538E+03  0.50400001928E-02 0.  1.
    10030    2    1    2    0    0  0.00000000000E+00  0.00000000000E+00  0.11741348543E+04  0.28510726250E+04  0.25980805332E+04 0.  0.
        2    1    3    3  502    0  0.95957915632E+01  0.84958648677E+03 -0.49127818042E+03  0.98144970747E+03  0.25500000920E-02 0.  1.
       -2    1    3    3    0  502 -0.95957915632E+01 -0.84958648677E+03  0.16654130347E+04  0.18696229176E+04  0.25500000920E-02 0. -1.
</event>
<event>
 5   0  0.6173140E-06  0.2615426E+04  0.7818609E-02  0.8362980E-01
        2   -1    0    0  501    0  0.00000000000E+00  0.00000000000E+00  0.17069228417E+04  0.17069228417E+04  0.25500000920E-02 0. -1.
       -2   -1    0    0    0  501  0.00000000000E+00  0.00000000000E+00 -0.10018688182E+04  0.10018688182E+04  0.25500000920E-02 0.  1.
    10030    2    1    2    0    0  0.00000000000E+00  0.00000000000E+00  0.70505402351E+03  0.27087916598E+04  0.26154256021E+04 0.  0.
        3    1    3    3  502    0 -0.62638938458E+03 -0.83720823623E+03  0.11659500968E+04  0.15661165124E+04  0.10100000352E+00 0. -1.
       -3    1    3    3    0  502  0.62638938458E+03  0.83720823623E+03 -0.46089607333E+03  0.11426751474E+04  0.10100000352E+00 0.  1.
</event>
<event>
 5   0  0.2471488E-06  0.2594945E+04  0.7818609E-02  0.8369920E-01
       -1   -1    0    0    0  501  0.00000000000E+00  0.00000000000E+00  0.16500880336E+04  0.16500880336E+04  0.50400001928E-02 0.  1.
        1   -1    0    0  501    0  0.00000000000E+00  0.00000000000E+00 -0.10202093112E+04  0.10202093112E+04  0.50400001928E-02 0. -1.
    10030    2    1    2    0    0  0.00000000000E+00  0.00000000000E+00  0.62987872238E+03  0.26702973448E+04  0.25949452220E+04 0.  0.
        4    1    3    3  502    0  0.57857433215E+03 -0.32737279312E+03  0.14615262020E+04  0.16056094343E+04  0.12699999809E+01 0.  1.
       -4    1    3    3    0  502 -0.57857433215E+03  0.32737279312E+03 -0.83164747965E+03  0.10646879105E+04  0.12699999809E+01 0. -1.
</event>
<event>
 5   0  0.2440590E-06  0.2597364E+04  0.7818609E-02  0.8369097E-01
       -1   -1    0    0    0  501  0.00000000000E+00  0.00000000000E+00  0.14866449776E+04  0.14866449776E+04  0.50400001928E-02 0.  1.
        1   -1    0    0  501    0  0.00000000000E+00  0.00000000000E+00 -0.11344838904E+04  0.11344838904E+04  0.50400001928E-02 0. -1.
    10030    2    1    2    0    0  0.00000000000E+00  0.00000000000E+00  0.35216108723E+03  0.26211288680E+04  0.25973638774E+04 0.  0.
        1    1    3    3  502    0  0.73205976937E+03 -0.91896446751E+03 -0.38230630055E+03  0.12355425148E+04  0.50400001928E-02 0. -1.
       -1    1    3    3    0  502 -0.73205976937E+03  0.91896446751E+03  0.73446738777E+03  0.13855863532E+04  0.50400001928E-02 0.  1.
</event>
<event>
 5   0  0.5940748E-06  0.2641068E+04  0.7818609E-02  0.8354384E-01
        2   -1    0    0  501    0  0.00000000000E+00  0.00000000000E+00  0.18135802404E+04  0.18135802404E+04  0.25500000920E-02 0.  1.
       -2   -1    0    0    0  501  0.00000000000E+00  0.00000000000E+00 -0.96152921439E+03  0.96152921439E+03  0.25500000920E-02 0. -1.
    10030    2    1    2    0    0  0.00000000000E+00  0.00000000000E+00  0.85205102598E+03  0.27751094548E+04  0.26410682564E+04 0.  0.
        1    1    3    3  502    0 -0.95732078477E+03  0.88596926456E+03  0.20964760252E+03  0.13211195025E+04  0.50400001928E-02 0.  1.
       -1    1    3    3    0  502  0.95732078477E+03 -0.88596926456E+03  0.64240342346E+03  0.14539899522E+04  0.50400001928E-02 0. -1.
</event>
<event>
 5   0  0.5942229E-06  0.2595471E+04  0.7818609E-02  0.8369741E-01
       -2   -1    0    0    0  501  0.00000000000E+00  0.00000000000E+00  0.11524489810E+04  0.11524489810E+04  0.25500000920E-02 0. -1.
        2   -1    0    0  501    0  0.00000000000E+00  0.00000000000E+00 -0.14613374890E+04  0.14613374890E+04  0.25500000920E-02 0.  1.
    10030    2    1    2    0    0  0.00000000000E+00  0.00000000000E+00 -0.30888850797E+03  0.26137864700E+04  0.25954705933E+04 0.  0.
        4    1    3    3  502    0 -0.18417820476E+03  0.12432189815E+04  0.17125767722E+03  0.12684028745E+04  0.12699999809E+01 0. -1.
       -4    1    3    3    0  502  0.18417820476E+03 -0.12432189815E+04 -0.48014618519E+03  0.13453835956E+04  0.12699999809E+01 0.  1.
</event>
<event>
 5   0  0.2456600E-06  0.2594828E+04  0.7818609E-02  0.8369960E-01
        1   -1    0    0  501    0  0.00000000000E+00  0.00000000000E+00  0.23153262813E+04  0.23153262813E+04  0.50400001928E-02 0. -1.
       -1   -1    0    0    0  501  0.00000000000E+00  0.00000000000E+00 -0.72701745062E+03  0.72701745064E+03  0.50400001928E-02 0.  1.
    10030    2    1    2    0    0  0.00000000000E+00  0.00000000000E+00  0.15883088307E+04  0.30423437319E+04  0.25948276324E+04 0.  0.
        5    1    3    3  502    0 -0.61544101228E+03 -0.37399241964E+03 -0.47114225075E+03  0.86060158028E+03  0.46999998093E+01 0.  1.
       -5    1    3    3    0  502  0.61544101228E+03  0.37399241964E+03  0.20594510814E+04  0.21817421517E+04  0.46999998093E+01 0. -1.
</event>
<event>
 5   0  0.5940748E-06  0.2601400E+04  0.7818609E-02  0.8367726E-01
       -2   -1    0    0    0  501  0.00000000000E+00  0.00000000000E+00  0.17030143334E+04  0.17030143334E+04  0.25500000920E-02 0. -1.
        2   -1    0    0  501    0  0.00000000000E+00  0.00000000000E+00 -0.99342736900E+03  0.99342736901E+03  0.25500000920E-02 0.  1.
    10030    2    1    2    0    0  0.00000000000E+00  0.00000000000E+00  0.70958696439E+03  0.26964417024E+04  0.26014004295E+04 0.  0.
        1    1    3    3  502    0  0.89084200341E+03 -0.85648057392E+03  0.77540514618E+03  0.14589076699E+04  0.50400001928E-02 0.  1.
       -1    1    3    3    0  502 -0.89084200341E+03  0.85648057392E+03 -0.65818181788E+02  0.12375340325E+04  0.50400001928E-02 0. -1.
</event>
<event>
 5   0  0.6173140E-06  0.2601507E+04  0.7818609E-02  0.8367689E-01
        2   -1    0    0  501    0  0.00000000000E+00  0.00000000000E+00  0.18962000560E+04  0.18962000560E+04  0.25500000920E-02 0. -1.
       -2   -1    0    0    0  501  0.00000000000E+00  0.00000000000E+00 -0.89228976939E+03  0.89228976939E+03  0.25500000920E-02 0.  1.
    10030    2    1    2    0    0  0.00000000000E+00  0.00000000000E+00  0.10039102866E+04  0.27884898254E+04  0.26015071868E+04 0.  0.
        3    1    3    3  502    0  0.10651469234E+04  0.27127419115E+03  0.12475303173E+04  0.16626664001E+04  0.10100000352E+00 0. -1.
       -3    1    3    3    0  502 -0.10651469234E+04 -0.27127419115E+03 -0.24362003071E+03  0.11258234253E+04  0.10100000352E+00 0.  1.
</event>
<event>
 5   0  0.2440590E-06  0.2567714E+04  0.7818609E-02  0.8379251E-01
       -1   -1    0    0    0  501  0.00000000000E+00  0.00000000000E+00  0.15721907106E+04  0.15721907106E+04  0.50400001928E-02 0. -1.
        1   -1    0    0  501    0  0.00000000000E+00  0.00000000000E+00 -0.10484029072E+04  0.10484029072E+04  0.50400001928E-02 0.  1.
    10030    2    1    2    0    0  0.00000000000E+00  0.00000000000E+00  0.52378780335E+03  0.26205936178E+04  0.25677144013E+04 0.  0.
        1    1    3    3  502    0  0.23183825144E+02  0.12115244834E+04  0.69484740060E+03  0.13968328367E+04  0.50400001928E-02 0. -1.
       -1    1    3    3    0  502 -0.23183825144E+02 -0.12115244834E+04 -0.17105959725E+03  0.12237607811E+04  0.50400001928E-02 0.  1.
</event>
<event>
 5   0  0.2440590E-06  0.2602614E+04  0.7818609E-02  0.8367314E-01
        1   -1    0    0  501    0  0.00000000000E+00  0.00000000000E+00  0.10779742377E+04  0.10779742377E+04  0.50400001928E-02 0.  1.
       -1   -1    0    0    0  501  0.00000000000E+00  0.00000000000E+00 -0.15709096068E+04  0.15709096068E+04  0.50400001928E-02 0. -1.
    10030    2    1    2    0    0  0.00000000000E+00  0.00000000000E+00 -0.49293536915E+03  0.26488838445E+04  0.26026141365E+04 0.  0.
        1    1    3    3  502    0  0.10415200029E+03  0.10870753415E+04  0.47379980026E+03  0.11904061021E+04  0.50400001928E-02 0.  1.
       -1    1    3    3    0  502 -0.10415200029E+03 -0.10870753415E+04 -0.96673516942E+03  0.14584777424E+04  0.50400001928E-02 0. -1.
</event>
<event>
 5   0  0.2333979E-06  0.2616766E+04  0.7818609E-02  0.8362528E-01
       -1   -1    0    0    0  501  0.00000000000E+00  0.00000000000E+00  0.14747355900E+04  0.14747355900E+04  0.50400001928E-02 0. -1.
        1   -1    0    0  501    0  0.00000000000E+00  0.00000000000E+00 -0.11607952362E+04  0.11607952362E+04  0.50400001928E-02 0.  1.
    10030    2    1    2    0    0  0.00000000000E+00  0.00000000000E+00  0.31394035386E+03  0.26355308262E+04  0.26167659792E+04 0.  0.
        3    1    3    3  502    0  0.14464512369E+03 -0.79750519603E+02  0.14641926636E+04  0.14734797329E+04  0.10100000352E+00 0. -1.
       -3    1    3    3    0  502 -0.14464512369E+03  0.79750519603E+02 -0.11502523097E+04  0.11620510933E+04  0.10100000352E+00 0.  1.
</event>
<event>
 5   0  0.2456600E-06  0.2598111E+04  0.7818609E-02  0.8368843E-01
       -1   -1    0    0    0  501  0.00000000000E+00  0.00000000000E+00  0.11082606045E+04  0.11082606045E+04  0.50400001928E-02 0. -1.
        1   -1    0    0  501    0  0.00000000000E+00  0.00000000000E+00 -0.15226965578E+04  0.15226965578E+04  0.50400001928E-02 0.  1.
    10030    2    1    2    0    0  0.00000000000E+00  0.00000000000E+00 -0.41443595324E+03  0.26309571623E+04  0.25981105501E+04 0.  0.
        5    1    3    3  502    0  0.12034348644E+01  0.12865957776E+04 -0.38890865896E+03  0.13440990210E+04  0.46999998093E+01 0.  1.
       -5    1    3    3    0  502 -0.12034348644E+01 -0.12865957776E+04 -0.25527294279E+02  0.12868581413E+04  0.46999998093E+01 0. -1.
</event>
<event>
 5   0  0.2333979E-06  0.2601439E+04  0.7818609E-02  0.8367713E-01
       -1   -1    0    0    0  501  0.00000000000E+00  0.00000000000E+00  0.12000972526E+04  0.12000972527E+04  0.50400001928E-02 0.  1.
        1   -1    0    0  501    0  0.00000000000E+00  0.00000000000E+00 -0.14097783052E+04  0.14097783052E+04  0.50400001928E-02 0. -1.
    10030    2    1    2    0    0  0.00000000000E+00  0.00000000000E+00 -0.20968105257E+03  0.26098755579E+04  0.26014388872E+04 0.  0.
        3    1    3    3  502    0  0.11209780689E+04 -0.38572503186E+03  0.43214801840E+03  0.12617953682E+04  0.10100000352E+00 0.  1.
       -3    1    3    3    0  502 -0.11209780689E+04  0.38572503186E+03 -0.64182907097E+03  0.13480801897E+04  0.10100000352E+00 0. -1.
</event>
<event>
 5   0  0.5942229E-06  0.2611429E+04  0.7818609E-02  0.8364329E-01
       -2   -1    0    0    0  501  0.00000000000E+00  0.00000000000E+00  0.10262040952E+04  0.10262040952E+04  0.25500000920E-02 0.  1.
        2   -1    0    0  501    0  0.00000000000E+00  0.00000000000E+00 -0.16613558428E+04  0.16613558428E+04  0.25500000920E-02 0. -1.
    10030    2    1    2    0    0  0.00000000000E+00  0.00000000000E+00 -0.63515174763E+03  0.26875599380E+04  0.26114288575E+04 0.  0.
        4    1    3    3  502    0  0.51845961985E+03  0.10869590201E+04  0.20172160110E+03  0.12210542600E+04  0.12699999809E+01 0.  1.
       -4    1    3    3    0  502 -0.51845961985E+03 -0.10869590201E+04 -0.83687334873E+03  0.14665056779E+04  0.12699999809E+01 0. -1.
</event>
<event>
 5   0  0.5940748E-06  0.2596952E+04  0.7818609E-02  0.8369237E-01
        2   -1    0    0  501    0  0.00000000000E+00  0.00000000000E+00  0.21686668979E+04  0.21686668979E+04  0.25500000920E-02 0.  1.
       -2   -1    0    0    0  501  0.00000000000E+00  0.00000000000E+00 -0.77745452506E+03  0.77745452506E+03  0.25500000920E-02 0. -1.
    10030    2    1    2    0    0  0.00000000000E+00  0.00000000000E+00  0.13912123729E+04  0.29461214230E+04  0.25969519773E+04 0.  0.
        1    1    3    3  502    0 -0.93005699894E+03  0.23246555845E+03  0.16891398885E+04  0.19422254813E+04  0.50400001928E-02 0.  1.
       -1    1    3    3    0  502  0.93005699894E+03 -0.23246555845E+03 -0.29792751566E+03  0.10038959417E+04  0.50400001928E-02 0. -1.
</event>
<event>
 5   0  0.2503292E-06  0.2602710E+04  0.7818609E-02  0.8367281E-01
       -1   -1    0    0    0  501  0.00000000000E+00  0.00000000000E+00  0.10736474012E+04  0.10736474012E+04  0.50400001928E-02 0. -1.
        1   -1    0    0  501    0  0.00000000000E+00  0.00000000000E+00 -0.15773571628E+04  0.15773571628E+04  0.50400001928E-02 0.  1.
    10030    2    1    2    0    0  0.00000000000E+00  0.00000000000E+00 -0.50370976165E+03  0.26510045640E+04  0.26027104477E+04 0.  0.
        2    1    3    3  502    0 -0.69774542491E+02 -0.11750425762E+04  0.31335786121E+03  0.12181078326E+04  0.25500000920E-02 0. -1.
       -2    1    3    3    0  502  0.69774542491E+02  0.11750425762E+04 -0.81706762286E+03  0.14328967314E+04  0.25500000920E-02 0.  1.
</event>
<event>
 5   0  0.6161834E-06  0.2600626E+04  0.7818609E-02  0.8367989E-01
        2   -1    0    0  501    0  0.00000000000E+00  0.00000000000E+00  0.21222673681E+04  0.21222673681E+04  0.25500000920E-02 0. -1.
       -2   -1    0    0    0  501  0.00000000000E+00  0.00000000000E+00 -0.79670140428E+03  0.79670140428E+03  0.25500000920E-02 0.  1.
    10030    2    1    2    0    0  0.00000000000E+00  0.00000000000E+00  0.13255659638E+04  0.29189687723E+04  0.26006256112E+04 0.  0.
        5    1    3    3  502    0  0.93041589744E+03  0.13606894790E+02  0.16822209338E+04  0.19224328987E+04  0.46999998093E+01 0. -1.
       -5    1    3    3    0  502 -0.93041589744E+03 -0.13606894790E+02 -0.35665497005E+03  0.99653587364E+03  0.46999998093E+01 0.  1.
</event>
<event>
 5   0  0.2503292E-06  0.2585526E+04  0.7818609E-02  0.8373134E-01
        1   -1    0    0  501    0  0.00000000000E+00  0.00000000000E+00  0.14612957931E+04  0.14612957932E+04  0.50400001928E-02 0.  1.
       -1   -1    0    0    0  501  0.00000000000E+00  0.00000000000E+00 -0.11436673426E+04  0.11436673426E+04  0.50400001928E-02 0. -1.
    10030    2    1    2    0    0  0.00000000000E+00  0.00000000000E+00  0.31762845054E+03  0.26049631358E+04  0.25855260792E+04 0.  0.
        2    1    3    3  502    0  0.41890950865E+03 -0.12114246252E+03 -0.10673291986E+04  0.11529754077E+04  0.25500000920E-02 0. -1.
       -2    1    3    3    0  502 -0.41890950865E+03  0.12114246252E+03  0.13849576491E+04  0.14519877281E+04  0.25500000920E-02 0.  1.
</event>
<event>
 5   0  0.6158063E-06  0.2599631E+04  0.7818609E-02  0.8368326E-01
        2   -1    0    0  501    0  0.00000000000E+00  0.00000000000E+00  0.21251772821E+04  0.21251772821E+04  0.25500000920E-02 0.  1.
       -2   -1    0    0    0  501  0.00000000000E+00  0.00000000000E+00 -0.79500236335E+03  0.79500236336E+03  0.25500000920E-02 0. -1.
    10030    2    1    2    0    0  0.00000000000E+00  0.00000000000E+00  0.13301749188E+04  0.29201796455E+04  0.25996314830E+04 0.  0.
        2    1    3    3  502    0  0.10123771582E+04  0.80803092993E+03  0.54358618529E+03  0.14047446156E+04  0.25500000920E-02 0. -1.
       -2    1    3    3    0  502 -0.10123771582E+04 -0.80803092993E+03  0.78658873350E+03  0.15154350299E+04  0.25500000920E-02 0.  1.
</event>
<event>
 5   0  0.6173140E-06  0.2617547E+04  0.7818609E-02  0.8362265E-01
       -2   -1    0    0    0  501  0.00000000000E+00  0.00000000000E+00  0.82593676548E+03  0.82593676549E+03  0.25500000920E-02 0.  1.
        2   -1    0    0  501    0  0.00000000000E+00  0.00000000000E+00 -0.20738724621E+04  0.20738724621E+04  0.25500000920E-02 0. -1.
    10030    2    1    2    0    0  0.00000000000E+00  0.00000000000E+00 -0.12479356966E+04  0.28998092276E+04  0.26175465714E+04 0.  0.
        3    1    3    3  502    0 -0.50928940956E+03  0.78260792009E+03  0.39200586007E+03  0.10126793490E+04  0.10100000352E+00 0.  1.
       -3    1    3    3    0  502  0.50928940956E+03 -0.78260792009E+03 -0.16399415567E+04  0.18871298786E+04  0.10100000352E+00 0. -1.
</event>
<event>
 5   0  0.2072125E-06  0.2596529E+04  0.7818609E-02  0.8369381E-01
        3   -1    0    0  501    0  0.00000000000E+00  0.00000000000E+00  0.11975981152E+04  0.11975981194E+04  0.10100000352E+00 0. -1.
       -3   -1    0    0    0  501  0.00000000000E+00  0.00000000000E+00 -0.14073923088E+04  0.14073923124E+04  0.10100000352E+00 0.  1.
    10030    2    1    2    0    0  0.00000000000E+00  0.00000000000E+00 -0.20979419360E+03  0.26049904318E+04  0.25965287494E+04 0.  0.
        3    1    3    3  502    0 -0.41259947479E+03  0.10245269712E+04 -0.78946710259E+03  0.13576274001E+04  0.10100000352E+00 0. -1.
       -3    1    3    3    0  502  0.41259947479E+03 -0.10245269712E+04  0.57967290900E+03  0.12473630317E+04  0.10100000352E+00 0.  1.
</event>
<event>
 5   0  0.5940748E-06  0.2590636E+04  0.7818609E-02  0.8371389E-01
       -2   -1    0    0    0  501  0.00000000000E+00  0.00000000000E+00  0.13030765971E+04  0.13030765971E+04  0.25500000920E-02 0. -1.
        2   -1    0    0  501    0  0.00000000000E+00  0.00000000000E+00 -0.12876052308E+04  0.12876052308E+04  0.25500000920E-02 0.  1.
    10030    2    1    2    0    0  0.00000000000E+00  0.00000000000E+00  0.15471366360E+02  0.25906818279E+04  0.25906356305E+04 0.  0.
        1    1    3    3  502    0  0.96608466707E+03  0.76531215298E+03  0.40627254671E+03  0.12977209475E+04  0.50400001928E-02 0. -1.
       -1    1    3    3    0  502 -0.96608466707E+03 -0.76531215298E+03 -0.39080118035E+03  0.12929608803E+04  0.50400001928E-02 0.  1.
</event>
<event>
 5   0  0.5942229E-06  0.2599253E+04  0.7818609E-02  0.8368455E-01
       -2   -1    0    0    0  501  0.00000000000E+00  0.00000000000E+00  0.13565942415E+04  0.13565942415E+04  0.25500000920E-02 0. -1.
        2   -1    0    0  501    0  0.00000000000E+00  0.00000000000E+00 -0.12450509039E+04  0.12450509039E+04  0.25500000920E-02 0.  1.
    10030    2    1    2    0    0  0.00000000000E+00  0.00000000000E+00  0.11154333755E+03  0.26016451454E+04  0.25992528824E+04 0.  0.
        4    1    3    3  502    0 -0.12077087303E+04  0.42843209360E+03  0.27256472985E+03  0.13101173920E+04  0.12699999809E+01 0. -1.
       -4    1    3    3    0  502  0.12077087303E+04 -0.42843209360E+03 -0.16102139230E+03  0.12915277534E+04  0.12699999809E+01 0.  1.
</event>
<event>
 5   0  0.2456600E-06  0.2555678E+04  0.7818609E-02  0.8383414E-01
        1   -1    0    0  501    0  0.00000000000E+00  0.00000000000E+00  0.16079031981E+04  0.16079031981E+04  0.50400001928E-02 0.  1.
       -1   -1    0    0    0  501  0.00000000000E+00  0.00000000000E+00 -0.10155293142E+04  0.10155293142E+04  0.50400001928E-02 0. -1.
    10030    2    1    2    0    0  0.00000000000E+00  0.00000000000E+00  0.59237388389E+03  0.26234325122E+04  0.25556782520E+04 0.  0.
        5    1    3    3  502    0  0.88588514410E+03 -0.59799616218E+03 -0.42270729824E+03  0.11493891632E+04  0.46999998093E+01 0. -1.
       -5    1    3    3    0  502 -0.88588514410E+03  0.59799616218E+03  0.10150811821E+04  0.14740433490E+04  0.46999998093E+01 0.  1.
</event>
<event>
 5   0  0.2471488E-06  0.2607386E+04  0.7818609E-02  0.8365697E-01
        1   -1    0    0  501    0  0.00000000000E+00  0.00000000000E+00  0.17820127370E+04  0.17820127370E+04  0.50400001928E-02 0. -1.
       -1   -1    0    0    0  501  0.00000000000E+00  0.00000000000E+00 -0.95376189453E+03  0.95376189455E+03  0.50400001928E-02 0.  1.
    10030    2    1    2    0    0  0.00000000000E+00  0.00000000000E+00  0.82825084251E+03  0.27357746316E+04  0.26073863114E+04 0.  0.
        4    1    3    3  502    0 -0.26896994888E+03  0.41673477428E+03 -0.85089524934E+03  0.98490458611E+03  0.12699999809E+01 0.  1.
       -4    1    3    3    0  502  0.26896994888E+03 -0.41673477428E+03  0.16791460918E+04  0.17508700455E+04  0.12699999809E+01 0. -1.
</event>
<event>
 5   0  0.2456600E-06  0.2612984E+04  0.7818609E-02  0.8363804E-01
       -1   -1    0    0    0  501  0.00000000000E+00  0.00000000000E+00  0.52930285288E+03  0.52930285290E+03  0.50400001928E-02 0. -1.
        1   -1    0    0  501    0  0.00000000000E+00  0.00000000000E+00 -0.32248475475E+04  0.32248475475E+04  0.50400001928E-02 0.  1.
    10030    2    1    2    0    0  0.00000000000E+00  0.00000000000E+00 -0.26955446946E+04  0.37541504004E+04  0.26129837405E+04 0.  0.
        5    1    3    3  502    0  0.20284345479E+02 -0.24428324397E+03 -0.31915015077E+04  0.32009045162E+04  0.46999998093E+01 0.  1.
       -5    1    3    3    0  502 -0.20284345479E+02  0.24428324397E+03  0.49595681309E+03  0.55324588422E+03  0.46999998093E+01 0. -1.
</event>
<event>
 5   0  0.6173140E-06  0.2609705E+04  0.7818609E-02  0.8364912E-01
        2   -1    0    0  501    0  0.00000000000E+00  0.00000000000E+00  0.16306799877E+04  0.16306799877E+04  0.25500000920E-02 0.  1.
       -2   -1    0    0    0  501  0.00000000000E+00  0.00000000000E+00 -0.10441289270E+04  0.10441289270E+04  0.25500000920E-02 0. -1.
    10030    2    1    2    0    0  0.00000000000E+00  0.00000000000E+00  0.58655106068E+03  0.26748089148E+04  0.26097050760E+04 0.  0.
        3    1    3    3  502    0 -0.10181250972E+04  0.18830733178E+03 -0.52063923049E+03  0.11589234587E+04  0.10100000352E+00 0. -1.
       -3    1    3    3    0  502  0.10181250972E+04 -0.18830733178E+03  0.11071902912E+04  0.15158854560E+04  0.10100000352E+00 0.  1.
</event>
<event>
 5   0  0.6158063E-06  0.2579315E+04  0.7818609E-02  0.8375262E-01
        2   -1    0    0  501    0  0.00000000000E+00  0.00000000000E+00  0.12880519225E+04  0.12880519225E+04  0.25500000920E-02 0. -1.
       -2   -1    0    0    0  501  0.00000000000E+00  0.00000000000E+00 -0.12912651067E+04  0.12912651067E+04  0.25500000920E-02 0.  1.
    10030    2    1    2    0    0  0.00000000000E+00  0.00000000000E+00 -0.32131842082E+01  0.25793170292E+04  0.25793150278E+04 0.  0.
        2    1    3    3  502    0  0.18885272207E+02  0.12493461574E+04 -0.32097187975E+03  0.12900563639E+04  0.25500000920E-02 0. -1.
       -2    1    3    3    0  502 -0.18885272207E+02 -0.12493461574E+04  0.31775869555E+03  0.12892606653E+04  0.25500000920E-02 0.  1.
</event>
<event>
 5   0  0.6161834E-06  0.2588760E+04  0.7818609E-02  0.8372029E-01
       -2   -1    0    0    0  501  0.00000000000E+00  0.00000000000E+00  0.21748370079E+04  0.21748370079E+04  0.25500000920E-02 0. -1.
        2   -1    0    0  501    0  0.00000000000E+00  0.00000000000E+00 -0.77036539555E+03  0.77036539556E+03  0.25500000920E-02 0.  1.
    10030    2    1    2    0    0  0.00000000000E+00  0.00000000000E+00  0.14044716123E+04  0.29452024034E+04  0.25887596813E+04 0.  0.
        5    1    3    3  502    0  0.53679863638E+03  0.35860928505E+03 -0.57412897159E+03  0.86394418880E+03  0.46999998093E+01 0.  1.
       -5    1    3    3    0  502 -0.53679863638E+03 -0.35860928505E+03  0.19786005839E+04  0.20812582146E+04  0.46999998093E+01 0. -1.
</event>
<event>
 5   0  0.2471488E-06  0.2602308E+04  0.7818609E-02  0.8367418E-01
       -1   -1    0    0    0  501  0.00000000000E+00  0.00000000000E+00  0.15878113485E+04  0.15878113486E+04  0.50400001928E-02 0. -1.
        1   -1    0    0  501    0  0.00000000000E+00  0.00000000000E+00 -0.10662483375E+04  0.10662483375E+04  0.50400001928E-02 0.  1.
    10030    2    1    2    0    0  0.00000000000E+00  0.00000000000E+00  0.52156301103E+03  0.26540596861E+04  0.26023075996E+04 0.  0.
        4    1    3    3  502    0 -0.86743176943E+03 -0.28410628594E+03  0.12065007501E+04  0.15128780285E+04  0.12699999809E+01 0. -1.
       -4    1    3    3    0  502  0.86743176943E+03  0.28410628594E+03 -0.68493773904E+03  0.11411816576E+04  0.12699999809E+01 0.  1.
</event>
<event>
 5   0  0.2440590E-06  0.2605071E+04  0.7818609E-02  0.8366481E-01
       -1   -1    0    0    0  501  0.00000000000E+00  0.00000000000E+00  0.10262106644E+04  0.10262106644E+04  0.50400001928E-02 0. -1.
        1   -1    0    0  501    0  0.00000000000E+00  0.00000000000E+00 -0.16532657209E+04  0.16532657209E+04  0.50400001928E-02 0.  1.
    10030    2    1    2    0    0  0.00000000000E+00  0.00000000000E+00 -0.62705505653E+03  0.26794763853E+04  0.26050711422E+04 0.  0.
        1    1    3    3  502    0  0.21739311930E+03  0.15003136577E+03  0.99837447967E+03  0.10327249298E+04  0.50400001928E-02 0. -1.
       -1    1    3    3    0  502 -0.21739311930E+03 -0.15003136577E+03 -0.16254295362E+04  0.16467514555E+04  0.50400001928E-02 0.  1.
</event>
<event>
 5   0  0.6158063E-06  0.2588277E+04  0.7818609E-02  0.8372194E-01
        2   -1    0    0  501    0  0.00000000000E+00  0.00000000000E+00  0.25918322578E+04  0.25918322578E+04  0.25500000920E-02 0.  1.
       -2   -1    0    0    0  501  0.00000000000E+00  0.00000000000E+00 -0.64618150823E+03  0.64618150823E+03  0.25500000920E-02 0. -1.
    10030    2    1    2    0    0  0.00000000000E+00  0.00000000000E+00  0.19456507496E+04  0.32380137660E+04  0.25882767066E+04 0.  0.
        2    1    3    3  502    0  0.11733641893E+04 -0.54462712855E+03  0.10194981690E+04  0.16470515313E+04  0.25500000920E-02 0.  1.
       -2    1    3    3    0  502 -0.11733641893E+04  0.54462712855E+03  0.92615258053E+03  0.15909622348E+04  0.25500000920E-02 0. -1.
</event>
<event>
 5   0  0.2072125E-06  0.2587993E+04  0.7818609E-02  0.8372291E-01
       -3   -1    0    0    0  501  0.00000000000E+00  0.00000000000E+00  0.10121110492E+04  0.10121110542E+04  0.10100000352E+00 0.  1.
        3   -1    0    0  501    0  0.00000000000E+00  0.00000000000E+00 -0.16543901404E+04  0.16543901435E+04  0.10100000352E+00 0. -1.
    10030    2    1    2    0    0  0.00000000000E+00  0.00000000000E+00 -0.64227909120E+03  0.26665011977E+04  0.25879926983E+04 0.  0.
        1    1    3    3  502    0  0.24462242177E+03 -0.91615756638E+03  0.58604847988E+03  0.11147365772E+04  0.50400001928E-02 0.  1.
       -1    1    3    3    0  502 -0.24462242177E+03  0.91615756638E+03 -0.12283275711E+04  0.15517646206E+04  0.50400001928E-02 0. -1.
</event>
<event>
 5   0  0.2471488E-06  0.2600918E+04  0.7818609E-02  0.8367890E-01
        1   -1    0    0  501    0  0.00000000000E+00  0.00000000000E+00  0.20413815189E+04  0.20413815189E+04  0.50400001928E-02 0. -1.
       -1   -1    0    0    0  501  0.00000000000E+00  0.00000000000E+00 -0.82845514867E+03  0.82845514869E+03  0.50400001928E-02 0.  1.
    10030    2    1    2    0    0  0.00000000000E+00  0.00000000000E+00  0.12129263702E+04  0.28698366676E+04  0.26009175533E+04 0.  0.
        4    1    3    3  502    0  0.11636298573E+04  0.50642251193E+03  0.91989934249E+03  0.15673910229E+04  0.12699999809E+01 0. -1.
       -4    1    3    3    0  502 -0.11636298573E+04 -0.50642251193E+03  0.29302702773E+03  0.13024456447E+04  0.12699999809E+01 0.  1.
</event>
<event>
 5   0  0.5942229E-06  0.2611676E+04  0.7818609E-02  0.8364246E-01
        2   -1    0    0  501    0  0.00000000000E+00  0.00000000000E+00  0.68867939780E+03  0.68867939781E+03  0.25500000920E-02 0. -1.
       -2   -1    0    0    0  501  0.00000000000E+00  0.00000000000E+00 -0.24760611399E+04  0.24760611399E+04  0.25500000920E-02 0.  1.
    10030    2    1    2    0    0  0.00000000000E+00  0.00000000000E+00 -0.17873817421E+04  0.31647405377E+04  0.26116755501E+04 0.  0.
        4    1    3    3  502    0  0.61333921504E+02  0.64935158132E+03  0.47715450962E+03  0.80814439616E+03  0.12699999809E+01 0. -1.
       -4    1    3    3    0  502 -0.61333921504E+02 -0.64935158132E+03 -0.22645362517E+04  0.23565961415E+04  0.12699999809E+01 0.  1.
</event>
<event>
 5   0  0.2456600E-06  0.2602671E+04  0.7818609E-02  0.8367294E-01
        1   -1    0    0  501    0  0.00000000000E+00  0.00000000000E+00  0.24933373232E+04  0.24933373232E+04  0.50400001928E-02 0.  1.
       -1   -1    0    0    0  501  0.00000000000E+00  0.00000000000E+00 -0.67919988450E+03  0.67919988452E+03  0.50400001928E-02 0. -1.
    10030    2    1    2    0    0  0.00000000000E+00  0.00000000000E+00  0.18141374387E+04  0.31725372077E+04  0.26026712601E+04 0.  0.
        5    1    3    3  502    0  0.66960994095E+03 -0.14523175416E+03 -0.44150604702E+03  0.81511926427E+03  0.46999998093E+01 0. -1.
       -5    1    3    3    0  502 -0.66960994095E+03  0.14523175416E+03  0.22556434857E+04  0.23574179435E+04  0.46999998093E+01 0.  1.
</event>
<event>
 5   0  0.6173140E-06  0.2583648E+04  0.7818609E-02  0.8373777E-01
        2   -1    0    0  501    0  0.00000000000E+00  0.00000000000E+00  0.10534889793E+04  0.10534889793E+04  0.25500000920E-02 0.  1.
       -2   -1    0    0    0  501  0.00000000000E+00  0.00000000000E+00 -0.15840783330E+04  0.15840783330E+04  0.25500000920E-02 0. -1.
    10030    2    1    2    0    0  0.00000000000E+00  0.00000000000E+00 -0.53058935370E+03  0.26375673123E+04  0.25836478600E+04 0.  0.
        3    1    3    3  502    0 -0.12481852310E+04  0.23626396155E+03 -0.25831622397E+02  0.12706117871E+04  0.10100000352E+00 0.  1.
       -3    1    3    3    0  502  0.12481852310E+04 -0.23626396155E+03 -0.50475773130E+03  0.13669555252E+04  0.10100000352E+00 0. -1.
</event>
<event>
 5   0  0.5940748E-06  0.2595461E+04  0.7818609E-02  0.8369744E-01
       -2   -1    0    0    0  501  0.00000000000E+00  0.00000000000E+00  0.62891540795E+03  0.62891540795E+03  0.25500000920E-02 0.  1.
        2   -1    0    0  501    0  0.00000000000E+00  0.00000000000E+00 -0.26777926191E+04  0.26777926191E+04  0.25500000920E-02 0. -1.
    10030    2    1    2    0    0  0.00000000000E+00  0.00000000000E+00 -0.20488772111E+04  0.33067080270E+04  0.25954614522E+04 0.  0.
        1    1    3    3  502    0  0.16624046252E+02  0.92958448222E+03  0.12903881266E+03  0.93864513193E+03  0.50400001928E-02 0.  1.
       -1    1    3    3    0  502 -0.16624046252E+02 -0.92958448222E+03 -0.21779160238E+04  0.23680628951E+04  0.50400001928E-02 0. -1.
</event>
<event>
 5   0  0.2333979E-06  0.2602982E+04  0.7818609E-02  0.8367189E-01
        1   -1    0    0  501    0  0.00000000000E+00  0.00000000000E+00  0.14323548903E+04  0.14323548903E+04  0.50400001928E-02 0.  1.
       -1   -1    0    0    0  501  0.00000000000E+00  0.00000000000E+00 -0.11825832707E+04  0.11825832707E+04  0.50400001928E-02 0. -1.
    10030    2    1    2    0    0  0.00000000000E+00  0.00000000000E+00  0.24977161956E+03  0.26149381610E+04  0.26029820829E+04 0.  0.
        3    1    3    3  502    0 -0.57587487186E+03  0.61788544193E+03  0.11196180879E+04  0.14024831408E+04  0.10100000352E+00 0.  1.
       -3    1    3    3    0  502  0.57587487186E+03 -0.61788544193E+03 -0.86984646830E+03  0.12124550202E+04  0.10100000352E+00 0. -1.
</event>
<event>
 5   0  0.2471488E-06  0.2559047E+04  0.7818609E-02  0.8382247E-01
        1   -1    0    0  501    0  0.00000000000E+00  0.00000000000E+00  0.16412261702E+04  0.16412261702E+04  0.50400001928E-02 0.  1.
       -1   -1    0    0    0  501  0.00000000000E+00  0.00000000000E+00 -0.99753479239E+03  0.99753479240E+03  0.50400001928E-02 0. -1.
    10030    2    1    2    0    0  0.00000000000E+00  0.00000000000E+00  0.64369137783E+03  0.26387609626E+04  0.25590468593E+04 0.  0.
        4    1    3    3  502    0  0.42242016116E+03 -0.15053376905E+03 -0.91384859084E+03  0.10179489516E+04  0.12699999809E+01 0. -1.
       -4    1    3    3    0  502 -0.42242016116E+03  0.15053376905E+03  0.15575399687E+04  0.16208120110E+04  0.12699999809E+01 0.  1.
</event>
<event>
 5   0  0.2471488E-06  0.2597990E+04  0.7818609E-02  0.8368884E-01
        1   -1    0    0  501    0  0.00000000000E+00  0.00000000000E+00  0.79241673646E+03  0.79241673647E+03  0.50400001928E-02 0. -1.
       -1   -1    0    0    0  501  0.00000000000E+00  0.00000000000E+00 -0.21294192125E+04  0.21294192125E+04  0.50400001928E-02 0.  1.
    10030    2    1    2    0    0  0.00000000000E+00  0.00000000000E+00 -0.13370024760E+04  0.29218359490E+04  0.25979895481E+04 0.  0.
        4    1    3    3  502    0  0.12079037205E+04  0.16990055402E+02 -0.13140951012E+03  0.12151502508E+04  0.12699999809E+01 0. -1.
       -4    1    3    3    0  502 -0.12079037205E+04 -0.16990055402E+02 -0.12055929659E+04  0.17066856981E+04  0.12699999809E+01 0.  1.
</event>
<event>
 5   0  0.2471488E-06  0.2606673E+04  0.7818609E-02  0.8365938E-01
       -1   -1    0    0    0  501  0.00000000000E+00  0.00000000000E+00  0.93456754797E+03  0.93456754799E+03  0.50400001928E-02 0.  1.
        1   -1    0    0  501    0  0.00000000000E+00  0.00000000000E+00 -0.18176171284E+04  0.18176171284E+04  0.50400001928E-02 0. -1.
    10030    2    1    2    0    0  0.00000000000E+00  0.00000000000E+00 -0.88304958038E+03  0.27521846763E+04  0.26066729621E+04 0.  0.
        4    1    3    3  502    0 -0.61560145217E+03  0.99424630055E+03 -0.10491446190E+04  0.15710496168E+04  0.12699999809E+01 0. -1.
       -4    1    3    3    0  502  0.61560145217E+03 -0.99424630055E+03  0.16609503862E+03  0.11811350595E+04  0.12699999809E+01 0.  1.
</event>
<event>
 5   0  0.2333979E-06  0.2595633E+04  0.7818609E-02  0.8369686E-01
        1   -1    0    0  501    0  0.00000000000E+00  0.00000000000E+00  0.15281108639E+04  0.15281108639E+04  0.50400001928E-02 0.  1.
       -1   -1    0    0    0  501  0.00000000000E+00  0.00000000000E+00 -0.11022289190E+04  0.11022289190E+04  0.50400001928E-02 0. -1.
    10030    2    1    2    0    0  0.00000000000E+00  0.00000000000E+00  0.42588194493E+03  0.26303397829E+04  0.25956332450E+04 0.  0.
        3    1    3    3  502    0  0.82628852143E+03 -0.82278150178E+03 -0.36441903797E+03  0.12216887352E+04  0.10100000352E+00 0. -1.
       -3    1    3    3    0  502 -0.82628852143E+03  0.82278150178E+03  0.79030098290E+03  0.14086510477E+04  0.10100000352E+00 0.  1.
</event>
<event>
 5   0  0.6161834E-06  0.2604542E+04  0.7818609E-02  0.8366660E-01
        2   -1    0    0  501    0  0.00000000000E+00  0.00000000000E+00  0.18212678688E+04  0.18212678688E+04  0.25500000920E-02 0.  1.
       -2   -1    0    0    0  501  0.00000000000E+00  0.00000000000E+00 -0.93116985481E+03  0.93116985482E+03  0.25500000920E-02 0. -1.
    10030    2    1    2    0    0  0.00000000000E+00  0.00000000000E+00  0.89009801402E+03  0.27524377237E+04  0.26045419843E+04 0.  0.
        5    1    3    3  502    0 -0.38265280606E+03  0.12415716514E+04  0.53935955284E+03  0.14067175099E+04  0.46999998093E+01 0.  1.
       -5    1    3    3    0  502  0.38265280606E+03 -0.12415716514E+04  0.35073846119E+03  0.13457202137E+04  0.46999998093E+01 0. -1.
</event>
<event>
 5   0  0.6158063E-06  0.2605650E+04  0.7818609E-02  0.8366284E-01
       -2   -1    0    0    0  501  0.00000000000E+00  0.00000000000E+00  0.96943988601E+03  0.96943988601E+03  0.25500000920E-02 0. -1.
        2   -1    0    0  501    0  0.00000000000E+00  0.00000000000E+00 -0.17508598435E+04  0.17508598435E+04  0.25500000920E-02 0.  1.
    10030    2    1    2    0    0  0.00000000000E+00  0.00000000000E+00 -0.78141995744E+03  0.27202997295E+04  0.26056502966E+04 0.  0.
        2    1    3    3  502    0  0.11324579488E+04  0.54407370892E+03 -0.75066481604E+03  0.14635487258E+04  0.25500000920E-02 0.  1.
       -2    1    3    3    0  502 -0.11324579488E+04 -0.54407370892E+03 -0.30755141401E+02  0.12567510037E+04  0.25500000920E-02 0. -1.
</event>
<event>
 5   0  0.2503292E-06  0.2531853E+04  0.7818609E-02  0.8391725E-01
        1   -1    0    0  501    0  0.00000000000E+00  0.00000000000E+00  0.19074119037E+04  0.19074119037E+04  0.50400001928E-02 0.  1.
       -1   -1    0    0    0  501  0.00000000000E+00  0.00000000000E+00 -0.84018050753E+03  0.84018050755E+03  0.50400001928E-02 0. -1.
    10030    2    1    2    0    0  0.00000000000E+00  0.00000000000E+00  0.10672313961E+04  0.27475924112E+04  0.25318533143E+04 0.  0.
        2    1    3    3  502    0  0.76198355200E+03 -0.96770564424E+03  0.21630143312E+03  0.12505436647E+04  0.25500000920E-02 0. -1.
       -2    1    3    3    0  502 -0.76198355200E+03  0.96770564424E+03  0.85092996300E+03  0.14970487465E+04  0.25500000920E-02 0.  1.
</event>
<event>
 5   0  0.2440590E-06  0.2665543E+04  0.7818609E-02  0.8346272E-01
       -1   -1    0    0    0  501  0.00000000000E+00  0.00000000000E+00  0.13410336471E+04  0.13410336471E+04  0.50400001928E-02 0.  1.
        1   -1    0    0  501    0  0.00000000000E+00  0.00000000000E+00 -0.13245603157E+04  0.13245603157E+04  0.50400001928E-02 0. -1.
    10030    2    1    2    0    0  0.00000000000E+00  0.00000000000E+00  0.16473331382E+02  0.26655939628E+04  0.26655430598E+04 0.  0.
        1    1    3    3  502    0  0.10578372562E+04  0.64587228733E+03  0.49825549120E+03  0.13358252905E+04  0.50400001928E-02 0.  1.
       -1    1    3    3    0  502 -0.10578372562E+04 -0.64587228733E+03 -0.48178215982E+03  0.13297686723E+04  0.50400001928E-02 0. -1.
</event>
<event>
 5   0  0.2333979E-06  0.2616539E+04  0.7818609E-02  0.8362605E-01
       -1   -1    0    0    0  501  0.00000000000E+00  0.00000000000E+00  0.84025635718E+03  0.84025635720E+03  0.50400001928E-02 0. -1.
        1   -1    0    0  501    0  0.00000000000E+00  0.00000000000E+00 -0.20369604614E+04  0.20369604614E+04  0.50400001928E-02 0.  1.
    10030    2    1    2    0    0  0.00000000000E+00  0.00000000000E+00 -0.11967041042E+04  0.28772168186E+04  0.26165389178E+04 0.  0.
        3    1    3    3  502    0  0.17415228281E+03  0.69726657215E+03  0.60374661410E+03  0.93862648294E+03  0.10100000352E+00 0. -1.
       -3    1    3    3    0  502 -0.17415228281E+03 -0.69726657215E+03 -0.18004507183E+04  0.19385903356E+04  0.10100000352E+00 0.  1.
</event>
<event>
 5   0  0.2440590E-06  0.2584209E+04  0.7818609E-02  0.8373585E-01
       -1   -1    0    0    0  501  0.00000000000E+00  0.00000000000E+00  0.12646948951E+04  0.12646948951E+04  0.50400001928E-02 0.  1.
        1   -1    0    0  501    0  0.00000000000E+00  0.00000000000E+00 -0.13201079420E+04  0.13201079420E+04  0.50400001928E-02 0. -1.
    10030    2    1    2    0    0  0.00000000000E+00  0.00000000000E+00 -0.55413046920E+02  0.25848028371E+04  0.25842087959E+04 0.  0.
        1    1    3    3  502    0  0.93356698777E+03 -0.24417020573E+03 -0.88718710286E+03  0.13108269777E+04  0.50400001928E-02 0. -1.
       -1    1    3    3    0  502 -0.93356698777E+03  0.24417020573E+03  0.83177405594E+03  0.12739758593E+04  0.50400001928E-02 0.  1.
</event>
<event>
 5   0  0.2471488E-06  0.2592731E+04  0.7818609E-02  0.8370674E-01
       -1   -1    0    0    0  501  0.00000000000E+00  0.00000000000E+00  0.84770353705E+03  0.84770353707E+03  0.50400001928E-02 0.  1.
        1   -1    0    0  501    0  0.00000000000E+00  0.00000000000E+00 -0.19824896902E+04  0.19824896902E+04  0.50400001928E-02 0. -1.
    10030    2    1    2    0    0  0.00000000000E+00  0.00000000000E+00 -0.11347861532E+04  0.28301932273E+04  0.25927310100E+04 0.  0.
        4    1    3    3  502    0  0.96031146040E+03 -0.50857914453E+03  0.20425291982E+03  0.11056996497E+04  0.12699999809E+01 0.  1.
       -4    1    3    3    0  502 -0.96031146040E+03  0.50857914453E+03 -0.13390390730E+04  0.17244935776E+04  0.12699999809E+01 0. -1.
</event>
<event>
 5   0  0.2471488E-06  0.2636958E+04  0.7818609E-02  0.8355755E-01
        1   -1    0    0  501    0  0.00000000000E+00  0.00000000000E+00  0.14808634454E+04  0.14808634454E+04  0.50400001928E-02 0.  1.
       -1   -1    0    0    0  501  0.00000000000E+00  0.00000000000E+00 -0.11739007874E+04  0.11739007874E+04  0.50400001928E-02 0. -1.
    10030    2    1    2    0    0  0.00000000000E+00  0.00000000000E+00  0.30696265801E+03  0.26547642329E+04  0.26369579175E+04 0.  0.
        4    1    3    3  502    0  0.71955745607E+03 -0.17710188405E+03  0.12513759135E+04  0.14543284704E+04  0.12699999809E+01 0.  1.
       -4    1    3    3    0  502 -0.71955745607E+03  0.17710188405E+03 -0.94441325549E+03  0.12004357625E+04  0.12699999809E+01 0. -1.
</event>
<event>
 5   0  0.2333979E-06  0.2606489E+04  0.7818609E-02  0.8366000E-01
       -1   -1    0    0    0  501  0.00000000000E+00  0.00000000000E+00  0.96063785775E+03  0.96063785776E+03  0.50400001928E-02 0. -1.
        1   -1    0    0  501    0  0.00000000000E+00  0.00000000000E+00 -0.17680402996E+04  0.17680402996E+04  0.50400001928E-02 0.  1.
    10030    2    1    2    0    0  0.00000000000E+00  0.00000000000E+00 -0.80740244183E+03  0.27286781573E+04  0.26064891681E+04 0.  0.
        3    1    3    3  502    0  0.36282214333E+03  0.12460944589E+04 -0.27958921860E+03  0.13276149478E+04  0.10100000352E+00 0. -1.
       -3    1    3    3    0  502 -0.36282214333E+03 -0.12460944589E+04 -0.52781322323E+03  0.14010632095E+04  0.10100000352E+00 0.  1.
</event>
<event>
 5   0  0.6158063E-06  0.2476020E+04  0.7818609E-02  0.8411579E-01
       -2   -1    0    0    0  501  0.00000000000E+00  0.00000000000E+00  0.10357272797E+04  0.10357272797E+04  0.25500000920E-02 0. -1.
        2   -1    0    0  501    0  0.00000000000E+00  0.00000000000E+00 -0.14797999337E+04  0.14797999337E+04  0.25500000920E-02 0.  1.
    10030    2    1    2    0    0  0.00000000000E+00  0.00000000000E+00 -0.44407265395E+03  0.25155272134E+04  0.24760203229E+04 0.  0.
        2    1    3    3  502    0 -0.63711108044E+03  0.80583853652E+03 -0.92398965421E+03  0.13816812790E+04  0.25500000920E-02 0.  1.
       -2    1    3    3    0  502  0.63711108044E+03 -0.80583853652E+03  0.47991700026E+03  0.11338459344E+04  0.25500000920E-02 0. -1.
</event>
<event>
 5   0  0.2456600E-06  0.2634195E+04  0.7818609E-02  0.8356678E-01
        1   -1    0    0  501    0  0.00000000000E+00  0.00000000000E+00  0.22228787996E+04  0.22228787996E+04  0.50400001928E-02 0.  1.
       -1   -1    0    0    0  501  0.00000000000E+00  0.00000000000E+00 -0.78040475949E+03  0.78040475951E+03  0.50400001928E-02 0. -1.
    10030    2    1    2    0    0  0.00000000000E+00  0.00000000000E+00  0.14424740401E+04  0.30032835591E+04  0.26341945220E+04 0.  0.
        5    1    3    3  502    0 -0.10042610878E+04 -0.25423654913E+03  0.16485550432E+04  0.19470316833E+04  0.46999998093E+01 0.  1.
       -5    1    3    3    0  502  0.10042610878E+04  0.25423654913E+03 -0.20608100309E+03  0.10562518758E+04  0.46999998093E+01 0. -1.
</event>
<event>
 5   0  0.5940748E-06  0.2601769E+04  0.7818609E-02  0.8367600E-01
        2   -1    0    0  501    0  0.00000000000E+00  0.00000000000E+00  0.27859435713E+04  0.27859435713E+04  0.25500000920E-02 0. -1.
       -2   -1    0    0    0  501  0.00000000000E+00  0.00000000000E+00 -0.60744261133E+03  0.60744261133E+03  0.25500000920E-02 0.  1.
    10030    2    1    2    0    0  0.00000000000E+00  0.00000000000E+00  0.21785009600E+04  0.33933861826E+04  0.26017692734E+04 0.  0.
        1    1    3    3  502    0  0.40062804625E+03  0.97907827670E+03  0.20767093434E+04  0.23306262678E+04  0.50400001928E-02 0. -1.
       -1    1    3    3    0  502 -0.40062804625E+03 -0.97907827670E+03  0.10179161661E+03  0.10627599148E+04  0.50400001928E-02 0.  1.
</event>
<event>
 5   0  0.2333979E-06  0.2590011E+04  0.7818609E-02  0.8371602E-01
        1   -1    0    0  501    0  0.00000000000E+00  0.00000000000E+00  0.10420550543E+04  0.10420550543E+04  0.50400001928E-02 0. -1.
       -1   -1    0    0    0  501  0.00000000000E+00  0.00000000000E+00 -0.16093573091E+04  0.16093573091E+04  0.50400001928E-02 0.  1.
    10030    2    1    2    0    0  0.00000000000E+00  0.00000000000E+00 -0.56730225484E+03  0.26514123635E+04  0.25900107476E+04 0.  0.
        3    1    3    3  502    0 -0.11751527394E+04  0.11577153893E+03  0.26060291542E+03  0.12092563417E+04  0.10100000352E+00 0.  1.
       -3    1    3    3    0  502  0.11751527394E+04 -0.11577153893E+03 -0.82790517026E+03  0.14421560218E+04  0.10100000352E+00 0. -1.
</event>
<event>
 5   0  0.5940748E-06  0.2591179E+04  0.7818609E-02  0.8371204E-01
       -2   -1    0    0    0  501  0.00000000000E+00  0.00000000000E+00  0.12030278323E+04  0.12030278323E+04  0.25500000920E-02 0. -1.
        2   -1    0    0  501    0  0.00000000000E+00  0.00000000000E+00 -0.13952728872E+04  0.13952728872E+04  0.25500000920E-02 0.  1.
    10030    2    1    2    0    0  0.00000000000E+00  0.00000000000E+00 -0.19224505494E+03  0.25983007195E+04  0.25911789725E+04 0.  0.
        1    1    3    3  502    0 -0.90189916924E+03 -0.77555020041E+03 -0.61100421879E+03  0.13372458189E+04  0.50400001928E-02 0.  1.
       -1    1    3    3    0  502  0.90189916924E+03  0.77555020041E+03  0.41875916385E+03  0.12610549005E+04  0.50400001928E-02 0. -1.
</event>
<event>
 5   0  0.2440590E-06  0.2605336E+04  0.7818609E-02  0.8366391E-01
        1   -1    0    0  501    0  0.00000000000E+00  0.00000000000E+00  0.14373158689E+04  0.14373158689E+04  0.50400001928E-02 0. -1.
       -1   -1    0    0    0  501  0.00000000000E+00  0.00000000000E+00 -0.11806338262E+04  0.11806338262E+04  0.50400001928E-02 0.  1.
    10030    2    1    2    0    0  0.00000000000E+00  0.00000000000E+00  0.25668204270E+03  0.26179496950E+04  0.26053358583E+04 0.  0.
        1    1    3    3  502    0  0.55748843835E+03 -0.11297769137E+04  0.46123715276E+03  0.13416143055E+04  0.50400001928E-02 0. -1.
       -1    1    3    3    0  502 -0.55748843835E+03  0.11297769137E+04 -0.20455511006E+03  0.12763353895E+04  0.50400001928E-02 0.  1.
</event>
<event>
 5   0  0.6161834E-06  0.2612367E+04  0.7818609E-02  0.8364013E-01
       -2   -1    0    0    0  501  0.00000000000E+00  0.00000000000E+00  0.79195139119E+03  0.79195139119E+03  0.25500000920E-02 0.  1.
        2   -1    0    0  501    0  0.00000000000E+00  0.00000000000E+00 -0.21543178843E+04  0.21543178843E+04  0.25500000920E-02 0. -1.
    10030    2    1    2    0    0  0.00000000000E+00  0.00000000000E+00 -0.13623664932E+04  0.29462692755E+04  0.26123667779E+04 0.  0.
        5    1    3    3  502    0  0.61448366700E+03  0.60069202202E+03  0.42825298210E+03  0.96012696505E+03  0.46999998093E+01 0.  1.
       -5    1    3    3    0  502 -0.61448366700E+03 -0.60069202202E+03 -0.17906194753E+04  0.19861423105E+04  0.46999998093E+01 0. -1.
</event>
<event>
 5   0  0.2503292E-06  0.2599676E+04  0.7818609E-02  0.8368311E-01
        1   -1    0    0  501    0  0.00000000000E+00  0.00000000000E+00  0.70668968707E+03  0.70668968709E+03  0.50400001928E-02 0. -1.
       -1   -1    0    0    0  501  0.00000000000E+00  0.00000000000E+00 -0.23908357102E+04  0.23908357102E+04  0.50400001928E-02 0.  1.
    10030    2    1    2    0    0  0.00000000000E+00  0.00000000000E+00 -0.16841460231E+04  0.30975253973E+04  0.25996760875E+04 0.  0.
        2    1    3    3  502    0 -0.60348755210E+03  0.11491083196E+04 -0.75839763555E+03  0.15032678169E+04  0.25500000920E-02 0.  1.
       -2    1    3    3    0  502  0.60348755210E+03 -0.11491083196E+04 -0.92574838759E+03  0.15942575804E+04  0.25500000920E-02 0. -1.
</event>
<event>
 5   0  0.6173140E-06  0.2592403E+04  0.7818609E-02  0.8370786E-01
       -2   -1    0    0    0  501  0.00000000000E+00  0.00000000000E+00  0.12548377859E+04  0.12548377859E+04  0.25500000920E-02 0. -1.
        2   -1    0    0  501    0  0.00000000000E+00  0.00000000000E+00 -0.13389282839E+04  0.13389282839E+04  0.25500000920E-02 0.  1.
    10030    2    1    2    0    0  0.00000000000E+00  0.00000000000E+00 -0.84090497954E+02  0.25937660698E+04  0.25924025947E+04 0.  0.
        3    1    3    3  502    0  0.34255461052E+03  0.94624119090E+03 -0.85943376525E+03  0.13233829603E+04  0.10100000352E+00 0.  1.
       -3    1    3    3    0  502 -0.34255461052E+03 -0.94624119090E+03  0.77534326729E+03  0.12703831095E+04  0.10100000352E+00 0. -1.
</event>
<event>
 5   0  0.6158063E-06  0.2576317E+04  0.7818609E-02  0.8376290E-01
       -2   -1    0    0    0  501  0.00000000000E+00  0.00000000000E+00  0.81681726563E+03  0.81681726563E+03  0.25500000920E-02 0. -1.
        2   -1    0    0  501    0  0.00000000000E+00  0.00000000000E+00 -0.20314858563E+04  0.20314858563E+04  0.25500000920E-02 0.  1.
    10030    2    1    2    0    0  0.00000000000E+00  0.00000000000E+00 -0.12146685907E+04  0.28483031219E+04  0.25763173114E+04 0.  0.
        2    1    3    3  502    0 -0.16739239818E+03 -0.24880496254E+03  0.77769077662E+03  0.83350289045E+03  0.25500000920E-02 0. -1.
       -2    1    3    3    0  502  0.16739239818E+03  0.24880496254E+03 -0.19923593673E+04  0.20148002315E+04  0.25500000920E-02 0.  1.
</event>
<event>
 5   0  0.2503292E-06  0.2626158E+04  0.7818609E-02  0.8359370E-01
       -1   -1    0    0    0  501  0.00000000000E+00  0.00000000000E+00  0.99886146932E+03  0.99886146933E+03  0.50400001928E-02 0. -1.
        1   -1    0    0  501    0  0.00000000000E+00  0.00000000000E+00 -0.17261413023E+04  0.17261413023E+04  0.50400001928E-02 0.  1.
    10030    2    1    2    0    0  0.00000000000E+00  0.00000000000E+00 -0.72727983297E+03  0.27250027716E+04  0.26261576780E+04 0.  0.
        2    1    3    3  502    0 -0.63435936477E+03 -0.76087514019E+03 -0.12579576018E+04  0.16011870942E+04  0.25500000920E-02 0.  1.
       -2    1    3    3    0  502  0.63435936477E+03  0.76087514019E+03  0.53067776880E+03  0.11238156775E+04  0.25500000920E-02 0. -1.
</event>
<event>
 5   0  0.6161834E-06  0.2618003E+04  0.7818609E-02  0.8362111E-01
        2   -1    0    0  501    0  0.00000000000E+00  0.00000000000E+00  0.11559349231E+04  0.11559349231E+04  0.25500000920E-02 0. -1.
       -2   -1    0    0    0  501  0.00000000000E+00  0.00000000000E+00 -0.14823373069E+04  0.14823373069E+04  0.25500000920E-02 0.  1.
    10030    2    1    2    0    0  0.00000000000E+00  0.00000000000E+00 -0.32640238380E+03  0.26382722301E+04  0.26180034079E+04 0.  0.
        5    1    3    3  502    0 -0.12671805265E+03  0.60663220123E+02  0.11483068574E+04  0.11568786540E+04  0.46999998093E+01 0. -1.
       -5    1    3    3    0  502  0.12671805265E+03 -0.60663220123E+02 -0.14747092412E+04  0.14813935761E+04  0.46999998093E+01 0.  1.
</event>
<event>
 5   0  0.6161834E-06  0.2593241E+04  0.7818609E-02  0.8370501E-01
       -2   -1    0    0    0  501  0.00000000000E+00  0.00000000000E+00  0.69636948504E+03  0.69636948504E+03  0.25500000920E-02 0. -1.
        2   -1    0    0  501    0  0.00000000000E+00  0.00000000000E+00 -0.24142709827E+04  0.24142709827E+04  0.25500000920E-02 0.  1.
    10030    2    1    2    0    0  0.00000000000E+00  0.00000000000E+00 -0.17179014976E+04  0.31106404677E+04  0.25932409383E+04 0.  0.
        5    1    3    3  502    0 -0.78404709159E+03 -0.94596857857E+03 -0.36203125340E+03  0.12808884073E+04  0.46999998093E+01 0. -1.
       -5    1    3    3    0  502  0.78404709159E+03  0.94596857857E+03 -0.13558702442E+04  0.18297520604E+04  0.46999998093E+01 0.  1.
</event>
<event>
 5   0  0.6173140E-06  0.2596951E+04  0.7818609E-02  0.8369238E-01
       -2   -1    0    0    0  501  0.00000000000E+00  0.00000000000E+00  0.86909926015E+03  0.86909926016E+03  0.25500000920E-02 0.  1.
        2   -1    0    0  501    0  0.00000000000E+00  0.00000000000E+00 -0.19399833368E+04  0.19399833368E+04  0.25500000920E-02 0. -1.
    10030    2    1    2    0    0  0.00000000000E+00  0.00000000000E+00 -0.10708840766E+04  0.28090825969E+04  0.25969505830E+04 0.  0.
        3    1    3    3  502    0 -0.38209034543E+03  0.12109970142E+04 -0.24212528913E+03  0.12927225017E+04  0.10100000352E+00 0.  1.
       -3    1    3    3    0  502  0.38209034543E+03 -0.12109970142E+04 -0.82875878747E+03  0.15163600953E+04  0.10100000352E+00 0. -1.
</event>
<event>
 5   0  0.5940748E-06  0.2562450E+04  0.7818609E-02  0.8381069E-01
       -2   -1    0    0    0  501  0.00000000000E+00  0.00000000000E+00  0.73857198592E+03  0.73857198592E+03  0.25500000920E-02 0. -1.
        2   -1    0    0  501    0  0.00000000000E+00  0.00000000000E+00 -0.22225834826E+04  0.22225834826E+04  0.25500000920E-02 0.  1.
    10030    2    1    2    0    0  0.00000000000E+00  0.00000000000E+00 -0.14840114966E+04  0.29611554685E+04  0.25624503091E+04 0.  0.
        1    1    3    3  502    0  0.47546732368E+03 -0.96969377058E+03 -0.15385812275E+04  0.18797891845E+04  0.50400001928E-02 0.  1.
       -1    1    3    3    0  502 -0.47546732368E+03  0.96969377058E+03  0.54569730839E+02  0.10813662840E+04  0.50400001928E-02 0. -1.
</event>
<event>
 5   0  0.2456600E-06  0.2605551E+04  0.7818609E-02  0.8366318E-01
        1   -1    0    0  501    0  0.00000000000E+00  0.00000000000E+00  0.14501320990E+04  0.14501320990E+04  0.50400001928E-02 0.  1.
       -1   -1    0    0    0  501  0.00000000000E+00  0.00000000000E+00 -0.11703931133E+04  0.11703931134E+04  0.50400001928E-02 0. -1.
    10030    2    1    2    0    0  0.00000000000E+00  0.00000000000E+00  0.27973898567E+03  0.26205252124E+04  0.26055514750E+04 0.  0.
        5    1    3    3  502    0  0.92069806966E+03 -0.91499908190E+03  0.25138626199E+03  0.13221669328E+04  0.46999998093E+01 0. -1.
       -5    1    3    3    0  502 -0.92069806966E+03  0.91499908190E+03  0.28352723680E+02  0.12983582796E+04  0.46999998093E+01 0.  1.
</event>
<event>
 5   0  0.2440590E-06  0.2565549E+04  0.7818609E-02  0.8379998E-01
       -1   -1    0    0    0  501  0.00000000000E+00  0.00000000000E+00  0.76103119258E+03  0.76103119260E+03  0.50400001928E-02 0.  1.
        1   -1    0    0  501    0  0.00000000000E+00  0.00000000000E+00 -0.21622119639E+04  0.21622119639E+04  0.50400001928E-02 0. -1.
    10030    2    1    2    0    0  0.00000000000E+00  0.00000000000E+00 -0.14011807714E+04  0.29232431565E+04  0.25655492586E+04 0.  0.
        1    1    3    3  502    0  0.63694057702E+03 -0.64688262979E+02 -0.19671607213E+04  0.20687192109E+04  0.50400001928E-02 0. -1.
       -1    1    3    3    0  502 -0.63694057702E+03  0.64688262979E+02  0.56597994992E+03  0.85452394569E+03  0.50400001928E-02 0.  1.
</event>
<event>
 5   0  0.6158063E-06  0.2607189E+04  0.7818609E-02  0.8365763E-01
        2   -1    0    0  501    0  0.00000000000E+00  0.00000000000E+00  0.21755275968E+04  0.21755275968E+04  0.25500000920E-02 0.  1.
       -2   -1    0    0    0  501  0.00000000000E+00  0.00000000000E+00 -0.78112466855E+03  0.78112466855E+03  0.25500000920E-02 0. -1.
    10030    2    1    2    0    0  0.00000000000E+00  0.00000000000E+00  0.13944029283E+04  0.29566522654E+04  0.26071887335E+04 0.  0.
        2    1    3    3  502    0  0.18661120388E+03 -0.91242720917E+02 -0.76223565610E+03  0.79003301891E+03  0.25500000920E-02 0. -1.
       -2    1    3    3    0  502 -0.18661120388E+03  0.91242720917E+02  0.21566385844E+04  0.21666192465E+04  0.25500000920E-02 0.  1.
</event>
<event>
 5   0  0.2503292E-06  0.2598536E+04  0.7818609E-02  0.8368699E-01
        1   -1    0    0  501    0  0.00000000000E+00  0.00000000000E+00  0.14994841905E+04  0.14994841905E+04  0.50400001928E-02 0. -1.
       -1   -1    0    0    0  501  0.00000000000E+00  0.00000000000E+00 -0.11257855965E+04  0.11257855965E+04  0.50400001928E-02 0.  1.
    10030    2    1    2    0    0  0.00000000000E+00  0.00000000000E+00  0.37369859404E+03  0.26252697870E+04  0.25985362832E+04 0.  0.
        2    1    3    3  502    0 -0.43812981502E+03 -0.12096959821E+04  0.36975215017E+03  0.13386705183E+04  0.25500000920E-02 0.  1.
       -2    1    3    3    0  502  0.43812981502E+03  0.12096959821E+04  0.39464438679E+01  0.12865992687E+04  0.25500000920E-02 0. -1.
</event>
<event>
 5   0  0.5940748E-06  0.2597449E+04  0.7818609E-02  0.8369068E-01
       -2   -1    0    0    0  501  0.00000000000E+00  0.00000000000E+00  0.76535465871E+03  0.76535465872E+03  0.25500000920E-02 0.  1.
        2   -1    0    0  501    0  0.00000000000E+00  0.00000000000E+00 -0.22037965318E+04  0.22037965318E+04  0.25500000920E-02 0. -1.
    10030    2    1    2    0    0  0.00000000000E+00  0.00000000000E+00 -0.14384418731E+04  0.29691511905E+04  0.25974494740E+04 0.  0.
        1    1    3    3  502    0  0.11098538966E+04 -0.11399874567E+03 -0.14791172858E+04  0.18527167433E+04  0.50400001928E-02 0. -1.
       -1    1    3    3    0  502 -0.11098538966E+04  0.11399874567E+03  0.40675412718E+02  0.11164344472E+04  0.50400001928E-02 0.  1.
</event>
<event>
 5   0  0.6161834E-06  0.2598315E+04  0.7818609E-02  0.8368774E-01
        2   -1    0    0  501    0  0.00000000000E+00  0.00000000000E+00  0.14084975197E+04  0.14084975197E+04  0.25500000920E-02 0. -1.
       -2   -1    0    0    0  501  0.00000000000E+00  0.00000000000E+00 -0.11983049798E+04  0.11983049798E+04  0.25500000920E-02 0.  1.
    10030    2    1    2    0    0  0.00000000000E+00  0.00000000000E+00  0.21019253989E+03  0.26068024996E+04  0.25983145244E+04 0.  0.
        5    1    3    3  502    0 -0.99316512817E+03  0.33136224053E+03  0.87677052701E+03  0.13656231374E+04  0.46999998093E+01 0. -1.
       -5    1    3    3    0  502  0.99316512817E+03 -0.33136224053E+03 -0.66657798712E+03  0.12411793622E+04  0.46999998093E+01 0.  1.
</event>
<event>
 5   0  0.2333979E-06  0.2612475E+04  0.7818609E-02  0.8363976E-01
       -1   -1    0    0    0  501  0.00000000000E+00  0.00000000000E+00  0.12108184234E+04  0.12108184234E+04  0.50400001928E-02 0. -1.
        1   -1    0    0  501    0  0.00000000000E+00  0.00000000000E+00 -0.14091764901E+04  0.14091764901E+04  0.50400001928E-02 0.  1.
    10030    2    1    2    0    0  0.00000000000E+00  0.00000000000E+00 -0.19835806674E+03  0.26199949135E+04  0.26124753442E+04 0.  0.
        3    1    3    3  502    0  0.11791962308E+04 -0.42022731406E+03 -0.47329714536E+03  0.13383216894E+04  0.10100000352E+00 0.  1.
       -3    1    3    3    0  502 -0.11791962308E+04  0.42022731406E+03  0.27493907861E+03  0.12816732241E+04  0.10100000352E+00 0. -1.
</event>
<event>
 5   0  0.2456600E-06  0.2604732E+04  0.7818609E-02  0.8366596E-01
       -1   -1    0    0    0  501  0.00000000000E+00  0.00000000000E+00  0.92253960715E+03  0.92253960716E+03  0.50400001928E-02 0. -1.
        1   -1    0    0  501    0  0.00000000000E+00  0.00000000000E+00 -0.18385743379E+04  0.18385743379E+04  0.50400001928E-02 0.  1.
    10030    2    1    2    0    0  0.00000000000E+00  0.00000000000E+00 -0.91603473072E+03  0.27611139450E+04  0.26047323451E+04 0.  0.
        5    1    3    3  502    0  0.11775763156E+04  0.51083524369E+03 -0.69145902380E+03  0.14580042170E+04  0.46999998093E+01 0.  1.
       -5    1    3    3    0  502 -0.11775763156E+04 -0.51083524369E+03 -0.22457570692E+03  0.13031097280E+04  0.46999998093E+01 0. -1.
</event>
<event>
 5   0  0.5940748E-06  0.2595038E+04  0.7818609E-02  0.8369889E-01
        2   -1    0    0  501    0  0.00000000000E+00  0.00000000000E+00  0.22928740788E+04  0.22928740788E+04  0.25500000920E-02 0.  1.
       -2   -1    0    0    0  501  0.00000000000E+00  0.00000000000E+00 -0.73425562377E+03  0.73425562377E+03  0.25500000920E-02 0. -1.
    10030    2    1    2    0    0  0.00000000000E+00  0.00000000000E+00  0.15586184550E+04  0.30271297025E+04  0.25950381014E+04 0.  0.
        1    1    3    3  502    0  0.75740338758E+03  0.27293220689E+03 -0.40766740485E+03  0.90241043549E+03  0.50400001928E-02 0. -1.
       -1    1    3    3    0  502 -0.75740338758E+03 -0.27293220689E+03  0.19662858598E+04  0.21247192670E+04  0.50400001928E-02 0.  1.
</event>
<event>
 5   0  0.5942229E-06  0.2744615E+04  0.7818609E-02  0.8320672E-01
        2   -1    0    0  501    0  0.00000000000E+00  0.00000000000E+00  0.20512698959E+04  0.20512698959E+04  0.25500000920E-02 0. -1.
       -2   -1    0    0    0  501  0.00000000000E+00  0.00000000000E+00 -0.91807899997E+03  0.91807899997E+03  0.25500000920E-02 0.  1.
    10030    2    1    2    0    0  0.00000000000E+00  0.00000000000E+00  0.11331908959E+04  0.29693488959E+04  0.27446149564E+04 0.  0.
        4    1    3    3  502    0 -0.13130888498E+04  0.33200192634E+03  0.32760339240E+03  0.13934680485E+04  0.12699999809E+01 0.  1.
       -4    1    3    3    0  502  0.13130888498E+04 -0.33200192634E+03  0.80558750351E+03  0.15758808474E+04  0.12699999809E+01 0. -1.
</event>
<event>
 5   0  0.2503292E-06  0.2600751E+04  0.7818609E-02  0.8367946E-01
       -1   -1    0    0    0  501  0.00000000000E+00  0.00000000000E+00  0.15020694336E+04  0.15020694336E+04  0.50400001928E-02 0.  1.
        1   -1    0    0  501    0  0.00000000000E+00  0.00000000000E+00 -0.11257641117E+04  0.11257641117E+04  0.50400001928E-02 0. -1.
    10030    2    1    2    0    0  0.00000000000E+00  0.00000000000E+00  0.37630532196E+03  0.26278335453E+04  0.26007505545E+04 0.  0.
        2    1    3    3  502    0 -0.11781679814E+04  0.30829037427E+03 -0.27250406931E+03  0.12479508063E+04  0.25500000920E-02 0. -1.
       -2    1    3    3    0  502  0.11781679814E+04 -0.30829037427E+03  0.64880939127E+03  0.13798827390E+04  0.25500000920E-02 0.  1.
</event>
<event>
 5   0  0.2471488E-06  0.2594193E+04  0.7818609E-02  0.8370176E-01
        1   -1    0    0  501    0  0.00000000000E+00  0.00000000000E+00  0.12748336006E+04  0.12748336007E+04  0.50400001928E-02 0. -1.
       -1   -1    0    0    0  501  0.00000000000E+00  0.00000000000E+00 -0.13197485737E+04  0.13197485737E+04  0.50400001928E-02 0.  1.
    10030    2    1    2    0    0  0.00000000000E+00  0.00000000000E+00 -0.44914973060E+02  0.25945821744E+04  0.25941933823E+04 0.  0.
        4    1    3    3  502    0 -0.10155461068E+04 -0.74129486877E+03 -0.34126258936E+03  0.13028099421E+04  0.12699999809E+01 0.  1.
       -4    1    3    3    0  502  0.10155461068E+04  0.74129486877E+03  0.29634761630E+03  0.12917722323E+04  0.12699999809E+01 0. -1.
</event>
<event>
 5   0  0.6173140E-06  0.2604972E+04  0.7818609E-02  0.8366514E-01
       -2   -1    0    0    0  501  0.00000000000E+00  0.00000000000E+00  0.22639304382E+04  0.22639304382E+04  0.25500000920E-02 0.  1.
        2   -1    0    0  501    0  0.00000000000E+00  0.00000000000E+00 -0.74934706873E+03  0.74934706873E+03  0.25500000920E-02 0. -1.
    10030    2    1    2    0    0  0.00000000000E+00  0.00000000000E+00  0.15145833694E+04  0.30132775069E+04  0.26049718906E+04 0.  0.
        3    1    3    3  502    0  0.93918959168E+03 -0.59999707357E+03 -0.22454686228E+02  0.11147097382E+04  0.10100000352E+00 0. -1.
       -3    1    3    3    0  502 -0.93918959168E+03  0.59999707357E+03  0.15370380557E+04  0.18985677686E+04  0.10100000352E+00 0.  1.
</event>
<event>
 5   0  0.2440590E-06  0.2594837E+04  0.7818609E-02  0.8369957E-01
        1   -1    0    0  501    0  0.00000000000E+00  0.00000000000E+00  0.19277266842E+04  0.19277266842E+04  0.50400001928E-02 0. -1.
       -1   -1    0    0    0  501  0.00000000000E+00  0.00000000000E+00 -0.87320172379E+03  0.87320172380E+03  0.50400001928E-02 0.  1.
    10030    2    1    2    0    0  0.00000000000E+00  0.00000000000E+00  0.10545249604E+04  0.28009284080E+04  0.25948366142E+04 0.  0.
        1    1    3    3  502    0  0.10254664661E+04 -0.10824395677E+02  0.13851128578E+04  0.17234373414E+04  0.50400001928E-02 0. -1.
       -1    1    3    3    0  502 -0.10254664661E+04  0.10824395677E+02 -0.33058789741E+03  0.10774910666E+04  0.50400001928E-02 0.  1.
</event>
<event>
 5   0  0.6173140E-06  0.2591059E+04  0.7818609E-02  0.8371244E-01
        2   -1    0    0  501    0  0.00000000000E+00  0.00000000000E+00  0.27175546040E+04  0.27175546040E+04  0.25500000920E-02 0.  1.
       -2   -1    0    0    0  501  0.00000000000E+00  0.00000000000E+00 -0.61761309557E+03  0.61761309558E+03  0.25500000920E-02 0. -1.
    10030    2    1    2    0    0  0.00000000000E+00  0.00000000000E+00  0.20999415084E+04  0.33351676996E+04  0.25910594832E+04 0.  0.
        3    1    3    3  502    0 -0.82584844273E+02  0.12902141724E+04  0.11570813495E+04  0.17350245320E+04  0.10100000352E+00 0. -1.
       -3    1    3    3    0  502  0.82584844273E+02 -0.12902141724E+04  0.94286015889E+03  0.16001431675E+04  0.10100000352E+00 0.  1.
</event>
<event>
 5   0  0.2503292E-06  0.2595010E+04  0.7818609E-02  0.8369898E-01
        1   -1    0    0  501    0  0.00000000000E+00  0.00000000000E+00  0.12243967133E+04  0.12243967133E+04  0.50400001928E-02 0.  1.
       -1   -1    0    0    0  501  0.00000000000E+00  0.00000000000E+00 -0.13749787111E+04  0.13749787111E+04  0.50400001928E-02 0. -1.
    10030    2    1    2    0    0  0.00000000000E+00  0.00000000000E+00 -0.15058199786E+03  0.25993754244E+04  0.25950101462E+04 0.  0.
        2    1    3    3  502    0  0.72234020477E+03  0.44723653400E+02  0.10034346007E+04  0.12371970637E+04  0.25500000920E-02 0.  1.
       -2    1    3    3    0  502 -0.72234020477E+03 -0.44723653400E+02 -0.11540165986E+04  0.13621783607E+04  0.25500000920E-02 0. -1.
</event>
<event>
 5   0  0.5940748E-06  0.2589427E+04  0.7818609E-02  0.8371802E-01
        2   -1    0    0  501    0  0.00000000000E+00  0.00000000000E+00  0.17299487502E+04  0.17299487502E+04  0.25500000920E-02 0. -1.
       -2   -1    0    0    0  501  0.00000000000E+00  0.00000000000E+00 -0.96897812130E+03  0.96897812130E+03  0.25500000920E-02 0.  1.
    10030    2    1    2    0    0  0.00000000000E+00  0.00000000000E+00  0.76097062892E+03  0.26989268715E+04  0.25894265697E+04 0.  0.
        1    1    3    3  502    0 -0.90215578006E+02  0.57876410317E+03 -0.82297346767E+03  0.10101445769E+04  0.50400001928E-02 0.  1.
       -1    1    3    3    0  502  0.90215578006E+02 -0.57876410317E+03  0.15839440966E+04  0.16887822947E+04  0.50400001928E-02 0. -1.
</event>
<event>
 5   0  0.6158063E-06  0.2597174E+04  0.7818609E-02  0.8369162E-01
       -2   -1    0    0    0  501  0.00000000000E+00  0.00000000000E+00  0.18580657005E+04  0.18580657005E+04  0.25500000920E-02 0.  1.
        2   -1    0    0  501    0  0.00000000000E+00  0.00000000000E+00 -0.90757204930E+03  0.90757204930E+03  0.25500000920E-02 0. -1.
    10030    2    1    2    0    0  0.00000000000E+00  0.00000000000E+00  0.95049365116E+03  0.27656377498E+04  0.25971742302E+04 0.  0.
        2    1    3    3  502    0 -0.85717702236E+03  0.36016291978E+03 -0.49012093921E+03  0.10510415365E+04  0.25500000920E-02 0. -1.
       -2    1    3    3    0  502  0.85717702236E+03 -0.36016291978E+03  0.14406145904E+04  0.17145962132E+04  0.25500000920E-02 0.  1.
</event>
<event>
 5   0  0.2072125E-06  0.2540584E+04  0.7818609E-02  0.8388668E-01
       -3   -1    0    0    0  501  0.00000000000E+00  0.00000000000E+00  0.14756707162E+04  0.14756707196E+04  0.10100000352E+00 0. -1.
        3   -1    0    0  501    0  0.00000000000E+00  0.00000000000E+00 -0.10934974579E+04  0.10934974626E+04  0.10100000352E+00 0.  1.
    10030    2    1    2    0    0  0.00000000000E+00  0.00000000000E+00  0.38217325824E+03  0.25691681822E+04  0.25405843322E+04 0.  0.
        2    1    3    3  502    0  0.12116002601E+04  0.25365399839E+03  0.47947341112E+03  0.13274826903E+04  0.25500000920E-02 0.  1.
       -2    1    3    3    0  502 -0.12116002601E+04 -0.25365399839E+03 -0.97300152871E+02  0.12416854919E+04  0.25500000920E-02 0. -1.
</event>
<event>
 5   0  0.2471488E-06  0.2598191E+04  0.7818609E-02  0.8368816E-01
       -1   -1    0    0    0  501  0.00000000000E+00  0.00000000000E+00  0.10340412116E+04  0.10340412116E+04  0.50400001928E-02 0.  1.
        1   -1    0    0  501    0  0.00000000000E+00  0.00000000000E+00 -0.16320902146E+04  0.16320902147E+04  0.50400001928E-02 0. -1.
    10030    2    1    2    0    0  0.00000000000E+00  0.00000000000E+00 -0.59804900303E+03  0.26661314263E+04  0.25981905573E+04 0.  0.
        4    1    3    3  502    0  0.10927925682E+04 -0.44556302146E+03 -0.85629531028E+03  0.14580690225E+04  0.12699999809E+01 0. -1.
       -4    1    3    3    0  502 -0.10927925682E+04  0.44556302146E+03  0.25824630725E+03  0.12080624037E+04  0.12699999809E+01 0.  1.
</event>
<event>
 5   0  0.2072125E-06  0.2594266E+04  0.7818609E-02  0.8370152E-01
       -3   -1    0    0    0  501  0.00000000000E+00  0.00000000000E+00  0.80692118847E+03  0.80692119479E+03  0.10100000352E+00 0.  1.
        3   -1    0    0  501    0  0.00000000000E+00  0.00000000000E+00 -0.20851522604E+04  0.20851522628E+04  0.10100000352E+00 0. -1.
    10030    2    1    2    0    0  0.00000000000E+00  0.00000000000E+00 -0.12782310719E+04  0.28920734576E+04  0.25942656400E+04 0.  0.
        5    1    3    3  502    0 -0.66803851875E+03 -0.38966110855E+03 -0.18000125111E+04  0.19591269413E+04  0.46999998093E+01 0. -1.
       -5    1    3    3    0  502  0.66803851875E+03  0.38966110855E+03  0.52178143917E+03  0.93294651632E+03  0.46999998093E+01 0.  1.
</event>
<event>
 5   0  0.5942229E-06  0.2614477E+04  0.7818609E-02  0.8363300E-01
        2   -1    0    0  501    0  0.00000000000E+00  0.00000000000E+00  0.23458702832E+04  0.23458702832E+04  0.25500000920E-02 0. -1.
       -2   -1    0    0    0  501  0.00000000000E+00  0.00000000000E+00 -0.72845992315E+03  0.72845992315E+03  0.25500000920E-02 0.  1.
    10030    2    1    2    0    0  0.00000000000E+00  0.00000000000E+00  0.16174103600E+04  0.30743302063E+04  0.26144769926E+04 0.  0.
        4    1    3    3  502    0 -0.70391549615E+03  0.96984655430E+03  0.14228420775E+04  0.18602635714E+04  0.12699999809E+01 0. -1.
       -4    1    3    3    0  502  0.70391549615E+03 -0.96984655430E+03  0.19456828252E+03  0.12140666349E+04  0.12699999809E+01 0.  1.
</event>
<event>
 5   0  0.6161834E-06  0.2597194E+04  0.7818609E-02  0.8369155E-01
        2   -1    0    0  501    0  0.00000000000E+00  0.00000000000E+00  0.11151041828E+04  0.11151041828E+04  0.25500000920E-02 0.  1.
       -2   -1    0    0    0  501  0.00000000000E+00  0.00000000000E+00 -0.15122835596E+04  0.15122835596E+04  0.25500000920E-02 0. -1.
    10030    2    1    2    0    0  0.00000000000E+00  0.00000000000E+00 -0.39717937677E+03  0.26273877424E+04  0.25971936569E+04 0.  0.
        5    1    3    3  502    0  0.37710729732E+02  0.79150876882E+03 -0.12393471971E+04  0.14710240635E+04  0.46999998093E+01 0. -1.
       -5    1    3    3    0  502 -0.37710729732E+02 -0.79150876882E+03  0.84216782035E+03  0.11563636789E+04  0.46999998093E+01 0.  1.
</event>
<event>
 5   0  0.2440590E-06  0.2595227E+04  0.7818609E-02  0.8369824E-01
        1   -1    0    0  501    0  0.00000000000E+00  0.00000000000E+00  0.21376692169E+04  0.21376692169E+04  0.50400001928E-02 0. -1.
       -1   -1    0    0    0  501  0.00000000000E+00  0.00000000000E+00 -0.78768046354E+03  0.78768046356E+03  0.50400001928E-02 0.  1.
    10030    2    1    2    0    0  0.00000000000E+00  0.00000000000E+00  0.13499887533E+04  0.29253496804E+04  0.25952266026E+04 0.  0.
        1    1    3    3  502    0  0.28526638445E+03  0.72294780197E+03  0.18462942593E+04  0.20032056625E+04  0.50400001928E-02 0. -1.
       -1    1    3    3    0  502 -0.28526638445E+03 -0.72294780197E+03 -0.49630550597E+03  0.92214401790E+03  0.50400001928E-02 0.  1.
</event>
<event>
 5   0  0.5942229E-06  0.2592626E+04  0.7818609E-02  0.8370710E-01
        2   -1    0    0  501    0  0.00000000000E+00  0.00000000000E+00  0.16114911381E+04  0.16114911381E+04  0.25500000920E-02 0. -1.
       -2   -1    0    0    0  501  0.00000000000E+00  0.00000000000E+00 -0.10427779471E+04  0.10427779471E+04  0.25500000920E-02 0.  1.
    10030    2    1    2    0    0  0.00000000000E+00  0.00000000000E+00  0.56871319105E+03  0.26542690852E+04  0.25926260207E+04 0.  0.
        4    1    3    3  502    0  0.62226113586E+03 -0.55440428160E+03  0.13008653092E+04  0.15449353366E+04  0.12699999809E+01 0. -1.
       -4    1    3    3    0  502 -0.62226113586E+03  0.55440428160E+03 -0.73215211820E+03  0.11093337486E+04  0.12699999809E+01 0.  1.
</event>
<event>
 5   0  0.2072125E-06  0.2601866E+04  0.7818609E-02  0.8367568E-01
        3   -1    0    0  501    0  0.00000000000E+00  0.00000000000E+00  0.12791982018E+04  0.12791982057E+04  0.10100000352E+00 0. -1.
       -3   -1    0    0    0  501  0.00000000000E+00  0.00000000000E+00 -0.13230367578E+04  0.13230367617E+04  0.10100000352E+00 0.  1.
    10030    2    1    2    0    0  0.00000000000E+00  0.00000000000E+00 -0.43838556086E+02  0.26022349674E+04  0.26018656781E+04 0.  0.
        5    1    3    3  502    0  0.71292049165E+03  0.74259297392E+03 -0.81745923602E+03  0.13145195491E+04  0.46999998093E+01 0.  1.
       -5    1    3    3    0  502 -0.71292049165E+03 -0.74259297392E+03  0.77362067993E+03  0.12877154184E+04  0.46999998093E+01 0. -1.
</event>
<event>
 5   0  0.2333979E-06  0.2578297E+04  0.7818609E-02  0.8375611E-01
       -1   -1    0    0    0  501  0.00000000000E+00  0.00000000000E+00  0.13851019804E+04  0.13851019804E+04  0.50400001928E-02 0.  1.
        1   -1    0    0  501    0  0.00000000000E+00  0.00000000000E+00 -0.11998420594E+04  0.11998420594E+04  0.50400001928E-02 0. -1.
    10030    2    1    2    0    0  0.00000000000E+00  0.00000000000E+00  0.18525992096E+03  0.25849440398E+04  0.25782968120E+04 0.  0.
        3    1    3    3  502    0 -0.10268905864E+03  0.35964364355E+03 -0.11442504227E+04  0.12038262471E+04  0.10100000352E+00 0. -1.
       -3    1    3    3    0  502  0.10268905864E+03 -0.35964364355E+03  0.13295103437E+04  0.13811177927E+04  0.10100000352E+00 0.  1.
</event>
<event>
 5   0  0.2503292E-06  0.2594200E+04  0.7818609E-02  0.8370174E-01
       -1   -1    0    0    0  501  0.00000000000E+00  0.00000000000E+00  0.87059485929E+03  0.87059485930E+03  0.50400001928E-02 0.  1.
        1   -1    0    0  501    0  0.00000000000E+00  0.00000000000E+00 -0.19325504070E+04  0.19325504070E+04  0.50400001928E-02 0. -1.
    10030    2    1    2    0    0  0.00000000000E+00  0.00000000000E+00 -0.10619555477E+04  0.28031452663E+04  0.25942000306E+04 0.  0.
        2    1    3    3  502    0 -0.11099147128E+04  0.16332481510E+03 -0.12344792838E+04  0.16680901556E+04  0.25500000920E-02 0. -1.
       -2    1    3    3    0  502  0.11099147128E+04 -0.16332481510E+03  0.17252373606E+03  0.11350551108E+04  0.25500000920E-02 0.  1.
</event>
<event>
 5   0  0.2503292E-06  0.2608052E+04  0.7818609E-02  0.8365471E-01
       -1   -1    0    0    0  501  0.00000000000E+00  0.00000000000E+00  0.10454423035E+04  0.10454423035E+04  0.50400001928E-02 0.  1.
        1   -1    0    0  501    0  0.00000000000E+00  0.00000000000E+00 -0.16265690344E+04  0.16265690345E+04  0.50400001928E-02 0. -1.
    10030    2    1    2    0    0  0.00000000000E+00  0.00000000000E+00 -0.58112673097E+03  0.26720113379E+04  0.26080522067E+04 0.  0.
        2    1    3    3  502    0 -0.57291819172E+03  0.45676830349E+03  0.81459884387E+03  0.10956476687E+04  0.25500000920E-02 0.  1.
       -2    1    3    3    0  502  0.57291819172E+03 -0.45676830349E+03 -0.13957255748E+04  0.15763636692E+04  0.25500000920E-02 0. -1.
</event>
<event>
 5   0  0.2440590E-06  0.2636760E+04  0.7818609E-02  0.8355821E-01
       -1   -1    0    0    0  501  0.00000000000E+00  0.00000000000E+00  0.20910969798E+04  0.20910969799E+04  0.50400001928E-02 0. -1.
        1   -1    0    0  501    0  0.00000000000E+00  0.00000000000E+00 -0.83120302672E+03  0.83120302673E+03  0.50400001928E-02 0.  1.
    10030    2    1    2    0    0  0.00000000000E+00  0.00000000000E+00  0.12598939531E+04  0.29223000066E+04  0.26367602385E+04 0.  0.
        1    1    3    3  502    0 -0.29176985981E+03 -0.70751795741E+03  0.18197048206E+04  0.19740914227E+04  0.50400001928E-02 0. -1.
       -1    1    3    3    0  502  0.29176985981E+03  0.70751795741E+03 -0.55981086746E+03  0.94820858386E+03  0.50400001928E-02 0.  1.
</event>
<event>
 5   0  0.2456600E-06  0.2602579E+04  0.7818609E-02  0.8367326E-01
        1   -1    0    0  501    0  0.00000000000E+00  0.00000000000E+00  0.18698104307E+04  0.18698104307E+04  0.50400001928E-02 0. -1.
       -1   -1    0    0    0  501  0.00000000000E+00  0.00000000000E+00 -0.90562858896E+03  0.90562858897E+03  0.50400001928E-02 0.  1.
    10030    2    1    2    0    0  0.00000000000E+00  0.00000000000E+00  0.96418184175E+03  0.27754390197E+04  0.26025785537E+04 0.  0.
        5    1    3    3  502    0 -0.64303261049E+03 -0.90118204960E+03  0.12114089420E+04  0.16410830995E+04  0.46999998093E+01 0. -1.
       -5    1    3    3    0  502  0.64303261049E+03  0.90118204960E+03 -0.24722710021E+03  0.11343559202E+04  0.46999998093E+01 0.  1.
</event>
<event>
 5   0  0.2503292E-06  0.2571254E+04  0.7818609E-02  0.8378032E-01
        1   -1    0    0  501    0  0.00000000000E+00  0.00000000000E+00  0.91054246532E+03  0.91054246533E+03  0.50400001928E-02 0. -1.
       -1   -1    0    0    0  501  0.00000000000E+00  0.00000000000E+00 -0.18152215150E+04  0.18152215150E+04  0.50400001928E-02 0.  1.
    10030    2    1    2    0    0  0.00000000000E+00  0.00000000000E+00 -0.90467904969E+03  0.27257639803E+04  0.25712536035E+04 0.  0.
        2    1    3    3  502    0  0.79998049184E+03  0.68027678416E+03 -0.12385894153E+04  0.16238377475E+04  0.25500000920E-02 0.  1.
       -2    1    3    3    0  502 -0.79998049184E+03 -0.68027678416E+03  0.33391036563E+03  0.11019262329E+04  0.25500000920E-02 0. -1.
</event>
<event>
 5   0  0.5942229E-06  0.2597892E+04  0.7818609E-02  0.8368918E-01
        2   -1    0    0  501    0  0.00000000000E+00  0.00000000000E+00  0.11342605267E+04  0.11342605267E+04  0.25500000920E-02 0.  1.
       -2   -1    0    0    0  501  0.00000000000E+00  0.00000000000E+00 -0.14875422363E+04  0.14875422363E+04  0.25500000920E-02 0. -1.
    10030    2    1    2    0    0  0.00000000000E+00  0.00000000000E+00 -0.35328170962E+03  0.26218027630E+04  0.25978917918E+04 0.  0.
        4    1    3    3  502    0 -0.58072748112E+03 -0.51634743762E+03 -0.12270858673E+04  0.14524463578E+04  0.12699999809E+01 0. -1.
       -4    1    3    3    0  502  0.58072748112E+03  0.51634743762E+03  0.87380415763E+03  0.11693564052E+04  0.12699999809E+01 0.  1.
</event>
<event>
 5   0  0.5942229E-06  0.2600712E+04  0.7818609E-02  0.8367959E-01
       -2   -1    0    0    0  501  0.00000000000E+00  0.00000000000E+00  0.11738719830E+04  0.11738719830E+04  0.25500000920E-02 0.  1.
        2   -1    0    0  501    0  0.00000000000E+00  0.00000000000E+00 -0.14404690546E+04  0.14404690546E+04  0.25500000920E-02 0. -1.
    10030    2    1    2    0    0  0.00000000000E+00  0.00000000000E+00 -0.26659707166E+03  0.26143410376E+04  0.26007124144E+04 0.  0.
        4    1    3    3  502    0 -0.57959436152E+03 -0.67831558603E+03  0.81764129163E+03  0.12101985593E+04  0.12699999809E+01 0.  1.
       -4    1    3    3    0  502  0.57959436152E+03  0.67831558603E+03 -0.10842383633E+04  0.14041424783E+04  0.12699999809E+01 0. -1.
</event>
<event>
 5   0  0.5940748E-06  0.2600965E+04  0.7818609E-02  0.8367874E-01
        2   -1    0    0  501    0  0.00000000000E+00  0.00000000000E+00  0.12607156976E+04  0.12607156976E+04  0.25500000920E-02 0.  1.
       -2   -1    0    0    0  501  0.00000000000E+00  0.00000000000E+00 -0.13415032797E+04  0.13415032797E+04  0.25500000920E-02 0. -1.
    10030    2    1    2    0    0  0.00000000000E+00  0.00000000000E+00 -0.80787582099E+02  0.26022189773E+04  0.26009646235E+04 0.  0.
        1    1    3    3  502    0  0.95207998458E+03  0.65553796108E+03 -0.63655692626E+03  0.13196177613E+04  0.50400001928E-02 0. -1.
       -1    1    3    3    0  502 -0.95207998458E+03 -0.65553796108E+03  0.55576934416E+03  0.12826012160E+04  0.50400001928E-02 0.  1.
</event>
<event>
 5   0  0.2471488E-06  0.2605553E+04  0.7818609E-02  0.8366317E-01
       -1   -1    0    0    0  501  0.00000000000E+00  0.00000000000E+00  0.15497632326E+04  0.15497632326E+04  0.50400001928E-02 0.  1.
        1   -1    0    0  501    0  0.00000000000E+00  0.00000000000E+00 -0.10951524122E+04  0.10951524122E+04  0.50400001928E-02 0. -1.
    10030    2    1    2    0    0  0.00000000000E+00  0.00000000000E+00  0.45461082041E+03  0.26449156448E+04  0.26055532561E+04 0.  0.
        4    1    3    3  502    0 -0.12373295917E+04 -0.29509270121E+03  0.51291172497E+03  0.13715481294E+04  0.12699999809E+01 0.  1.
       -4    1    3    3    0  502  0.12373295917E+04  0.29509270121E+03 -0.58300904567E+02  0.12733675154E+04  0.12699999809E+01 0. -1.
</event>
<event>
 5   0  0.2471488E-06  0.2600341E+04  0.7818609E-02  0.8368085E-01
        1   -1    0    0  501    0  0.00000000000E+00  0.00000000000E+00  0.14834249242E+04  0.14834249242E+04  0.50400001928E-02 0.  1.
       -1   -1    0    0    0  501  0.00000000000E+00  0.00000000000E+00 -0.11395543636E+04  0.11395543636E+04  0.50400001928E-02 0. -1.
    10030    2    1    2    0    0  0.00000000000E+00  0.00000000000E+00  0.34387056058E+03  0.26229792877E+04  0.26003410125E+04 0.  0.
        4    1    3    3  502    0  0.10024125728E+04 -0.37444352363E+03 -0.57300806117E+03  0.12138281466E+04  0.12699999809E+01 0. -1.
       -4    1    3    3    0  502 -0.10024125728E+04  0.37444352363E+03  0.91687862175E+03  0.14091511411E+04  0.12699999809E+01 0.  1.
</event>
<event>
 5   0  0.6161834E-06  0.2600352E+04  0.7818609E-02  0.8368082E-01
        2   -1    0    0  501    0  0.00000000000E+00  0.00000000000E+00  0.13068920837E+04  0.13068920837E+04  0.25500000920E-02 0.  1.
       -2   -1    0    0    0  501  0.00000000000E+00  0.00000000000E+00 -0.12934944771E+04  0.12934944772E+04  0.25500000920E-02 0. -1.
    10030    2    1    2    0    0  0.00000000000E+00  0.00000000000E+00  0.13397606570E+02  0.26003865609E+04  0.26003520473E+04 0.  0.
        5    1    3    3  502    0  0.42319464258E+03 -0.89544461277E+03  0.84904058488E+03  0.13045331597E+04  0.46999998093E+01 0.  1.
       -5    1    3    3    0  502 -0.42319464258E+03  0.89544461277E+03 -0.83564297831E+03  0.12958534011E+04  0.46999998093E+01 0. -1.
</event>
<event>
 5   0  0.2456600E-06  0.2698724E+04  0.7818609E-02  0.8335419E-01
       -1   -1    0    0    0  501  0.00000000000E+00  0.00000000000E+00  0.15977457772E+04  0.15977457772E+04  0.50400001928E-02 0. -1.
        1   -1    0    0  501    0  0.00000000000E+00  0.00000000000E+00 -0.11395915727E+04  0.11395915727E+04  0.50400001928E-02 0.  1.
    10030    2    1    2    0    0  0.00000000000E+00  0.00000000000E+00  0.45815420456E+03  0.27373373499E+04  0.26987238636E+04 0.  0.
        5    1    3    3  502    0  0.12545656262E+03  0.11681067280E+03 -0.11284943541E+04  0.11414489387E+04  0.46999998093E+01 0.  1.
       -5    1    3    3    0  502 -0.12545656262E+03 -0.11681067280E+03  0.15866485587E+04  0.15958884112E+04  0.46999998093E+01 0. -1.
</event>
<event>
 5   0  0.2456600E-06  0.2606558E+04  0.7818609E-02  0.8365977E-01
        1   -1    0    0  501    0  0.00000000000E+00  0.00000000000E+00  0.13204636574E+04  0.13204636574E+04  0.50400001928E-02 0. -1.
       -1   -1    0    0    0  501  0.00000000000E+00  0.00000000000E+00 -0.12863184342E+04  0.12863184342E+04  0.50400001928E-02 0.  1.
    10030    2    1    2    0    0  0.00000000000E+00  0.00000000000E+00  0.34145223230E+02  0.26067820916E+04  0.26065584546E+04 0.  0.
        5    1    3    3  502    0 -0.89087602296E+03  0.73156434138E+03  0.62512821482E+03  0.13113557293E+04  0.46999998093E+01 0.  1.
       -5    1    3    3    0  502  0.89087602296E+03 -0.73156434138E+03 -0.59098299159E+03  0.12954263623E+04  0.46999998093E+01 0. -1.
</event>
<event>
 5   0  0.6158063E-06  0.2597812E+04  0.7818609E-02  0.8368945E-01
        2   -1    0    0  501    0  0.00000000000E+00  0.00000000000E+00  0.13607508990E+04  0.13607508990E+04  0.25500000920E-02 0. -1.
       -2   -1    0    0    0  501  0.00000000000E+00  0.00000000000E+00 -0.12398719844E+04  0.12398719844E+04  0.25500000920E-02 0.  1.
    10030    2    1    2    0    0  0.00000000000E+00  0.00000000000E+00  0.12087891454E+03  0.26006228834E+04  0.25978120928E+04 0.  0.
        2    1    3    3  502    0  0.53863094817E+03 -0.56647329458E+03 -0.97805542525E+03  0.12520414157E+04  0.25500000920E-02 0.  1.
       -2    1    3    3    0  502 -0.53863094817E+03  0.56647329458E+03  0.10989343398E+04  0.13485814677E+04  0.25500000920E-02 0. -1.
</event>
<event>
 5   0  0.2333979E-06  0.2593772E+04  0.7818609E-02  0.8370320E-01
        1   -1    0    0  501    0  0.00000000000E+00  0.00000000000E+00  0.10578951949E+04  0.10578951949E+04  0.50400001928E-02 0.  1.
       -1   -1    0    0    0  501  0.00000000000E+00  0.00000000000E+00 -0.15898673967E+04  0.15898673967E+04  0.50400001928E-02 0. -1.
    10030    2    1    2    0    0  0.00000000000E+00  0.00000000000E+00 -0.53197220185E+03  0.26477625916E+04  0.25937718323E+04 0.  0.
        3    1    3    3  502    0 -0.26745510377E+03  0.35289340865E+03 -0.15103125424E+04  0.15738837239E+04  0.10100000352E+00 0. -1.
       -3    1    3    3    0  502  0.26745510377E+03 -0.35289340865E+03  0.97834034053E+03  0.10738788677E+04  0.10100000352E+00 0.  1.
</event>
<event>
 5   0  0.6173140E-06  0.2599430E+04  0.7818609E-02  0.8368395E-01
       -2   -1    0    0    0  501  0.00000000000E+00  0.00000000000E+00  0.11989196522E+04  0.11989196522E+04  0.25500000920E-02 0. -1.
        2   -1    0    0  501    0  0.00000000000E+00  0.00000000000E+00 -0.14089845539E+04  0.14089845539E+04  0.25500000920E-02 0.  1.
    10030    2    1    2    0    0  0.00000000000E+00  0.00000000000E+00 -0.21006490165E+03  0.26079042061E+04  0.25994301463E+04 0.  0.
        3    1    3    3  502    0 -0.39365366077E+03 -0.10674624983E+04  0.52536287566E+03  0.12531741903E+04  0.10100000352E+00 0. -1.
       -3    1    3    3    0  502  0.39365366077E+03  0.10674624983E+04 -0.73542777731E+03  0.13547300158E+04  0.10100000352E+00 0.  1.
</event>
<event>
 5   0  0.5942229E-06  0.2500794E+04  0.7818609E-02  0.8402703E-01
        2   -1    0    0  501    0  0.00000000000E+00  0.00000000000E+00  0.14602048835E+04  0.14602048835E+04  0.25500000920E-02 0. -1.
       -2   -1    0    0    0  501  0.00000000000E+00  0.00000000000E+00 -0.10707355113E+04  0.10707355113E+04  0.25500000920E-02 0.  1.
    10030    2    1    2    0    0  0.00000000000E+00  0.00000000000E+00  0.38946937220E+03  0.25309403949E+04  0.25007944519E+04 0.  0.
        4    1    3    3  502    0  0.20650895014E+03 -0.11148984781E+04 -0.33873139670E+03  0.11833786947E+04  0.12699999809E+01 0.  1.
       -4    1    3    3    0  502 -0.20650895014E+03  0.11148984781E+04  0.72820076890E+03  0.13475617002E+04  0.12699999809E+01 0. -1.
</event>
<event>
 5   0  0.5942229E-06  0.2583974E+04  0.7818609E-02  0.8373665E-01
        2   -1    0    0  501    0  0.00000000000E+00  0.00000000000E+00  0.16847102068E+04  0.16847102068E+04  0.25500000920E-02 0. -1.
       -2   -1    0    0    0  501  0.00000000000E+00  0.00000000000E+00 -0.99081133500E+03  0.99081133500E+03  0.25500000920E-02 0.  1.
    10030    2    1    2    0    0  0.00000000000E+00  0.00000000000E+00  0.69389887184E+03  0.26755215418E+04  0.25839736602E+04 0.  0.
        4    1    3    3  502    0  0.54235723815E+03 -0.49810827149E+03  0.14461466257E+04  0.16228385316E+04  0.12699999809E+01 0. -1.
       -4    1    3    3    0  502 -0.54235723815E+03  0.49810827149E+03 -0.75224775385E+03  0.10526830102E+04  0.12699999809E+01 0.  1.
</event>
<event>
 5   0  0.2503292E-06  0.2597809E+04  0.7818609E-02  0.8368946E-01
        1   -1    0    0  501    0  0.00000000000E+00  0.00000000000E+00  0.14699683169E+04  0.14699683169E+04  0.50400001928E-02 0.  1.
       -1   -1    0    0    0  501  0.00000000000E+00  0.00000000000E+00 -0.11477479098E+04  0.11477479098E+04  0.50400001928E-02 0. -1.
    10030    2    1    2    0    0  0.00000000000E+00  0.00000000000E+00  0.32222040712E+03  0.26177162267E+04  0.25978091256E+04 0.  0.
        2    1    3    3  502    0 -0.14569747876E+03  0.38582305836E+03  0.14022409853E+04  0.14616316118E+04  0.25500000920E-02 0.  1.
       -2    1    3    3    0  502  0.14569747876E+03 -0.38582305836E+03 -0.10800205782E+04  0.11560846150E+04  0.25500000920E-02 0. -1.
</event>
<event>
 5   0  0.5940748E-06  0.2614779E+04  0.7818609E-02  0.8363198E-01
       -2   -1    0    0    0  501  0.00000000000E+00  0.00000000000E+00  0.10495412085E+04  0.10495412085E+04  0.25500000920E-02 0. -1.
        2   -1    0    0  501    0  0.00000000000E+00  0.00000000000E+00 -0.16285852855E+04  0.16285852855E+04  0.25500000920E-02 0.  1.
    10030    2    1    2    0    0  0.00000000000E+00  0.00000000000E+00 -0.57904407695E+03  0.26781264940E+04  0.26147790489E+04 0.  0.
        1    1    3    3  502    0  0.13905958425E+03 -0.44227620147E+03  0.96251772245E+03  0.10683567627E+04  0.50400001928E-02 0. -1.
       -1    1    3    3    0  502 -0.13905958425E+03  0.44227620147E+03 -0.15415617994E+04  0.16097697313E+04  0.50400001928E-02 0.  1.
</event>
<event>
 5   0  0.2440590E-06  0.2580635E+04  0.7818609E-02  0.8374809E-01
       -1   -1    0    0    0  501  0.00000000000E+00  0.00000000000E+00  0.88515448154E+03  0.88515448155E+03  0.50400001928E-02 0.  1.
        1   -1    0    0  501    0  0.00000000000E+00  0.00000000000E+00 -0.18809364663E+04  0.18809364663E+04  0.50400001928E-02 0. -1.
    10030    2    1    2    0    0  0.00000000000E+00  0.00000000000E+00 -0.99578198480E+03  0.27660909479E+04  0.25806350712E+04 0.  0.
        1    1    3    3  502    0 -0.42768198344E+03  0.92890836267E+03  0.34550812166E+03  0.10794250726E+04  0.50400001928E-02 0.  1.
       -1    1    3    3    0  502  0.42768198344E+03 -0.92890836267E+03 -0.13412901065E+04  0.16866658753E+04  0.50400001928E-02 0. -1.
</event>
<event>
 5   0  0.2456600E-06  0.2586540E+04  0.7818609E-02  0.8372788E-01
       -1   -1    0    0    0  501  0.00000000000E+00  0.00000000000E+00  0.19975037885E+04  0.19975037885E+04  0.50400001928E-02 0. -1.
        1   -1    0    0  501    0  0.00000000000E+00  0.00000000000E+00 -0.83731899527E+03  0.83731899529E+03  0.50400001928E-02 0.  1.
    10030    2    1    2    0    0  0.00000000000E+00  0.00000000000E+00  0.11601847933E+04  0.28348227838E+04  0.25865404426E+04 0.  0.
        5    1    3    3  502    0 -0.26075863258E+03  0.87926377175E+03  0.15794442537E+04  0.18264079734E+04  0.46999998093E+01 0. -1.
       -5    1    3    3    0  502  0.26075863258E+03 -0.87926377175E+03 -0.41925946041E+03  0.10084148104E+04  0.46999998093E+01 0.  1.
</event>
<event>
 5   0  0.5940748E-06  0.2595560E+04  0.7818609E-02  0.8369711E-01
        2   -1    0    0  501    0  0.00000000000E+00  0.00000000000E+00  0.10711459697E+04  0.10711459697E+04  0.25500000920E-02 0. -1.
       -2   -1    0    0    0  501  0.00000000000E+00  0.00000000000E+00 -0.15723658309E+04  0.15723658309E+04  0.25500000920E-02 0.  1.
    10030    2    1    2    0    0  0.00000000000E+00  0.00000000000E+00 -0.50121986122E+03  0.26435118007E+04  0.25955603039E+04 0.  0.
        1    1    3    3  502    0 -0.29542296702E+03  0.23435303490E+03  0.10141193174E+04  0.10819584392E+04  0.50400001928E-02 0. -1.
       -1    1    3    3    0  502  0.29542296702E+03 -0.23435303490E+03 -0.15153391786E+04  0.15615533614E+04  0.50400001928E-02 0.  1.
</event>
<event>
 5   0  0.2456600E-06  0.2633194E+04  0.7818609E-02  0.8357012E-01
       -1   -1    0    0    0  501  0.00000000000E+00  0.00000000000E+00  0.12682648180E+04  0.12682648180E+04  0.50400001928E-02 0. -1.
        1   -1    0    0  501    0  0.00000000000E+00  0.00000000000E+00 -0.13667715692E+04  0.13667715692E+04  0.50400001928E-02 0.  1.
    10030    2    1    2    0    0  0.00000000000E+00  0.00000000000E+00 -0.98506751193E+02  0.26350363872E+04  0.26331944824E+04 0.  0.
        5    1    3    3  502    0  0.10822871325E+04  0.20246101201E+03  0.67310355383E+03  0.12905139994E+04  0.46999998093E+01 0.  1.
       -5    1    3    3    0  502 -0.10822871325E+04 -0.20246101201E+03 -0.77161030502E+03  0.13445223878E+04  0.46999998093E+01 0. -1.
</event>
<event>
 5   0  0.2333979E-06  0.2600829E+04  0.7818609E-02  0.8367920E-01
       -1   -1    0    0    0  501  0.00000000000E+00  0.00000000000E+00  0.86225501208E+03  0.86225501209E+03  0.50400001928E-02 0. -1.
        1   -1    0    0  501    0  0.00000000000E+00  0.00000000000E+00 -0.19612274833E+04  0.19612274833E+04  0.50400001928E-02 0.  1.
    10030    2    1    2    0    0  0.00000000000E+00  0.00000000000E+00 -0.10989724712E+04  0.28234824954E+04  0.26008292734E+04 0.  0.
        3    1    3    3  502    0  0.92029661857E+03 -0.69820154877E+03 -0.11978108510E+04  0.16640859695E+04  0.10100000352E+00 0.  1.
       -3    1    3    3    0  502 -0.92029661857E+03  0.69820154877E+03  0.98838379742E+02  0.11593965259E+04  0.10100000352E+00 0. -1.
</event>
<event>
 5   0  0.2471488E-06  0.2600758E+04  0.7818609E-02  0.8367944E-01
       -1   -1    0    0    0  501  0.00000000000E+00  0.00000000000E+00  0.12079567457E+04  0.12079567457E+04  0.50400001928E-02 0.  1.
        1   -1    0    0  501    0  0.00000000000E+00  0.00000000000E+00 -0.13998721742E+04  0.13998721743E+04  0.50400001928E-02 0. -1.
    10030    2    1    2    0    0  0.00000000000E+00  0.00000000000E+00 -0.19191542852E+03  0.26078289200E+04  0.26007576097E+04 0.  0.
        4    1    3    3  502    0  0.71113802717E+03  0.69673602338E+03 -0.93478772375E+03  0.13656456646E+04  0.12699999809E+01 0. -1.
       -4    1    3    3    0  502 -0.71113802717E+03 -0.69673602338E+03  0.74287229523E+03  0.12421832554E+04  0.12699999809E+01 0.  1.
</event>
<event>
 5   0  0.6161834E-06  0.2590959E+04  0.7818609E-02  0.8371279E-01
        2   -1    0    0  501    0  0.00000000000E+00  0.00000000000E+00  0.30688186885E+04  0.30688186885E+04  0.25500000920E-02 0. -1.
       -2   -1    0    0    0  501  0.00000000000E+00  0.00000000000E+00 -0.54687711351E+03  0.54687711351E+03  0.25500000920E-02 0.  1.
    10030    2    1    2    0    0  0.00000000000E+00  0.00000000000E+00  0.25219415749E+04  0.36156958020E+04  0.25909586691E+04 0.  0.
        5    1    3    3  502    0 -0.48444843563E+03 -0.27905097984E+03  0.28917931214E+04  0.29453436613E+04  0.46999998093E+01 0. -1.
       -5    1    3    3    0  502  0.48444843563E+03  0.27905097984E+03 -0.36985154644E+03  0.67035214069E+03  0.46999998093E+01 0.  1.
</event>
<event>
 5   0  0.5940748E-06  0.2605076E+04  0.7818609E-02  0.8366479E-01
       -2   -1    0    0    0  501  0.00000000000E+00  0.00000000000E+00  0.14514117072E+04  0.14514117072E+04  0.25500000920E-02 0. -1.
        2   -1    0    0  501    0  0.00000000000E+00  0.00000000000E+00 -0.11689340893E+04  0.11689340893E+04  0.25500000920E-02 0.  1.
    10030    2    1    2    0    0  0.00000000000E+00  0.00000000000E+00  0.28247761796E+03  0.26203457965E+04  0.26050755245E+04 0.  0.
        1    1    3    3  502    0  0.74330526619E+03  0.10510769274E+04 -0.58264924908E+02  0.12886660652E+04  0.50400001928E-02 0.  1.
       -1    1    3    3    0  502 -0.74330526619E+03 -0.10510769274E+04  0.34074254286E+03  0.13316797313E+04  0.50400001928E-02 0. -1.
</event>
<event>
 5   0  0.2503292E-06  0.2598163E+04  0.7818609E-02  0.8368825E-01
        1   -1    0    0  501    0  0.00000000000E+00  0.00000000000E+00  0.89688897201E+03  0.89688897203E+03  0.50400001928E-02 0. -1.
       -1   -1    0    0    0  501  0.00000000000E+00  0.00000000000E+00 -0.18816295317E+04  0.18816295317E+04  0.50400001928E-02 0.  1.
    10030    2    1    2    0    0  0.00000000000E+00  0.00000000000E+00 -0.98474055970E+03  0.27785185038E+04  0.25981630252E+04 0.  0.
        2    1    3    3  502    0  0.94057392537E+03 -0.34706636992E+02  0.46517797555E+03  0.10498925701E+04  0.25500000920E-02 0. -1.
       -2    1    3    3    0  502 -0.94057392537E+03  0.34706636992E+02 -0.14499185353E+04  0.17286259337E+04  0.25500000920E-02 0.  1.
</event>
<event>
 5   0  0.2456600E-06  0.2600248E+04  0.7818609E-02  0.8368117E-01
        1   -1    0    0  501    0  0.00000000000E+00  0.00000000000E+00  0.13663323521E+04  0.13663323521E+04  0.50400001928E-02 0. -1.
       -1   -1    0    0    0  501  0.00000000000E+00  0.00000000000E+00 -0.12371234365E+04  0.12371234365E+04  0.50400001928E-02 0.  1.
    10030    2    1    2    0    0  0.00000000000E+00  0.00000000000E+00  0.12920891567E+03  0.26034557886E+04  0.26002475073E+04 0.  0.
        5    1    3    3  502    0 -0.12410163335E+04  0.87312590633E+02 -0.31342550363E+03  0.12829663537E+04  0.46999998093E+01 0. -1.
       -5    1    3    3    0  502  0.12410163335E+04 -0.87312590633E+02  0.44263441930E+03  0.13204894349E+04  0.46999998093E+01 0.  1.
</event>
<event>
 5   0  0.6173140E-06  0.2598532E+04  0.7818609E-02  0.8368700E-01
       -2   -1    0    0    0  501  0.00000000000E+00  0.00000000000E+00  0.95720464739E+03  0.95720464740E+03  0.25500000920E-02 0.  1.
        2   -1    0    0  501    0  0.00000000000E+00  0.00000000000E+00 -0.17635641286E+04  0.17635641286E+04  0.25500000920E-02 0. -1.
    10030    2    1    2    0    0  0.00000000000E+00  0.00000000000E+00 -0.80635948125E+03  0.27207687760E+04  0.25985317238E+04 0.  0.
        3    1    3    3  502    0 -0.18559343516E+03 -0.12662906246E+04 -0.16869191517E+03  0.12908887797E+04  0.10100000352E+00 0.  1.
       -3    1    3    3    0  502  0.18559343516E+03  0.12662906246E+04 -0.63766756608E+03  0.14298799964E+04  0.10100000352E+00 0. -1.
</event>
<event>
 5   0  0.5940748E-06  0.2602461E+04  0.7818609E-02  0.8367366E-01
        2   -1    0    0  501    0  0.00000000000E+00  0.00000000000E+00  0.14017416661E+04  0.14017416661E+04  0.25500000920E-02 0.  1.
       -2   -1    0    0    0  501  0.00000000000E+00  0.00000000000E+00 -0.12079268254E+04  0.12079268254E+04  0.25500000920E-02 0. -1.
    10030    2    1    2    0    0  0.00000000000E+00  0.00000000000E+00  0.19381484072E+03  0.26096684914E+04  0.26024614200E+04 0.  0.
        1    1    3    3  502    0  0.91646140713E+03 -0.71754144763E+03  0.68026938951E+03  0.13481593682E+04  0.50400001928E-02 0.  1.
       -1    1    3    3    0  502 -0.91646140713E+03  0.71754144763E+03 -0.48645454880E+03  0.12615091232E+04  0.50400001928E-02 0. -1.
</event>
<event>
 5   0  0.2456600E-06  0.2596022E+04  0.7818609E-02  0.8369554E-01
        1   -1    0    0  501    0  0.00000000000E+00  0.00000000000E+00  0.15952815197E+04  0.15952815197E+04  0.50400001928E-02 0.  1.
       -1   -1    0    0    0  501  0.00000000000E+00  0.00000000000E+00 -0.10561349411E+04  0.10561349411E+04  0.50400001928E-02 0. -1.
    10030    2    1    2    0    0  0.00000000000E+00  0.00000000000E+00  0.53914657859E+03  0.26514164608E+04  0.25960219982E+04 0.  0.
        5    1    3    3  502    0  0.57893951634E+03  0.48191060298E+03  0.13492015348E+04  0.15452429143E+04  0.46999998093E+01 0.  1.
       -5    1    3    3    0  502 -0.57893951634E+03 -0.48191060298E+03 -0.81005495617E+03  0.11061735464E+04  0.46999998093E+01 0. -1.
</event>
<event>
 5   0  0.2503292E-06  0.2607787E+04  0.7818609E-02  0.8365561E-01
        1   -1    0    0  501    0  0.00000000000E+00  0.00000000000E+00  0.19334536968E+04  0.19334536968E+04  0.50400001928E-02 0. -1.
       -1   -1    0    0    0  501  0.00000000000E+00  0.00000000000E+00 -0.87932720822E+03  0.87932720824E+03  0.50400001928E-02 0.  1.
    10030    2    1    2    0    0  0.00000000000E+00  0.00000000000E+00  0.10541264886E+04  0.28127809050E+04  0.26077871397E+04 0.  0.
        2    1    3    3  502    0 -0.24633441426E+03 -0.10328979926E+04 -0.28910872732E+03  0.11005193152E+04  0.25500000920E-02 0.  1.
       -2    1    3    3    0  502  0.24633441426E+03  0.10328979926E+04  0.13432352159E+04  0.17122615899E+04  0.25500000920E-02 0. -1.
</event>
<event>
 5   0  0.2456600E-06  0.2600997E+04  0.7818609E-02  0.8367863E-01
       -1   -1    0    0    0  501  0.00000000000E+00  0.00000000000E+00  0.83497991279E+03  0.83497991281E+03  0.50400001928E-02 0.  1.
        1   -1    0    0  501    0  0.00000000000E+00  0.00000000000E+00 -0.20255533500E+04  0.20255533500E+04  0.50400001928E-02 0. -1.
    10030    2    1    2    0    0  0.00000000000E+00  0.00000000000E+00 -0.11905734372E+04  0.28605332628E+04  0.26009970085E+04 0.  0.
        5    1    3    3  502    0 -0.88342444358E+03  0.20514098174E+03  0.42978731651E+03  0.10036238326E+04  0.46999998093E+01 0.  1.
       -5    1    3    3    0  502  0.88342444358E+03 -0.20514098174E+03 -0.16203607537E+04  0.18569094303E+04  0.46999998093E+01 0. -1.
</event>
<event>
 5   0  0.2503292E-06  0.2596685E+04  0.7818609E-02  0.8369328E-01
       -1   -1    0    0    0  501  0.00000000000E+00  0.00000000000E+00  0.14628966967E+04  0.14628966967E+04  0.50400001928E-02 0. -1.
        1   -1    0    0  501    0  0.00000000000E+00  0.00000000000E+00 -0.11522983459E+04  0.11522983459E+04  0.50400001928E-02 0.  1.
    10030    2    1    2    0    0  0.00000000000E+00  0.00000000000E+00  0.31059835082E+03  0.26151950427E+04  0.25966851514E+04 0.  0.
        2    1    3    3  502    0  0.31391055104E+03  0.30136431280E+02  0.14237393197E+04  0.14582461003E+04  0.25500000920E-02 0. -1.
       -2    1    3    3    0  502 -0.31391055104E+03 -0.30136431280E+02 -0.11131409689E+04  0.11569489424E+04  0.25500000920E-02 0.  1.
</event>
<event>
 5   0  0.2456600E-06  0.2579936E+04  0.7818609E-02  0.8375048E-01
       -1   -1    0    0    0  501  0.00000000000E+00  0.00000000000E+00  0.15798086725E+04  0.15798086725E+04  0.50400001928E-02 0. -1.
        1   -1    0    0  501    0  0.00000000000E+00  0.00000000000E+00 -0.10533035423E+04  0.10533035423E+04  0.50400001928E-02 0.  1.
    10030    2    1    2    0    0  0.00000000000E+00  0.00000000000E+00  0.52650513026E+03  0.26331122148E+04  0.25799364883E+04 0.  0.
        5    1    3    3  502    0  0.11449342651E+04  0.30990333966E+03  0.78073511100E+03  0.14200295612E+04  0.46999998093E+01 0. -1.
       -5    1    3    3    0  502 -0.11449342651E+04 -0.30990333966E+03 -0.25422998075E+03  0.12130826535E+04  0.46999998093E+01 0.  1.
</event>
<event>
 5   0  0.2503292E-06  0.2599158E+04  0.7818609E-02  0.8368487E-01
        1   -1    0    0  501    0  0.00000000000E+00  0.00000000000E+00  0.17792130318E+04  0.17792130318E+04  0.50400001928E-02 0.  1.
       -1   -1    0    0    0  501  0.00000000000E+00  0.00000000000E+00 -0.94924331672E+03  0.94924331674E+03  0.50400001928E-02 0. -1.
    10030    2    1    2    0    0  0.00000000000E+00  0.00000000000E+00  0.82996971508E+03  0.27284563485E+04  0.25991583865E+04 0.  0.
        2    1    3    3  502    0  0.27890370627E+01 -0.99274697774E+03 -0.46539591227E+03  0.10964249613E+04  0.25500000920E-02 0. -1.
       -2    1    3    3    0  502 -0.27890370627E+01  0.99274697774E+03  0.12953656273E+04  0.16320313873E+04  0.25500000920E-02 0.  1.
</event>
<event>
 5   0  0.6173140E-06  0.2601010E+04  0.7818609E-02  0.8367858E-01
        2   -1    0    0  501    0  0.00000000000E+00  0.00000000000E+00  0.11055501609E+04  0.11055501609E+04  0.25500000920E-02 0. -1.
       -2   -1    0    0    0  501  0.00000000000E+00  0.00000000000E+00 -0.15298383108E+04  0.15298383108E+04  0.25500000920E-02 0.  1.
    10030    2    1    2    0    0  0.00000000000E+00  0.00000000000E+00 -0.42428814993E+03  0.26353884717E+04  0.26010097967E+04 0.  0.
        3    1    3    3  502    0 -0.16197331353E+03  0.11455642977E+04  0.38964231500E+03  0.12208087722E+04  0.10100000352E+00 0. -1.
       -3    1    3    3    0  502  0.16197331353E+03 -0.11455642977E+04 -0.81393046493E+03  0.14145796995E+04  0.10100000352E+00 0.  1.
</event>
<event>
 5   0  0.6158063E-06  0.2609496E+04  0.7818609E-02  0.8364983E-01
        2   -1    0    0  501    0  0.00000000000E+00  0.00000000000E+00  0.12436145355E+04  0.12436145355E+04  0.25500000920E-02 0. -1.
       -2   -1    0    0    0  501  0.00000000000E+00  0.00000000000E+00 -0.13688862892E+04  0.13688862892E+04  0.25500000920E-02 0.  1.
    10030    2    1    2    0    0  0.00000000000E+00  0.00000000000E+00 -0.12527175372E+03  0.26125008246E+04  0.26094956498E+04 0.  0.
        2    1    3    3  502    0  0.95242580961E+03  0.83572332682E+03 -0.37415090290E+03  0.13211878367E+04  0.25500000920E-02 0.  1.
       -2    1    3    3    0  502 -0.95242580961E+03 -0.83572332682E+03  0.24887914918E+03  0.12913129879E+04  0.25500000920E-02 0. -1.
</event>
<event>
 5   0  0.5940748E-06  0.2596649E+04  0.7818609E-02  0.8369340E-01
        2   -1    0    0  501    0  0.00000000000E+00  0.00000000000E+00  0.20006868434E+04  0.20006868434E+04  0.25500000920E-02 0. -1.
       -2   -1    0    0    0  501  0.00000000000E+00  0.00000000000E+00 -0.84253388892E+03  0.84253388892E+03  0.25500000920E-02 0.  1.
    10030    2    1    2    0    0  0.00000000000E+00  0.00000000000E+00  0.11581529545E+04  0.28432207324E+04  0.25966489687E+04 0.  0.
        1    1    3    3  502    0 -0.21068654060E+03  0.29832203347E+03  0.19432819678E+04  0.19773036338E+04  0.50400001928E-02 0. -1.
       -1    1    3    3    0  502  0.21068654060E+03 -0.29832203347E+03 -0.78512901326E+03  0.86591709853E+03  0.50400001928E-02 0.  1.
</event>
<event>
 5   0  0.2503292E-06  0.2595906E+04  0.7818609E-02  0.8369593E-01
       -1   -1    0    0    0  501  0.00000000000E+00  0.00000000000E+00  0.14248220959E+04  0.14248220959E+04  0.50400001928E-02 0.  1.
        1   -1    0    0  501    0  0.00000000000E+00  0.00000000000E+00 -0.11823808627E+04  0.11823808627E+04  0.50400001928E-02 0. -1.
    10030    2    1    2    0    0  0.00000000000E+00  0.00000000000E+00  0.24244123317E+03  0.26072029587E+04  0.25959062996E+04 0.  0.
        2    1    3    3  502    0  0.56115663100E+03  0.12812753853E+03  0.12896270292E+04  0.14122504399E+04  0.25500000920E-02 0.  1.
       -2    1    3    3    0  502 -0.56115663100E+03 -0.12812753853E+03 -0.10471857960E+04  0.11949525187E+04  0.25500000920E-02 0. -1.
</event>
<event>
 5   0  0.5942229E-06  0.2562242E+04  0.7818609E-02  0.8381141E-01
        2   -1    0    0  501    0  0.00000000000E+00  0.00000000000E+00  0.11207020521E+04  0.11207020521E+04  0.25500000920E-02 0.  1.
       -2   -1    0    0    0  501  0.00000000000E+00  0.00000000000E+00 -0.14645023131E+04  0.14645023131E+04  0.25500000920E-02 0. -1.
    10030    2    1    2    0    0  0.00000000000E+00  0.00000000000E+00 -0.34380026098E+03  0.25852043651E+04  0.25622417899E+04 0.  0.
        4    1    3    3  502    0  0.34085104388E+02 -0.97662904218E+03 -0.10077585784E+04  0.14037610358E+04  0.12699999809E+01 0. -1.
       -4    1    3    3    0  502 -0.34085104388E+02  0.97662904218E+03  0.66395831739E+03  0.11814433294E+04  0.12699999809E+01 0.  1.
</event>
<event>
 5   0  0.2440590E-06  0.2601790E+04  0.7818609E-02  0.8367593E-01
        1   -1    0    0  501    0  0.00000000000E+00  0.00000000000E+00  0.15199792460E+04  0.15199792461E+04  0.50400001928E-02 0.  1.
       -1   -1    0    0    0  501  0.00000000000E+00  0.00000000000E+00 -0.11133885977E+04  0.11133885977E+04  0.50400001928E-02 0. -1.
    10030    2    1    2    0    0  0.00000000000E+00  0.00000000000E+00  0.40659064835E+03  0.26333678438E+04  0.26017898157E+04 0.  0.
        1    1    3    3  502    0 -0.10656698609E+04  0.41285534430E+03  0.83230879237E+03  0.14138032797E+04  0.50400001928E-02 0. -1.
       -1    1    3    3    0  502  0.10656698609E+04 -0.41285534430E+03 -0.42571814402E+03  0.12195645641E+04  0.50400001928E-02 0.  1.
</event>
<event>
 5   0  0.2471488E-06  0.2585144E+04  0.7818609E-02  0.8373265E-01
       -1   -1    0    0    0  501  0.00000000000E+00  0.00000000000E+00  0.10692618470E+04  0.10692618470E+04  0.50400001928E-02 0.  1.
        1   -1    0    0  501    0  0.00000000000E+00  0.00000000000E+00 -0.15625197365E+04  0.15625197365E+04  0.50400001928E-02 0. -1.
    10030    2    1    2    0    0  0.00000000000E+00  0.00000000000E+00 -0.49325788944E+03  0.26317815835E+04  0.25851442818E+04 0.  0.
        4    1    3    3  502    0  0.11455943485E+04  0.27496636423E+03  0.29470466461E+03  0.12144321163E+04  0.12699999809E+01 0.  1.
       -4    1    3    3    0  502 -0.11455943485E+04 -0.27496636423E+03 -0.78796255406E+03  0.14173494672E+04  0.12699999809E+01 0. -1.
</event>
<event>
 5   0  0.6173140E-06  0.2594663E+04  0.7818609E-02  0.8370016E-01
       -2   -1    0    0    0  501  0.00000000000E+00  0.00000000000E+00  0.11510230033E+04  0.11510230033E+04  0.25500000920E-02 0. -1.
        2   -1    0    0  501    0  0.00000000000E+00  0.00000000000E+00 -0.14622372645E+04  0.14622372645E+04  0.25500000920E-02 0.  1.
    10030    2    1    2    0    0  0.00000000000E+00  0.00000000000E+00 -0.31121426121E+03  0.26132602678E+04  0.25946627740E+04 0.  0.
        3    1    3    3  502    0 -0.68047565260E+03 -0.75977333690E+03 -0.96308052137E+03  0.14027924786E+04  0.10100000352E+00 0.  1.
       -3    1    3    3    0  502  0.68047565260E+03  0.75977333690E+03  0.65186626016E+03  0.12104677892E+04  0.10100000352E+00 0. -1.
</event>
<event>
 5   0  0.2456600E-06  0.2599624E+04  0.7818609E-02  0.8368329E-01
        1   -1    0    0  501    0  0.00000000000E+00  0.00000000000E+00  0.20527108910E+04  0.20527108910E+04  0.50400001928E-02 0.  1.
       -1   -1    0    0    0  501  0.00000000000E+00  0.00000000000E+00 -0.82306367782E+03  0.82306367784E+03  0.50400001928E-02 0. -1.
    10030    2    1    2    0    0  0.00000000000E+00  0.00000000000E+00  0.12296472132E+04  0.28757745689E+04  0.25996244156E+04 0.  0.
        5    1    3    3  502    0  0.61525973711E+03  0.11227472992E+04  0.36651657546E+03  0.13317141330E+04  0.46999998093E+01 0. -1.
       -5    1    3    3    0  502 -0.61525973711E+03 -0.11227472992E+04  0.86313063774E+03  0.15440604359E+04  0.46999998093E+01 0.  1.
</event>
<event>
 5   0  0.6173140E-06  0.2656926E+04  0.7818609E-02  0.8349118E-01
        2   -1    0    0  501    0  0.00000000000E+00  0.00000000000E+00  0.17697980864E+04  0.17697980864E+04  0.25500000920E-02 0. -1.
       -2   -1    0    0    0  501  0.00000000000E+00  0.00000000000E+00 -0.99718364939E+03  0.99718364939E+03  0.25500000920E-02 0.  1.
    10030    2    1    2    0    0  0.00000000000E+00  0.00000000000E+00  0.77261443700E+03  0.27669817358E+04  0.26569258285E+04 0.  0.
        3    1    3    3  502    0  0.12822644452E+04 -0.12881397136E+03  0.50428663899E+02  0.12897046976E+04  0.10100000352E+00 0.  1.
       -3    1    3    3    0  502 -0.12822644452E+04  0.12881397136E+03  0.72218577310E+03  0.14772770382E+04  0.10100000352E+00 0. -1.
</event>
<event>
 5   0  0.2471488E-06  0.2602169E+04  0.7818609E-02  0.8367465E-01
       -1   -1    0    0    0  501  0.00000000000E+00  0.00000000000E+00  0.95351592966E+03  0.95351592967E+03  0.50400001928E-02 0. -1.
        1   -1    0    0  501    0  0.00000000000E+00  0.00000000000E+00 -0.17753468144E+04  0.17753468144E+04  0.50400001928E-02 0.  1.
    10030    2    1    2    0    0  0.00000000000E+00  0.00000000000E+00 -0.82183088469E+03  0.27288627440E+04  0.26021694550E+04 0.  0.
        4    1    3    3  502    0 -0.33855569346E+03  0.11428080600E+04 -0.95803458429E+03  0.15292030922E+04  0.12699999809E+01 0.  1.
       -4    1    3    3    0  502  0.33855569346E+03 -0.11428080600E+04  0.13620369960E+03  0.11996596518E+04  0.12699999809E+01 0. -1.
</event>
<event>
 5   0  0.2456600E-06  0.2598478E+04  0.7818609E-02  0.8368718E-01
        1   -1    0    0  501    0  0.00000000000E+00  0.00000000000E+00  0.22824623805E+04  0.22824623805E+04  0.50400001928E-02 0. -1.
       -1   -1    0    0    0  501  0.00000000000E+00  0.00000000000E+00 -0.73956183220E+03  0.73956183221E+03  0.50400001928E-02 0.  1.
    10030    2    1    2    0    0  0.00000000000E+00  0.00000000000E+00  0.15429005483E+04  0.30220242127E+04  0.25984780623E+04 0.  0.
        5    1    3    3  502    0  0.97040384362E+03  0.55784073076E+03  0.42858888809E+01  0.11193347843E+04  0.46999998093E+01 0.  1.
       -5    1    3    3    0  502 -0.97040384362E+03 -0.55784073076E+03  0.15386146594E+04  0.19026894283E+04  0.46999998093E+01 0. -1.
</event>
<event>
 5   0  0.6161834E-06  0.2621164E+04  0.7818609E-02  0.8361047E-01
       -2   -1    0    0    0  501  0.00000000000E+00  0.00000000000E+00  0.13696805929E+04  0.13696805929E+04  0.25500000920E-02 0. -1.
        2   -1    0    0  501    0  0.00000000000E+00  0.00000000000E+00 -0.12540338245E+04  0.12540338245E+04  0.25500000920E-02 0.  1.
    10030    2    1    2    0    0  0.00000000000E+00  0.00000000000E+00  0.11564676837E+03  0.26237144174E+04  0.26211644681E+04 0.  0.
        5    1    3    3  502    0  0.81990602468E+03  0.34222048824E+03  0.10222143191E+04  0.13543651487E+04  0.46999998093E+01 0. -1.
       -5    1    3    3    0  502 -0.81990602468E+03 -0.34222048824E+03 -0.90656755073E+03  0.12693492687E+04  0.46999998093E+01 0.  1.
</event>
<event>
 5   0  0.2440590E-06  0.2596491E+04  0.7818609E-02  0.8369394E-01
       -1   -1    0    0    0  501  0.00000000000E+00  0.00000000000E+00  0.12244255304E+04  0.12244255304E+04  0.50400001928E-02 0.  1.
        1   -1    0    0  501    0  0.00000000000E+00  0.00000000000E+00 -0.13765159749E+04  0.13765159749E+04  0.50400001928E-02 0. -1.
    10030    2    1    2    0    0  0.00000000000E+00  0.00000000000E+00 -0.15209044456E+03  0.26009415053E+04  0.25964909418E+04 0.  0.
        1    1    3    3  502    0 -0.79173130018E+03  0.65883394688E+03 -0.86767867752E+03  0.13467616377E+04  0.50400001928E-02 0. -1.
       -1    1    3    3    0  502  0.79173130018E+03 -0.65883394688E+03  0.71558823296E+03  0.12541798677E+04  0.50400001928E-02 0.  1.
</event>
<event>
 5   0  0.6161834E-06  0.2601074E+04  0.7818609E-02  0.8367836E-01
        2   -1    0    0  501    0  0.00000000000E+00  0.00000000000E+00  0.21826271708E+04  0.21826271709E+04  0.25500000920E-02 0. -1.
       -2   -1    0    0    0  501  0.00000000000E+00  0.00000000000E+00 -0.77493604947E+03  0.77493604948E+03  0.25500000920E-02 0.  1.
    10030    2    1    2    0    0  0.00000000000E+00  0.00000000000E+00  0.14076911214E+04  0.29575632203E+04  0.26010739915E+04 0.  0.
        5    1    3    3  502    0 -0.11045659421E+04  0.61970111986E+03  0.10397658095E+04  0.16386672716E+04  0.46999998093E+01 0. -1.
       -5    1    3    3    0  502  0.11045659421E+04 -0.61970111986E+03  0.36792531189E+03  0.13188959487E+04  0.46999998093E+01 0.  1.
</event>
<event>
 5   0  0.2503292E-06  0.2608139E+04  0.7818609E-02  0.8365442E-01
        1   -1    0    0  501    0  0.00000000000E+00  0.00000000000E+00  0.16723010005E+04  0.16723010005E+04  0.50400001928E-02 0.  1.
       -1   -1    0    0    0  501  0.00000000000E+00  0.00000000000E+00 -0.10169205858E+04  0.10169205858E+04  0.50400001928E-02 0. -1.
    10030    2    1    2    0    0  0.00000000000E+00  0.00000000000E+00  0.65538041468E+03  0.26892215864E+04  0.26081390401E+04 0.  0.
        2    1    3    3  502    0 -0.77297174826E+03 -0.82395706958E+03 -0.34386949735E+03  0.11809474194E+04  0.25500000920E-02 0. -1.
       -2    1    3    3    0  502  0.77297174826E+03  0.82395706958E+03  0.99924991203E+03  0.15082741670E+04  0.25500000920E-02 0.  1.
</event>
<event>
 5   0  0.2333979E-06  0.2550828E+04  0.7818609E-02  0.8385098E-01
       -1   -1    0    0    0  501  0.00000000000E+00  0.00000000000E+00  0.99444638022E+03  0.99444638023E+03  0.50400001928E-02 0.  1.
        1   -1    0    0  501    0  0.00000000000E+00  0.00000000000E+00 -0.16357652945E+04  0.16357652945E+04  0.50400001928E-02 0. -1.
    10030    2    1    2    0    0  0.00000000000E+00  0.00000000000E+00 -0.64131891432E+03  0.26302116748E+04  0.25508280037E+04 0.  0.
        3    1    3    3  502    0 -0.26798934519E+03 -0.19469430003E+03 -0.15906372246E+04  0.16247618133E+04  0.10100000352E+00 0. -1.
       -3    1    3    3    0  502  0.26798934519E+03  0.19469430003E+03  0.94931831024E+03  0.10054498615E+04  0.10100000352E+00 0.  1.
</event>
<event>
 5   0  0.2456600E-06  0.2599215E+04  0.7818609E-02  0.8368468E-01
       -1   -1    0    0    0  501  0.00000000000E+00  0.00000000000E+00  0.33528517261E+04  0.33528517261E+04  0.50400001928E-02 0. -1.
        1   -1    0    0  501    0  0.00000000000E+00  0.00000000000E+00 -0.50374411458E+03  0.50374411460E+03  0.50400001928E-02 0.  1.
    10030    2    1    2    0    0  0.00000000000E+00  0.00000000000E+00  0.28491076116E+04  0.38565958407E+04  0.25992147461E+04 0.  0.
        5    1    3    3  502    0 -0.65001047636E+03 -0.58357095997E+02 -0.24296287048E+03  0.69639946616E+03  0.46999998093E+01 0.  1.
       -5    1    3    3    0  502  0.65001047636E+03  0.58357095997E+02  0.30920704820E+04  0.31601963746E+04  0.46999998093E+01 0. -1.
</event>
<event>
 5   0  0.6158063E-06  0.2600432E+04  0.7818609E-02  0.8368054E-01
        2   -1    0    0  501    0  0.00000000000E+00  0.00000000000E+00  0.14478949294E+04  0.14478949294E+04  0.25500000920E-02 0. -1.
       -2   -1    0    0    0  501  0.00000000000E+00  0.00000000000E+00 -0.11676000084E+04  0.11676000084E+04  0.25500000920E-02 0.  1.
    10030    2    1    2    0    0  0.00000000000E+00  0.00000000000E+00  0.28029492102E+03  0.26154949378E+04  0.26004323731E+04 0.  0.
        2    1    3    3  502    0 -0.43645780853E+03  0.31742529740E+03  0.13299227967E+04  0.14352522020E+04  0.25500000920E-02 0. -1.
       -2    1    3    3    0  502  0.43645780853E+03 -0.31742529740E+03 -0.10496278757E+04  0.11802427359E+04  0.25500000920E-02 0.  1.
</event>
<event>
 5   0  0.5940748E-06  0.2603465E+04  0.7818609E-02  0.8367025E-01
        2   -1    0    0  501    0  0.00000000000E+00  0.00000000000E+00  0.24517596865E+04  0.24517596865E+04  0.25500000920E-02 0. -1.
       -2   -1    0    0    0  501  0.00000000000E+00  0.00000000000E+00 -0.69113911414E+03  0.69113911415E+03  0.25500000920E-02 0.  1.
    10030    2    1    2    0    0  0.00000000000E+00  0.00000000000E+00  0.17606205723E+04  0.31428988006E+04  0.26034646284E+04 0.  0.
        1    1    3    3  502    0 -0.40285694043E+03 -0.69960870639E+03 -0.35242860490E+03  0.88088136436E+03  0.50400001928E-02 0.  1.
       -1    1    3    3    0  502  0.40285694043E+03  0.69960870639E+03  0.21130491772E+04  0.22620174363E+04  0.50400001928E-02 0. -1.
</event>
<event>
 5   0  0.2440590E-06  0.2619627E+04  0.7818609E-02  0.8361565E-01
        1   -1    0    0  501    0  0.00000000000E+00  0.00000000000E+00  0.15297639702E+04  0.15297639703E+04  0.50400001928E-02 0.  1.
       -1   -1    0    0    0  501  0.00000000000E+00  0.00000000000E+00 -0.11214875631E+04  0.11214875631E+04  0.50400001928E-02 0. -1.
    10030    2    1    2    0    0  0.00000000000E+00  0.00000000000E+00  0.40827640717E+03  0.26512515333E+04  0.26196268949E+04 0.  0.
        1    1    3    3  502    0  0.87211677475E+03 -0.85627241302E+03  0.68080288208E+03  0.13990291914E+04  0.50400001928E-02 0.  1.
       -1    1    3    3    0  502 -0.87211677475E+03  0.85627241302E+03 -0.27252647492E+03  0.12522223419E+04  0.50400001928E-02 0. -1.
</event>
<event>
 5   0  0.2333979E-06  0.2599779E+04  0.7818609E-02  0.8368276E-01
       -1   -1    0    0    0  501  0.00000000000E+00  0.00000000000E+00  0.16072194235E+04  0.16072194235E+04  0.50400001928E-02 0. -1.
        1   -1    0    0  501    0  0.00000000000E+00  0.00000000000E+00 -0.10513268020E+04  0.10513268021E+04  0.50400001928E-02 0.  1.
    10030    2    1    2    0    0  0.00000000000E+00  0.00000000000E+00  0.55589262148E+03  0.26585462256E+04  0.25997791112E+04 0.  0.
        3    1    3    3  502    0  0.64638832969E+03 -0.43441214683E+03 -0.78633955600E+03  0.11067346988E+04  0.10100000352E+00 0.  1.
       -3    1    3    3    0  502 -0.64638832969E+03  0.43441214683E+03  0.13422321775E+04  0.15518115267E+04  0.10100000352E+00 0. -1.
</event>
<event>
 5   0  0.2333979E-06  0.2582775E+04  0.7818609E-02  0.8374076E-01
       -1   -1    0    0    0  501  0.00000000000E+00  0.00000000000E+00  0.11571058552E+04  0.11571058552E+04  0.50400001928E-02 0. -1.
        1   -1    0    0  501    0  0.00000000000E+00  0.00000000000E+00 -0.14412525441E+04  0.14412525441E+04  0.50400001928E-02 0.  1.
    10030    2    1    2    0    0  0.00000000000E+00  0.00000000000E+00 -0.28414668896E+03  0.25983583993E+04  0.25827750638E+04 0.  0.
        3    1    3    3  502    0  0.55048297458E+03  0.11288947442E+04  0.16015042128E+03  0.12661291468E+04  0.10100000352E+00 0. -1.
       -3    1    3    3    0  502 -0.55048297458E+03 -0.11288947442E+04 -0.44429711024E+03  0.13322292525E+04  0.10100000352E+00 0.  1.
</event>
<event>
 5   0  0.2503292E-06  0.2603770E+04  0.7818609E-02  0.8366922E-01
       -1   -1    0    0    0  501  0.00000000000E+00  0.00000000000E+00  0.10215969836E+04  0.10215969836E+04  0.50400001928E-02 0.  1.
        1   -1    0    0  501    0  0.00000000000E+00  0.00000000000E+00 -0.16590738447E+04  0.16590738447E+04  0.50400001928E-02 0. -1.
    10030    2    1    2    0    0  0.00000000000E+00  0.00000000000E+00 -0.63747686105E+03  0.26806708283E+04  0.26037702167E+04 0.  0.
        2    1    3    3  502    0 -0.52339559963E+03 -0.21756314877E+03  0.88789520043E+03  0.10533919329E+04  0.25500000920E-02 0.  1.
       -2    1    3    3    0  502  0.52339559963E+03  0.21756314877E+03 -0.15253720615E+04  0.16272788954E+04  0.25500000920E-02 0. -1.
</event>
<event>
 5   0  0.5940748E-06  0.2601005E+04  0.7818609E-02  0.8367860E-01
        2   -1    0    0  501    0  0.00000000000E+00  0.00000000000E+00  0.22326506542E+04  0.22326506542E+04  0.25500000920E-02 0. -1.
       -2   -1    0    0    0  501  0.00000000000E+00  0.00000000000E+00 -0.75753321343E+03  0.75753321343E+03  0.25500000920E-02 0.  1.
    10030    2    1    2    0    0  0.00000000000E+00  0.00000000000E+00  0.14751174408E+04  0.29901838676E+04  0.26010052092E+04 0.  0.
        1    1    3    3  502    0 -0.28680956250E+03 -0.10999822619E+04  0.11302116859E+02  0.11368150419E+04  0.50400001928E-02 0.  1.
       -1    1    3    3    0  502  0.28680956250E+03  0.10999822619E+04  0.14638153239E+04  0.18533688257E+04  0.50400001928E-02 0. -1.
</event>
<event>
 5   0  0.6173140E-06  0.2605037E+04  0.7818609E-02  0.8366492E-01
       -2   -1    0    0    0  501  0.00000000000E+00  0.00000000000E+00  0.16988225345E+04  0.16988225345E+04  0.25500000920E-02 0.  1.
        2   -1    0    0  501    0  0.00000000000E+00  0.00000000000E+00 -0.99866475870E+03  0.99866475870E+03  0.25500000920E-02 0. -1.
    10030    2    1    2    0    0  0.00000000000E+00  0.00000000000E+00  0.70015777583E+03  0.26974872932E+04  0.26050368109E+04 0.  0.
        3    1    3    3  502    0 -0.46651083095E+03 -0.64853589493E+03 -0.71517877064E+03  0.10722461688E+04  0.10100000352E+00 0. -1.
       -3    1    3    3    0  502  0.46651083095E+03  0.64853589493E+03  0.14153365465E+04  0.16252411244E+04  0.10100000352E+00 0.  1.
</event>
<event>
 5   0  0.2333979E-06  0.2612779E+04  0.7818609E-02  0.8363874E-01
       -1   -1    0    0    0  501  0.00000000000E+00  0.00000000000E+00  0.11892167114E+04  0.11892167114E+04  0.50400001928E-02 0.  1.
        1   -1    0    0  501    0  0.00000000000E+00  0.00000000000E+00 -0.14351068331E+04  0.14351068331E+04  0.50400001928E-02 0. -1.
    10030    2    1    2    0    0  0.00000000000E+00  0.00000000000E+00 -0.24589012170E+03  0.26243235445E+04  0.26127786194E+04 0.  0.
        3    1    3    3  502    0 -0.13892498999E+02  0.11135133410E+04 -0.80900641369E+03  0.13764433696E+04  0.10100000352E+00 0. -1.
       -3    1    3    3    0  502  0.13892498999E+02 -0.11135133410E+04  0.56311629199E+03  0.12478801748E+04  0.10100000352E+00 0.  1.
</event>
<event>
 5   0  0.5942229E-06  0.2725599E+04  0.7818609E-02  0.8326747E-01
       -2   -1    0    0    0  501  0.00000000000E+00  0.00000000000E+00  0.10269152075E+04  0.10269152075E+04  0.25500000920E-02 0. -1.
        2   -1    0    0  501    0  0.00000000000E+00  0.00000000000E+00 -0.18085450064E+04  0.18085450064E+04  0.25500000920E-02 0.  1.
    10030    2    1    2    0    0  0.00000000000E+00  0.00000000000E+00 -0.78162979887E+03  0.28354602139E+04  0.27255989217E+04 0.  0.
        4    1    3    3  502    0 -0.50079023984E+03  0.12483447789E+04 -0.16274025083E+03  0.13548584994E+04  0.12699999809E+01 0. -1.
       -4    1    3    3    0  502  0.50079023984E+03 -0.12483447789E+04 -0.61888954804E+03  0.14806017145E+04  0.12699999809E+01 0.  1.
</event>
<event>
 5   0  0.2333979E-06  0.2513553E+04  0.7818609E-02  0.8398173E-01
        1   -1    0    0  501    0  0.00000000000E+00  0.00000000000E+00  0.14071008894E+04  0.14071008894E+04  0.50400001928E-02 0.  1.
       -1   -1    0    0    0  501  0.00000000000E+00  0.00000000000E+00 -0.11225117755E+04  0.11225117755E+04  0.50400001928E-02 0. -1.
    10030    2    1    2    0    0  0.00000000000E+00  0.00000000000E+00  0.28458911390E+03  0.25296126649E+04  0.25135531167E+04 0.  0.
        3    1    3    3  502    0  0.23600255541E+03  0.94848632224E+03 -0.65279353210E+03  0.11753565057E+04  0.10100000352E+00 0. -1.
       -3    1    3    3    0  502 -0.23600255541E+03 -0.94848632224E+03  0.93738264600E+03  0.13542561593E+04  0.10100000352E+00 0.  1.
</event>
<event>
 5   0  0.2333979E-06  0.2582046E+04  0.7818609E-02  0.8374325E-01
       -1   -1    0    0    0  501  0.00000000000E+00  0.00000000000E+00  0.13685799847E+04  0.13685799847E+04  0.50400001928E-02 0. -1.
        1   -1    0    0  501    0  0.00000000000E+00  0.00000000000E+00 -0.12178610501E+04  0.12178610501E+04  0.50400001928E-02 0.  1.
    10030    2    1    2    0    0  0.00000000000E+00  0.00000000000E+00  0.15071893460E+03  0.25864410348E+04  0.25820458999E+04 0.  0.
        3    1    3    3  502    0 -0.62735189453E+03 -0.36864133497E+03 -0.99288602024E+03  0.12309709553E+04  0.10100000352E+00 0.  1.
       -3    1    3    3    0  502  0.62735189453E+03  0.36864133497E+03  0.11436049548E+04  0.13554700795E+04  0.10100000352E+00 0. -1.
</event>
<event>
 5   0  0.6173140E-06  0.2587120E+04  0.7818609E-02  0.8372590E-01
       -2   -1    0    0    0  501  0.00000000000E+00  0.00000000000E+00  0.20969703145E+04  0.20969703145E+04  0.25500000920E-02 0. -1.
        2   -1    0    0  501    0  0.00000000000E+00  0.00000000000E+00 -0.79795935307E+03  0.79795935307E+03  0.25500000920E-02 0.  1.
    10030    2    1    2    0    0  0.00000000000E+00  0.00000000000E+00  0.12990109614E+04  0.28949296675E+04  0.25871196923E+04 0.  0.
        3    1    3    3  502    0 -0.82346455283E+03 -0.50144694689E+03  0.16145252221E+04  0.18804878658E+04  0.10100000352E+00 0. -1.
       -3    1    3    3    0  502  0.82346455283E+03  0.50144694689E+03 -0.31551426069E+03  0.10144418018E+04  0.10100000352E+00 0.  1.
</event>
<event>
 5   0  0.2471488E-06  0.2608511E+04  0.7818609E-02  0.8365316E-01
        1   -1    0    0  501    0  0.00000000000E+00  0.00000000000E+00  0.12090522296E+04  0.12090522296E+04  0.50400001928E-02 0. -1.
       -1   -1    0    0    0  501  0.00000000000E+00  0.00000000000E+00 -0.14069549648E+04  0.14069549648E+04  0.50400001928E-02 0.  1.
    10030    2    1    2    0    0  0.00000000000E+00  0.00000000000E+00 -0.19790273520E+03  0.26160071944E+04  0.26085107147E+04 0.  0.
        4    1    3    3  502    0  0.11274425481E+04 -0.58066288158E+03 -0.40443198332E+03  0.13311134149E+04  0.12699999809E+01 0. -1.
       -4    1    3    3    0  502 -0.11274425481E+04  0.58066288158E+03  0.20652924813E+03  0.12848937795E+04  0.12699999809E+01 0.  1.
</event>
<event>
 5   0  0.2333979E-06  0.2600953E+04  0.7818609E-02  0.8367878E-01
       -1   -1    0    0    0  501  0.00000000000E+00  0.00000000000E+00  0.12396871975E+04  0.12396871975E+04  0.50400001928E-02 0. -1.
        1   -1    0    0  501    0  0.00000000000E+00  0.00000000000E+00 -0.13642466068E+04  0.13642466068E+04  0.50400001928E-02 0.  1.
    10030    2    1    2    0    0  0.00000000000E+00  0.00000000000E+00 -0.12455940933E+03  0.26039338043E+04  0.26009529428E+04 0.  0.
        3    1    3    3  502    0 -0.66833998076E+03 -0.74302588550E+03 -0.89538317629E+03  0.13418184821E+04  0.10100000352E+00 0.  1.
       -3    1    3    3    0  502  0.66833998076E+03  0.74302588550E+03  0.77082376696E+03  0.12621153221E+04  0.10100000352E+00 0. -1.
</event>
<event>
 5   0  0.6158063E-06  0.2603706E+04  0.7818609E-02  0.8366943E-01
        2   -1    0    0  501    0  0.00000000000E+00  0.00000000000E+00  0.20573475679E+04  0.20573475679E+04  0.25500000920E-02 0.  1.
       -2   -1    0    0    0  501  0.00000000000E+00  0.00000000000E+00 -0.82378967556E+03  0.82378967557E+03  0.25500000920E-02 0. -1.
    10030    2    1    2    0    0  0.00000000000E+00  0.00000000000E+00  0.12335578923E+04  0.28811372435E+04  0.26037063471E+04 0.  0.
        2    1    3    3  502    0  0.61973379184E+03 -0.11154794904E+04  0.33151753432E+03  0.13184340491E+04  0.25500000920E-02 0.  1.
       -2    1    3    3    0  502 -0.61973379184E+03  0.11154794904E+04  0.90204035801E+03  0.15627031944E+04  0.25500000920E-02 0. -1.
</event>
<event>
 5   0  0.2471488E-06  0.2602007E+04  0.7818609E-02  0.8367520E-01
        1   -1    0    0  501    0  0.00000000000E+00  0.00000000000E+00  0.19743027984E+04  0.19743027984E+04  0.50400001928E-02 0.  1.
       -1   -1    0    0    0  501  0.00000000000E+00  0.00000000000E+00 -0.85732024561E+03  0.85732024562E+03  0.50400001928E-02 0. -1.
    10030    2    1    2    0    0  0.00000000000E+00  0.00000000000E+00  0.11169825528E+04  0.28316230440E+04  0.26020067333E+04 0.  0.
        4    1    3    3  502    0  0.22404961911E+03 -0.43617514595E+02  0.19523415430E+04  0.19656398024E+04  0.12699999809E+01 0.  1.
       -4    1    3    3    0  502 -0.22404961911E+03  0.43617514595E+02 -0.83535899019E+03  0.86598324163E+03  0.12699999809E+01 0. -1.
</event>
<event>
 5   0  0.5940748E-06  0.2580976E+04  0.7818609E-02  0.8374692E-01
        2   -1    0    0  501    0  0.00000000000E+00  0.00000000000E+00  0.15442367575E+04  0.15442367575E+04  0.25500000920E-02 0. -1.
       -2   -1    0    0    0  501  0.00000000000E+00  0.00000000000E+00 -0.10784353277E+04  0.10784353277E+04  0.25500000920E-02 0.  1.
    10030    2    1    2    0    0  0.00000000000E+00  0.00000000000E+00  0.46580142981E+03  0.26226720852E+04  0.25809761515E+04 0.  0.
        1    1    3    3  502    0 -0.47371782124E+03  0.10970832297E+03 -0.98178296716E+03  0.10956013348E+04  0.50400001928E-02 0.  1.
       -1    1    3    3    0  502  0.47371782124E+03 -0.10970832297E+03  0.14475843970E+04  0.15270707504E+04  0.50400001928E-02 0. -1.
</event>
<event>
 5   0  0.2503292E-06  0.2636515E+04  0.7818609E-02  0.8355903E-01
        1   -1    0    0  501    0  0.00000000000E+00  0.00000000000E+00  0.13328378047E+04  0.13328378047E+04  0.50400001928E-02 0. -1.
       -1   -1    0    0    0  501  0.00000000000E+00  0.00000000000E+00 -0.13038368778E+04  0.13038368778E+04  0.50400001928E-02 0.  1.
    10030    2    1    2    0    0  0.00000000000E+00  0.00000000000E+00  0.29000926905E+02  0.26366746825E+04  0.26365151863E+04 0.  0.
        2    1    3    3  502    0  0.13834350178E+03  0.90787268852E+03  0.96030147820E+03  0.13287402576E+04  0.25500000920E-02 0. -1.
       -2    1    3    3    0  502 -0.13834350178E+03 -0.90787268852E+03 -0.93130055130E+03  0.13079344249E+04  0.25500000920E-02 0.  1.
</event>
<event>
 5   0  0.2471488E-06  0.2628781E+04  0.7818609E-02  0.8358490E-01
        1   -1    0    0  501    0  0.00000000000E+00  0.00000000000E+00  0.81501562990E+03  0.81501562992E+03  0.50400001928E-02 0. -1.
       -1   -1    0    0    0  501  0.00000000000E+00  0.00000000000E+00 -0.21197408374E+04  0.21197408374E+04  0.50400001928E-02 0.  1.
    10030    2    1    2    0    0  0.00000000000E+00  0.00000000000E+00 -0.13047252075E+04  0.29347564673E+04  0.26287806404E+04 0.  0.
        4    1    3    3  502    0  0.17350999212E+03  0.32504535860E+01 -0.21068940874E+04  0.21140294679E+04  0.12699999809E+01 0.  1.
       -4    1    3    3    0  502 -0.17350999212E+03 -0.32504535860E+01  0.80216887989E+03  0.82072699942E+03  0.12699999809E+01 0. -1.
</event>
<event>
 5   0  0.6173140E-06  0.2599961E+04  0.7818609E-02  0.8368214E-01
       -2   -1    0    0    0  501  0.00000000000E+00  0.00000000000E+00  0.98785918444E+03  0.98785918444E+03  0.25500000920E-02 0. -1.
        2   -1    0    0  501    0  0.00000000000E+00  0.00000000000E+00 -0.17107193719E+04  0.17107193719E+04  0.25500000920E-02 0.  1.
    10030    2    1    2    0    0  0.00000000000E+00  0.00000000000E+00 -0.72286018750E+03  0.26985785564E+04  0.25999614178E+04 0.  0.
        3    1    3    3  502    0 -0.11882561041E+04 -0.51437749920E+03 -0.24122247914E+03  0.13170896231E+04  0.10100000352E+00 0.  1.
       -3    1    3    3    0  502  0.11882561041E+04  0.51437749920E+03 -0.48163770836E+03  0.13814889333E+04  0.10100000352E+00 0. -1.
</event>
<event>
 5   0  0.2333979E-06  0.2555566E+04  0.7818609E-02  0.8383453E-01
        1   -1    0    0  501    0  0.00000000000E+00  0.00000000000E+00  0.12449580721E+04  0.12449580722E+04  0.50400001928E-02 0.  1.
       -1   -1    0    0    0  501  0.00000000000E+00  0.00000000000E+00 -0.13114729781E+04  0.13114729781E+04  0.50400001928E-02 0. -1.
    10030    2    1    2    0    0  0.00000000000E+00  0.00000000000E+00 -0.66514905985E+02  0.25564310503E+04  0.25555655895E+04 0.  0.
        3    1    3    3  502    0  0.36663276841E+03  0.88176183850E+03 -0.88254752605E+03  0.13003129134E+04  0.10100000352E+00 0. -1.
       -3    1    3    3    0  502 -0.36663276841E+03 -0.88176183850E+03  0.81603262006E+03  0.12561181369E+04  0.10100000352E+00 0.  1.
</event>
<event>
 5   0  0.6158063E-06  0.2575831E+04  0.7818609E-02  0.8376458E-01
        2   -1    0    0  501    0  0.00000000000E+00  0.00000000000E+00  0.13460470958E+04  0.13460470958E+04  0.25500000920E-02 0. -1.
       -2   -1    0    0    0  501  0.00000000000E+00  0.00000000000E+00 -0.12322941606E+04  0.12322941606E+04  0.25500000920E-02 0.  1.
    10030    2    1    2    0    0  0.00000000000E+00  0.00000000000E+00  0.11375293523E+03  0.25783412564E+04  0.25758307212E+04 0.  0.
        2    1    3    3  502    0 -0.12419942334E+03 -0.61910833822E+03  0.11804701094E+04  0.13387420627E+04  0.25500000920E-02 0. -1.
       -2    1    3    3    0  502  0.12419942334E+03  0.61910833822E+03 -0.10667171742E+04  0.12395991937E+04  0.25500000920E-02 0.  1.
</event>
<event>
 5   0  0.6173140E-06  0.2592167E+04  0.7818609E-02  0.8370867E-01
       -2   -1    0    0    0  501  0.00000000000E+00  0.00000000000E+00  0.10752064019E+04  0.10752064019E+04  0.25500000920E-02 0. -1.
        2   -1    0    0  501    0  0.00000000000E+00  0.00000000000E+00 -0.15623350404E+04  0.15623350405E+04  0.25500000920E-02 0.  1.
    10030    2    1    2    0    0  0.00000000000E+00  0.00000000000E+00 -0.48712863855E+03  0.26375414423E+04  0.25921671531E+04 0.  0.
        3    1    3    3  502    0 -0.12465413378E+04  0.34358987553E+03 -0.15305035329E+03  0.13020536587E+04  0.10100000352E+00 0.  1.
       -3    1    3    3    0  502  0.12465413378E+04 -0.34358987553E+03 -0.33407828526E+03  0.13354877836E+04  0.10100000352E+00 0. -1.
</event>
<event>
 5   0  0.6158063E-06  0.2586743E+04  0.7818609E-02  0.8372718E-01
        2   -1    0    0  501    0  0.00000000000E+00  0.00000000000E+00  0.16521050703E+04  0.16521050703E+04  0.25500000920E-02 0. -1.
       -2   -1    0    0    0  501  0.00000000000E+00  0.00000000000E+00 -0.10125326857E+04  0.10125326857E+04  0.25500000920E-02 0.  1.
    10030    2    1    2    0    0  0.00000000000E+00  0.00000000000E+00  0.63957238467E+03  0.26646377560E+04  0.25867434228E+04 0.  0.
        2    1    3    3  502    0  0.11983179965E+04  0.19853279723E+03  0.77749618861E+03  0.14421794672E+04  0.25500000920E-02 0. -1.
       -2    1    3    3    0  502 -0.11983179965E+04 -0.19853279723E+03 -0.13792380394E+03  0.12224582888E+04  0.25500000920E-02 0.  1.
</event>
<event>
 5   0  0.6158063E-06  0.2594342E+04  0.7818609E-02  0.8370126E-01
        2   -1    0    0  501    0  0.00000000000E+00  0.00000000000E+00  0.10059934768E+04  0.10059934768E+04  0.25500000920E-02 0.  1.
       -2   -1    0    0    0  501  0.00000000000E+00  0.00000000000E+00 -0.16726272260E+04  0.16726272260E+04  0.25500000920E-02 0. -1.
    10030    2    1    2    0    0  0.00000000000E+00  0.00000000000E+00 -0.66663374926E+03  0.26786207028E+04  0.25943415954E+04 0.  0.
        2    1    3    3  502    0 -0.12017507283E+03  0.30077016257E+03  0.96357207739E+03  0.10165509762E+04  0.25500000920E-02 0.  1.
       -2    1    3    3    0  502  0.12017507283E+03 -0.30077016257E+03 -0.16302058266E+04  0.16620697266E+04  0.25500000920E-02 0. -1.
</event>
<event>
 5   0  0.2456600E-06  0.2605676E+04  0.7818609E-02  0.8366276E-01
       -1   -1    0    0    0  501  0.00000000000E+00  0.00000000000E+00  0.69258912572E+03  0.69258912573E+03  0.50400001928E-02 0. -1.
        1   -1    0    0  501    0  0.00000000000E+00  0.00000000000E+00 -0.24507854227E+04  0.24507854227E+04  0.50400001928E-02 0.  1.
    10030    2    1    2    0    0  0.00000000000E+00  0.00000000000E+00 -0.17581962970E+04  0.31433745484E+04  0.26056763677E+04 0.  0.
        5    1    3    3  502    0  0.35920025142E+03  0.69704722959E+03  0.37601450099E+03  0.86966008064E+03  0.46999998093E+01 0. -1.
       -5    1    3    3    0  502 -0.35920025142E+03 -0.69704722959E+03 -0.21342107980E+04  0.22737144678E+04  0.46999998093E+01 0.  1.
</event>
<event>
 5   0  0.2471488E-06  0.2597691E+04  0.7818609E-02  0.8368986E-01
       -1   -1    0    0    0  501  0.00000000000E+00  0.00000000000E+00  0.99850756326E+03  0.99850756327E+03  0.50400001928E-02 0.  1.
        1   -1    0    0  501    0  0.00000000000E+00  0.00000000000E+00 -0.16895214672E+04  0.16895214672E+04  0.50400001928E-02 0. -1.
    10030    2    1    2    0    0  0.00000000000E+00  0.00000000000E+00 -0.69101390393E+03  0.26880290305E+04  0.25976912544E+04 0.  0.
        4    1    3    3  502    0 -0.67289601406E+03 -0.10052599941E+04 -0.83488240763E+03  0.14698186789E+04  0.12699999809E+01 0. -1.
       -4    1    3    3    0  502  0.67289601406E+03  0.10052599941E+04  0.14386850369E+03  0.12182103516E+04  0.12699999809E+01 0.  1.
</event>
<event>
 5   0  0.6158063E-06  0.2603916E+04  0.7818609E-02  0.8366872E-01
       -2   -1    0    0    0  501  0.00000000000E+00  0.00000000000E+00  0.92650869191E+03  0.92650869191E+03  0.25500000920E-02 0.  1.
        2   -1    0    0  501    0  0.00000000000E+00  0.00000000000E+00 -0.18295502844E+04  0.18295502844E+04  0.25500000920E-02 0. -1.
    10030    2    1    2    0    0  0.00000000000E+00  0.00000000000E+00 -0.90304159248E+03  0.27560589763E+04  0.26039156982E+04 0.  0.
        2    1    3    3  502    0 -0.68308656078E+03  0.86492661430E+03  0.28207711876E+03  0.11376611088E+04  0.25500000920E-02 0.  1.
       -2    1    3    3    0  502  0.68308656078E+03 -0.86492661430E+03 -0.11851187112E+04  0.16183978675E+04  0.25500000920E-02 0. -1.
</event>
<event>
 5   0  0.6158063E-06  0.2592321E+04  0.7818609E-02  0.8370814E-01
       -2   -1    0    0    0  501  0.00000000000E+00  0.00000000000E+00  0.79336408347E+03  0.79336408348E+03  0.25500000920E-02 0. -1.
        2   -1    0    0  501    0  0.00000000000E+00  0.00000000000E+00 -0.21176049002E+04  0.21176049002E+04  0.25500000920E-02 0.  1.
    10030    2    1    2    0    0  0.00000000000E+00  0.00000000000E+00 -0.13242408167E+04  0.29109689836E+04  0.25923207138E+04 0.  0.
        2    1    3    3  502    0 -0.78603108393E+03  0.16851644337E+03  0.47961325022E+03  0.93609375940E+03  0.25500000920E-02 0. -1.
       -2    1    3    3    0  502  0.78603108393E+03 -0.16851644337E+03 -0.18038540669E+04  0.19748752242E+04  0.25500000920E-02 0.  1.
</event>
<event>
 5   0  0.2072125E-06  0.2592432E+04  0.7818609E-02  0.8370777E-01
        3   -1    0    0  501    0  0.00000000000E+00  0.00000000000E+00  0.17871374564E+04  0.17871374592E+04  0.10100000352E+00 0.  1.
       -3   -1    0    0    0  501  0.00000000000E+00  0.00000000000E+00 -0.94014904194E+03  0.94014904737E+03  0.10100000352E+00 0. -1.
    10030    2    1    2    0    0  0.00000000000E+00  0.00000000000E+00  0.84698841443E+03  0.27272865066E+04  0.25924317378E+04 0.  0.
        1    1    3    3  502    0 -0.24340858798E+03  0.64974709116E+03  0.15753256552E+04  0.17213570063E+04  0.50400001928E-02 0.  1.
       -1    1    3    3    0  502  0.24340858798E+03 -0.64974709116E+03 -0.72833724079E+03  0.10059295003E+04  0.50400001928E-02 0. -1.
</event>
<event>
 5   0  0.6173140E-06  0.2600092E+04  0.7818609E-02  0.8368170E-01
        2   -1    0    0  501    0  0.00000000000E+00  0.00000000000E+00  0.10526920158E+04  0.10526920158E+04  0.25500000920E-02 0.  1.
       -2   -1    0    0    0  501  0.00000000000E+00  0.00000000000E+00 -0.16055208630E+04  0.16055208630E+04  0.25500000920E-02 0. -1.
    10030    2    1    2    0    0  0.00000000000E+00  0.00000000000E+00 -0.55282884719E+03  0.26582128788E+04  0.26000915320E+04 0.  0.
        3    1    3    3  502    0  0.41645420705E+03 -0.54042886521E+03  0.85494881771E+03  0.10938166922E+04  0.10100000352E+00 0.  1.
       -3    1    3    3    0  502 -0.41645420705E+03  0.54042886521E+03 -0.14077776649E+04  0.15643961867E+04  0.10100000352E+00 0. -1.
</event>
<event>
 5   0  0.2503292E-06  0.2613775E+04  0.7818609E-02  0.8363537E-01
        1   -1    0    0  501    0  0.00000000000E+00  0.00000000000E+00  0.20949247469E+04  0.20949247469E+04  0.50400001928E-02 0.  1.
       -1   -1    0    0    0  501  0.00000000000E+00  0.00000000000E+00 -0.81528254277E+03  0.81528254279E+03  0.50400001928E-02 0. -1.
    10030    2    1    2    0    0  0.00000000000E+00  0.00000000000E+00  0.12796422041E+04  0.29102072897E+04  0.26137754874E+04 0.  0.
        2    1    3    3  502    0  0.82672586491E+03 -0.99646143336E+03  0.44207056174E+03  0.13681510975E+04  0.25500000920E-02 0. -1.
       -2    1    3    3    0  502 -0.82672586491E+03  0.99646143336E+03  0.83757164238E+03  0.15420561922E+04  0.25500000920E-02 0.  1.
</event>
<event>
 5   0  0.2440590E-06  0.2597744E+04  0.7818609E-02  0.8368968E-01
       -1   -1    0    0    0  501  0.00000000000E+00  0.00000000000E+00  0.15211805923E+04  0.15211805923E+04  0.50400001928E-02 0.  1.
        1   -1    0    0  501    0  0.00000000000E+00  0.00000000000E+00 -0.11090524808E+04  0.11090524808E+04  0.50400001928E-02 0. -1.
    10030    2    1    2    0    0  0.00000000000E+00  0.00000000000E+00  0.41212811153E+03  0.26302330731E+04  0.25977444907E+04 0.  0.
        1    1    3    3  502    0 -0.95178689644E+03  0.31354171528E+03 -0.63062560820E+03  0.11840166220E+04  0.50400001928E-02 0. -1.
       -1    1    3    3    0  502  0.95178689644E+03 -0.31354171528E+03  0.10427537197E+04  0.14462164511E+04  0.50400001928E-02 0.  1.
</event>
<event>
 5   0  0.6158063E-06  0.2608109E+04  0.7818609E-02  0.8365452E-01
        2   -1    0    0  501    0  0.00000000000E+00  0.00000000000E+00  0.17105995455E+04  0.17105995455E+04  0.25500000920E-02 0. -1.
       -2   -1    0    0    0  501  0.00000000000E+00  0.00000000000E+00 -0.99412994799E+03  0.99412994800E+03  0.25500000920E-02 0.  1.
    10030    2    1    2    0    0  0.00000000000E+00  0.00000000000E+00  0.71646959747E+03  0.27047294935E+04  0.26081090753E+04 0.  0.
        2    1    3    3  502    0  0.63014614823E+03  0.38807191510E+03  0.14717318146E+04  0.16473246533E+04  0.25500000920E-02 0. -1.
       -2    1    3    3    0  502 -0.63014614823E+03 -0.38807191510E+03 -0.75526221709E+03  0.10574048402E+04  0.25500000920E-02 0.  1.
</event>
<event>
 5   0  0.6161834E-06  0.2604793E+04  0.7818609E-02  0.8366575E-01
        2   -1    0    0  501    0  0.00000000000E+00  0.00000000000E+00  0.95788969604E+03  0.95788969604E+03  0.25500000920E-02 0. -1.
       -2   -1    0    0    0  501  0.00000000000E+00  0.00000000000E+00 -0.17708056743E+04  0.17708056743E+04  0.25500000920E-02 0.  1.
    10030    2    1    2    0    0  0.00000000000E+00  0.00000000000E+00 -0.81291597822E+03  0.27286953703E+04  0.26047928970E+04 0.  0.
        5    1    3    3  502    0  0.31919913147E+03  0.11277180231E+04  0.18851807263E+03  0.11870961119E+04  0.46999998093E+01 0. -1.
       -5    1    3    3    0  502 -0.31919913147E+03 -0.11277180231E+04 -0.10014340509E+04  0.15415992584E+04  0.46999998093E+01 0.  1.
</event>
<event>
 5   0  0.2503292E-06  0.2604258E+04  0.7818609E-02  0.8366756E-01
       -1   -1    0    0    0  501  0.00000000000E+00  0.00000000000E+00  0.14524972815E+04  0.14524972815E+04  0.50400001928E-02 0. -1.
        1   -1    0    0  501    0  0.00000000000E+00  0.00000000000E+00 -0.11673274655E+04  0.11673274655E+04  0.50400001928E-02 0.  1.
    10030    2    1    2    0    0  0.00000000000E+00  0.00000000000E+00  0.28516981605E+03  0.26198247470E+04  0.26042580289E+04 0.  0.
        2    1    3    3  502    0 -0.36082423531E+02 -0.12331831527E+04  0.56160479922E+03  0.13555229913E+04  0.25500000920E-02 0. -1.
       -2    1    3    3    0  502  0.36082423531E+02  0.12331831527E+04 -0.27643498317E+03  0.12643017557E+04  0.25500000920E-02 0.  1.
</event>
<event>
 5   0  0.2456600E-06  0.2587096E+04  0.7818609E-02  0.8372598E-01
        1   -1    0    0  501    0  0.00000000000E+00  0.00000000000E+00  0.14869883503E+04  0.14869883504E+04  0.50400001928E-02 0.  1.
       -1   -1    0    0    0  501  0.00000000000E+00  0.00000000000E+00 -0.11252722548E+04  0.11252722548E+04  0.50400001928E-02 0. -1.
    10030    2    1    2    0    0  0.00000000000E+00  0.00000000000E+00  0.36171609551E+03  0.26122606052E+04  0.25870962363E+04 0.  0.
        5    1    3    3  502    0  0.24541086449E+03  0.42831701616E+03  0.13881311330E+04  0.14732997289E+04  0.46999998093E+01 0.  1.
       -5    1    3    3    0  502 -0.24541086449E+03 -0.42831701616E+03 -0.10264150374E+04  0.11389608763E+04  0.46999998093E+01 0. -1.
</event>
<event>
 5   0  0.5942229E-06  0.2607049E+04  0.7818609E-02  0.8365811E-01
       -2   -1    0    0    0  501  0.00000000000E+00  0.00000000000E+00  0.79840966398E+03  0.79840966399E+03  0.25500000920E-02 0. -1.
        2   -1    0    0  501    0  0.00000000000E+00  0.00000000000E+00 -0.21282013116E+04  0.21282013116E+04  0.25500000920E-02 0.  1.
    10030    2    1    2    0    0  0.00000000000E+00  0.00000000000E+00 -0.13297916476E+04  0.29266109756E+04  0.26070492854E+04 0.  0.
        4    1    3    3  502    0  0.47147306489E+03  0.67746131711E+03 -0.17974933461E+04  0.19779344350E+04  0.12699999809E+01 0.  1.
       -4    1    3    3    0  502 -0.47147306489E+03 -0.67746131711E+03  0.46770169843E+03  0.94867654061E+03  0.12699999809E+01 0. -1.
</event>
<event>
 5   0  0.2333979E-06  0.2602800E+04  0.7818609E-02  0.8367251E-01
       -1   -1    0    0    0  501  0.00000000000E+00  0.00000000000E+00  0.95266579931E+03  0.95266579932E+03  0.50400001928E-02 0.  1.
        1   -1    0    0  501    0  0.00000000000E+00  0.00000000000E+00 -0.17777923949E+04  0.17777923949E+04  0.50400001928E-02 0. -1.
    10030    2    1    2    0    0  0.00000000000E+00  0.00000000000E+00 -0.82512659563E+03  0.27304581943E+04  0.26028000407E+04 0.  0.
        3    1    3    3  502    0  0.79058040501E+03 -0.45524359412E+03 -0.13861880093E+04  0.16594521126E+04  0.10100000352E+00 0. -1.
       -3    1    3    3    0  502 -0.79058040501E+03  0.45524359412E+03  0.56106141368E+03  0.10710060816E+04  0.10100000352E+00 0.  1.
</event>
<event>
 5   0  0.2503292E-06  0.2609420E+04  0.7818609E-02  0.8365009E-01
        1   -1    0    0  501    0  0.00000000000E+00  0.00000000000E+00  0.22729666187E+04  0.22729666187E+04  0.50400001928E-02 0. -1.
       -1   -1    0    0    0  501  0.00000000000E+00  0.00000000000E+00 -0.74891887061E+03  0.74891887063E+03  0.50400001928E-02 0.  1.
    10030    2    1    2    0    0  0.00000000000E+00  0.00000000000E+00  0.15240477481E+04  0.30218854893E+04  0.26094195470E+04 0.  0.
        2    1    3    3  502    0 -0.65068929581E+02  0.11794908150E+04  0.14035089724E+04  0.18344672207E+04  0.25500000920E-02 0. -1.
       -2    1    3    3    0  502  0.65068929581E+02 -0.11794908150E+04  0.12053877565E+03  0.11874182686E+04  0.25500000920E-02 0.  1.
</event>
<event>
 5   0  0.6158063E-06  0.2561215E+04  0.7818609E-02  0.8381496E-01
       -2   -1    0    0    0  501  0.00000000000E+00  0.00000000000E+00  0.49826862362E+03  0.49826862362E+03  0.25500000920E-02 0. -1.
        2   -1    0    0  501    0  0.00000000000E+00  0.00000000000E+00 -0.32913089330E+04  0.32913089330E+04  0.25500000920E-02 0.  1.
    10030    2    1    2    0    0  0.00000000000E+00  0.00000000000E+00 -0.27930403094E+04  0.37895775566E+04  0.25612153146E+04 0.  0.
        2    1    3    3  502    0  0.13214649476E+03  0.51154583610E+03  0.32949305541E+03  0.62266163530E+03  0.25500000920E-02 0. -1.
       -2    1    3    3    0  502 -0.13214649476E+03 -0.51154583610E+03 -0.31225333648E+04  0.31669159213E+04  0.25500000920E-02 0.  1.
</event>
<event>
 5   0  0.6173140E-06  0.2601611E+04  0.7818609E-02  0.8367654E-01
        2   -1    0    0  501    0  0.00000000000E+00  0.00000000000E+00  0.14690177274E+04  0.14690177274E+04  0.25500000920E-02 0.  1.
       -2   -1    0    0    0  501  0.00000000000E+00  0.00000000000E+00 -0.11518543559E+04  0.11518543559E+04  0.25500000920E-02 0. -1.
    10030    2    1    2    0    0  0.00000000000E+00  0.00000000000E+00  0.31716337148E+03  0.26208720833E+04  0.26016106305E+04 0.  0.
        3    1    3    3  502    0 -0.16710025004E+03 -0.84289083001E+03  0.11423911916E+04  0.14294911996E+04  0.10100000352E+00 0.  1.
       -3    1    3    3    0  502  0.16710025004E+03  0.84289083001E+03 -0.82522782010E+03  0.11913808837E+04  0.10100000352E+00 0. -1.
</event>
<event>
 5   0  0.2471488E-06  0.2602602E+04  0.7818609E-02  0.8367318E-01
        1   -1    0    0  501    0  0.00000000000E+00  0.00000000000E+00  0.10644901235E+04  0.10644901235E+04  0.50400001928E-02 0. -1.
       -1   -1    0    0    0  501  0.00000000000E+00  0.00000000000E+00 -0.15907940482E+04  0.15907940482E+04  0.50400001928E-02 0.  1.
    10030    2    1    2    0    0  0.00000000000E+00  0.00000000000E+00 -0.52630392473E+03  0.26552841717E+04  0.26026022000E+04 0.  0.
        4    1    3    3  502    0  0.57033502545E+02  0.33716467388E+03  0.10178309265E+04  0.10737384438E+04  0.12699999809E+01 0. -1.
       -4    1    3    3    0  502 -0.57033502545E+02 -0.33716467388E+03 -0.15441348513E+04  0.15815457279E+04  0.12699999809E+01 0.  1.
</event>
<event>
 5   0  0.6173140E-06  0.2598947E+04  0.7818609E-02  0.8368559E-01
        2   -1    0    0  501    0  0.00000000000E+00  0.00000000000E+00  0.66065659397E+03  0.66065659397E+03  0.25500000920E-02 0. -1.
       -2   -1    0    0    0  501  0.00000000000E+00  0.00000000000E+00 -0.25559905704E+04  0.25559905704E+04  0.25500000920E-02 0.  1.
    10030    2    1    2    0    0  0.00000000000E+00  0.00000000000E+00 -0.18953339764E+04  0.32166471644E+04  0.25989474981E+04 0.  0.
        3    1    3    3  502    0  0.11453472720E+04  0.23752072198E+03 -0.24710082846E+03  0.11955313866E+04  0.10100000352E+00 0. -1.
       -3    1    3    3    0  502 -0.11453472720E+04 -0.23752072198E+03 -0.16482331480E+04  0.20211157777E+04  0.10100000352E+00 0.  1.
</event>
<event>
 5   0  0.2333979E-06  0.2611578E+04  0.7818609E-02  0.8364279E-01
        1   -1    0    0  501    0  0.00000000000E+00  0.00000000000E+00  0.16285194585E+04  0.16285194585E+04  0.50400001928E-02 0.  1.
       -1   -1    0    0    0  501  0.00000000000E+00  0.00000000000E+00 -0.10470156275E+04  0.10470156275E+04  0.50400001928E-02 0. -1.
    10030    2    1    2    0    0  0.00000000000E+00  0.00000000000E+00  0.58150383097E+03  0.26755350860E+04  0.26115783142E+04 0.  0.
        3    1    3    3  502    0  0.10099620828E+04 -0.77987045904E+03  0.67187814734E+01  0.12760354594E+04  0.10100000352E+00 0. -1.
       -3    1    3    3    0  502 -0.10099620828E+04  0.77987045904E+03  0.57478504950E+03  0.13994996266E+04  0.10100000352E+00 0.  1.
</event>
<event>
 5   0  0.6158063E-06  0.2552881E+04  0.7818609E-02  0.8384385E-01
       -2   -1    0    0    0  501  0.00000000000E+00  0.00000000000E+00  0.94318918737E+03  0.94318918738E+03  0.25500000920E-02 0.  1.
        2   -1    0    0  501    0  0.00000000000E+00  0.00000000000E+00 -0.17274379056E+04  0.17274379057E+04  0.25500000920E-02 0. -1.
    10030    2    1    2    0    0  0.00000000000E+00  0.00000000000E+00 -0.78424871828E+03  0.26706270930E+04  0.25528813168E+04 0.  0.
        2    1    3    3  502    0  0.24461287631E+03 -0.71878302365E+03  0.68126903301E+03  0.10201039112E+04  0.25500000920E-02 0.  1.
       -2    1    3    3    0  502 -0.24461287631E+03  0.71878302365E+03 -0.14655177513E+04  0.16505231818E+04  0.25500000920E-02 0. -1.
</event>
<event>
 5   0  0.6173140E-06  0.2602133E+04  0.7818609E-02  0.8367477E-01
        2   -1    0    0  501    0  0.00000000000E+00  0.00000000000E+00  0.18247525381E+04  0.18247525381E+04  0.25500000920E-02 0. -1.
       -2   -1    0    0    0  501  0.00000000000E+00  0.00000000000E+00 -0.92767314096E+03  0.92767314096E+03  0.25500000920E-02 0.  1.
    10030    2    1    2    0    0  0.00000000000E+00  0.00000000000E+00  0.89707939713E+03  0.27524256790E+04  0.26021329086E+04 0.  0.
        3    1    3    3  502    0 -0.11833955543E+03 -0.65485631484E+03 -0.73403741394E+03  0.99078351759E+03  0.10100000352E+00 0.  1.
       -3    1    3    3    0  502  0.11833955543E+03  0.65485631484E+03  0.16311168111E+04  0.17616421615E+04  0.10100000352E+00 0. -1.
</event>
<event>
 5   0  0.5940748E-06  0.2599446E+04  0.7818609E-02  0.8368389E-01
       -2   -1    0    0    0  501  0.00000000000E+00  0.00000000000E+00  0.70990883727E+03  0.70990883728E+03  0.25500000920E-02 0. -1.
        2   -1    0    0  501    0  0.00000000000E+00  0.00000000000E+00 -0.23795730615E+04  0.23795730615E+04  0.25500000920E-02 0.  1.
    10030    2    1    2    0    0  0.00000000000E+00  0.00000000000E+00 -0.16696642242E+04  0.30894818987E+04  0.25994460527E+04 0.  0.
        1    1    3    3  502    0 -0.49727036694E+02 -0.12491379287E+04 -0.41217888823E+03  0.13163243442E+04  0.50400001928E-02 0. -1.
       -1    1    3    3    0  502  0.49727036694E+02  0.12491379287E+04 -0.12574853360E+04  0.17731575546E+04  0.50400001928E-02 0.  1.
</event>
<event>
 5   0  0.2440590E-06  0.2608355E+04  0.7818609E-02  0.8365369E-01
        1   -1    0    0  501    0  0.00000000000E+00  0.00000000000E+00  0.11785578718E+04  0.11785578718E+04  0.50400001928E-02 0.  1.
       -1   -1    0    0    0  501  0.00000000000E+00  0.00000000000E+00 -0.14431869927E+04  0.14431869927E+04  0.50400001928E-02 0. -1.
    10030    2    1    2    0    0  0.00000000000E+00  0.00000000000E+00 -0.26462912086E+03  0.26217448645E+04  0.26083553368E+04 0.  0.
        1    1    3    3  502    0 -0.78011565271E+03 -0.79681154432E+03 -0.81209264058E+03  0.13794866892E+04  0.50400001928E-02 0. -1.
       -1    1    3    3    0  502  0.78011565271E+03  0.79681154432E+03  0.54746351972E+03  0.12422581753E+04  0.50400001928E-02 0.  1.
</event>
<event>
 5   0  0.6173140E-06  0.2603420E+04  0.7818609E-02  0.8367040E-01
       -2   -1    0    0    0  501  0.00000000000E+00  0.00000000000E+00  0.74357325949E+03  0.74357325950E+03  0.25500000920E-02 0. -1.
        2   -1    0    0  501    0  0.00000000000E+00  0.00000000000E+00 -0.22787929925E+04  0.22787929925E+04  0.25500000920E-02 0.  1.
    10030    2    1    2    0    0  0.00000000000E+00  0.00000000000E+00 -0.15352197330E+04  0.30223662520E+04  0.26034204679E+04 0.  0.
        3    1    3    3  502    0 -0.71934566839E+03 -0.20137420955E+03 -0.20051975716E+04  0.21398194023E+04  0.10100000352E+00 0.  1.
       -3    1    3    3    0  502  0.71934566839E+03  0.20137420955E+03  0.46997783864E+03  0.88254684970E+03  0.10100000352E+00 0. -1.
</event>
<event>
 5   0  0.2471488E-06  0.2566265E+04  0.7818609E-02  0.8379751E-01
        1   -1    0    0  501    0  0.00000000000E+00  0.00000000000E+00  0.14810191855E+04  0.14810191855E+04  0.50400001928E-02 0.  1.
       -1   -1    0    0    0  501  0.00000000000E+00  0.00000000000E+00 -0.11116862964E+04  0.11116862964E+04  0.50400001928E-02 0. -1.
    10030    2    1    2    0    0  0.00000000000E+00  0.00000000000E+00  0.36933288912E+03  0.25927054819E+04  0.25662647823E+04 0.  0.
        4    1    3    3  502    0 -0.11791567114E+03 -0.42233490875E+03 -0.10336420084E+04  0.11228037652E+04  0.12699999809E+01 0. -1.
       -4    1    3    3    0  502  0.11791567114E+03  0.42233490875E+03  0.14029748975E+04  0.14699017167E+04  0.12699999809E+01 0.  1.
</event>
<event>
 5   0  0.6161834E-06  0.2596724E+04  0.7818609E-02  0.8369315E-01
        2   -1    0    0  501    0  0.00000000000E+00  0.00000000000E+00  0.12764098966E+04  0.12764098966E+04  0.25500000920E-02 0. -1.
       -2   -1    0    0    0  501  0.00000000000E+00  0.00000000000E+00 -0.13206914031E+04  0.13206914031E+04  0.25500000920E-02 0.  1.
    10030    2    1    2    0    0  0.00000000000E+00  0.00000000000E+00 -0.44281506451E+02  0.25971012997E+04  0.25967237645E+04 0.  0.
        5    1    3    3  502    0 -0.69277392715E+02  0.12702090013E+04 -0.28196925343E+03  0.13029808187E+04  0.46999998093E+01 0. -1.
       -5    1    3    3    0  502  0.69277392715E+02 -0.12702090013E+04  0.23768774698E+03  0.12941204809E+04  0.46999998093E+01 0.  1.
</event>
<event>
 5   0  0.2471488E-06  0.2617998E+04  0.7818609E-02  0.8362113E-01
       -1   -1    0    0    0  501  0.00000000000E+00  0.00000000000E+00  0.11128882479E+04  0.11128882479E+04  0.50400001928E-02 0. -1.
        1   -1    0    0  501    0  0.00000000000E+00  0.00000000000E+00 -0.15396680399E+04  0.15396680399E+04  0.50400001928E-02 0.  1.
    10030    2    1    2    0    0  0.00000000000E+00  0.00000000000E+00 -0.42677979197E+03  0.26525562878E+04  0.26179980651E+04 0.  0.
        4    1    3    3  502    0  0.98457765177E+03 -0.57125669242E+03 -0.86825711783E+03  0.14316422027E+04  0.12699999809E+01 0.  1.
       -4    1    3    3    0  502 -0.98457765177E+03  0.57125669242E+03  0.44147732586E+03  0.12209140851E+04  0.12699999809E+01 0. -1.
</event>
<event>
 5   0  0.2333979E-06  0.2556600E+04  0.7818609E-02  0.8383094E-01
       -1   -1    0    0    0  501  0.00000000000E+00  0.00000000000E+00  0.14290584301E+04  0.14290584301E+04  0.50400001928E-02 0.  1.
        1   -1    0    0  501    0  0.00000000000E+00  0.00000000000E+00 -0.11434462022E+04  0.11434462022E+04  0.50400001928E-02 0. -1.
    10030    2    1    2    0    0  0.00000000000E+00  0.00000000000E+00  0.28561222793E+03  0.25725046323E+04  0.25566004260E+04 0.  0.
        3    1    3    3  502    0 -0.22565803006E+03 -0.11904849285E+04 -0.26700567521E+03  0.12407529780E+04  0.10100000352E+00 0. -1.
       -3    1    3    3    0  502  0.22565803006E+03  0.11904849285E+04  0.55261790314E+03  0.13317516543E+04  0.10100000352E+00 0.  1.
</event>
<event>
 5   0  0.5940748E-06  0.2624712E+04  0.7818609E-02  0.8359855E-01
       -2   -1    0    0    0  501  0.00000000000E+00  0.00000000000E+00  0.96177203580E+03  0.96177203581E+03  0.25500000920E-02 0.  1.
        2   -1    0    0  501    0  0.00000000000E+00  0.00000000000E+00 -0.17907347473E+04  0.17907347473E+04  0.25500000920E-02 0. -1.
    10030    2    1    2    0    0  0.00000000000E+00  0.00000000000E+00 -0.82896271151E+03  0.27525067831E+04  0.26247122536E+04 0.  0.
        1    1    3    3  502    0  0.18254774360E+03  0.92241046643E+03  0.54557827704E+03  0.10871156349E+04  0.50400001928E-02 0.  1.
       -1    1    3    3    0  502 -0.18254774360E+03 -0.92241046643E+03 -0.13745409885E+04  0.16653911482E+04  0.50400001928E-02 0. -1.
</event>
<event>
 5   0  0.5942229E-06  0.2643177E+04  0.7818609E-02  0.8353681E-01
        2   -1    0    0  501    0  0.00000000000E+00  0.00000000000E+00  0.20367491096E+04  0.20367491096E+04  0.25500000920E-02 0. -1.
       -2   -1    0    0    0  501  0.00000000000E+00  0.00000000000E+00 -0.85754124220E+03  0.85754124220E+03  0.25500000920E-02 0.  1.
    10030    2    1    2    0    0  0.00000000000E+00  0.00000000000E+00  0.11792078674E+04  0.28942903518E+04  0.26431771499E+04 0.  0.
        4    1    3    3  502    0  0.35045143178E+02 -0.13443741986E+03 -0.84952217789E+03  0.86080841396E+03  0.12699999809E+01 0.  1.
       -4    1    3    3    0  502 -0.35045143178E+02  0.13443741986E+03  0.20287300453E+04  0.20334819378E+04  0.12699999809E+01 0. -1.
</event>
<event>
 5   0  0.6173140E-06  0.2615722E+04  0.7818609E-02  0.8362881E-01
       -2   -1    0    0    0  501  0.00000000000E+00  0.00000000000E+00  0.20356060647E+04  0.20356060647E+04  0.25500000920E-02 0. -1.
        2   -1    0    0  501    0  0.00000000000E+00  0.00000000000E+00 -0.84029017796E+03  0.84029017797E+03  0.25500000920E-02 0.  1.
    10030    2    1    2    0    0  0.00000000000E+00  0.00000000000E+00  0.11953158867E+04  0.28758962427E+04  0.26157215313E+04 0.  0.
        3    1    3    3  502    0 -0.11731404764E+04 -0.57725552128E+03  0.56259105198E+03  0.14233731823E+04  0.10100000352E+00 0.  1.
       -3    1    3    3    0  502  0.11731404764E+04  0.57725552128E+03  0.63272483474E+03  0.14525230603E+04  0.10100000352E+00 0. -1.
</event>
<event>
 5   0  0.2471488E-06  0.2603003E+04  0.7818609E-02  0.8367182E-01
       -1   -1    0    0    0  501  0.00000000000E+00  0.00000000000E+00  0.14986372343E+04  0.14986372343E+04  0.50400001928E-02 0. -1.
        1   -1    0    0  501    0  0.00000000000E+00  0.00000000000E+00 -0.11302972470E+04  0.11302972470E+04  0.50400001928E-02 0.  1.
    10030    2    1    2    0    0  0.00000000000E+00  0.00000000000E+00  0.36833998725E+03  0.26289344813E+04  0.26030025280E+04 0.  0.
        4    1    3    3  502    0 -0.11846609658E+04 -0.39785986144E+03  0.55137131402E+03  0.13659158144E+04  0.12699999809E+01 0. -1.
       -4    1    3    3    0  502  0.11846609658E+04  0.39785986144E+03 -0.18303132677E+03  0.12630186668E+04  0.12699999809E+01 0.  1.
</event>
<event>
 5   0  0.2503292E-06  0.2597633E+04  0.7818609E-02  0.8369006E-01
        1   -1    0    0  501    0  0.00000000000E+00  0.00000000000E+00  0.13766118695E+04  0.13766118695E+04  0.50400001928E-02 0. -1.
       -1   -1    0    0    0  501  0.00000000000E+00  0.00000000000E+00 -0.12254178860E+04  0.12254178860E+04  0.50400001928E-02 0.  1.
    10030    2    1    2    0    0  0.00000000000E+00  0.00000000000E+00  0.15119398348E+03  0.26020297556E+04  0.25976333899E+04 0.  0.
        2    1    3    3  502    0  0.16092096847E+03  0.12838763526E+04 -0.37246942183E+02  0.12944579490E+04  0.25500000920E-02 0.  1.
       -2    1    3    3    0  502 -0.16092096847E+03 -0.12838763526E+04  0.18844092566E+03  0.13075718066E+04  0.25500000920E-02 0. -1.
</event>
<event>
 5   0  0.6161834E-06  0.2619794E+04  0.7818609E-02  0.8361509E-01
       -2   -1    0    0    0  501  0.00000000000E+00  0.00000000000E+00  0.14789613279E+04  0.14789613279E+04  0.25500000920E-02 0.  1.
        2   -1    0    0  501    0  0.00000000000E+00  0.00000000000E+00 -0.11601586787E+04  0.11601586787E+04  0.25500000920E-02 0. -1.
    10030    2    1    2    0    0  0.00000000000E+00  0.00000000000E+00  0.31880264926E+03  0.26391200066E+04  0.26197937476E+04 0.  0.
        5    1    3    3  502    0  0.39128853929E+03  0.10443831517E+04  0.85146628528E+03  0.14031606514E+04  0.46999998093E+01 0.  1.
       -5    1    3    3    0  502 -0.39128853929E+03 -0.10443831517E+04 -0.53266363602E+03  0.12359593552E+04  0.46999998093E+01 0. -1.
</event>
<event>
 5   0  0.2440590E-06  0.2580029E+04  0.7818609E-02  0.8375017E-01
        1   -1    0    0  501    0  0.00000000000E+00  0.00000000000E+00  0.15815684511E+04  0.15815684511E+04  0.50400001928E-02 0. -1.
       -1   -1    0    0    0  501  0.00000000000E+00  0.00000000000E+00 -0.10522067576E+04  0.10522067577E+04  0.50400001928E-02 0.  1.
    10030    2    1    2    0    0  0.00000000000E+00  0.00000000000E+00  0.52936169347E+03  0.26337752088E+04  0.25800286913E+04 0.  0.
        1    1    3    3  502    0 -0.52500340214E+03 -0.11629161053E+04  0.70629962386E+02  0.12778853750E+04  0.50400001928E-02 0. -1.
       -1    1    3    3    0  502  0.52500340214E+03  0.11629161053E+04  0.45873173108E+03  0.13558898337E+04  0.50400001928E-02 0.  1.
</event>
<event>
 5   0  0.6173140E-06  0.2599901E+04  0.7818609E-02  0.8368235E-01
        2   -1    0    0  501    0  0.00000000000E+00  0.00000000000E+00  0.18176930341E+04  0.18176930341E+04  0.25500000920E-02 0. -1.
       -2   -1    0    0    0  501  0.00000000000E+00  0.00000000000E+00 -0.92967921113E+03  0.92967921113E+03  0.25500000920E-02 0.  1.
    10030    2    1    2    0    0  0.00000000000E+00  0.00000000000E+00  0.88801382299E+03  0.27473722453E+04  0.25999010951E+04 0.  0.
        3    1    3    3  502    0  0.12107198759E+04  0.15625091058E+03 -0.28117730926E+02  0.12210845924E+04  0.10100000352E+00 0.  1.
       -3    1    3    3    0  502 -0.12107198759E+04 -0.15625091058E+03  0.91613155391E+03  0.15262876528E+04  0.10100000352E+00 0. -1.
</event>
<event>
 5   0  0.2503292E-06  0.2599752E+04  0.7818609E-02  0.8368286E-01
        1   -1    0    0  501    0  0.00000000000E+00  0.00000000000E+00  0.14951416159E+04  0.14951416159E+04  0.50400001928E-02 0. -1.
       -1   -1    0    0    0  501  0.00000000000E+00  0.00000000000E+00 -0.11301118094E+04  0.11301118094E+04  0.50400001928E-02 0.  1.
    10030    2    1    2    0    0  0.00000000000E+00  0.00000000000E+00  0.36502980650E+03  0.26252534253E+04  0.25997516780E+04 0.  0.
        2    1    3    3  502    0 -0.81104510427E+03 -0.38284065363E+03  0.11326569562E+04  0.14447397370E+04  0.25500000920E-02 0. -1.
       -2    1    3    3    0  502  0.81104510427E+03  0.38284065363E+03 -0.76762714969E+03  0.11805136883E+04  0.25500000920E-02 0.  1.
</event>
<event>
 5   0  0.2471488E-06  0.2594589E+04  0.7818609E-02  0.8370041E-01
        1   -1    0    0  501    0  0.00000000000E+00  0.00000000000E+00  0.21573201880E+04  0.21573201880E+04  0.50400001928E-02 0. -1.
       -1   -1    0    0    0  501  0.00000000000E+00  0.00000000000E+00 -0.78012226916E+03  0.78012226918E+03  0.50400001928E-02 0.  1.
    10030    2    1    2    0    0  0.00000000000E+00  0.00000000000E+00  0.13771979188E+04  0.29374424572E+04  0.25945893859E+04 0.  0.
        4    1    3    3  502    0  0.12660675759E+04 -0.24110935949E+03  0.85618297703E+03  0.15472917414E+04  0.12699999809E+01 0. -1.
       -4    1    3    3    0  502 -0.12660675759E+04  0.24110935949E+03  0.52101494178E+03  0.13901507157E+04  0.12699999809E+01 0.  1.
</event>
<event>
 5   0  0.2456600E-06  0.2600744E+04  0.7818609E-02  0.8367949E-01
        1   -1    0    0  501    0  0.00000000000E+00  0.00000000000E+00  0.21432324840E+04  0.21432324840E+04  0.50400001928E-02 0. -1.
       -1   -1    0    0    0  501  0.00000000000E+00  0.00000000000E+00 -0.78897960949E+03  0.78897960950E+03  0.50400001928E-02 0.  1.
    10030    2    1    2    0    0  0.00000000000E+00  0.00000000000E+00  0.13542528745E+04  0.29322120935E+04  0.26007435308E+04 0.  0.
        5    1    3    3  502    0 -0.30422550467E+03 -0.96299675048E+02 -0.74414133096E+03  0.80968833235E+03  0.46999998093E+01 0.  1.
       -5    1    3    3    0  502  0.30422550467E+03  0.96299675048E+02  0.20983942055E+04  0.21225237611E+04  0.46999998093E+01 0. -1.
</event>
<event>
 5   0  0.5942229E-06  0.2603193E+04  0.7818609E-02  0.8367117E-01
        2   -1    0    0  501    0  0.00000000000E+00  0.00000000000E+00  0.22255901282E+04  0.22255901282E+04  0.25500000920E-02 0.  1.
       -2   -1    0    0    0  501  0.00000000000E+00  0.00000000000E+00 -0.76121541053E+03  0.76121541053E+03  0.25500000920E-02 0. -1.
    10030    2    1    2    0    0  0.00000000000E+00  0.00000000000E+00  0.14643747176E+04  0.29868055387E+04  0.26031930417E+04 0.  0.
        4    1    3    3  502    0  0.73744636543E+02 -0.20909903421E+03 -0.73938751677E+03  0.77191721731E+03  0.12699999809E+01 0. -1.
       -4    1    3    3    0  502 -0.73744636543E+02  0.20909903421E+03  0.22037622344E+04  0.22148883214E+04  0.12699999809E+01 0.  1.
</event>
<event>
 5   0  0.2456600E-06  0.2595427E+04  0.7818609E-02  0.8369756E-01
       -1   -1    0    0    0  501  0.00000000000E+00  0.00000000000E+00  0.70607108394E+03  0.70607108396E+03  0.50400001928E-02 0. -1.
        1   -1    0    0  501    0  0.00000000000E+00  0.00000000000E+00 -0.23851146330E+04  0.23851146330E+04  0.50400001928E-02 0.  1.
    10030    2    1    2    0    0  0.00000000000E+00  0.00000000000E+00 -0.16790435490E+04  0.30911857169E+04  0.25954271126E+04 0.  0.
        5    1    3    3  502    0  0.47910117608E+03 -0.91944283135E+03 -0.17690649994E+04  0.20504941158E+04  0.46999998093E+01 0.  1.
       -5    1    3    3    0  502 -0.47910117608E+03  0.91944283135E+03  0.90021450357E+02  0.10406916011E+04  0.46999998093E+01 0. -1.
</event>
<event>
 5   0  0.6158063E-06  0.2586862E+04  0.7818609E-02  0.8372678E-01
        2   -1    0    0  501    0  0.00000000000E+00  0.00000000000E+00  0.17003513006E+04  0.17003513006E+04  0.25500000920E-02 0.  1.
       -2   -1    0    0    0  501  0.00000000000E+00  0.00000000000E+00 -0.98389267055E+03  0.98389267055E+03  0.25500000920E-02 0. -1.
    10030    2    1    2    0    0  0.00000000000E+00  0.00000000000E+00  0.71645863001E+03  0.26842439711E+04  0.25868615595E+04 0.  0.
        2    1    3    3  502    0  0.47530267267E+02  0.10244045380E+04  0.11761275398E+04  0.15604293555E+04  0.25500000920E-02 0. -1.
       -2    1    3    3    0  502 -0.47530267267E+02 -0.10244045380E+04 -0.45966890974E+03  0.11238146156E+04  0.25500000920E-02 0.  1.
</event>
<event>
 5   0  0.2471488E-06  0.2594116E+04  0.7818609E-02  0.8370203E-01
        1   -1    0    0  501    0  0.00000000000E+00  0.00000000000E+00  0.21257960866E+04  0.21257960866E+04  0.50400001928E-02 0. -1.
       -1   -1    0    0    0  501  0.00000000000E+00  0.00000000000E+00 -0.79140204163E+03  0.79140204164E+03  0.50400001928E-02 0.  1.
    10030    2    1    2    0    0  0.00000000000E+00  0.00000000000E+00  0.13343940449E+04  0.29171981282E+04  0.25941159288E+04 0.  0.
        4    1    3    3  502    0 -0.76839750656E+03  0.18100543820E+03  0.18245273723E+04  0.19879887932E+04  0.12699999809E+01 0. -1.
       -4    1    3    3    0  502  0.76839750656E+03 -0.18100543820E+03 -0.49013332737E+03  0.92920933500E+03  0.12699999809E+01 0.  1.
</event>
<event>
 5   0  0.2440590E-06  0.2574251E+04  0.7818609E-02  0.8377001E-01
       -1   -1    0    0    0  501  0.00000000000E+00  0.00000000000E+00  0.10100766407E+04  0.10100766408E+04  0.50400001928E-02 0. -1.
        1   -1    0    0  501    0  0.00000000000E+00  0.00000000000E+00 -0.16401641264E+04  0.16401641264E+04  0.50400001928E-02 0.  1.
    10030    2    1    2    0    0  0.00000000000E+00  0.00000000000E+00 -0.63008748567E+03  0.26502407672E+04  0.25742505481E+04 0.  0.
        1    1    3    3  502    0 -0.27835514764E+03  0.12184952792E+04 -0.63149183098E+03  0.14003550501E+04  0.50400001928E-02 0.  1.
       -1    1    3    3    0  502  0.27835514764E+03 -0.12184952792E+04  0.14043453160E+01  0.12498857171E+04  0.50400001928E-02 0. -1.
</event>
<event>
 5   0  0.6158063E-06  0.2603921E+04  0.7818609E-02  0.8366871E-01
       -2   -1    0    0    0  501  0.00000000000E+00  0.00000000000E+00  0.11121575140E+04  0.11121575140E+04  0.25500000920E-02 0.  1.
        2   -1    0    0  501    0  0.00000000000E+00  0.00000000000E+00 -0.15241557867E+04  0.15241557867E+04  0.25500000920E-02 0. -1.
    10030    2    1    2    0    0  0.00000000000E+00  0.00000000000E+00 -0.41199827277E+03  0.26363133007E+04  0.26039211283E+04 0.  0.
        2    1    3    3  502    0  0.12600710156E+04  0.76450006505E+02  0.11651933615E+03  0.12677540470E+04  0.25500000920E-02 0.  1.
       -2    1    3    3    0  502 -0.12600710156E+04 -0.76450006505E+02 -0.52851760892E+03  0.13685592537E+04  0.25500000920E-02 0. -1.
</event>
<event>
 5   0  0.5942229E-06  0.2479998E+04  0.7818609E-02  0.8410146E-01
       -2   -1    0    0    0  501  0.00000000000E+00  0.00000000000E+00  0.64655327914E+03  0.64655327914E+03  0.25500000920E-02 0.  1.
        2   -1    0    0  501    0  0.00000000000E+00  0.00000000000E+00 -0.23781444591E+04  0.23781444591E+04  0.25500000920E-02 0. -1.
    10030    2    1    2    0    0  0.00000000000E+00  0.00000000000E+00 -0.17315911799E+04  0.30246977382E+04  0.24799976599E+04 0.  0.
        4    1    3    3  502    0  0.88863339535E+03 -0.30978656578E+03  0.11898770367E+03  0.94857615097E+03  0.12699999809E+01 0.  1.
       -4    1    3    3    0  502 -0.88863339535E+03  0.30978656578E+03 -0.18505788836E+04  0.20761215872E+04  0.12699999809E+01 0. -1.
</event>
<event>
 5   0  0.2503292E-06  0.2604842E+04  0.7818609E-02  0.8366558E-01
       -1   -1    0    0    0  501  0.00000000000E+00  0.00000000000E+00  0.16977149388E+04  0.16977149388E+04  0.50400001928E-02 0.  1.
        1   -1    0    0  501    0  0.00000000000E+00  0.00000000000E+00 -0.99916670096E+03  0.99916670098E+03  0.50400001928E-02 0. -1.
    10030    2    1    2    0    0  0.00000000000E+00  0.00000000000E+00  0.69854823779E+03  0.26968816397E+04  0.26048418260E+04 0.  0.
        2    1    3    3  502    0 -0.12205173822E+04  0.44220315026E+03  0.24022473831E+03  0.13201947702E+04  0.25500000920E-02 0.  1.
       -2    1    3    3    0  502  0.12205173822E+04 -0.44220315026E+03  0.45832349949E+03  0.13766868695E+04  0.25500000920E-02 0. -1.
</event>
<event>
 5   0  0.2440590E-06  0.2616146E+04  0.7818609E-02  0.8362737E-01
        1   -1    0    0  501    0  0.00000000000E+00  0.00000000000E+00  0.10419711325E+04  0.10419711325E+04  0.50400001928E-02 0. -1.
       -1   -1    0    0    0  501  0.00000000000E+00  0.00000000000E+00 -0.16421327225E+04  0.16421327225E+04  0.50400001928E-02 0.  1.
    10030    2    1    2    0    0  0.00000000000E+00  0.00000000000E+00 -0.60016159003E+03  0.26841038550E+04  0.26161459383E+04 0.  0.
        1    1    3    3  502    0 -0.78256650393E+03  0.64141707015E+03  0.55044598698E+03  0.11518754167E+04  0.50400001928E-02 0. -1.
       -1    1    3    3    0  502  0.78256650393E+03 -0.64141707015E+03 -0.11506075770E+04  0.15322284383E+04  0.50400001928E-02 0.  1.
</event>
<event>
 5   0  0.2471488E-06  0.2597010E+04  0.7818609E-02  0.8369217E-01
       -1   -1    0    0    0  501  0.00000000000E+00  0.00000000000E+00  0.14099100622E+04  0.14099100622E+04  0.50400001928E-02 0. -1.
        1   -1    0    0  501    0  0.00000000000E+00  0.00000000000E+00 -0.11959028102E+04  0.11959028102E+04  0.50400001928E-02 0.  1.
    10030    2    1    2    0    0  0.00000000000E+00  0.00000000000E+00  0.21400725200E+03  0.26058128725E+04  0.25970101314E+04 0.  0.
        4    1    3    3  502    0 -0.30480143033E+03 -0.86640510130E+03  0.10280212891E+04  0.13785467331E+04  0.12699999809E+01 0. -1.
       -4    1    3    3    0  502  0.30480143033E+03  0.86640510130E+03 -0.81401403711E+03  0.12272661394E+04  0.12699999809E+01 0.  1.
</event>
<event>
 5   0  0.5942229E-06  0.2594038E+04  0.7818609E-02  0.8370229E-01
        2   -1    0    0  501    0  0.00000000000E+00  0.00000000000E+00  0.22389200954E+04  0.22389200954E+04  0.25500000920E-02 0.  1.
       -2   -1    0    0    0  501  0.00000000000E+00  0.00000000000E+00 -0.75137014821E+03  0.75137014822E+03  0.25500000920E-02 0. -1.
    10030    2    1    2    0    0  0.00000000000E+00  0.00000000000E+00  0.14875499472E+04  0.29902902436E+04  0.25940375663E+04 0.  0.
        4    1    3    3  502    0  0.11656520490E+04  0.53484838390E+03  0.52069787911E+03  0.13841731783E+04  0.12699999809E+01 0.  1.
       -4    1    3    3    0  502 -0.11656520490E+04 -0.53484838390E+03  0.96685206805E+03  0.16061170653E+04  0.12699999809E+01 0. -1.
</event>
<event>
 5   0  0.2333979E-06  0.2598951E+04  0.7818609E-02  0.8368558E-01
       -1   -1    0    0    0  501  0.00000000000E+00  0.00000000000E+00  0.83108685368E+03  0.83108685370E+03  0.50400001928E-02 0.  1.
        1   -1    0    0  501    0  0.00000000000E+00  0.00000000000E+00 -0.20318414515E+04  0.20318414515E+04  0.50400001928E-02 0. -1.
    10030    2    1    2    0    0  0.00000000000E+00  0.00000000000E+00 -0.12007545978E+04  0.28629283052E+04  0.25989511109E+04 0.  0.
        3    1    3    3  502    0  0.10718249322E+04  0.70567251524E+03 -0.37501434163E+03  0.13369435855E+04  0.10100000352E+00 0.  1.
       -3    1    3    3    0  502 -0.10718249322E+04 -0.70567251524E+03 -0.82574025621E+03  0.15259847198E+04  0.10100000352E+00 0. -1.
</event>
<event>
 5   0  0.2440590E-06  0.2598748E+04  0.7818609E-02  0.8368627E-01
        1   -1    0    0  501    0  0.00000000000E+00  0.00000000000E+00  0.20756384951E+04  0.20756384951E+04  0.50400001928E-02 0.  1.
       -1   -1    0    0    0  501  0.00000000000E+00  0.00000000000E+00 -0.81342307887E+03  0.81342307889E+03  0.50400001928E-02 0. -1.
    10030    2    1    2    0    0  0.00000000000E+00  0.00000000000E+00  0.12622154163E+04  0.28890615740E+04  0.25987475871E+04 0.  0.
        1    1    3    3  502    0 -0.97209885729E+03  0.82338654821E+03  0.34673799046E+03  0.13202911914E+04  0.50400001928E-02 0.  1.
       -1    1    3    3    0  502  0.97209885729E+03 -0.82338654821E+03  0.91547742580E+03  0.15687703826E+04  0.50400001928E-02 0. -1.
</event>
<event>
 5   0  0.2440590E-06  0.2606971E+04  0.7818609E-02  0.8365837E-01
       -1   -1    0    0    0  501  0.00000000000E+00  0.00000000000E+00  0.18625651228E+04  0.18625651228E+04  0.50400001928E-02 0. -1.
        1   -1    0    0  501    0  0.00000000000E+00  0.00000000000E+00 -0.91222301716E+03  0.91222301718E+03  0.50400001928E-02 0.  1.
    10030    2    1    2    0    0  0.00000000000E+00  0.00000000000E+00  0.95034210560E+03  0.27747881399E+04  0.26069712511E+04 0.  0.
        1    1    3    3  502    0 -0.50458682805E+03 -0.97774695636E+03  0.12190735256E+04  0.16421745457E+04  0.50400001928E-02 0. -1.
       -1    1    3    3    0  502  0.50458682805E+03  0.97774695636E+03 -0.26873142001E+03  0.11326135942E+04  0.50400001928E-02 0.  1.
</event>
<event>
 5   0  0.5942229E-06  0.2625830E+04  0.7818609E-02  0.8359480E-01
        2   -1    0    0  501    0  0.00000000000E+00  0.00000000000E+00  0.93418909608E+03  0.93418909609E+03  0.25500000920E-02 0.  1.
       -2   -1    0    0    0  501  0.00000000000E+00  0.00000000000E+00 -0.18451788567E+04  0.18451788567E+04  0.25500000920E-02 0. -1.
    10030    2    1    2    0    0  0.00000000000E+00  0.00000000000E+00 -0.91098976058E+03  0.27793679528E+04  0.26258301302E+04 0.  0.
        4    1    3    3  502    0  0.88760381713E+03 -0.76868029960E+03 -0.10772374827E+04  0.15934717275E+04  0.12699999809E+01 0. -1.
       -4    1    3    3    0  502 -0.88760381713E+03  0.76868029960E+03  0.16624772211E+03  0.11858962253E+04  0.12699999809E+01 0.  1.
</event>
<event>
 5   0  0.6173140E-06  0.2600490E+04  0.7818609E-02  0.8368035E-01
        2   -1    0    0  501    0  0.00000000000E+00  0.00000000000E+00  0.22264469862E+04  0.22264469862E+04  0.25500000920E-02 0. -1.
       -2   -1    0    0    0  501  0.00000000000E+00  0.00000000000E+00 -0.75934279336E+03  0.75934279336E+03  0.25500000920E-02 0.  1.
    10030    2    1    2    0    0  0.00000000000E+00  0.00000000000E+00  0.14671041928E+04  0.29857897795E+04  0.26004895491E+04 0.  0.
        3    1    3    3  502    0 -0.77616377487E+02 -0.60910646329E+03  0.20494916127E+04  0.21394978070E+04  0.10100000352E+00 0. -1.
       -3    1    3    3    0  502  0.77616377487E+02  0.60910646329E+03 -0.58238741987E+03  0.84629197249E+03  0.10100000352E+00 0.  1.
</event>
<event>
 5   0  0.6161834E-06  0.2577371E+04  0.7818609E-02  0.8375929E-01
        2   -1    0    0  501    0  0.00000000000E+00  0.00000000000E+00  0.14545961126E+04  0.14545961126E+04  0.25500000920E-02 0. -1.
       -2   -1    0    0    0  501  0.00000000000E+00  0.00000000000E+00 -0.11416985196E+04  0.11416985196E+04  0.25500000920E-02 0.  1.
    10030    2    1    2    0    0  0.00000000000E+00  0.00000000000E+00  0.31289759308E+03  0.25962946322E+04  0.25773709305E+04 0.  0.
        5    1    3    3  502    0 -0.79281792305E+03  0.10059615959E+04  0.29950965084E+03  0.13153885785E+04  0.46999998093E+01 0.  1.
       -5    1    3    3    0  502  0.79281792305E+03 -0.10059615959E+04  0.13387942245E+02  0.12809060537E+04  0.46999998093E+01 0. -1.
</event>
<event>
 5   0  0.6173140E-06  0.2614875E+04  0.7818609E-02  0.8363166E-01
       -2   -1    0    0    0  501  0.00000000000E+00  0.00000000000E+00  0.92205638593E+03  0.92205638593E+03  0.25500000920E-02 0. -1.
        2   -1    0    0  501    0  0.00000000000E+00  0.00000000000E+00 -0.18538915487E+04  0.18538915487E+04  0.25500000920E-02 0.  1.
    10030    2    1    2    0    0  0.00000000000E+00  0.00000000000E+00 -0.93183516280E+03  0.27759479347E+04  0.26148747896E+04 0.  0.
        3    1    3    3  502    0  0.62358857193E+03  0.38082442956E+03  0.68507416995E+03  0.10016069996E+04  0.10100000352E+00 0. -1.
       -3    1    3    3    0  502 -0.62358857193E+03 -0.38082442956E+03 -0.16169093328E+04  0.17743409350E+04  0.10100000352E+00 0.  1.
</event>
<event>
 5   0  0.2456600E-06  0.2602969E+04  0.7818609E-02  0.8367193E-01
        1   -1    0    0  501    0  0.00000000000E+00  0.00000000000E+00  0.11081987866E+04  0.11081987866E+04  0.50400001928E-02 0.  1.
       -1   -1    0    0    0  501  0.00000000000E+00  0.00000000000E+00 -0.15284819493E+04  0.15284819494E+04  0.50400001928E-02 0. -1.
    10030    2    1    2    0    0  0.00000000000E+00  0.00000000000E+00 -0.42028316274E+03  0.26366807360E+04  0.26029689523E+04 0.  0.
        5    1    3    3  502    0  0.12695875031E+04 -0.24622694370E+03 -0.62099467883E+02  0.12947426655E+04  0.46999998093E+01 0.  1.
       -5    1    3    3    0  502 -0.12695875031E+04  0.24622694370E+03 -0.35818369486E+03  0.13419380705E+04  0.46999998093E+01 0. -1.
</event>
<event>
 5   0  0.6161834E-06  0.2603832E+04  0.7818609E-02  0.8366901E-01
        2   -1    0    0  501    0  0.00000000000E+00  0.00000000000E+00  0.13796220912E+04  0.13796220912E+04  0.25500000920E-02 0. -1.
       -2   -1    0    0    0  501  0.00000000000E+00  0.00000000000E+00 -0.12285864566E+04  0.12285864567E+04  0.25500000920E-02 0.  1.
    10030    2    1    2    0    0  0.00000000000E+00  0.00000000000E+00  0.15103563452E+03  0.26082085478E+04  0.26038318045E+04 0.  0.
        5    1    3    3  502    0  0.11597331970E+04  0.91727693764E+02 -0.50990263552E+03  0.12702038599E+04  0.46999998093E+01 0.  1.
       -5    1    3    3    0  502 -0.11597331970E+04 -0.91727693764E+02  0.66093827003E+03  0.13380046879E+04  0.46999998093E+01 0. -1.
</event>
<event>
 5   0  0.6158063E-06  0.2599349E+04  0.7818609E-02  0.8368422E-01
        2   -1    0    0  501    0  0.00000000000E+00  0.00000000000E+00  0.15286528938E+04  0.15286528938E+04  0.25500000920E-02 0.  1.
       -2   -1    0    0    0  501  0.00000000000E+00  0.00000000000E+00 -0.11049951528E+04  0.11049951528E+04  0.25500000920E-02 0. -1.
    10030    2    1    2    0    0  0.00000000000E+00  0.00000000000E+00  0.42365774105E+03  0.26336480466E+04  0.25993491785E+04 0.  0.
        2    1    3    3  502    0  0.57764131138E+03 -0.11618460180E+04  0.13601922880E+03  0.13046290219E+04  0.25500000920E-02 0.  1.
       -2    1    3    3    0  502 -0.57764131138E+03  0.11618460180E+04  0.28763851225E+03  0.13290190247E+04  0.25500000920E-02 0. -1.
</event>
<event>
 5   0  0.6161834E-06  0.2614070E+04  0.7818609E-02  0.8363438E-01
        2   -1    0    0  501    0  0.00000000000E+00  0.00000000000E+00  0.20134854479E+04  0.20134854479E+04  0.25500000920E-02 0.  1.
       -2   -1    0    0    0  501  0.00000000000E+00  0.00000000000E+00 -0.84844955917E+03  0.84844955917E+03  0.25500000920E-02 0. -1.
    10030    2    1    2    0    0  0.00000000000E+00  0.00000000000E+00  0.11650358887E+04  0.28619350071E+04  0.26140702673E+04 0.  0.
        5    1    3    3  502    0  0.87965723442E+03 -0.96144522028E+02  0.16356398791E+04  0.18596721548E+04  0.46999998093E+01 0.  1.
       -5    1    3    3    0  502 -0.87965723442E+03  0.96144522028E+02 -0.47060399042E+03  0.10022628522E+04  0.46999998093E+01 0. -1.
</event>
<event>
 5   0  0.2440590E-06  0.2605137E+04  0.7818609E-02  0.8366458E-01
       -1   -1    0    0    0  501  0.00000000000E+00  0.00000000000E+00  0.18033951983E+04  0.18033951983E+04  0.50400001928E-02 0. -1.
        1   -1    0    0  501    0  0.00000000000E+00  0.00000000000E+00 -0.94082803648E+03  0.94082803649E+03  0.50400001928E-02 0.  1.
    10030    2    1    2    0    0  0.00000000000E+00  0.00000000000E+00  0.86256716180E+03  0.27442232348E+04  0.26051370508E+04 0.  0.
        1    1    3    3  502    0  0.86331023925E+03  0.32070449015E+03 -0.53905245740E+03  0.10671145632E+04  0.50400001928E-02 0.  1.
       -1    1    3    3    0  502 -0.86331023925E+03 -0.32070449015E+03  0.14016196192E+04  0.16771086715E+04  0.50400001928E-02 0. -1.
</event>
<event>
 5   0  0.6158063E-06  0.2595658E+04  0.7818609E-02  0.8369678E-01
        2   -1    0    0  501    0  0.00000000000E+00  0.00000000000E+00  0.21386118424E+04  0.21386118424E+04  0.25500000920E-02 0.  1.
       -2   -1    0    0    0  501  0.00000000000E+00  0.00000000000E+00 -0.78759477026E+03  0.78759477026E+03  0.25500000920E-02 0. -1.
    10030    2    1    2    0    0  0.00000000000E+00  0.00000000000E+00  0.13510170721E+04  0.29262066127E+04  0.25956575296E+04 0.  0.
        2    1    3    3  502    0 -0.16518646021E+03  0.46683797823E+03 -0.67690154638E+03  0.83870135808E+03  0.25500000920E-02 0. -1.
       -2    1    3    3    0  502  0.16518646021E+03 -0.46683797823E+03  0.20279186185E+04  0.20875052546E+04  0.25500000920E-02 0.  1.
</event>
<event>
 5   0  0.2456600E-06  0.2602516E+04  0.7818609E-02  0.8367347E-01
        1   -1    0    0  501    0  0.00000000000E+00  0.00000000000E+00  0.18633249622E+04  0.18633249623E+04  0.50400001928E-02 0.  1.
       -1   -1    0    0    0  501  0.00000000000E+00  0.00000000000E+00 -0.90873693495E+03  0.90873693496E+03  0.50400001928E-02 0. -1.
    10030    2    1    2    0    0  0.00000000000E+00  0.00000000000E+00  0.95458802730E+03  0.27720618972E+04  0.26025158713E+04 0.  0.
        5    1    3    3  502    0  0.64623534166E+03  0.10084394635E+04 -0.64445910384E+02  0.11994772335E+04  0.46999998093E+01 0. -1.
       -5    1    3    3    0  502 -0.64623534166E+03 -0.10084394635E+04  0.10190339377E+04  0.15725846637E+04  0.46999998093E+01 0.  1.
</event>
<event>
 5   0  0.2333979E-06  0.2592059E+04  0.7818609E-02  0.8370904E-01
        1   -1    0    0  501    0  0.00000000000E+00  0.00000000000E+00  0.12702662319E+04  0.12702662319E+04  0.50400001928E-02 0. -1.
       -1   -1    0    0    0  501  0.00000000000E+00  0.00000000000E+00 -0.13223155116E+04  0.13223155116E+04  0.50400001928E-02 0.  1.
    10030    2    1    2    0    0  0.00000000000E+00  0.00000000000E+00 -0.52049279717E+02  0.25925817435E+04  0.25920592141E+04 0.  0.
        3    1    3    3  502    0 -0.62029949457E+01  0.88575504428E+03  0.92025923594E+03  0.12772930545E+04  0.10100000352E+00 0. -1.
       -3    1    3    3    0  502  0.62029949457E+01 -0.88575504428E+03 -0.97230851566E+03  0.13152886890E+04  0.10100000352E+00 0.  1.
</event>
<event>
 5   0  0.5942229E-06  0.2612068E+04  0.7818609E-02  0.8364114E-01
        2   -1    0    0  501    0  0.00000000000E+00  0.00000000000E+00  0.14513194379E+04  0.14513194379E+04  0.25500000920E-02 0.  1.
       -2   -1    0    0    0  501  0.00000000000E+00  0.00000000000E+00 -0.11752923214E+04  0.11752923214E+04  0.25500000920E-02 0. -1.
    10030    2    1    2    0    0  0.00000000000E+00  0.00000000000E+00  0.27602711642E+03  0.26266117593E+04  0.26120678332E+04 0.  0.
        4    1    3    3  502    0 -0.37563938608E+02  0.76779759376E+03  0.11997327710E+04  0.14248805316E+04  0.12699999809E+01 0.  1.
       -4    1    3    3    0  502  0.37563938608E+02 -0.76779759376E+03 -0.92370565460E+03  0.12017312277E+04  0.12699999809E+01 0. -1.
</event>
<event>
 5   0  0.2333979E-06  0.2587152E+04  0.7818609E-02  0.8372579E-01
       -1   -1    0    0    0  501  0.00000000000E+00  0.00000000000E+00  0.98165913917E+03  0.98165913918E+03  0.50400001928E-02 0.  1.
        1   -1    0    0  501    0  0.00000000000E+00  0.00000000000E+00 -0.17046024200E+04  0.17046024200E+04  0.50400001928E-02 0. -1.
    10030    2    1    2    0    0  0.00000000000E+00  0.00000000000E+00 -0.72294328087E+03  0.26862615592E+04  0.25871517499E+04 0.  0.
        3    1    3    3  502    0  0.47719356156E+03  0.10349505290E+04 -0.99688099591E+03  0.15141360648E+04  0.10100000352E+00 0. -1.
       -3    1    3    3    0  502 -0.47719356156E+03 -0.10349505290E+04  0.27393771504E+03  0.11721254944E+04  0.10100000352E+00 0.  1.
</event>
<event>
 5   0  0.2440590E-06  0.2572657E+04  0.7818609E-02  0.8377549E-01
       -1   -1    0    0    0  501  0.00000000000E+00  0.00000000000E+00  0.14205662293E+04  0.14205662293E+04  0.50400001928E-02 0.  1.
        1   -1    0    0  501    0  0.00000000000E+00  0.00000000000E+00 -0.11647753357E+04  0.11647753357E+04  0.50400001928E-02 0. -1.
    10030    2    1    2    0    0  0.00000000000E+00  0.00000000000E+00  0.25579089365E+03  0.25853415650E+04  0.25726566088E+04 0.  0.
        1    1    3    3  502    0 -0.41076304742E+03 -0.11467712996E+04 -0.28745811426E+03  0.12515761512E+04  0.50400001928E-02 0. -1.
       -1    1    3    3    0  502  0.41076304742E+03  0.11467712996E+04  0.54324900791E+03  0.13337654139E+04  0.50400001928E-02 0.  1.
</event>
<event>
 5   0  0.2333979E-06  0.2604548E+04  0.7818609E-02  0.8366658E-01
        1   -1    0    0  501    0  0.00000000000E+00  0.00000000000E+00  0.19775978842E+04  0.19775978842E+04  0.50400001928E-02 0. -1.
       -1   -1    0    0    0  501  0.00000000000E+00  0.00000000000E+00 -0.85756422766E+03  0.85756422767E+03  0.50400001928E-02 0.  1.
    10030    2    1    2    0    0  0.00000000000E+00  0.00000000000E+00  0.11200336565E+04  0.28351621119E+04  0.26045477167E+04 0.  0.
        3    1    3    3  502    0 -0.25430332023E+03 -0.12656648418E+03 -0.82343004804E+03  0.87104896981E+03  0.10100000352E+00 0.  1.
       -3    1    3    3    0  502  0.25430332023E+03  0.12656648418E+03  0.19434637046E+04  0.19641131421E+04  0.10100000352E+00 0. -1.
</event>
<event>
 5   0  0.6161834E-06  0.2602890E+04  0.7818609E-02  0.8367220E-01
       -2   -1    0    0    0  501  0.00000000000E+00  0.00000000000E+00  0.12682728096E+04  0.12682728096E+04  0.25500000920E-02 0. -1.
        2   -1    0    0  501    0  0.00000000000E+00  0.00000000000E+00 -0.13354848310E+04  0.13354848310E+04  0.25500000920E-02 0.  1.
    10030    2    1    2    0    0  0.00000000000E+00  0.00000000000E+00 -0.67212021383E+02  0.26037576406E+04  0.26028900083E+04 0.  0.
        5    1    3    3  502    0  0.16190805911E+03 -0.19425784425E+03 -0.13106625433E+04  0.13348440816E+04  0.46999998093E+01 0.  1.
       -5    1    3    3    0  502 -0.16190805911E+03  0.19425784425E+03  0.12434505220E+04  0.12689135590E+04  0.46999998093E+01 0. -1.
</event>
<event>
 5   0  0.2471488E-06  0.2601595E+04  0.7818609E-02  0.8367660E-01
        1   -1    0    0  501    0  0.00000000000E+00  0.00000000000E+00  0.19105840567E+04  0.19105840567E+04  0.50400001928E-02 0. -1.
       -1   -1    0    0    0  501  0.00000000000E+00  0.00000000000E+00 -0.88563191225E+03  0.88563191227E+03  0.50400001928E-02 0.  1.
    10030    2    1    2    0    0  0.00000000000E+00  0.00000000000E+00  0.10249521445E+04  0.27962159690E+04  0.26015950582E+04 0.  0.
        4    1    3    3  502    0  0.36553135403E+03  0.45291912318E+03  0.17628268129E+04  0.18564236823E+04  0.12699999809E+01 0. -1.
       -4    1    3    3    0  502 -0.36553135403E+03 -0.45291912318E+03 -0.73787466845E+03  0.93979228671E+03  0.12699999809E+01 0.  1.
</event>
<event>
 5   0  0.2456600E-06  0.2595217E+04  0.7818609E-02  0.8369828E-01
        1   -1    0    0  501    0  0.00000000000E+00  0.00000000000E+00  0.20361037418E+04  0.20361037418E+04  0.50400001928E-02 0.  1.
       -1   -1    0    0    0  501  0.00000000000E+00  0.00000000000E+00 -0.82696568093E+03  0.82696568095E+03  0.50400001928E-02 0. -1.
    10030    2    1    2    0    0  0.00000000000E+00  0.00000000000E+00  0.12091380608E+04  0.28630694227E+04  0.25952170755E+04 0.  0.
        5    1    3    3  502    0 -0.87579284264E+03 -0.36722298198E+03 -0.37094562176E+03  0.10195531207E+04  0.46999998093E+01 0. -1.
       -5    1    3    3    0  502  0.87579284264E+03  0.36722298198E+03  0.15800836826E+04  0.18435163020E+04  0.46999998093E+01 0.  1.
</event>
<event>
 5   0  0.6161834E-06  0.2453956E+04  0.7818609E-02  0.8419575E-01
       -2   -1    0    0    0  501  0.00000000000E+00  0.00000000000E+00  0.17306185378E+04  0.17306185378E+04  0.25500000920E-02 0.  1.
        2   -1    0    0  501    0  0.00000000000E+00  0.00000000000E+00 -0.86990555001E+03  0.86990555001E+03  0.25500000920E-02 0. -1.
    10030    2    1    2    0    0  0.00000000000E+00  0.00000000000E+00  0.86071298783E+03  0.26005240879E+04  0.24539557217E+04 0.  0.
        5    1    3    3  502    0 -0.38187157061E+03 -0.11296871184E+04  0.12425538153E+03  0.11989496953E+04  0.46999998093E+01 0. -1.
       -5    1    3    3    0  502  0.38187157061E+03  0.11296871184E+04  0.73645760630E+03  0.14015743926E+04  0.46999998093E+01 0.  1.
</event>
<event>
 5   0  0.2456600E-06  0.2604138E+04  0.7818609E-02  0.8366797E-01
       -1   -1    0    0    0  501  0.00000000000E+00  0.00000000000E+00  0.89874804756E+03  0.89874804757E+03  0.50400001928E-02 0.  1.
        1   -1    0    0  501    0  0.00000000000E+00  0.00000000000E+00 -0.18863843104E+04  0.18863843104E+04  0.50400001928E-02 0. -1.
    10030    2    1    2    0    0  0.00000000000E+00  0.00000000000E+00 -0.98763626284E+03  0.27851323580E+04  0.26041384110E+04 0.  0.
        5    1    3    3  502    0  0.11788696727E+04 -0.45777448474E+03 -0.16232250741E+03  0.12750144589E+04  0.46999998093E+01 0. -1.
       -5    1    3    3    0  502 -0.11788696727E+04  0.45777448474E+03 -0.82531375543E+03  0.15101178990E+04  0.46999998093E+01 0.  1.
</event>
<event>
 5   0  0.5942229E-06  0.2634173E+04  0.7818609E-02  0.8356685E-01
        2   -1    0    0  501    0  0.00000000000E+00  0.00000000000E+00  0.12293823514E+04  0.12293823514E+04  0.25500000920E-02 0.  1.
       -2   -1    0    0    0  501  0.00000000000E+00  0.00000000000E+00 -0.14110469461E+04  0.14110469461E+04  0.25500000920E-02 0. -1.
    10030    2    1    2    0    0  0.00000000000E+00  0.00000000000E+00 -0.18166459474E+03  0.26404292975E+04  0.26341725171E+04 0.  0.
        4    1    3    3  502    0  0.83932874163E+03  0.89099960948E+03 -0.57815736473E+03  0.13537431780E+04  0.12699999809E+01 0.  1.
       -4    1    3    3    0  502 -0.83932874163E+03 -0.89099960948E+03  0.39649276999E+03  0.12866861195E+04  0.12699999809E+01 0. -1.
</event>
<event>
 5   0  0.2471488E-06  0.2518093E+04  0.7818609E-02  0.8396568E-01
       -1   -1    0    0    0  501  0.00000000000E+00  0.00000000000E+00  0.13216563673E+04  0.13216563673E+04  0.50400001928E-02 0.  1.
        1   -1    0    0  501    0  0.00000000000E+00  0.00000000000E+00 -0.11994021537E+04  0.11994021538E+04  0.50400001928E-02 0. -1.
    10030    2    1    2    0    0  0.00000000000E+00  0.00000000000E+00  0.12225421354E+03  0.25210585210E+04  0.25180925269E+04 0.  0.
        4    1    3    3  502    0  0.79414845398E+03 -0.85210095103E+03 -0.41739830074E+03  0.12373240287E+04  0.12699999809E+01 0.  1.
       -4    1    3    3    0  502 -0.79414845398E+03  0.85210095103E+03  0.53965251428E+03  0.12837344923E+04  0.12699999809E+01 0. -1.
</event>
<event>
 5   0  0.2503292E-06  0.2598659E+04  0.7818609E-02  0.8368657E-01
        1   -1    0    0  501    0  0.00000000000E+00  0.00000000000E+00  0.13037642362E+04  0.13037642362E+04  0.50400001928E-02 0.  1.
       -1   -1    0    0    0  501  0.00000000000E+00  0.00000000000E+00 -0.12949100408E+04  0.12949100408E+04  0.50400001928E-02 0. -1.
    10030    2    1    2    0    0  0.00000000000E+00  0.00000000000E+00  0.88541953905E+01  0.25986742769E+04  0.25986591929E+04 0.  0.
        2    1    3    3  502    0 -0.45922577068E+03  0.89645398626E+03  0.82524812800E+03  0.13021338375E+04  0.25500000920E-02 0.  1.
       -2    1    3    3    0  502  0.45922577068E+03 -0.89645398626E+03 -0.81639393261E+03  0.12965404395E+04  0.25500000920E-02 0. -1.
</event>
<event>
 5   0  0.2333979E-06  0.2596422E+04  0.7818609E-02  0.8369417E-01
       -1   -1    0    0    0  501  0.00000000000E+00  0.00000000000E+00  0.95410293294E+03  0.95410293295E+03  0.50400001928E-02 0. -1.
        1   -1    0    0  501    0  0.00000000000E+00  0.00000000000E+00 -0.17664259095E+04  0.17664259095E+04  0.50400001928E-02 0.  1.
    10030    2    1    2    0    0  0.00000000000E+00  0.00000000000E+00 -0.81232297659E+03  0.27205288425E+04  0.25964222624E+04 0.  0.
        3    1    3    3  502    0  0.87403883184E+03 -0.92821366609E+03 -0.14987308732E+03  0.12837392422E+04  0.10100000352E+00 0. -1.
       -3    1    3    3    0  502 -0.87403883184E+03  0.92821366609E+03 -0.66244988927E+03  0.14367896003E+04  0.10100000352E+00 0.  1.
</event>
<event>
 5   0  0.6173140E-06  0.2532718E+04  0.7818609E-02  0.8391421E-01
       -2   -1    0    0    0  501  0.00000000000E+00  0.00000000000E+00  0.69704390328E+03  0.69704390328E+03  0.25500000920E-02 0. -1.
        2   -1    0    0  501    0  0.00000000000E+00  0.00000000000E+00 -0.23006661313E+04  0.23006661313E+04  0.25500000920E-02 0.  1.
    10030    2    1    2    0    0  0.00000000000E+00  0.00000000000E+00 -0.16036222281E+04  0.29977100346E+04  0.25327181449E+04 0.  0.
        3    1    3    3  502    0  0.85406244786E+03 -0.34025986988E+03 -0.18326024857E+04  0.20502759142E+04  0.10100000352E+00 0. -1.
       -3    1    3    3    0  502 -0.85406244786E+03  0.34025986988E+03  0.22898025759E+03  0.94743412038E+03  0.10100000352E+00 0.  1.
</event>
<event>
 5   0  0.2503292E-06  0.2601775E+04  0.7818609E-02  0.8367598E-01
        1   -1    0    0  501    0  0.00000000000E+00  0.00000000000E+00  0.91544577864E+03  0.91544577866E+03  0.50400001928E-02 0. -1.
       -1   -1    0    0    0  501  0.00000000000E+00  0.00000000000E+00 -0.18486171519E+04  0.18486171519E+04  0.50400001928E-02 0.  1.
    10030    2    1    2    0    0  0.00000000000E+00  0.00000000000E+00 -0.93317137322E+03  0.27640629305E+04  0.26017753693E+04 0.  0.
        2    1    3    3  502    0 -0.70714762684E+03  0.38555201740E+03  0.61870305490E+03  0.10156286696E+04  0.25500000920E-02 0. -1.
       -2    1    3    3    0  502  0.70714762684E+03 -0.38555201740E+03 -0.15518744281E+04  0.17484342610E+04  0.25500000920E-02 0.  1.
</event>
<event>
 5   0  0.2503292E-06  0.2528700E+04  0.7818609E-02  0.8392832E-01
       -1   -1    0    0    0  501  0.00000000000E+00  0.00000000000E+00  0.10766162932E+04  0.10766162932E+04  0.50400001928E-02 0. -1.
        1   -1    0    0  501    0  0.00000000000E+00  0.00000000000E+00 -0.14848195013E+04  0.14848195013E+04  0.50400001928E-02 0.  1.
    10030    2    1    2    0    0  0.00000000000E+00  0.00000000000E+00 -0.40820320812E+03  0.25614357945E+04  0.25286999565E+04 0.  0.
        2    1    3    3  502    0 -0.37556845571E+01  0.10883846175E+04 -0.85584829694E+03  0.13845835071E+04  0.25500000920E-02 0.  1.
       -2    1    3    3    0  502  0.37556845571E+01 -0.10883846175E+04  0.44764508882E+03  0.11768522874E+04  0.25500000920E-02 0. -1.
</event>
<event>
 5   0  0.6161834E-06  0.2646249E+04  0.7818609E-02  0.8352659E-01
        2   -1    0    0  501    0  0.00000000000E+00  0.00000000000E+00  0.14712990921E+04  0.14712990921E+04  0.25500000920E-02 0.  1.
       -2   -1    0    0    0  501  0.00000000000E+00  0.00000000000E+00 -0.11898725128E+04  0.11898725128E+04  0.25500000920E-02 0. -1.
    10030    2    1    2    0    0  0.00000000000E+00  0.00000000000E+00  0.28142657926E+03  0.26611716049E+04  0.26462489285E+04 0.  0.
        5    1    3    3  502    0  0.76510619538E+02  0.62155708637E+01  0.14690494988E+04  0.14710611911E+04  0.46999998093E+01 0.  1.
       -5    1    3    3    0  502 -0.76510619538E+02 -0.62155708637E+01 -0.11876229195E+04  0.11901104138E+04  0.46999998093E+01 0. -1.
</event>
<event>
 5   0  0.5942229E-06  0.2614144E+04  0.7818609E-02  0.8363413E-01
        2   -1    0    0  501    0  0.00000000000E+00  0.00000000000E+00  0.12743035220E+04  0.12743035220E+04  0.25500000920E-02 0. -1.
       -2   -1    0    0    0  501  0.00000000000E+00  0.00000000000E+00 -0.13406832495E+04  0.13406832495E+04  0.25500000920E-02 0.  1.
    10030    2    1    2    0    0  0.00000000000E+00  0.00000000000E+00 -0.66379727570E+02  0.26149867715E+04  0.26141441328E+04 0.  0.
        4    1    3    3  502    0  0.61261809651E+02 -0.99649072749E+03 -0.87707840955E+03  0.13289149441E+04  0.12699999809E+01 0.  1.
       -4    1    3    3    0  502 -0.61261809651E+02  0.99649072749E+03  0.81069868198E+03  0.12860718274E+04  0.12699999809E+01 0. -1.
</event>
<event>
 5   0  0.2503292E-06  0.2602079E+04  0.7818609E-02  0.8367495E-01
        1   -1    0    0  501    0  0.00000000000E+00  0.00000000000E+00  0.11313701951E+04  0.11313701951E+04  0.50400001928E-02 0. -1.
       -1   -1    0    0    0  501  0.00000000000E+00  0.00000000000E+00 -0.14961542205E+04  0.14961542205E+04  0.50400001928E-02 0.  1.
    10030    2    1    2    0    0  0.00000000000E+00  0.00000000000E+00 -0.36478402544E+03  0.26275244156E+04  0.26020793934E+04 0.  0.
        2    1    3    3  502    0  0.29411560025E+03  0.21453865382E+03 -0.14436753592E+04  0.14888684841E+04  0.25500000920E-02 0.  1.
       -2    1    3    3    0  502 -0.29411560025E+03 -0.21453865382E+03  0.10788913337E+04  0.11386559315E+04  0.25500000920E-02 0. -1.
</event>
<event>
 5   0  0.2333979E-06  0.2595931E+04  0.7818609E-02  0.8369585E-01
       -1   -1    0    0    0  501  0.00000000000E+00  0.00000000000E+00  0.78420338884E+03  0.78420338886E+03  0.50400001928E-02 0. -1.
        1   -1    0    0  501    0  0.00000000000E+00  0.00000000000E+00 -0.21483133184E+04  0.21483133184E+04  0.50400001928E-02 0.  1.
    10030    2    1    2    0    0  0.00000000000E+00  0.00000000000E+00 -0.13641099295E+04  0.29325167072E+04  0.25959311120E+04 0.  0.
        3    1    3    3  502    0 -0.42814327485E+03 -0.49445251494E+02 -0.20651206278E+04  0.21096148261E+04  0.10100000352E+00 0.  1.
       -3    1    3    3    0  502  0.42814327485E+03  0.49445251494E+02  0.70101069829E+03  0.82290188116E+03  0.10100000352E+00 0. -1.
</event>
<event>
 5   0  0.2333979E-06  0.2590248E+04  0.7818609E-02  0.8371521E-01
        1   -1    0    0  501    0  0.00000000000E+00  0.00000000000E+00  0.10166201788E+04  0.10166201788E+04  0.50400001928E-02 0.  1.
       -1   -1    0    0    0  501  0.00000000000E+00  0.00000000000E+00 -0.16499242626E+04  0.16499242626E+04  0.50400001928E-02 0. -1.
    10030    2    1    2    0    0  0.00000000000E+00  0.00000000000E+00 -0.63330408384E+03  0.26665444414E+04  0.25902480953E+04 0.  0.
        3    1    3    3  502    0 -0.90255326979E+03  0.53731838526E+03 -0.10966183288E+04  0.15185141492E+04  0.10100000352E+00 0. -1.
       -3    1    3    3    0  502  0.90255326979E+03 -0.53731838526E+03  0.46331424501E+03  0.11480302922E+04  0.10100000352E+00 0.  1.
</event>
<event>
 5   0  0.6158063E-06  0.2591706E+04  0.7818609E-02  0.8371024E-01
       -2   -1    0    0    0  501  0.00000000000E+00  0.00000000000E+00  0.98436397666E+03  0.98436397666E+03  0.25500000920E-02 0. -1.
        2   -1    0    0  501    0  0.00000000000E+00  0.00000000000E+00 -0.17059081989E+04  0.17059081989E+04  0.25500000920E-02 0.  1.
    10030    2    1    2    0    0  0.00000000000E+00  0.00000000000E+00 -0.72154422225E+03  0.26902721756E+04  0.25917056766E+04 0.  0.
        2    1    3    3  502    0  0.12077143913E+04  0.21376994809E+03  0.73421641142E+02  0.12286831890E+04  0.25500000920E-02 0. -1.
       -2    1    3    3    0  502 -0.12077143913E+04 -0.21376994809E+03 -0.79496586339E+03  0.14615889865E+04  0.25500000920E-02 0.  1.
</event>
<event>
 5   0  0.2440590E-06  0.2600394E+04  0.7818609E-02  0.8368068E-01
        1   -1    0    0  501    0  0.00000000000E+00  0.00000000000E+00  0.11707510182E+04  0.11707510182E+04  0.50400001928E-02 0. -1.
       -1   -1    0    0    0  501  0.00000000000E+00  0.00000000000E+00 -0.14439548315E+04  0.14439548315E+04  0.50400001928E-02 0.  1.
    10030    2    1    2    0    0  0.00000000000E+00  0.00000000000E+00 -0.27320381326E+03  0.26147058497E+04  0.26003935004E+04 0.  0.
        1    1    3    3  502    0 -0.38874282571E+03 -0.10349180261E+04 -0.82471877749E+03  0.13792524669E+04  0.50400001928E-02 0.  1.
       -1    1    3    3    0  502  0.38874282571E+03  0.10349180261E+04  0.55151496423E+03  0.12354533828E+04  0.50400001928E-02 0. -1.
</event>
<event>
 5   0  0.6161834E-06  0.2597775E+04  0.7818609E-02  0.8368957E-01
       -2   -1    0    0    0  501  0.00000000000E+00  0.00000000000E+00  0.18221882408E+04  0.18221882408E+04  0.25500000920E-02 0.  1.
        2   -1    0    0  501    0  0.00000000000E+00  0.00000000000E+00 -0.92586993957E+03  0.92586993958E+03  0.25500000920E-02 0. -1.
    10030    2    1    2    0    0  0.00000000000E+00  0.00000000000E+00  0.89631830122E+03  0.27480581804E+04  0.25977754456E+04 0.  0.
        5    1    3    3  502    0  0.71541750632E+03 -0.40699387877E+03 -0.61476800719E+03  0.10273402642E+04  0.46999998093E+01 0. -1.
       -5    1    3    3    0  502 -0.71541750632E+03  0.40699387877E+03  0.15110863084E+04  0.17207179162E+04  0.46999998093E+01 0.  1.
</event>
<event>
 5   0  0.2333979E-06  0.2603116E+04  0.7818609E-02  0.8367144E-01
        1   -1    0    0  501    0  0.00000000000E+00  0.00000000000E+00  0.21697998854E+04  0.21697998854E+04  0.50400001928E-02 0. -1.
       -1   -1    0    0    0  501  0.00000000000E+00  0.00000000000E+00 -0.78074158133E+03  0.78074158135E+03  0.50400001928E-02 0.  1.
    10030    2    1    2    0    0  0.00000000000E+00  0.00000000000E+00  0.13890583041E+04  0.29505414668E+04  0.26031158205E+04 0.  0.
        3    1    3    3  502    0  0.30910454445E+03  0.11832528288E+04  0.11994241534E+04  0.17129656115E+04  0.10100000352E+00 0. -1.
       -3    1    3    3    0  502 -0.30910454445E+03 -0.11832528288E+04  0.18963415076E+03  0.12375758553E+04  0.10100000352E+00 0.  1.
</event>
<event>
 5   0  0.6158063E-06  0.2614323E+04  0.7818609E-02  0.8363352E-01
       -2   -1    0    0    0  501  0.00000000000E+00  0.00000000000E+00  0.12740295631E+04  0.12740295631E+04  0.25500000920E-02 0.  1.
        2   -1    0    0  501    0  0.00000000000E+00  0.00000000000E+00 -0.13411548704E+04  0.13411548704E+04  0.25500000920E-02 0. -1.
    10030    2    1    2    0    0  0.00000000000E+00  0.00000000000E+00 -0.67125307283E+02  0.26151844334E+04  0.26143228213E+04 0.  0.
        2    1    3    3  502    0 -0.50653961638E+03  0.22024818497E+03  0.11515553260E+04  0.12771731734E+04  0.25500000920E-02 0.  1.
       -2    1    3    3    0  502  0.50653961638E+03 -0.22024818497E+03 -0.12186806333E+04  0.13380112600E+04  0.25500000920E-02 0. -1.
</event>
<event>
 5   0  0.2072125E-06  0.2595647E+04  0.7818609E-02  0.8369681E-01
       -3   -1    0    0    0  501  0.00000000000E+00  0.00000000000E+00  0.13600311643E+04  0.13600311680E+04  0.10100000352E+00 0. -1.
        3   -1    0    0  501    0  0.00000000000E+00  0.00000000000E+00 -0.12384614245E+04  0.12384614286E+04  0.10100000352E+00 0.  1.
    10030    2    1    2    0    0  0.00000000000E+00  0.00000000000E+00  0.12156973980E+03  0.25984925966E+04  0.25956472358E+04 0.  0.
        1    1    3    3  502    0 -0.58139032104E+03  0.44462431567E+02  0.12215189140E+04  0.13535509116E+04  0.50400001928E-02 0. -1.
       -1    1    3    3    0  502  0.58139032104E+03 -0.44462431567E+02 -0.10999491741E+04  0.12449416850E+04  0.50400001928E-02 0.  1.
</event>
<event>
 5   0  0.6161834E-06  0.2599664E+04  0.7818609E-02  0.8368315E-01
       -2   -1    0    0    0  501  0.00000000000E+00  0.00000000000E+00  0.13467126103E+04  0.13467126103E+04  0.25500000920E-02 0.  1.
        2   -1    0    0  501    0  0.00000000000E+00  0.00000000000E+00 -0.12545834021E+04  0.12545834021E+04  0.25500000920E-02 0. -1.
    10030    2    1    2    0    0  0.00000000000E+00  0.00000000000E+00  0.92129208245E+02  0.26012960124E+04  0.25996640462E+04 0.  0.
        5    1    3    3  502    0 -0.56205702886E+03  0.29708097606E+03 -0.10883913497E+04  0.12604693690E+04  0.46999998093E+01 0. -1.
       -5    1    3    3    0  502  0.56205702886E+03 -0.29708097606E+03  0.11805205579E+04  0.13408266434E+04  0.46999998093E+01 0.  1.
</event>
<event>
 5   0  0.2440590E-06  0.2494036E+04  0.7818609E-02  0.8405113E-01
        1   -1    0    0  501    0  0.00000000000E+00  0.00000000000E+00  0.11616066997E+04  0.11616066997E+04  0.50400001928E-02 0. -1.
       -1   -1    0    0    0  501  0.00000000000E+00  0.00000000000E+00 -0.13387097343E+04  0.13387097343E+04  0.50400001928E-02 0.  1.
    10030    2    1    2    0    0  0.00000000000E+00  0.00000000000E+00 -0.17710303460E+03  0.25003164341E+04  0.24940362438E+04 0.  0.
        1    1    3    3  502    0 -0.26266273260E+03 -0.10358630053E+04 -0.73285977316E+03  0.12957960194E+04  0.50400001928E-02 0. -1.
       -1    1    3    3    0  502  0.26266273260E+03  0.10358630053E+04  0.55575673857E+03  0.12045204146E+04  0.50400001928E-02 0.  1.
</event>
<event>
 5   0  0.2471488E-06  0.2592483E+04  0.7818609E-02  0.8370759E-01
        1   -1    0    0  501    0  0.00000000000E+00  0.00000000000E+00  0.17945545320E+04  0.17945545320E+04  0.50400001928E-02 0. -1.
       -1   -1    0    0    0  501  0.00000000000E+00  0.00000000000E+00 -0.93630036832E+03  0.93630036833E+03  0.50400001928E-02 0.  1.
    10030    2    1    2    0    0  0.00000000000E+00  0.00000000000E+00  0.85825416372E+03  0.27308549004E+04  0.25924830332E+04 0.  0.
        4    1    3    3  502    0  0.73686545217E+03 -0.65923030084E+03 -0.45387778465E+03  0.10879163297E+04  0.12699999809E+01 0.  1.
       -4    1    3    3    0  502 -0.73686545217E+03  0.65923030084E+03  0.13121319484E+04  0.16429385707E+04  0.12699999809E+01 0. -1.
</event>
<event>
 5   0  0.6173140E-06  0.2598328E+04  0.7818609E-02  0.8368769E-01
       -2   -1    0    0    0  501  0.00000000000E+00  0.00000000000E+00  0.89941389098E+03  0.89941389099E+03  0.25500000920E-02 0. -1.
        2   -1    0    0  501    0  0.00000000000E+00  0.00000000000E+00 -0.18765852654E+04  0.18765852654E+04  0.25500000920E-02 0.  1.
    10030    2    1    2    0    0  0.00000000000E+00  0.00000000000E+00 -0.97717137441E+03  0.27759991564E+04  0.25983278125E+04 0.  0.
        3    1    3    3  502    0 -0.82248033718E+03 -0.73676875907E+03  0.24270770617E+03  0.11305791216E+04  0.10100000352E+00 0. -1.
       -3    1    3    3    0  502  0.82248033718E+03  0.73676875907E+03 -0.12198790806E+04  0.16454200348E+04  0.10100000352E+00 0.  1.
</event>
<event>
 5   0  0.2456600E-06  0.2602264E+04  0.7818609E-02  0.8367433E-01
        1   -1    0    0  501    0  0.00000000000E+00  0.00000000000E+00  0.15924480462E+04  0.15924480462E+04  0.50400001928E-02 0.  1.
       -1   -1    0    0    0  501  0.00000000000E+00  0.00000000000E+00 -0.10631082029E+04  0.10631082029E+04  0.50400001928E-02 0. -1.
    10030    2    1    2    0    0  0.00000000000E+00  0.00000000000E+00  0.52933984323E+03  0.26555562491E+04  0.26022640763E+04 0.  0.
        5    1    3    3  502    0 -0.89443290575E+03 -0.32250408107E+03 -0.64172204646E+03  0.11471043458E+04  0.46999998093E+01 0. -1.
       -5    1    3    3    0  502  0.89443290575E+03  0.32250408107E+03  0.11710618897E+04  0.15084519033E+04  0.46999998093E+01 0.  1.
</event>
<event>
 5   0  0.5940748E-06  0.2597316E+04  0.7818609E-02  0.8369114E-01
       -2   -1    0    0    0  501  0.00000000000E+00  0.00000000000E+00  0.94041447159E+03  0.94041447160E+03  0.25500000920E-02 0.  1.
        2   -1    0    0  501    0  0.00000000000E+00  0.00000000000E+00 -0.17933711173E+04  0.17933711173E+04  0.25500000920E-02 0. -1.
    10030    2    1    2    0    0  0.00000000000E+00  0.00000000000E+00 -0.85295664570E+03  0.27337855889E+04  0.25973156540E+04 0.  0.
        1    1    3    3  502    0  0.34459725382E+03  0.50487602736E+03 -0.16324851476E+04  0.17431737801E+04  0.50400001928E-02 0. -1.
       -1    1    3    3    0  502 -0.34459725382E+03 -0.50487602736E+03  0.77952850194E+03  0.99061180879E+03  0.50400001928E-02 0.  1.
</event>
<event>
 5   0  0.2440590E-06  0.2616144E+04  0.7818609E-02  0.8362738E-01
       -1   -1    0    0    0  501  0.00000000000E+00  0.00000000000E+00  0.99687859333E+03  0.99687859335E+03  0.50400001928E-02 0. -1.
        1   -1    0    0  501    0  0.00000000000E+00  0.00000000000E+00 -0.17164095913E+04  0.17164095913E+04  0.50400001928E-02 0.  1.
    10030    2    1    2    0    0  0.00000000000E+00  0.00000000000E+00 -0.71953099800E+03  0.27132881847E+04  0.26161437109E+04 0.  0.
        1    1    3    3  502    0  0.75341347855E+02 -0.83613406372E+03 -0.14001370250E+04  0.16325379567E+04  0.50400001928E-02 0.  1.
       -1    1    3    3    0  502 -0.75341347855E+02  0.83613406372E+03  0.68060602703E+03  0.10807502280E+04  0.50400001928E-02 0. -1.
</event>
<event>
 5   0  0.6158063E-06  0.2601072E+04  0.7818609E-02  0.8367837E-01
       -2   -1    0    0    0  501  0.00000000000E+00  0.00000000000E+00  0.56555054937E+03  0.56555054938E+03  0.25500000920E-02 0.  1.
        2   -1    0    0  501    0  0.00000000000E+00  0.00000000000E+00 -0.29907025205E+04  0.29907025205E+04  0.25500000920E-02 0. -1.
    10030    2    1    2    0    0  0.00000000000E+00  0.00000000000E+00 -0.24251519711E+04  0.35562530699E+04  0.26010716664E+04 0.  0.
        2    1    3    3  502    0 -0.77191019431E+03  0.79503499814E+03 -0.21433622437E+04  0.24128671128E+04  0.25500000920E-02 0. -1.
       -2    1    3    3    0  502  0.77191019431E+03 -0.79503499814E+03 -0.28178972743E+03  0.11433859571E+04  0.25500000920E-02 0.  1.
</event>
<event>
 5   0  0.2333979E-06  0.2603071E+04  0.7818609E-02  0.8367159E-01
       -1   -1    0    0    0  501  0.00000000000E+00  0.00000000000E+00  0.82705818110E+03  0.82705818112E+03  0.50400001928E-02 0.  1.
        1   -1    0    0  501    0  0.00000000000E+00  0.00000000000E+00 -0.20482176859E+04  0.20482176859E+04  0.50400001928E-02 0. -1.
    10030    2    1    2    0    0  0.00000000000E+00  0.00000000000E+00 -0.12211595048E+04  0.28752758671E+04  0.26030714119E+04 0.  0.
        3    1    3    3  502    0  0.95726933805E+03 -0.14014383567E+03 -0.15722479665E+04  0.18460684058E+04  0.10100000352E+00 0. -1.
       -3    1    3    3    0  502 -0.95726933805E+03  0.14014383567E+03  0.35108846171E+03  0.10292074613E+04  0.10100000352E+00 0.  1.
</event>
<event>
 5   0  0.5942229E-06  0.2633957E+04  0.7818609E-02  0.8356757E-01
        2   -1    0    0  501    0  0.00000000000E+00  0.00000000000E+00  0.16494743895E+04  0.16494743895E+04  0.25500000920E-02 0.  1.
       -2   -1    0    0    0  501  0.00000000000E+00  0.00000000000E+00 -0.10515063483E+04  0.10515063483E+04  0.25500000920E-02 0. -1.
    10030    2    1    2    0    0  0.00000000000E+00  0.00000000000E+00  0.59796804116E+03  0.27009807378E+04  0.26339573208E+04 0.  0.
        4    1    3    3  502    0 -0.43202260648E+03  0.40122765306E+03 -0.90860817852E+03  0.10831424639E+04  0.12699999809E+01 0. -1.
       -4    1    3    3    0  502  0.43202260648E+03 -0.40122765306E+03  0.15065762197E+04  0.16178382740E+04  0.12699999809E+01 0.  1.
</event>
<event>
 5   0  0.5940748E-06  0.2614792E+04  0.7818609E-02  0.8363194E-01
        2   -1    0    0  501    0  0.00000000000E+00  0.00000000000E+00  0.19898579613E+04  0.19898579613E+04  0.25500000920E-02 0.  1.
       -2   -1    0    0    0  501  0.00000000000E+00  0.00000000000E+00 -0.85899815649E+03  0.85899815649E+03  0.25500000920E-02 0. -1.
    10030    2    1    2    0    0  0.00000000000E+00  0.00000000000E+00  0.11308598048E+04  0.28488561178E+04  0.26147920150E+04 0.  0.
        1    1    3    3  502    0  0.69625378758E+03  0.30310222786E+03  0.17249548161E+04  0.18847040656E+04  0.50400001928E-02 0.  1.
       -1    1    3    3    0  502 -0.69625378758E+03 -0.30310222786E+03 -0.59409501130E+03  0.96415205219E+03  0.50400001928E-02 0. -1.
</event>
<event>
 5   0  0.2333979E-06  0.2549026E+04  0.7818609E-02  0.8385725E-01
        1   -1    0    0  501    0  0.00000000000E+00  0.00000000000E+00  0.11935627382E+04  0.11935627382E+04  0.50400001928E-02 0. -1.
       -1   -1    0    0    0  501  0.00000000000E+00  0.00000000000E+00 -0.13609535804E+04  0.13609535804E+04  0.50400001928E-02 0.  1.
    10030    2    1    2    0    0  0.00000000000E+00  0.00000000000E+00 -0.16739084226E+03  0.25545163186E+04  0.25490260744E+04 0.  0.
        3    1    3    3  502    0 -0.57650348671E+03  0.34133036344E+03 -0.11702450294E+04  0.13484569427E+04  0.10100000352E+00 0.  1.
       -3    1    3    3    0  502  0.57650348671E+03 -0.34133036344E+03  0.10028541872E+04  0.12060593759E+04  0.10100000352E+00 0. -1.
</event>
<event>
 5   0  0.2456600E-06  0.2634422E+04  0.7818609E-02  0.8356602E-01
       -1   -1    0    0    0  501  0.00000000000E+00  0.00000000000E+00  0.68248853579E+03  0.68248853580E+03  0.50400001928E-02 0.  1.
        1   -1    0    0  501    0  0.00000000000E+00  0.00000000000E+00 -0.25422320249E+04  0.25422320249E+04  0.50400001928E-02 0. -1.
    10030    2    1    2    0    0  0.00000000000E+00  0.00000000000E+00 -0.18597434891E+04  0.32247205607E+04  0.26344215398E+04 0.  0.
        5    1    3    3  502    0  0.73323321529E+03  0.43891591606E+03  0.29709990270E+03  0.90474779445E+03  0.46999998093E+01 0.  1.
       -5    1    3    3    0  502 -0.73323321529E+03 -0.43891591606E+03 -0.21568433918E+04  0.23199727663E+04  0.46999998093E+01 0. -1.
</event>
<event>
 5   0  0.2333979E-06  0.2609437E+04  0.7818609E-02  0.8365003E-01
       -1   -1    0    0    0  501  0.00000000000E+00  0.00000000000E+00  0.79074879338E+03  0.79074879339E+03  0.50400001928E-02 0.  1.
        1   -1    0    0  501    0  0.00000000000E+00  0.00000000000E+00 -0.21527569132E+04  0.21527569133E+04  0.50400001928E-02 0. -1.
    10030    2    1    2    0    0  0.00000000000E+00  0.00000000000E+00 -0.13620081199E+04  0.29435057066E+04  0.26094366684E+04 0.  0.
        3    1    3    3  502    0 -0.73309208265E+03 -0.68075375540E+03 -0.16257465774E+04  0.19089006316E+04  0.10100000352E+00 0. -1.
       -3    1    3    3    0  502  0.73309208265E+03  0.68075375540E+03  0.26373845754E+03  0.10346050751E+04  0.10100000352E+00 0.  1.
</event>
<event>
 5   0  0.2456600E-06  0.2591640E+04  0.7818609E-02  0.8371046E-01
       -1   -1    0    0    0  501  0.00000000000E+00  0.00000000000E+00  0.16495946211E+04  0.16495946211E+04  0.50400001928E-02 0.  1.
        1   -1    0    0  501    0  0.00000000000E+00  0.00000000000E+00 -0.10179165842E+04  0.10179165842E+04  0.50400001928E-02 0. -1.
    10030    2    1    2    0    0  0.00000000000E+00  0.00000000000E+00  0.63167803693E+03  0.26675112053E+04  0.25916401926E+04 0.  0.
        5    1    3    3  502    0  0.81537635241E+03  0.11481381148E+03 -0.71400572547E+03  0.10898839724E+04  0.46999998093E+01 0. -1.
       -5    1    3    3    0  502 -0.81537635241E+03 -0.11481381148E+03  0.13456837624E+04  0.15776272328E+04  0.46999998093E+01 0.  1.
</event>
<event>
 5   0  0.6158063E-06  0.2605870E+04  0.7818609E-02  0.8366210E-01
       -2   -1    0    0    0  501  0.00000000000E+00  0.00000000000E+00  0.14860536770E+04  0.14860536770E+04  0.25500000920E-02 0.  1.
        2   -1    0    0  501    0  0.00000000000E+00  0.00000000000E+00 -0.11423808852E+04  0.11423808852E+04  0.25500000920E-02 0. -1.
    10030    2    1    2    0    0  0.00000000000E+00  0.00000000000E+00  0.34367279181E+03  0.26284345622E+04  0.26058697703E+04 0.  0.
        2    1    3    3  502    0  0.61096426734E+03 -0.56144612867E+03  0.11850948128E+04  0.14467027361E+04  0.25500000920E-02 0.  1.
       -2    1    3    3    0  502 -0.61096426734E+03  0.56144612867E+03 -0.84142202097E+03  0.11817318261E+04  0.25500000920E-02 0. -1.
</event>
<event>
 5   0  0.2333979E-06  0.2630875E+04  0.7818609E-02  0.8357789E-01
       -1   -1    0    0    0  501  0.00000000000E+00  0.00000000000E+00  0.13982072741E+04  0.13982072741E+04  0.50400001928E-02 0. -1.
        1   -1    0    0  501    0  0.00000000000E+00  0.00000000000E+00 -0.12375669964E+04  0.12375669964E+04  0.50400001928E-02 0.  1.
    10030    2    1    2    0    0  0.00000000000E+00  0.00000000000E+00  0.16064027777E+03  0.26357742705E+04  0.26308745136E+04 0.  0.
        3    1    3    3  502    0 -0.23211290224E+03 -0.12356285615E+04  0.46797852763E+03  0.13415134192E+04  0.10100000352E+00 0. -1.
       -3    1    3    3    0  502  0.23211290224E+03  0.12356285615E+04 -0.30733824986E+03  0.12942608513E+04  0.10100000352E+00 0.  1.
</event>
<event>
 5   0  0.5940748E-06  0.2599323E+04  0.7818609E-02  0.8368431E-01
        2   -1    0    0  501    0  0.00000000000E+00  0.00000000000E+00  0.16047013085E+04  0.16047013085E+04  0.25500000920E-02 0. -1.
       -2   -1    0    0    0  501  0.00000000000E+00  0.00000000000E+00 -0.10526073901E+04  0.10526073901E+04  0.25500000920E-02 0.  1.
    10030    2    1    2    0    0  0.00000000000E+00  0.00000000000E+00  0.55209391842E+03  0.26573086986E+04  0.25993233398E+04 0.  0.
        1    1    3    3  502    0  0.60217959395E+03  0.64349331855E+03  0.12525605183E+04  0.15315390189E+04  0.50400001928E-02 0. -1.
       -1    1    3    3    0  502 -0.60217959395E+03 -0.64349331855E+03 -0.70046659984E+03  0.11257696798E+04  0.50400001928E-02 0.  1.
</event>
<event>
 5   0  0.5942229E-06  0.2610286E+04  0.7818609E-02  0.8364716E-01
       -2   -1    0    0    0  501  0.00000000000E+00  0.00000000000E+00  0.10692965564E+04  0.10692965564E+04  0.25500000920E-02 0.  1.
        2   -1    0    0  501    0  0.00000000000E+00  0.00000000000E+00 -0.15930080766E+04  0.15930080766E+04  0.25500000920E-02 0. -1.
    10030    2    1    2    0    0  0.00000000000E+00  0.00000000000E+00 -0.52371152017E+03  0.26623046330E+04  0.26102858469E+04 0.  0.
        4    1    3    3  502    0  0.11602042111E+04  0.44324369512E+03 -0.67091908440E+03  0.14116206344E+04  0.12699999809E+01 0. -1.
       -4    1    3    3    0  502 -0.11602042111E+04 -0.44324369512E+03  0.14720756422E+03  0.12506839987E+04  0.12699999809E+01 0.  1.
</event>
<event>
 5   0  0.2333979E-06  0.2579743E+04  0.7818609E-02  0.8375115E-01
        1   -1    0    0  501    0  0.00000000000E+00  0.00000000000E+00  0.13081148616E+04  0.13081148616E+04  0.50400001928E-02 0.  1.
       -1   -1    0    0    0  501  0.00000000000E+00  0.00000000000E+00 -0.12718825587E+04  0.12718825588E+04  0.50400001928E-02 0. -1.
    10030    2    1    2    0    0  0.00000000000E+00  0.00000000000E+00  0.36232302846E+02  0.25799974204E+04  0.25797429929E+04 0.  0.
        3    1    3    3  502    0 -0.89068465849E+03 -0.62637080768E+03 -0.67340624828E+03  0.12802872861E+04  0.10100000352E+00 0. -1.
       -3    1    3    3    0  502  0.89068465849E+03  0.62637080768E+03  0.70963855113E+03  0.12997101342E+04  0.10100000352E+00 0.  1.
</event>
<event>
 5   0  0.6173140E-06  0.2598865E+04  0.7818609E-02  0.8368587E-01
       -2   -1    0    0    0  501  0.00000000000E+00  0.00000000000E+00  0.70957817867E+03  0.70957817867E+03  0.25500000920E-02 0.  1.
        2   -1    0    0  501    0  0.00000000000E+00  0.00000000000E+00 -0.23796180043E+04  0.23796180043E+04  0.25500000920E-02 0. -1.
    10030    2    1    2    0    0  0.00000000000E+00  0.00000000000E+00 -0.16700398257E+04  0.30891961830E+04  0.25988651442E+04 0.  0.
        3    1    3    3  502    0 -0.22448833138E+03 -0.11191251661E+03  0.68052682956E+03  0.72528352956E+03  0.10100000352E+00 0.  1.
       -3    1    3    3    0  502  0.22448833138E+03  0.11191251661E+03 -0.23505666552E+04  0.23639126534E+04  0.10100000352E+00 0. -1.
</event>
<event>
 5   0  0.5940748E-06  0.2599346E+04  0.7818609E-02  0.8368423E-01
       -2   -1    0    0    0  501  0.00000000000E+00  0.00000000000E+00  0.14144660652E+04  0.14144660652E+04  0.25500000920E-02 0.  1.
        2   -1    0    0  501    0  0.00000000000E+00  0.00000000000E+00 -0.11941958692E+04  0.11941958693E+04  0.25500000920E-02 0. -1.
    10030    2    1    2    0    0  0.00000000000E+00  0.00000000000E+00  0.22027019592E+03  0.26086619344E+04  0.25993457117E+04 0.  0.
        1    1    3    3  502    0 -0.45160484709E+03 -0.44809865811E+03  0.12475152032E+04  0.14003690683E+04  0.50400001928E-02 0.  1.
       -1    1    3    3    0  502  0.45160484709E+03  0.44809865811E+03 -0.10272450073E+04  0.12082928661E+04  0.50400001928E-02 0. -1.
</event>
<event>
 5   0  0.2503292E-06  0.2597407E+04  0.7818609E-02  0.8369082E-01
        1   -1    0    0  501    0  0.00000000000E+00  0.00000000000E+00  0.18584127266E+04  0.18584127266E+04  0.50400001928E-02 0. -1.
       -1   -1    0    0    0  501  0.00000000000E+00  0.00000000000E+00 -0.90756543337E+03  0.90756543339E+03  0.50400001928E-02 0.  1.
    10030    2    1    2    0    0  0.00000000000E+00  0.00000000000E+00  0.95084729324E+03  0.27659781600E+04  0.25974072855E+04 0.  0.
        2    1    3    3  502    0 -0.10842962352E+04  0.63837224592E+03  0.81787409102E+03  0.15007116574E+04  0.25500000920E-02 0. -1.
       -2    1    3    3    0  502  0.10842962352E+04 -0.63837224592E+03  0.13297320222E+03  0.12652665026E+04  0.25500000920E-02 0.  1.
</event>
<event>
 5   0  0.2456600E-06  0.2602530E+04  0.7818609E-02  0.8367342E-01
        1   -1    0    0  501    0  0.00000000000E+00  0.00000000000E+00  0.13363601513E+04  0.13363601513E+04  0.50400001928E-02 0.  1.
       -1   -1    0    0    0  501  0.00000000000E+00  0.00000000000E+00 -0.12670916809E+04  0.12670916809E+04  0.50400001928E-02 0. -1.
    10030    2    1    2    0    0  0.00000000000E+00  0.00000000000E+00  0.69268470407E+02  0.26034518322E+04  0.26025301768E+04 0.  0.
        5    1    3    3  502    0 -0.90232023038E+03  0.61299864696E+03  0.74433568901E+03  0.13206085140E+04  0.46999998093E+01 0.  1.
       -5    1    3    3    0  502  0.90232023038E+03 -0.61299864696E+03 -0.67506721861E+03  0.12828433182E+04  0.46999998093E+01 0. -1.
</event>
<event>
 5   0  0.2440590E-06  0.2602045E+04  0.7818609E-02  0.8367507E-01
       -1   -1    0    0    0  501  0.00000000000E+00  0.00000000000E+00  0.62252457794E+03  0.62252457796E+03  0.50400001928E-02 0. -1.
        1   -1    0    0  501    0  0.00000000000E+00  0.00000000000E+00 -0.27190248225E+04  0.27190248225E+04  0.50400001928E-02 0.  1.
    10030    2    1    2    0    0  0.00000000000E+00  0.00000000000E+00 -0.20965002446E+04  0.33415494005E+04  0.26020451803E+04 0.  0.
        1    1    3    3  502    0  0.68064588852E+03  0.65142296428E+03  0.10397896932E+03  0.94786197837E+03  0.50400001928E-02 0. -1.
       -1    1    3    3    0  502 -0.68064588852E+03 -0.65142296428E+03 -0.22004792139E+04  0.23936874221E+04  0.50400001928E-02 0.  1.
</event>
<event>
 5   0  0.6161834E-06  0.2591886E+04  0.7818609E-02  0.8370963E-01
        2   -1    0    0  501    0  0.00000000000E+00  0.00000000000E+00  0.15319945318E+04  0.15319945318E+04  0.25500000920E-02 0.  1.
       -2   -1    0    0    0  501  0.00000000000E+00  0.00000000000E+00 -0.10962627100E+04  0.10962627100E+04  0.25500000920E-02 0. -1.
    10030    2    1    2    0    0  0.00000000000E+00  0.00000000000E+00  0.43573182181E+03  0.26282572418E+04  0.25918861681E+04 0.  0.
        5    1    3    3  502    0  0.12734450081E+04 -0.16146729760E+03  0.37286905786E+02  0.12841909049E+04  0.46999998093E+01 0. -1.
       -5    1    3    3    0  502 -0.12734450081E+04  0.16146729760E+03  0.39844491603E+03  0.13440663369E+04  0.46999998093E+01 0.  1.
</event>
<event>
 5   0  0.6173140E-06  0.2590419E+04  0.7818609E-02  0.8371463E-01
       -2   -1    0    0    0  501  0.00000000000E+00  0.00000000000E+00  0.73210957428E+03  0.73210957429E+03  0.25500000920E-02 0. -1.
        2   -1    0    0  501    0  0.00000000000E+00  0.00000000000E+00 -0.22914160450E+04  0.22914160450E+04  0.25500000920E-02 0.  1.
    10030    2    1    2    0    0  0.00000000000E+00  0.00000000000E+00 -0.15593064707E+04  0.30235256193E+04  0.25904189817E+04 0.  0.
        3    1    3    3  502    0 -0.12546723469E+04  0.95151250129E+02 -0.11381004206E+04  0.16966228326E+04  0.10100000352E+00 0.  1.
       -3    1    3    3    0  502  0.12546723469E+04 -0.95151250129E+02 -0.42120605013E+03  0.13269027867E+04  0.10100000352E+00 0. -1.
</event>
<event>
 5   0  0.5942229E-06  0.2500364E+04  0.7818609E-02  0.8402856E-01
        2   -1    0    0  501    0  0.00000000000E+00  0.00000000000E+00  0.13046780564E+04  0.13046780564E+04  0.25500000920E-02 0.  1.
       -2   -1    0    0    0  501  0.00000000000E+00  0.00000000000E+00 -0.11979618560E+04  0.11979618560E+04  0.25500000920E-02 0. -1.
    10030    2    1    2    0    0  0.00000000000E+00  0.00000000000E+00  0.10671620046E+03  0.25026399124E+04  0.25003636103E+04 0.  0.
        4    1    3    3  502    0  0.13469906012E+03 -0.92637364714E+03  0.88275049904E+03  0.12866864526E+04  0.12699999809E+01 0.  1.
       -4    1    3    3    0  502 -0.13469906012E+03  0.92637364714E+03 -0.77603429858E+03  0.12159534598E+04  0.12699999809E+01 0. -1.
</event>
<event>
 5   0  0.6173140E-06  0.2603899E+04  0.7818609E-02  0.8366878E-01
        2   -1    0    0  501    0  0.00000000000E+00  0.00000000000E+00  0.21905212585E+04  0.21905212585E+04  0.25500000920E-02 0.  1.
       -2   -1    0    0    0  501  0.00000000000E+00  0.00000000000E+00 -0.77382160167E+03  0.77382160168E+03  0.25500000920E-02 0. -1.
    10030    2    1    2    0    0  0.00000000000E+00  0.00000000000E+00  0.14166996568E+04  0.29643428602E+04  0.26038991292E+04 0.  0.
        3    1    3    3  502    0 -0.85616868164E+03  0.34519955319E+03  0.17535235199E+04  0.19816741124E+04  0.10100000352E+00 0.  1.
       -3    1    3    3    0  502  0.85616868164E+03 -0.34519955319E+03 -0.33682386302E+03  0.98266874777E+03  0.10100000352E+00 0. -1.
</event>
<event>
 5   0  0.2456600E-06  0.2571901E+04  0.7818609E-02  0.8377809E-01
        1   -1    0    0  501    0  0.00000000000E+00  0.00000000000E+00  0.23785943457E+04  0.23785943457E+04  0.50400001928E-02 0.  1.
       -1   -1    0    0    0  501  0.00000000000E+00  0.00000000000E+00 -0.69522923673E+03  0.69522923674E+03  0.50400001928E-02 0. -1.
    10030    2    1    2    0    0  0.00000000000E+00  0.00000000000E+00  0.16833651090E+04  0.30738235825E+04  0.25719007224E+04 0.  0.
        5    1    3    3  502    0 -0.60786717601E+03 -0.35689881051E+03  0.21271103266E+04  0.22408702988E+04  0.46999998093E+01 0.  1.
       -5    1    3    3    0  502  0.60786717601E+03  0.35689881051E+03 -0.44374521760E+03  0.83295328366E+03  0.46999998093E+01 0. -1.
</event>
<event>
 5   0  0.2471488E-06  0.2610046E+04  0.7818609E-02  0.8364797E-01
       -1   -1    0    0    0  501  0.00000000000E+00  0.00000000000E+00  0.22694312389E+04  0.22694312389E+04  0.50400001928E-02 0. -1.
        1   -1    0    0  501    0  0.00000000000E+00  0.00000000000E+00 -0.75044573539E+03  0.75044573541E+03  0.50400001928E-02 0.  1.
    10030    2    1    2    0    0  0.00000000000E+00  0.00000000000E+00  0.15189855035E+04  0.30198769744E+04  0.26100459728E+04 0.  0.
        4    1    3    3  502    0  0.19794928536E+02 -0.43431287488E+03 -0.66418989592E+03  0.79383206236E+03  0.12699999809E+01 0.  1.
       -4    1    3    3    0  502 -0.19794928536E+02  0.43431287488E+03  0.21831753995E+04  0.22260449120E+04  0.12699999809E+01 0. -1.
</event>
<event>
 5   0  0.2456600E-06  0.2597120E+04  0.7818609E-02  0.8369180E-01
       -1   -1    0    0    0  501  0.00000000000E+00  0.00000000000E+00  0.76357736370E+03  0.76357736372E+03  0.50400001928E-02 0.  1.
        1   -1    0    0  501    0  0.00000000000E+00  0.00000000000E+00 -0.22083661657E+04  0.22083661657E+04  0.50400001928E-02 0. -1.
    10030    2    1    2    0    0  0.00000000000E+00  0.00000000000E+00 -0.14447888020E+04  0.29719435294E+04  0.25971202629E+04 0.  0.
        5    1    3    3  502    0  0.73772244562E+03 -0.74429131970E+03 -0.15998983948E+04  0.19125639699E+04  0.46999998093E+01 0. -1.
       -5    1    3    3    0  502 -0.73772244562E+03  0.74429131970E+03  0.15510959279E+03  0.10593795595E+04  0.46999998093E+01 0.  1.
</event>
<event>
 5   0  0.2471488E-06  0.2610559E+04  0.7818609E-02  0.8364623E-01
       -1   -1    0    0    0  501  0.00000000000E+00  0.00000000000E+00  0.18631939550E+04  0.18631939550E+04  0.50400001928E-02 0.  1.
        1   -1    0    0  501    0  0.00000000000E+00  0.00000000000E+00 -0.91442717237E+03  0.91442717239E+03  0.50400001928E-02 0. -1.
    10030    2    1    2    0    0  0.00000000000E+00  0.00000000000E+00  0.94876678262E+03  0.27776211274E+04  0.26105594648E+04 0.  0.
        4    1    3    3  502    0  0.17574686304E+03 -0.90798830108E+03  0.14544280169E+04  0.17235696052E+04  0.12699999809E+01 0.  1.
       -4    1    3    3    0  502 -0.17574686304E+03  0.90798830108E+03 -0.50566123424E+03  0.10540515222E+04  0.12699999809E+01 0. -1.
</event>
<event>
 5   0  0.6173140E-06  0.2597755E+04  0.7818609E-02  0.8368964E-01
       -2   -1    0    0    0  501  0.00000000000E+00  0.00000000000E+00  0.15017048916E+04  0.15017048916E+04  0.25500000920E-02 0.  1.
        2   -1    0    0  501    0  0.00000000000E+00  0.00000000000E+00 -0.11234448919E+04  0.11234448920E+04  0.25500000920E-02 0. -1.
    10030    2    1    2    0    0  0.00000000000E+00  0.00000000000E+00  0.37825999968E+03  0.26251497836E+04  0.25977549459E+04 0.  0.
        3    1    3    3  502    0  0.10984339451E+04 -0.39717375242E+03 -0.38499736368E+03  0.12298484060E+04  0.10100000352E+00 0. -1.
       -3    1    3    3    0  502 -0.10984339451E+04  0.39717375242E+03  0.76325736336E+03  0.13953013776E+04  0.10100000352E+00 0.  1.
</event>
<event>
 5   0  0.2333979E-06  0.2618331E+04  0.7818609E-02  0.8362001E-01
       -1   -1    0    0    0  501  0.00000000000E+00  0.00000000000E+00  0.15244687773E+04  0.15244687773E+04  0.50400001928E-02 0.  1.
        1   -1    0    0  501    0  0.00000000000E+00  0.00000000000E+00 -0.11242694434E+04  0.11242694434E+04  0.50400001928E-02 0. -1.
    10030    2    1    2    0    0  0.00000000000E+00  0.00000000000E+00  0.40019933392E+03  0.26487382207E+04  0.26183305091E+04 0.  0.
        3    1    3    3  502    0  0.14709628078E+03 -0.58301975666E+03  0.13765170175E+04  0.15021146635E+04  0.10100000352E+00 0.  1.
       -3    1    3    3    0  502 -0.14709628078E+03  0.58301975666E+03 -0.97631768360E+03  0.11466235572E+04  0.10100000352E+00 0. -1.
</event>
<event>
 5   0  0.6161834E-06  0.2591254E+04  0.7818609E-02  0.8371178E-01
        2   -1    0    0  501    0  0.00000000000E+00  0.00000000000E+00  0.10900530668E+04  0.10900530668E+04  0.25500000920E-02 0. -1.
       -2   -1    0    0    0  501  0.00000000000E+00  0.00000000000E+00 -0.15399707324E+04  0.15399707324E+04  0.25500000920E-02 0.  1.
    10030    2    1    2    0    0  0.00000000000E+00  0.00000000000E+00 -0.44991766559E+03  0.26300237991E+04  0.25912543831E+04 0.  0.
        5    1    3    3  502    0 -0.10394630841E+04 -0.28384864360E+03  0.50523124556E+03  0.11900984233E+04  0.46999998093E+01 0. -1.
       -5    1    3    3    0  502  0.10394630841E+04  0.28384864360E+03 -0.95514891114E+03  0.14399253759E+04  0.46999998093E+01 0.  1.
</event>
<event>
 5   0  0.6173140E-06  0.2597469E+04  0.7818609E-02  0.8369061E-01
        2   -1    0    0  501    0  0.00000000000E+00  0.00000000000E+00  0.15344385510E+04  0.15344385510E+04  0.25500000920E-02 0. -1.
       -2   -1    0    0    0  501  0.00000000000E+00  0.00000000000E+00 -0.10992372090E+04  0.10992372090E+04  0.25500000920E-02 0.  1.
    10030    2    1    2    0    0  0.00000000000E+00  0.00000000000E+00  0.43520134195E+03  0.26336757600E+04  0.25974694995E+04 0.  0.
        3    1    3    3  502    0 -0.63560613448E+03  0.46867180884E+03 -0.82782090015E+03  0.11440873548E+04  0.10100000352E+00 0.  1.
       -3    1    3    3    0  502  0.63560613448E+03 -0.46867180884E+03  0.12630222421E+04  0.14895884052E+04  0.10100000352E+00 0. -1.
</event>
<event>
 5   0  0.2333979E-06  0.2611515E+04  0.7818609E-02  0.8364300E-01
       -1   -1    0    0    0  501  0.00000000000E+00  0.00000000000E+00  0.73804813002E+03  0.73804813003E+03  0.50400001928E-02 0. -1.
        1   -1    0    0  501    0  0.00000000000E+00  0.00000000000E+00 -0.23101516108E+04  0.23101516108E+04  0.50400001928E-02 0.  1.
    10030    2    1    2    0    0  0.00000000000E+00  0.00000000000E+00 -0.15721034808E+04  0.30481997408E+04  0.26115153275E+04 0.  0.
        3    1    3    3  502    0  0.11122881236E+04  0.67153806202E+03 -0.63451672408E+03  0.14459459609E+04  0.10100000352E+00 0. -1.
       -3    1    3    3    0  502 -0.11122881236E+04 -0.67153806202E+03 -0.93758675671E+03  0.16022537799E+04  0.10100000352E+00 0.  1.
</event>
<event>
 5   0  0.5942229E-06  0.2587287E+04  0.7818609E-02  0.8372532E-01
       -2   -1    0    0    0  501  0.00000000000E+00  0.00000000000E+00  0.31929031914E+04  0.31929031914E+04  0.25500000920E-02 0.  1.
        2   -1    0    0  501    0  0.00000000000E+00  0.00000000000E+00 -0.52413540120E+03  0.52413540120E+03  0.25500000920E-02 0. -1.
    10030    2    1    2    0    0  0.00000000000E+00  0.00000000000E+00  0.26687677902E+04  0.37170385926E+04  0.25872870697E+04 0.  0.
        4    1    3    3  502    0 -0.10035350620E+04  0.23865123860E+03  0.24559642187E+04  0.26637940781E+04  0.12699999809E+01 0.  1.
       -4    1    3    3    0  502  0.10035350620E+04 -0.23865123860E+03  0.21280357147E+03  0.10532445144E+04  0.12699999809E+01 0. -1.
</event>
<event>
 5   0  0.6161834E-06  0.2602928E+04  0.7818609E-02  0.8367207E-01
       -2   -1    0    0    0  501  0.00000000000E+00  0.00000000000E+00  0.83791241775E+03  0.83791241775E+03  0.25500000920E-02 0. -1.
        2   -1    0    0  501    0  0.00000000000E+00  0.00000000000E+00 -0.20214622811E+04  0.20214622811E+04  0.25500000920E-02 0.  1.
    10030    2    1    2    0    0  0.00000000000E+00  0.00000000000E+00 -0.11835498634E+04  0.28593746989E+04  0.26029278495E+04 0.  0.
        5    1    3    3  502    0 -0.70641591039E+03 -0.41157756539E+03  0.52059323045E+03  0.96925689699E+03  0.46999998093E+01 0. -1.
       -5    1    3    3    0  502  0.70641591039E+03  0.41157756539E+03 -0.17041430938E+04  0.18901178019E+04  0.46999998093E+01 0.  1.
</event>
<event>
 5   0  0.2503292E-06  0.2601825E+04  0.7818609E-02  0.8367582E-01
       -1   -1    0    0    0  501  0.00000000000E+00  0.00000000000E+00  0.87679042901E+03  0.87679042902E+03  0.50400001928E-02 0. -1.
        1   -1    0    0  501    0  0.00000000000E+00  0.00000000000E+00 -0.19301915469E+04  0.19301915469E+04  0.50400001928E-02 0.  1.
    10030    2    1    2    0    0  0.00000000000E+00  0.00000000000E+00 -0.10534011179E+04  0.28069819759E+04  0.26018251090E+04 0.  0.
        2    1    3    3  502    0  0.93175599637E+03 -0.90234204793E+03 -0.63449428910E+03  0.14439437008E+04  0.25500000920E-02 0. -1.
       -2    1    3    3    0  502 -0.93175599637E+03  0.90234204793E+03 -0.41890682880E+03  0.13630382751E+04  0.25500000920E-02 0.  1.
</event>
<event>
 5   0  0.2471488E-06  0.2604009E+04  0.7818609E-02  0.8366841E-01
       -1   -1    0    0    0  501  0.00000000000E+00  0.00000000000E+00  0.81487314862E+03  0.81487314864E+03  0.50400001928E-02 0. -1.
        1   -1    0    0  501    0  0.00000000000E+00  0.00000000000E+00 -0.20803432825E+04  0.20803432825E+04  0.50400001928E-02 0.  1.
    10030    2    1    2    0    0  0.00000000000E+00  0.00000000000E+00 -0.12654701339E+04  0.28952164312E+04  0.26040091251E+04 0.  0.
        4    1    3    3  502    0 -0.11462526939E+04 -0.14696709965E+02  0.53637216149E+02  0.11476017582E+04  0.12699999809E+01 0. -1.
       -4    1    3    3    0  502  0.11462526939E+04  0.14696709965E+02 -0.13191073500E+04  0.17476146730E+04  0.12699999809E+01 0.  1.
</event>
<event>
 5   0  0.2333979E-06  0.2641071E+04  0.7818609E-02  0.8354383E-01
        1   -1    0    0  501    0  0.00000000000E+00  0.00000000000E+00  0.21724239574E+04  0.21724239574E+04  0.50400001928E-02 0. -1.
       -1   -1    0    0    0  501  0.00000000000E+00  0.00000000000E+00 -0.80270417963E+03  0.80270417964E+03  0.50400001928E-02 0.  1.
    10030    2    1    2    0    0  0.00000000000E+00  0.00000000000E+00  0.13697197778E+04  0.29751281371E+04  0.26410708363E+04 0.  0.
        3    1    3    3  502    0  0.12438285925E+04  0.41660082677E+03  0.85624852540E+03  0.15664697137E+04  0.10100000352E+00 0. -1.
       -3    1    3    3    0  502 -0.12438285925E+04 -0.41660082677E+03  0.51347125240E+03  0.14086584234E+04  0.10100000352E+00 0.  1.
</event>
<event>
 5   0  0.2456600E-06  0.2599279E+04  0.7818609E-02  0.8368446E-01
       -1   -1    0    0    0  501  0.00000000000E+00  0.00000000000E+00  0.26140896966E+04  0.26140896966E+04  0.50400001928E-02 0.  1.
        1   -1    0    0  501    0  0.00000000000E+00  0.00000000000E+00 -0.64613807037E+03  0.64613807039E+03  0.50400001928E-02 0. -1.
    10030    2    1    2    0    0  0.00000000000E+00  0.00000000000E+00  0.19679516262E+04  0.32602277670E+04  0.25992790326E+04 0.  0.
        5    1    3    3  502    0  0.84957612782E+03  0.48287130514E+03 -0.90685491816E+02  0.98142256073E+03  0.46999998093E+01 0. -1.
       -5    1    3    3    0  502 -0.84957612782E+03 -0.48287130514E+03  0.20586371180E+04  0.22788052063E+04  0.46999998093E+01 0.  1.
</event>
<event>
 5   0  0.5940748E-06  0.2609329E+04  0.7818609E-02  0.8365039E-01
        2   -1    0    0  501    0  0.00000000000E+00  0.00000000000E+00  0.17084348045E+04  0.17084348045E+04  0.25500000920E-02 0. -1.
       -2   -1    0    0    0  501  0.00000000000E+00  0.00000000000E+00 -0.99632085757E+03  0.99632085757E+03  0.25500000920E-02 0.  1.
    10030    2    1    2    0    0  0.00000000000E+00  0.00000000000E+00  0.71211394698E+03  0.27047556621E+04  0.26093288253E+04 0.  0.
        1    1    3    3  502    0 -0.95675550485E+03 -0.88328428246E+03  0.44012163576E+03  0.13745105580E+04  0.50400001928E-02 0.  1.
       -1    1    3    3    0  502  0.95675550485E+03  0.88328428246E+03  0.27199231122E+03  0.13302451041E+04  0.50400001928E-02 0. -1.
</event>
<event>
 5   0  0.2440590E-06  0.2599414E+04  0.7818609E-02  0.8368400E-01
       -1   -1    0    0    0  501  0.00000000000E+00  0.00000000000E+00  0.72222978741E+03  0.72222978743E+03  0.50400001928E-02 0. -1.
        1   -1    0    0  501    0  0.00000000000E+00  0.00000000000E+00 -0.23389212789E+04  0.23389212789E+04  0.50400001928E-02 0.  1.
    10030    2    1    2    0    0  0.00000000000E+00  0.00000000000E+00 -0.16166914915E+04  0.30611510663E+04  0.25994142556E+04 0.  0.
        1    1    3    3  502    0  0.74294583932E+01  0.12705092989E+04 -0.48586067176E+03  0.13602608823E+04  0.50400001928E-02 0.  1.
       -1    1    3    3    0  502 -0.74294583932E+01 -0.12705092989E+04 -0.11308308197E+04  0.17008901841E+04  0.50400001928E-02 0. -1.
</event>
<event>
 5   0  0.5940748E-06  0.2614209E+04  0.7818609E-02  0.8363391E-01
       -2   -1    0    0    0  501  0.00000000000E+00  0.00000000000E+00  0.13767173274E+04  0.13767173274E+04  0.25500000920E-02 0.  1.
        2   -1    0    0  501    0  0.00000000000E+00  0.00000000000E+00 -0.12410116726E+04  0.12410116726E+04  0.25500000920E-02 0. -1.
    10030    2    1    2    0    0  0.00000000000E+00  0.00000000000E+00  0.13570565486E+03  0.26177290000E+04  0.26142090760E+04 0.  0.
        1    1    3    3  502    0  0.12110809734E+04 -0.48496334561E+03  0.14929931327E+03  0.13130867662E+04  0.50400001928E-02 0. -1.
       -1    1    3    3    0  502 -0.12110809734E+04  0.48496334561E+03 -0.13593658416E+02  0.13046422338E+04  0.50400001928E-02 0.  1.
</event>
<event>
 5   0  0.2333979E-06  0.2602233E+04  0.7818609E-02  0.8367443E-01
       -1   -1    0    0    0  501  0.00000000000E+00  0.00000000000E+00  0.10985094005E+04  0.10985094005E+04  0.50400001928E-02 0.  1.
        1   -1    0    0  501    0  0.00000000000E+00  0.00000000000E+00 -0.15410925820E+04  0.15410925820E+04  0.50400001928E-02 0. -1.
    10030    2    1    2    0    0  0.00000000000E+00  0.00000000000E+00 -0.44258318153E+03  0.26396019824E+04  0.26022334164E+04 0.  0.
        3    1    3    3  502    0 -0.72022830198E+03 -0.55116668285E+03 -0.11676364599E+04  0.14784750359E+04  0.10100000352E+00 0.  1.
       -3    1    3    3    0  502  0.72022830198E+03  0.55116668285E+03  0.72505327835E+03  0.11611269465E+04  0.10100000352E+00 0. -1.
</event>
<event>
 5   0  0.2503292E-06  0.2599408E+04  0.7818609E-02  0.8368402E-01
       -1   -1    0    0    0  501  0.00000000000E+00  0.00000000000E+00  0.80748447255E+03  0.80748447257E+03  0.50400001928E-02 0.  1.
        1   -1    0    0  501    0  0.00000000000E+00  0.00000000000E+00 -0.20919672795E+04  0.20919672795E+04  0.50400001928E-02 0. -1.
    10030    2    1    2    0    0  0.00000000000E+00  0.00000000000E+00 -0.12844828070E+04  0.28994517521E+04  0.25994084676E+04 0.  0.
        2    1    3    3  502    0 -0.79825898908E+03  0.46203318851E+03 -0.16636581967E+04  0.19022225623E+04  0.25500000920E-02 0. -1.
       -2    1    3    3    0  502  0.79825898908E+03 -0.46203318851E+03  0.37917538971E+03  0.99722918985E+03  0.25500000920E-02 0.  1.
</event>
<event>
 5   0  0.2456600E-06  0.2576878E+04  0.7818609E-02  0.8376098E-01
        1   -1    0    0  501    0  0.00000000000E+00  0.00000000000E+00  0.16214318872E+04  0.16214318872E+04  0.50400001928E-02 0.  1.
       -1   -1    0    0    0  501  0.00000000000E+00  0.00000000000E+00 -0.10238324211E+04  0.10238324211E+04  0.50400001928E-02 0. -1.
    10030    2    1    2    0    0  0.00000000000E+00  0.00000000000E+00  0.59759946609E+03  0.26452643083E+04  0.25768775949E+04 0.  0.
        5    1    3    3  502    0 -0.88361229866E+02  0.10405252829E+04 -0.47591519598E+03  0.11476140184E+04  0.46999998093E+01 0. -1.
       -5    1    3    3    0  502  0.88361229866E+02 -0.10405252829E+04  0.10735146621E+04  0.14976502900E+04  0.46999998093E+01 0.  1.
</event>
<event>
 5   0  0.6161834E-06  0.2602708E+04  0.7818609E-02  0.8367282E-01
        2   -1    0    0  501    0  0.00000000000E+00  0.00000000000E+00  0.14648308181E+04  0.14648308181E+04  0.25500000920E-02 0. -1.
       -2   -1    0    0    0  501  0.00000000000E+00  0.00000000000E+00 -0.11561212811E+04  0.11561212811E+04  0.25500000920E-02 0.  1.
    10030    2    1    2    0    0  0.00000000000E+00  0.00000000000E+00  0.30870953705E+03  0.26209520992E+04  0.26027078837E+04 0.  0.
        5    1    3    3  502    0  0.93959178881E+03 -0.29911521437E+03  0.10095410345E+04  0.14112043904E+04  0.46999998093E+01 0. -1.
       -5    1    3    3    0  502 -0.93959178881E+03  0.29911521437E+03 -0.70083149747E+03  0.12097477088E+04  0.46999998093E+01 0.  1.
</event>
<event>
 5   0  0.6161834E-06  0.2599767E+04  0.7818609E-02  0.8368280E-01
        2   -1    0    0  501    0  0.00000000000E+00  0.00000000000E+00  0.17717525950E+04  0.17717525950E+04  0.25500000920E-02 0. -1.
       -2   -1    0    0    0  501  0.00000000000E+00  0.00000000000E+00 -0.95368684375E+03  0.95368684375E+03  0.25500000920E-02 0.  1.
    10030    2    1    2    0    0  0.00000000000E+00  0.00000000000E+00  0.81806575122E+03  0.27254394387E+04  0.25997670205E+04 0.  0.
        5    1    3    3  502    0  0.29584519755E+03  0.92059749351E+03  0.13197325055E+04  0.16360746016E+04  0.46999998093E+01 0. -1.
       -5    1    3    3    0  502 -0.29584519755E+03 -0.92059749351E+03 -0.50166675428E+03  0.10893648371E+04  0.46999998093E+01 0.  1.
</event>
<event>
 5   0  0.6161834E-06  0.2599373E+04  0.7818609E-02  0.8368414E-01
       -2   -1    0    0    0  501  0.00000000000E+00  0.00000000000E+00  0.89957928908E+03  0.89957928908E+03  0.25500000920E-02 0. -1.
        2   -1    0    0  501    0  0.00000000000E+00  0.00000000000E+00 -0.18777494892E+04  0.18777494892E+04  0.25500000920E-02 0.  1.
    10030    2    1    2    0    0  0.00000000000E+00  0.00000000000E+00 -0.97817020008E+03  0.27773287782E+04  0.25993726555E+04 0.  0.
        5    1    3    3  502    0  0.36864568338E+03  0.73958709767E+03 -0.15608926678E+04  0.17661530866E+04  0.46999998093E+01 0.  1.
       -5    1    3    3    0  502 -0.36864568338E+03 -0.73958709767E+03  0.58272246774E+03  0.10111756916E+04  0.46999998093E+01 0. -1.
</event>
<event>
 5   0  0.2471488E-06  0.2620943E+04  0.7818609E-02  0.8361122E-01
       -1   -1    0    0    0  501  0.00000000000E+00  0.00000000000E+00  0.82235815840E+03  0.82235815841E+03  0.50400001928E-02 0.  1.
        1   -1    0    0  501    0  0.00000000000E+00  0.00000000000E+00 -0.20883068193E+04  0.20883068193E+04  0.50400001928E-02 0. -1.
    10030    2    1    2    0    0  0.00000000000E+00  0.00000000000E+00 -0.12659486609E+04  0.29106649777E+04  0.26209434562E+04 0.  0.
        4    1    3    3  502    0 -0.42165346304E+02  0.10735903172E+04 -0.14662208569E+04  0.18177401628E+04  0.12699999809E+01 0. -1.
       -4    1    3    3    0  502  0.42165346304E+02 -0.10735903172E+04  0.20027219597E+03  0.10929248149E+04  0.12699999809E+01 0.  1.
</event>
<event>
 5   0  0.6158063E-06  0.2597447E+04  0.7818609E-02  0.8369069E-01
       -2   -1    0    0    0  501  0.00000000000E+00  0.00000000000E+00  0.12188814939E+04  0.12188814939E+04  0.25500000920E-02 0. -1.
        2   -1    0    0  501    0  0.00000000000E+00  0.00000000000E+00 -0.13837953446E+04  0.13837953446E+04  0.25500000920E-02 0.  1.
    10030    2    1    2    0    0  0.00000000000E+00  0.00000000000E+00 -0.16491385073E+03  0.26026768385E+04  0.25974468517E+04 0.  0.
        2    1    3    3  502    0 -0.80564376817E+03  0.28658184820E+03 -0.10619175720E+04  0.13634001491E+04  0.25500000920E-02 0.  1.
       -2    1    3    3    0  502  0.80564376817E+03 -0.28658184820E+03  0.89700372126E+03  0.12392766894E+04  0.25500000920E-02 0. -1.
</event>
<event>
 5   0  0.6173140E-06  0.2714015E+04  0.7818609E-02  0.8330472E-01
       -2   -1    0    0    0  501  0.00000000000E+00  0.00000000000E+00  0.10855070826E+04  0.10855070827E+04  0.25500000920E-02 0.  1.
        2   -1    0    0  501    0  0.00000000000E+00  0.00000000000E+00 -0.16964140013E+04  0.16964140013E+04  0.25500000920E-02 0. -1.
    10030    2    1    2    0    0  0.00000000000E+00  0.00000000000E+00 -0.61090691867E+03  0.27819210840E+04  0.27140150431E+04 0.  0.
        3    1    3    3  502    0  0.34082036013E+03  0.12869136982E+04 -0.35882772058E+02  0.13317631051E+04  0.10100000352E+00 0.  1.
       -3    1    3    3    0  502 -0.34082036013E+03 -0.12869136982E+04 -0.57502414661E+03  0.14501579789E+04  0.10100000352E+00 0. -1.
</event>
<event>
 5   0  0.2440590E-06  0.2602015E+04  0.7818609E-02  0.8367517E-01
        1   -1    0    0  501    0  0.00000000000E+00  0.00000000000E+00  0.14319777999E+04  0.14319778000E+04  0.50400001928E-02 0. -1.
       -1   -1    0    0    0  501  0.00000000000E+00  0.00000000000E+00 -0.11820156397E+04  0.11820156397E+04  0.50400001928E-02 0.  1.
    10030    2    1    2    0    0  0.00000000000E+00  0.00000000000E+00  0.24996216026E+03  0.26139934397E+04  0.26020147234E+04 0.  0.
        1    1    3    3  502    0 -0.16215182697E+03 -0.61873488577E+03 -0.10131484159E+04  0.11981635058E+04  0.50400001928E-02 0.  1.
       -1    1    3    3    0  502  0.16215182697E+03  0.61873488577E+03  0.12631105762E+04  0.14158299339E+04  0.50400001928E-02 0. -1.
</event>
<event>
 5   0  0.6173140E-06  0.2581489E+04  0.7818609E-02  0.8374516E-01
       -2   -1    0    0    0  501  0.00000000000E+00  0.00000000000E+00  0.64680737597E+03  0.64680737597E+03  0.25500000920E-02 0. -1.
        2   -1    0    0  501    0  0.00000000000E+00  0.00000000000E+00 -0.25757617837E+04  0.25757617837E+04  0.25500000920E-02 0.  1.
    10030    2    1    2    0    0  0.00000000000E+00  0.00000000000E+00 -0.19289544078E+04  0.32225691597E+04  0.25814892760E+04 0.  0.
        3    1    3    3  502    0 -0.10730143631E+04 -0.59938977666E+03 -0.47238244408E+03  0.13167281843E+04  0.10100000352E+00 0. -1.
       -3    1    3    3    0  502  0.10730143631E+04  0.59938977666E+03 -0.14565719637E+04  0.19058409754E+04  0.10100000352E+00 0.  1.
</event>
<event>
 5   0  0.2471488E-06  0.2593450E+04  0.7818609E-02  0.8370429E-01
       -1   -1    0    0    0  501  0.00000000000E+00  0.00000000000E+00  0.12461699815E+04  0.12461699815E+04  0.50400001928E-02 0.  1.
        1   -1    0    0  501    0  0.00000000000E+00  0.00000000000E+00 -0.13493310847E+04  0.13493310847E+04  0.50400001928E-02 0. -1.
    10030    2    1    2    0    0  0.00000000000E+00  0.00000000000E+00 -0.10316110320E+03  0.25955010662E+04  0.25934501289E+04 0.  0.
        4    1    3    3  502    0  0.18492084451E+03 -0.11519592016E+04 -0.61796852535E+03  0.13202622588E+04  0.12699999809E+01 0. -1.
       -4    1    3    3    0  502 -0.18492084451E+03  0.11519592016E+04  0.51480742215E+03  0.12752388073E+04  0.12699999809E+01 0.  1.
</event>
<event>
 5   0  0.6161834E-06  0.2626465E+04  0.7818609E-02  0.8359267E-01
        2   -1    0    0  501    0  0.00000000000E+00  0.00000000000E+00  0.17733229164E+04  0.17733229164E+04  0.25500000920E-02 0.  1.
       -2   -1    0    0    0  501  0.00000000000E+00  0.00000000000E+00 -0.97251296921E+03  0.97251296921E+03  0.25500000920E-02 0. -1.
    10030    2    1    2    0    0  0.00000000000E+00  0.00000000000E+00  0.80080994715E+03  0.27458358856E+04  0.26264649510E+04 0.  0.
        5    1    3    3  502    0  0.12755950396E+03 -0.13065010007E+04  0.36211878540E+03  0.13617519585E+04  0.46999998093E+01 0. -1.
       -5    1    3    3    0  502 -0.12755950396E+03  0.13065010007E+04  0.43869116175E+03  0.13840839271E+04  0.46999998093E+01 0.  1.
</event>
<event>
 5   0  0.2333979E-06  0.2580283E+04  0.7818609E-02  0.8374930E-01
        1   -1    0    0  501    0  0.00000000000E+00  0.00000000000E+00  0.12072818101E+04  0.12072818101E+04  0.50400001928E-02 0.  1.
       -1   -1    0    0    0  501  0.00000000000E+00  0.00000000000E+00 -0.13786877642E+04  0.13786877642E+04  0.50400001928E-02 0. -1.
    10030    2    1    2    0    0  0.00000000000E+00  0.00000000000E+00 -0.17140595414E+03  0.25859695743E+04  0.25802826663E+04 0.  0.
        3    1    3    3  502    0 -0.85939430278E+03 -0.11108946724E+03  0.87220966002E+03  0.12294914146E+04  0.10100000352E+00 0.  1.
       -3    1    3    3    0  502  0.85939430278E+03  0.11108946724E+03 -0.10436156142E+04  0.13564781597E+04  0.10100000352E+00 0. -1.
</event>
<event>
 5   0  0.6158063E-06  0.2583443E+04  0.7818609E-02  0.8373847E-01
       -2   -1    0    0    0  501  0.00000000000E+00  0.00000000000E+00  0.97731002234E+03  0.97731002234E+03  0.25500000920E-02 0.  1.
        2   -1    0    0  501    0  0.00000000000E+00  0.00000000000E+00 -0.17072821002E+04  0.17072821002E+04  0.25500000920E-02 0. -1.
    10030    2    1    2    0    0  0.00000000000E+00  0.00000000000E+00 -0.72997207782E+03  0.26845921225E+04  0.25834425927E+04 0.  0.
        2    1    3    3  502    0  0.77683567364E+02  0.38221635836E+03 -0.16446302108E+04  0.16902463168E+04  0.25500000920E-02 0. -1.
       -2    1    3    3    0  502 -0.77683567364E+02 -0.38221635836E+03  0.91465813293E+03  0.99434580573E+03  0.25500000920E-02 0.  1.
</event>
<event>
 5   0  0.2456600E-06  0.2591106E+04  0.7818609E-02  0.8371229E-01
       -1   -1    0    0    0  501  0.00000000000E+00  0.00000000000E+00  0.13124881128E+04  0.13124881128E+04  0.50400001928E-02 0.  1.
        1   -1    0    0  501    0  0.00000000000E+00  0.00000000000E+00 -0.12788364522E+04  0.12788364522E+04  0.50400001928E-02 0. -1.
    10030    2    1    2    0    0  0.00000000000E+00  0.00000000000E+00  0.33651660621E+02  0.25913245650E+04  0.25911060509E+04 0.  0.
        5    1    3    3  502    0 -0.41394279376E+03  0.53358984322E+03  0.11225269534E+04  0.13100212244E+04  0.46999998093E+01 0.  1.
       -5    1    3    3    0  502  0.41394279376E+03 -0.53358984322E+03 -0.10888752928E+04  0.12813033406E+04  0.46999998093E+01 0. -1.
</event>
<event>
 5   0  0.2503292E-06  0.2598778E+04  0.7818609E-02  0.8368616E-01
       -1   -1    0    0    0  501  0.00000000000E+00  0.00000000000E+00  0.11192428067E+04  0.11192428067E+04  0.50400001928E-02 0.  1.
        1   -1    0    0  501    0  0.00000000000E+00  0.00000000000E+00 -0.15085307164E+04  0.15085307164E+04  0.50400001928E-02 0. -1.
    10030    2    1    2    0    0  0.00000000000E+00  0.00000000000E+00 -0.38928790971E+03  0.26277735232E+04  0.25987782923E+04 0.  0.
        2    1    3    3  502    0  0.10795565477E+04 -0.69608682470E+03  0.35865739046E+01  0.12845201714E+04  0.25500000920E-02 0.  1.
       -2    1    3    3    0  502 -0.10795565477E+04  0.69608682470E+03 -0.39287448361E+03  0.13432533518E+04  0.25500000920E-02 0. -1.
</event>
<event>
 5   0  0.2456600E-06  0.2593287E+04  0.7818609E-02  0.8370485E-01
       -1   -1    0    0    0  501  0.00000000000E+00  0.00000000000E+00  0.12279460898E+04  0.12279460898E+04  0.50400001928E-02 0.  1.
        1   -1    0    0  501    0  0.00000000000E+00  0.00000000000E+00 -0.13691844032E+04  0.13691844032E+04  0.50400001928E-02 0. -1.
    10030    2    1    2    0    0  0.00000000000E+00  0.00000000000E+00 -0.14123831338E+03  0.25971304930E+04  0.25932872067E+04 0.  0.
        5    1    3    3  502    0  0.10489456046E+04 -0.29311989403E+03  0.63402602919E+03  0.12602449165E+04  0.46999998093E+01 0.  1.
       -5    1    3    3    0  502 -0.10489456046E+04  0.29311989403E+03 -0.77526434258E+03  0.13368855765E+04  0.46999998093E+01 0. -1.
</event>
<event>
 5   0  0.6161834E-06  0.2611039E+04  0.7818609E-02  0.8364461E-01
        2   -1    0    0  501    0  0.00000000000E+00  0.00000000000E+00  0.19015874632E+04  0.19015874632E+04  0.25500000920E-02 0.  1.
       -2   -1    0    0    0  501  0.00000000000E+00  0.00000000000E+00 -0.89629384296E+03  0.89629384296E+03  0.25500000920E-02 0. -1.
    10030    2    1    2    0    0  0.00000000000E+00  0.00000000000E+00  0.10052936202E+04  0.27978813061E+04  0.26110389772E+04 0.  0.
        5    1    3    3  502    0  0.83037592448E+03  0.91388861415E+03  0.48474721808E+02  0.12357542084E+04  0.46999998093E+01 0. -1.
       -5    1    3    3    0  502 -0.83037592448E+03 -0.91388861415E+03  0.95681889842E+03  0.15621270977E+04  0.46999998093E+01 0.  1.
</event>
<event>
 5   0  0.2456600E-06  0.2590183E+04  0.7818609E-02  0.8371544E-01
       -1   -1    0    0    0  501  0.00000000000E+00  0.00000000000E+00  0.13017208014E+04  0.13017208014E+04  0.50400001928E-02 0. -1.
        1   -1    0    0  501    0  0.00000000000E+00  0.00000000000E+00 -0.12884955090E+04  0.12884955090E+04  0.50400001928E-02 0.  1.
    10030    2    1    2    0    0  0.00000000000E+00  0.00000000000E+00  0.13225292397E+02  0.25902163104E+04  0.25901825469E+04 0.  0.
        5    1    3    3  502    0 -0.26302259591E+03  0.26024500039E+03 -0.12345042410E+04  0.12887711811E+04  0.46999998093E+01 0.  1.
       -5    1    3    3    0  502  0.26302259591E+03 -0.26024500039E+03  0.12477295334E+04  0.13014451293E+04  0.46999998093E+01 0. -1.
</event>
<event>
 5   0  0.5940748E-06  0.2587564E+04  0.7818609E-02  0.8372438E-01
        2   -1    0    0  501    0  0.00000000000E+00  0.00000000000E+00  0.11201004064E+04  0.11201004064E+04  0.25500000920E-02 0.  1.
       -2   -1    0    0    0  501  0.00000000000E+00  0.00000000000E+00 -0.14943943939E+04  0.14943943939E+04  0.25500000920E-02 0. -1.
    10030    2    1    2    0    0  0.00000000000E+00  0.00000000000E+00 -0.37429398750E+03  0.26144948003E+04  0.25875639261E+04 0.  0.
        1    1    3    3  502    0  0.60526321697E+03 -0.96855772497E+03  0.42698161577E+03  0.12193280644E+04  0.50400001928E-02 0.  1.
       -1    1    3    3    0  502 -0.60526321697E+03  0.96855772497E+03 -0.80127560328E+03  0.13951667359E+04  0.50400001928E-02 0. -1.
</event>
<event>
 5   0  0.6161834E-06  0.2604550E+04  0.7818609E-02  0.8366657E-01
        2   -1    0    0  501    0  0.00000000000E+00  0.00000000000E+00  0.10912287487E+04  0.10912287487E+04  0.25500000920E-02 0.  1.
       -2   -1    0    0    0  501  0.00000000000E+00  0.00000000000E+00 -0.15541383196E+04  0.15541383196E+04  0.25500000920E-02 0. -1.
    10030    2    1    2    0    0  0.00000000000E+00  0.00000000000E+00 -0.46290957094E+03  0.26453670683E+04  0.26045501829E+04 0.  0.
        5    1    3    3  502    0 -0.70545551342E+03  0.76912168991E+03 -0.10225595633E+04  0.14611179986E+04  0.46999998093E+01 0. -1.
       -5    1    3    3    0  502  0.70545551342E+03 -0.76912168991E+03  0.55964999235E+03  0.11842490698E+04  0.46999998093E+01 0.  1.
</event>
<event>
 5   0  0.6161834E-06  0.2594129E+04  0.7818609E-02  0.8370198E-01
       -2   -1    0    0    0  501  0.00000000000E+00  0.00000000000E+00  0.65314489269E+03  0.65314489269E+03  0.25500000920E-02 0.  1.
        2   -1    0    0  501    0  0.00000000000E+00  0.00000000000E+00 -0.25758084543E+04  0.25758084543E+04  0.25500000920E-02 0. -1.
    10030    2    1    2    0    0  0.00000000000E+00  0.00000000000E+00 -0.19226635616E+04  0.32289533470E+04  0.25941288607E+04 0.  0.
        5    1    3    3  502    0  0.48499867652E+03 -0.15641398438E+03  0.52330955381E+03  0.73045467337E+03  0.46999998093E+01 0.  1.
       -5    1    3    3    0  502 -0.48499867652E+03  0.15641398438E+03 -0.24459731154E+04  0.24984986736E+04  0.46999998093E+01 0. -1.
</event>
<event>
 5   0  0.2456600E-06  0.2602480E+04  0.7818609E-02  0.8367359E-01
        1   -1    0    0  501    0  0.00000000000E+00  0.00000000000E+00  0.14588389005E+04  0.14588389005E+04  0.50400001928E-02 0.  1.
       -1   -1    0    0    0  501  0.00000000000E+00  0.00000000000E+00 -0.11606663763E+04  0.11606663763E+04  0.50400001928E-02 0. -1.
    10030    2    1    2    0    0  0.00000000000E+00  0.00000000000E+00  0.29817252420E+03  0.26195052769E+04  0.26024797869E+04 0.  0.
        5    1    3    3  502    0  0.26551196326E+03  0.27755682222E+03 -0.11022963892E+04  0.11673105036E+04  0.46999998093E+01 0. -1.
       -5    1    3    3    0  502 -0.26551196326E+03 -0.27755682222E+03  0.14004689134E+04  0.14521947733E+04  0.46999998093E+01 0.  1.
</event>
<event>
 5   0  0.2456600E-06  0.2606702E+04  0.7818609E-02  0.8365928E-01
        1   -1    0    0  501    0  0.00000000000E+00  0.00000000000E+00  0.11649563852E+04  0.11649563852E+04  0.50400001928E-02 0. -1.
       -1   -1    0    0    0  501  0.00000000000E+00  0.00000000000E+00 -0.14581861977E+04  0.14581861977E+04  0.50400001928E-02 0.  1.
    10030    2    1    2    0    0  0.00000000000E+00  0.00000000000E+00 -0.29322981244E+03  0.26231425829E+04  0.26067016107E+04 0.  0.
        5    1    3    3  502    0 -0.12786796522E+04  0.23806863598E+03 -0.62403746356E+02  0.13021576886E+04  0.46999998093E+01 0.  1.
       -5    1    3    3    0  502  0.12786796522E+04 -0.23806863598E+03 -0.23082606609E+03  0.13209848944E+04  0.46999998093E+01 0. -1.
</event>
<event>
 5   0  0.6161834E-06  0.2602059E+04  0.7818609E-02  0.8367502E-01
       -2   -1    0    0    0  501  0.00000000000E+00  0.00000000000E+00  0.18019857209E+04  0.18019857209E+04  0.25500000920E-02 0.  1.
        2   -1    0    0  501    0  0.00000000000E+00  0.00000000000E+00 -0.93934012270E+03  0.93934012270E+03  0.25500000920E-02 0. -1.
    10030    2    1    2    0    0  0.00000000000E+00  0.00000000000E+00  0.86264559823E+03  0.27413258436E+04  0.26020587912E+04 0.  0.
        5    1    3    3  502    0 -0.12590197542E+04 -0.26451001630E+03  0.22714844519E+03  0.13064129502E+04  0.46999998093E+01 0. -1.
       -5    1    3    3    0  502  0.12590197542E+04  0.26451001630E+03  0.63549715304E+03  0.14349128934E+04  0.46999998093E+01 0.  1.
</event>
<event>
 5   0  0.2471488E-06  0.2600933E+04  0.7818609E-02  0.8367884E-01
        1   -1    0    0  501    0  0.00000000000E+00  0.00000000000E+00  0.22050345077E+04  0.22050345077E+04  0.50400001928E-02 0. -1.
       -1   -1    0    0    0  501  0.00000000000E+00  0.00000000000E+00 -0.76697816180E+03  0.76697816182E+03  0.50400001928E-02 0.  1.
    10030    2    1    2    0    0  0.00000000000E+00  0.00000000000E+00  0.14380563459E+04  0.29720126695E+04  0.26009331506E+04 0.  0.
        4    1    3    3  502    0 -0.20174373668E+03 -0.12764588975E+04  0.88526176377E+03  0.15664411433E+04  0.12699999809E+01 0. -1.
       -4    1    3    3    0  502  0.20174373668E+03  0.12764588975E+04  0.55279458212E+03  0.14055715262E+04  0.12699999809E+01 0.  1.
</event>
<event>
 5   0  0.5940748E-06  0.2612374E+04  0.7818609E-02  0.8364010E-01
        2   -1    0    0  501    0  0.00000000000E+00  0.00000000000E+00  0.11799122016E+04  0.11799122016E+04  0.25500000920E-02 0.  1.
       -2   -1    0    0    0  501  0.00000000000E+00  0.00000000000E+00 -0.14459757535E+04  0.14459757535E+04  0.25500000920E-02 0. -1.
    10030    2    1    2    0    0  0.00000000000E+00  0.00000000000E+00 -0.26606355188E+03  0.26258879551E+04  0.26123739662E+04 0.  0.
        1    1    3    3  502    0  0.10970903667E+04  0.70114684889E+03 -0.28039255886E+02  0.13023057922E+04  0.50400001928E-02 0. -1.
       -1    1    3    3    0  502 -0.10970903667E+04 -0.70114684889E+03 -0.23802429599E+03  0.13235821629E+04  0.50400001928E-02 0.  1.
</event>
<event>
 5   0  0.2456600E-06  0.2476437E+04  0.7818609E-02  0.8411429E-01
       -1   -1    0    0    0  501  0.00000000000E+00  0.00000000000E+00  0.95945966626E+03  0.95945966627E+03  0.50400001928E-02 0.  1.
        1   -1    0    0  501    0  0.00000000000E+00  0.00000000000E+00 -0.15979665655E+04  0.15979665655E+04  0.50400001928E-02 0. -1.
    10030    2    1    2    0    0  0.00000000000E+00  0.00000000000E+00 -0.63850689924E+03  0.25574262318E+04  0.24764365267E+04 0.  0.
        5    1    3    3  502    0 -0.91732467612E+03  0.78323906681E+03 -0.60806809980E+03  0.13508208250E+04  0.46999998093E+01 0. -1.
       -5    1    3    3    0  502  0.91732467612E+03 -0.78323906681E+03 -0.30438799440E+02  0.12066054068E+04  0.46999998093E+01 0.  1.
</event>
<event>
 5   0  0.2440590E-06  0.2604537E+04  0.7818609E-02  0.8366662E-01
       -1   -1    0    0    0  501  0.00000000000E+00  0.00000000000E+00  0.10695689096E+04  0.10695689096E+04  0.50400001928E-02 0.  1.
        1   -1    0    0  501    0  0.00000000000E+00  0.00000000000E+00 -0.15855956147E+04  0.15855956147E+04  0.50400001928E-02 0. -1.
    10030    2    1    2    0    0  0.00000000000E+00  0.00000000000E+00 -0.51602670506E+03  0.26551645243E+04  0.26045374044E+04 0.  0.
        1    1    3    3  502    0  0.10946576200E+04 -0.67610986715E+03 -0.46318121846E+03  0.13674562876E+04  0.50400001928E-02 0.  1.
       -1    1    3    3    0  502 -0.10946576200E+04  0.67610986715E+03 -0.52845486601E+02  0.12877082367E+04  0.50400001928E-02 0. -1.
</event>
<event>
 5   0  0.2440590E-06  0.2602151E+04  0.7818609E-02  0.8367471E-01
       -1   -1    0    0    0  501  0.00000000000E+00  0.00000000000E+00  0.15202866390E+04  0.15202866390E+04  0.50400001928E-02 0. -1.
        1   -1    0    0  501    0  0.00000000000E+00  0.00000000000E+00 -0.11134729836E+04  0.11134729836E+04  0.50400001928E-02 0.  1.
    10030    2    1    2    0    0  0.00000000000E+00  0.00000000000E+00  0.40681365538E+03  0.26337596226E+04  0.26021514943E+04 0.  0.
        1    1    3    3  502    0  0.58542131283E+03  0.11312326044E+04  0.47194598394E+03  0.13583586899E+04  0.50400001928E-02 0. -1.
       -1    1    3    3    0  502 -0.58542131283E+03 -0.11312326044E+04 -0.65132328555E+02  0.12754009326E+04  0.50400001928E-02 0.  1.
</event>
<event>
 5   0  0.2471488E-06  0.2574777E+04  0.7818609E-02  0.8376820E-01
       -1   -1    0    0    0  501  0.00000000000E+00  0.00000000000E+00  0.93915805062E+03  0.93915805063E+03  0.50400001928E-02 0.  1.
        1   -1    0    0  501    0  0.00000000000E+00  0.00000000000E+00 -0.17647397275E+04  0.17647397275E+04  0.50400001928E-02 0. -1.
    10030    2    1    2    0    0  0.00000000000E+00  0.00000000000E+00 -0.82558167687E+03  0.27038977781E+04  0.25747772893E+04 0.  0.
        4    1    3    3  502    0  0.55480176807E+03 -0.43711808259E+03  0.71751734791E+03  0.10068316530E+04  0.12699999809E+01 0.  1.
       -4    1    3    3    0  502 -0.55480176807E+03  0.43711808259E+03 -0.15430990248E+04  0.16970661252E+04  0.12699999809E+01 0. -1.
</event>
<event>
 5   0  0.5942229E-06  0.2554780E+04  0.7818609E-02  0.8383726E-01
        2   -1    0    0  501    0  0.00000000000E+00  0.00000000000E+00  0.12773541798E+04  0.12773541798E+04  0.25500000920E-02 0.  1.
       -2   -1    0    0    0  501  0.00000000000E+00  0.00000000000E+00 -0.12774260573E+04  0.12774260573E+04  0.25500000920E-02 0. -1.
    10030    2    1    2    0    0  0.00000000000E+00  0.00000000000E+00 -0.71877565410E-01  0.25547802371E+04  0.25547802361E+04 0.  0.
        4    1    3    3  502    0  0.33781037039E+03  0.18022978832E+03 -0.12186931010E+04  0.12774244049E+04  0.12699999809E+01 0. -1.
       -4    1    3    3    0  502 -0.33781037039E+03 -0.18022978832E+03  0.12186212234E+04  0.12773558322E+04  0.12699999809E+01 0.  1.
</event>
<event>
 5   0  0.5940748E-06  0.2605841E+04  0.7818609E-02  0.8366220E-01
       -2   -1    0    0    0  501  0.00000000000E+00  0.00000000000E+00  0.71352148975E+03  0.71352148975E+03  0.25500000920E-02 0. -1.
        2   -1    0    0  501    0  0.00000000000E+00  0.00000000000E+00 -0.23791888007E+04  0.23791888007E+04  0.25500000920E-02 0.  1.
    10030    2    1    2    0    0  0.00000000000E+00  0.00000000000E+00 -0.16656673109E+04  0.30927102904E+04  0.26058413900E+04 0.  0.
        1    1    3    3  502    0 -0.60171221678E+03 -0.11556014224E+04 -0.81929651885E+03  0.15390643343E+04  0.50400001928E-02 0. -1.
       -1    1    3    3    0  502  0.60171221678E+03  0.11556014224E+04 -0.84637079207E+03  0.15536459561E+04  0.50400001928E-02 0.  1.
</event>
<event>
 5   0  0.2471488E-06  0.2596635E+04  0.7818609E-02  0.8369345E-01
       -1   -1    0    0    0  501  0.00000000000E+00  0.00000000000E+00  0.20827154203E+04  0.20827154203E+04  0.50400001928E-02 0. -1.
        1   -1    0    0  501    0  0.00000000000E+00  0.00000000000E+00 -0.80934193581E+03  0.80934193583E+03  0.50400001928E-02 0.  1.
    10030    2    1    2    0    0  0.00000000000E+00  0.00000000000E+00  0.12733734845E+04  0.28920573562E+04  0.25966354616E+04 0.  0.
        4    1    3    3  502    0 -0.95070206484E+03  0.19489665810E+03 -0.32387745880E+03  0.10230920509E+04  0.12699999809E+01 0. -1.
       -4    1    3    3    0  502  0.95070206484E+03 -0.19489665810E+03  0.15972509433E+04  0.18689653053E+04  0.12699999809E+01 0.  1.
</event>
<event>
 5   0  0.6161834E-06  0.2594902E+04  0.7818609E-02  0.8369935E-01
        2   -1    0    0  501    0  0.00000000000E+00  0.00000000000E+00  0.19242758673E+04  0.19242758673E+04  0.25500000920E-02 0.  1.
       -2   -1    0    0    0  501  0.00000000000E+00  0.00000000000E+00 -0.87481199374E+03  0.87481199375E+03  0.25500000920E-02 0. -1.
    10030    2    1    2    0    0  0.00000000000E+00  0.00000000000E+00  0.10494638735E+04  0.27990878610E+04  0.25949023935E+04 0.  0.
        5    1    3    3  502    0  0.75717175689E+03 -0.46907583358E+03 -0.49290880791E+03  0.10179992092E+04  0.46999998093E+01 0. -1.
       -5    1    3    3    0  502 -0.75717175689E+03  0.46907583358E+03  0.15423726815E+04  0.17810886518E+04  0.46999998093E+01 0.  1.
</event>
<event>
 5   0  0.6173140E-06  0.2605487E+04  0.7818609E-02  0.8366340E-01
        2   -1    0    0  501    0  0.00000000000E+00  0.00000000000E+00  0.23635453537E+04  0.23635453537E+04  0.25500000920E-02 0.  1.
       -2   -1    0    0    0  501  0.00000000000E+00  0.00000000000E+00 -0.71804858403E+03  0.71804858404E+03  0.25500000920E-02 0. -1.
    10030    2    1    2    0    0  0.00000000000E+00  0.00000000000E+00  0.16454967697E+04  0.30815939378E+04  0.26054868217E+04 0.  0.
        3    1    3    3  502    0  0.73177255261E+03  0.27956529607E+03 -0.40836909354E+03  0.88340995595E+03  0.10100000352E+00 0. -1.
       -3    1    3    3    0  502 -0.73177255261E+03 -0.27956529607E+03  0.20538658632E+04  0.21981839818E+04  0.10100000352E+00 0.  1.
</event>
<event>
 5   0  0.5942229E-06  0.2599428E+04  0.7818609E-02  0.8368395E-01
       -2   -1    0    0    0  501  0.00000000000E+00  0.00000000000E+00  0.84853960651E+03  0.84853960651E+03  0.25500000920E-02 0.  1.
        2   -1    0    0  501    0  0.00000000000E+00  0.00000000000E+00 -0.19907812152E+04  0.19907812152E+04  0.25500000920E-02 0. -1.
    10030    2    1    2    0    0  0.00000000000E+00  0.00000000000E+00 -0.11422416087E+04  0.28393208217E+04  0.25994281748E+04 0.  0.
        4    1    3    3  502    0 -0.63765071125E+03 -0.82155196976E+03  0.28037887612E+03  0.10771072350E+04  0.12699999809E+01 0.  1.
       -4    1    3    3    0  502  0.63765071125E+03  0.82155196976E+03 -0.14226204848E+04  0.17622135868E+04  0.12699999809E+01 0. -1.
</event>
<event>
 5   0  0.6158063E-06  0.2585502E+04  0.7818609E-02  0.8373143E-01
       -2   -1    0    0    0  501  0.00000000000E+00  0.00000000000E+00  0.10186517386E+04  0.10186517386E+04  0.25500000920E-02 0. -1.
        2   -1    0    0  501    0  0.00000000000E+00  0.00000000000E+00 -0.16406049517E+04  0.16406049517E+04  0.25500000920E-02 0.  1.
    10030    2    1    2    0    0  0.00000000000E+00  0.00000000000E+00 -0.62195321318E+03  0.26592566903E+04  0.25855019523E+04 0.  0.
        2    1    3    3  502    0  0.72264800242E+03  0.88354364210E+03  0.31324274565E+03  0.11836344540E+04  0.25500000920E-02 0. -1.
       -2    1    3    3    0  502 -0.72264800242E+03 -0.88354364210E+03 -0.93519595883E+03  0.14756222363E+04  0.25500000920E-02 0.  1.
</event>
<event>
 5   0  0.6158063E-06  0.2572983E+04  0.7818609E-02  0.8377437E-01
        2   -1    0    0  501    0  0.00000000000E+00  0.00000000000E+00  0.13732855579E+04  0.13732855579E+04  0.25500000920E-02 0.  1.
       -2   -1    0    0    0  501  0.00000000000E+00  0.00000000000E+00 -0.12051828561E+04  0.12051828561E+04  0.25500000920E-02 0. -1.
    10030    2    1    2    0    0  0.00000000000E+00  0.00000000000E+00  0.16810270177E+03  0.25784684140E+04  0.25729828689E+04 0.  0.
        2    1    3    3  502    0  0.70278755690E+03 -0.80289904773E+03 -0.63616228026E+03  0.12422800320E+04  0.25500000920E-02 0. -1.
       -2    1    3    3    0  502 -0.70278755690E+03  0.80289904773E+03  0.80426498202E+03  0.13361883820E+04  0.25500000920E-02 0.  1.
</event>
<event>
 5   0  0.6158063E-06  0.2579498E+04  0.7818609E-02  0.8375199E-01
       -2   -1    0    0    0  501  0.00000000000E+00  0.00000000000E+00  0.85987147493E+03  0.85987147494E+03  0.25500000920E-02 0.  1.
        2   -1    0    0  501    0  0.00000000000E+00  0.00000000000E+00 -0.19345359469E+04  0.19345359469E+04  0.25500000920E-02 0. -1.
    10030    2    1    2    0    0  0.00000000000E+00  0.00000000000E+00 -0.10746644719E+04  0.27944074218E+04  0.25794978410E+04 0.  0.
        2    1    3    3  502    0  0.94188024076E+03 -0.59814198375E+03  0.16351452749E+03  0.11276742532E+04  0.25500000920E-02 0. -1.
       -2    1    3    3    0  502 -0.94188024076E+03  0.59814198375E+03 -0.12381789994E+04  0.16667331686E+04  0.25500000920E-02 0.  1.
</event>
<event>
 5   0  0.6173140E-06  0.2601039E+04  0.7818609E-02  0.8367848E-01
       -2   -1    0    0    0  501  0.00000000000E+00  0.00000000000E+00  0.28733248570E+04  0.28733248570E+04  0.25500000920E-02 0. -1.
        2   -1    0    0  501    0  0.00000000000E+00  0.00000000000E+00 -0.58863914274E+03  0.58863914275E+03  0.25500000920E-02 0.  1.
    10030    2    1    2    0    0  0.00000000000E+00  0.00000000000E+00  0.22846857143E+04  0.34619639998E+04  0.26010393928E+04 0.  0.
        3    1    3    3  502    0 -0.83912392954E+03  0.96524163643E+03  0.82869400973E+03  0.15239928339E+04  0.10100000352E+00 0.  1.
       -3    1    3    3    0  502  0.83912392954E+03 -0.96524163643E+03  0.14559917045E+04  0.19379711659E+04  0.10100000352E+00 0. -1.
</event>
<event>
 5   0  0.5942229E-06  0.2590765E+04  0.7818609E-02  0.8371345E-01
        2   -1    0    0  501    0  0.00000000000E+00  0.00000000000E+00  0.15303364344E+04  0.15303364344E+04  0.25500000920E-02 0. -1.
       -2   -1    0    0    0  501  0.00000000000E+00  0.00000000000E+00 -0.10965013998E+04  0.10965013999E+04  0.25500000920E-02 0.  1.
    10030    2    1    2    0    0  0.00000000000E+00  0.00000000000E+00  0.43383503452E+03  0.26268378342E+04  0.25907651708E+04 0.  0.
        4    1    3    3  502    0 -0.87892893600E+03 -0.29808694922E+03  0.11331827518E+04  0.14647445736E+04  0.12699999809E+01 0. -1.
       -4    1    3    3    0  502  0.87892893600E+03  0.29808694922E+03 -0.69934771732E+03  0.11620932607E+04  0.12699999809E+01 0.  1.
</event>
<event>
 5   0  0.5940748E-06  0.2593809E+04  0.7818609E-02  0.8370307E-01
       -2   -1    0    0    0  501  0.00000000000E+00  0.00000000000E+00  0.90550761494E+03  0.90550761494E+03  0.25500000920E-02 0. -1.
        2   -1    0    0  501    0  0.00000000000E+00  0.00000000000E+00 -0.18574792803E+04  0.18574792803E+04  0.25500000920E-02 0.  1.
    10030    2    1    2    0    0  0.00000000000E+00  0.00000000000E+00 -0.95197166536E+03  0.27629868952E+04  0.25938092705E+04 0.  0.
        1    1    3    3  502    0 -0.46255694784E+03  0.11880856059E+04 -0.22288525832E+03  0.12942890618E+04  0.50400001928E-02 0.  1.
       -1    1    3    3    0  502  0.46255694784E+03 -0.11880856059E+04 -0.72908640704E+03  0.14686978335E+04  0.50400001928E-02 0. -1.
</event>
<event>
 5   0  0.2440590E-06  0.2586208E+04  0.7818609E-02  0.8372901E-01
       -1   -1    0    0    0  501  0.00000000000E+00  0.00000000000E+00  0.16623131263E+04  0.16623131264E+04  0.50400001928E-02 0.  1.
        1   -1    0    0  501    0  0.00000000000E+00  0.00000000000E+00 -0.10058985322E+04  0.10058985322E+04  0.50400001928E-02 0. -1.
    10030    2    1    2    0    0  0.00000000000E+00  0.00000000000E+00  0.65641459415E+03  0.26682116586E+04  0.25862082931E+04 0.  0.
        1    1    3    3  502    0  0.73897901586E+03 -0.86128301815E+03  0.96771637061E+03  0.14914333365E+04  0.50400001928E-02 0.  1.
       -1    1    3    3    0  502 -0.73897901586E+03  0.86128301815E+03 -0.31130177646E+03  0.11767783221E+04  0.50400001928E-02 0. -1.
</event>
<event>
 5   0  0.2333979E-06  0.2602213E+04  0.7818609E-02  0.8367450E-01
        1   -1    0    0  501    0  0.00000000000E+00  0.00000000000E+00  0.84864052389E+03  0.84864052391E+03  0.50400001928E-02 0. -1.
       -1   -1    0    0    0  501  0.00000000000E+00  0.00000000000E+00 -0.19948113147E+04  0.19948113147E+04  0.50400001928E-02 0.  1.
    10030    2    1    2    0    0  0.00000000000E+00  0.00000000000E+00 -0.11461707908E+04  0.28434518386E+04  0.26022126886E+04 0.  0.
        3    1    3    3  502    0 -0.45961124382E+03 -0.93685043666E+03  0.27609959871E+03  0.10794268084E+04  0.10100000352E+00 0. -1.
       -3    1    3    3    0  502  0.45961124382E+03  0.93685043666E+03 -0.14222703895E+04  0.17640250302E+04  0.10100000352E+00 0.  1.
</event>
<event>
 5   0  0.2440590E-06  0.2626170E+04  0.7818609E-02  0.8359366E-01
        1   -1    0    0  501    0  0.00000000000E+00  0.00000000000E+00  0.19803609302E+04  0.19803609302E+04  0.50400001928E-02 0. -1.
       -1   -1    0    0    0  501  0.00000000000E+00  0.00000000000E+00 -0.87064539225E+03  0.87064539227E+03  0.50400001928E-02 0.  1.
    10030    2    1    2    0    0  0.00000000000E+00  0.00000000000E+00  0.11097155380E+04  0.28510063225E+04  0.26261699251E+04 0.  0.
        1    1    3    3  502    0 -0.72733160520E+02  0.66980404556E+03  0.17784098090E+04  0.19017541957E+04  0.50400001928E-02 0. -1.
       -1    1    3    3    0  502  0.72733160520E+02 -0.66980404556E+03 -0.66869427103E+03  0.94925212679E+03  0.50400001928E-02 0.  1.
</event>
<event>
 5   0  0.5942229E-06  0.2598885E+04  0.7818609E-02  0.8368580E-01
       -2   -1    0    0    0  501  0.00000000000E+00  0.00000000000E+00  0.94816157299E+03  0.94816157300E+03  0.25500000920E-02 0. -1.
        2   -1    0    0  501    0  0.00000000000E+00  0.00000000000E+00 -0.17808676891E+04  0.17808676891E+04  0.25500000920E-02 0.  1.
    10030    2    1    2    0    0  0.00000000000E+00  0.00000000000E+00 -0.83270611608E+03  0.27290292621E+04  0.25988846141E+04 0.  0.
        4    1    3    3  502    0 -0.85829915999E+03 -0.57154953040E+03  0.41394019078E+03  0.11111680378E+04  0.12699999809E+01 0. -1.
       -4    1    3    3    0  502  0.85829915999E+03  0.57154953040E+03 -0.12466463069E+04  0.16178612243E+04  0.12699999809E+01 0.  1.
</event>
<event>
 5   0  0.6158063E-06  0.2590132E+04  0.7818609E-02  0.8371561E-01
       -2   -1    0    0    0  501  0.00000000000E+00  0.00000000000E+00  0.10634401276E+04  0.10634401276E+04  0.25500000920E-02 0. -1.
        2   -1    0    0  501    0  0.00000000000E+00  0.00000000000E+00 -0.15771422500E+04  0.15771422500E+04  0.25500000920E-02 0.  1.
    10030    2    1    2    0    0  0.00000000000E+00  0.00000000000E+00 -0.51370212239E+03  0.26405823776E+04  0.25901323176E+04 0.  0.
        2    1    3    3  502    0  0.47194880276E+03 -0.99932330794E+03 -0.94514098838E+03  0.14541919523E+04  0.25500000920E-02 0.  1.
       -2    1    3    3    0  502 -0.47194880276E+03  0.99932330794E+03  0.43143886599E+03  0.11863904253E+04  0.25500000920E-02 0. -1.
</event>
<event>
 5   0  0.6158063E-06  0.2602943E+04  0.7818609E-02  0.8367202E-01
       -2   -1    0    0    0  501  0.00000000000E+00  0.00000000000E+00  0.13677078278E+04  0.13677078278E+04  0.25500000920E-02 0. -1.
        2   -1    0    0  501    0  0.00000000000E+00  0.00000000000E+00 -0.12384433779E+04  0.12384433779E+04  0.25500000920E-02 0.  1.
    10030    2    1    2    0    0  0.00000000000E+00  0.00000000000E+00  0.12926444991E+03  0.26061512057E+04  0.26029434894E+04 0.  0.
        2    1    3    3  502    0  0.77205225490E+02 -0.12518060050E+04  0.41269518076E+03  0.13203394387E+04  0.25500000920E-02 0. -1.
       -2    1    3    3    0  502 -0.77205225490E+02  0.12518060050E+04 -0.28343073085E+03  0.12858117670E+04  0.25500000920E-02 0.  1.
</event>
<event>
 5   0  0.5940748E-06  0.2603899E+04  0.7818609E-02  0.8366878E-01
        2   -1    0    0  501    0  0.00000000000E+00  0.00000000000E+00  0.12269440170E+04  0.12269440170E+04  0.25500000920E-02 0. -1.
       -2   -1    0    0    0  501  0.00000000000E+00  0.00000000000E+00 -0.13815401885E+04  0.13815401885E+04  0.25500000920E-02 0.  1.
    10030    2    1    2    0    0  0.00000000000E+00  0.00000000000E+00 -0.15459617152E+03  0.26084842054E+04  0.26038989753E+04 0.  0.
        1    1    3    3  502    0 -0.25929665188E+03 -0.12711031106E+04 -0.18764920974E+03  0.13107822463E+04  0.50400001928E-02 0. -1.
       -1    1    3    3    0  502  0.25929665188E+03  0.12711031106E+04  0.33053038224E+02  0.12977019591E+04  0.50400001928E-02 0.  1.
</event>
<event>
 5   0  0.6161834E-06  0.2586300E+04  0.7818609E-02  0.8372870E-01
       -2   -1    0    0    0  501  0.00000000000E+00  0.00000000000E+00  0.65555235135E+03  0.65555235136E+03  0.25500000920E-02 0.  1.
        2   -1    0    0  501    0  0.00000000000E+00  0.00000000000E+00 -0.25508827918E+04  0.25508827918E+04  0.25500000920E-02 0. -1.
    10030    2    1    2    0    0  0.00000000000E+00  0.00000000000E+00 -0.18953304404E+04  0.32064351431E+04  0.25863002240E+04 0.  0.
        5    1    3    3  502    0  0.89495162353E+03 -0.50438188264E+03 -0.19214036924E+04  0.21787963951E+04  0.46999998093E+01 0. -1.
       -5    1    3    3    0  502 -0.89495162353E+03  0.50438188264E+03  0.26073252010E+02  0.10276387480E+04  0.46999998093E+01 0.  1.
</event>
<event>
 5   0  0.2503292E-06  0.2600384E+04  0.7818609E-02  0.8368071E-01
        1   -1    0    0  501    0  0.00000000000E+00  0.00000000000E+00  0.17033143591E+04  0.17033143591E+04  0.50400001928E-02 0. -1.
       -1   -1    0    0    0  501  0.00000000000E+00  0.00000000000E+00 -0.99247662424E+03  0.99247662425E+03  0.50400001928E-02 0.  1.
    10030    2    1    2    0    0  0.00000000000E+00  0.00000000000E+00  0.71083773486E+03  0.26957909834E+04  0.26003843448E+04 0.  0.
        2    1    3    3  502    0 -0.48270563208E+02 -0.81787091015E+03 -0.69120464027E+03  0.10719173138E+04  0.25500000920E-02 0.  1.
       -2    1    3    3    0  502  0.48270563208E+02  0.81787091015E+03  0.14020423751E+04  0.16238736695E+04  0.25500000920E-02 0. -1.
</event>
<event>
 5   0  0.2333979E-06  0.2606572E+04  0.7818609E-02  0.8365972E-01
        1   -1    0    0  501    0  0.00000000000E+00  0.00000000000E+00  0.13363679702E+04  0.13363679703E+04  0.50400001928E-02 0. -1.
       -1   -1    0    0    0  501  0.00000000000E+00  0.00000000000E+00 -0.12710231944E+04  0.12710231944E+04  0.50400001928E-02 0.  1.
    10030    2    1    2    0    0  0.00000000000E+00  0.00000000000E+00  0.65344775860E+02  0.26073911647E+04  0.26065722215E+04 0.  0.
        3    1    3    3  502    0 -0.93666705550E+03  0.35466851057E+03  0.86685270363E+03  0.13246012778E+04  0.10100000352E+00 0. -1.
       -3    1    3    3    0  502  0.93666705550E+03 -0.35466851057E+03 -0.80150792777E+03  0.12827898868E+04  0.10100000352E+00 0.  1.
</event>
<event>
 5   0  0.2440590E-06  0.2598891E+04  0.7818609E-02  0.8368578E-01
        1   -1    0    0  501    0  0.00000000000E+00  0.00000000000E+00  0.14873809920E+04  0.14873809920E+04  0.50400001928E-02 0.  1.
       -1   -1    0    0    0  501  0.00000000000E+00  0.00000000000E+00 -0.11352563153E+04  0.11352563153E+04  0.50400001928E-02 0. -1.
    10030    2    1    2    0    0  0.00000000000E+00  0.00000000000E+00  0.35212467673E+03  0.26226373073E+04  0.25988910439E+04 0.  0.
        1    1    3    3  502    0  0.71197653105E+03 -0.10369080508E+04  0.50534080911E+03  0.13555287603E+04  0.50400001928E-02 0.  1.
       -1    1    3    3    0  502 -0.71197653105E+03  0.10369080508E+04 -0.15321613237E+03  0.12671085470E+04  0.50400001928E-02 0. -1.
</event>
<event>
 5   0  0.2503292E-06  0.2594125E+04  0.7818609E-02  0.8370200E-01
       -1   -1    0    0    0  501  0.00000000000E+00  0.00000000000E+00  0.15921111290E+04  0.15921111290E+04  0.50400001928E-02 0.  1.
        1   -1    0    0  501    0  0.00000000000E+00  0.00000000000E+00 -0.10566919719E+04  0.10566919719E+04  0.50400001928E-02 0. -1.
    10030    2    1    2    0    0  0.00000000000E+00  0.00000000000E+00  0.53541915711E+03  0.26488031009E+04  0.25941249379E+04 0.  0.
        2    1    3    3  502    0 -0.37347811167E+03  0.12219638706E+04  0.49531933334E+03  0.13704097354E+04  0.25500000920E-02 0. -1.
       -2    1    3    3    0  502  0.37347811167E+03 -0.12219638706E+04  0.40099823770E+02  0.12783933655E+04  0.25500000920E-02 0.  1.
</event>
<event>
 5   0  0.6173140E-06  0.2603373E+04  0.7818609E-02  0.8367056E-01
        2   -1    0    0  501    0  0.00000000000E+00  0.00000000000E+00  0.98617384841E+03  0.98617384841E+03  0.25500000920E-02 0.  1.
       -2   -1    0    0    0  501  0.00000000000E+00  0.00000000000E+00 -0.17181437101E+04  0.17181437101E+04  0.25500000920E-02 0. -1.
    10030    2    1    2    0    0  0.00000000000E+00  0.00000000000E+00 -0.73196986172E+03  0.27043175585E+04  0.26033734997E+04 0.  0.
        3    1    3    3  502    0  0.68298196948E+03  0.69358197453E+03 -0.12637095829E+04  0.15951433309E+04  0.10100000352E+00 0. -1.
       -3    1    3    3    0  502 -0.68298196948E+03 -0.69358197453E+03  0.53173972116E+03  0.11091742276E+04  0.10100000352E+00 0.  1.
</event>
<event>
 5   0  0.2503292E-06  0.2597450E+04  0.7818609E-02  0.8369068E-01
        1   -1    0    0  501    0  0.00000000000E+00  0.00000000000E+00  0.11276494201E+04  0.11276494201E+04  0.50400001928E-02 0. -1.
       -1   -1    0    0    0  501  0.00000000000E+00  0.00000000000E+00 -0.14957546731E+04  0.14957546731E+04  0.50400001928E-02 0.  1.
    10030    2    1    2    0    0  0.00000000000E+00  0.00000000000E+00 -0.36810525299E+03  0.26234040932E+04  0.25974502033E+04 0.  0.
        2    1    3    3  502    0  0.88883841844E+03  0.57379214701E+03  0.57674411918E+03  0.12049501820E+04  0.25500000920E-02 0. -1.
       -2    1    3    3    0  502 -0.88883841844E+03 -0.57379214701E+03 -0.94484937217E+03  0.14184539112E+04  0.25500000920E-02 0.  1.
</event>
<event>
 5   0  0.6161834E-06  0.2606433E+04  0.7818609E-02  0.8366019E-01
        2   -1    0    0  501    0  0.00000000000E+00  0.00000000000E+00  0.18781791649E+04  0.18781791649E+04  0.25500000920E-02 0.  1.
       -2   -1    0    0    0  501  0.00000000000E+00  0.00000000000E+00 -0.90426562206E+03  0.90426562206E+03  0.25500000920E-02 0. -1.
    10030    2    1    2    0    0  0.00000000000E+00  0.00000000000E+00  0.97391354283E+03  0.27824447870E+04  0.26064326969E+04 0.  0.
        5    1    3    3  502    0 -0.16768817474E+03  0.49976120537E+03  0.17592760266E+04  0.18365605936E+04  0.46999998093E+01 0.  1.
       -5    1    3    3    0  502  0.16768817474E+03 -0.49976120537E+03 -0.78536248374E+03  0.94588419334E+03  0.46999998093E+01 0. -1.
</event>
<event>
 5   0  0.5942229E-06  0.2603949E+04  0.7818609E-02  0.8366861E-01
       -2   -1    0    0    0  501  0.00000000000E+00  0.00000000000E+00  0.16340644674E+04  0.16340644674E+04  0.25500000920E-02 0.  1.
        2   -1    0    0  501    0  0.00000000000E+00  0.00000000000E+00 -0.10373746933E+04  0.10373746933E+04  0.25500000920E-02 0. -1.
    10030    2    1    2    0    0  0.00000000000E+00  0.00000000000E+00  0.59668977417E+03  0.26714391607E+04  0.26039486367E+04 0.  0.
        4    1    3    3  502    0 -0.48376759364E+03  0.10479035633E+04  0.91645765216E+03  0.14737805819E+04  0.12699999809E+01 0.  1.
       -4    1    3    3    0  502  0.48376759364E+03 -0.10479035633E+04 -0.31976787799E+03  0.11976585788E+04  0.12699999809E+01 0. -1.
</event>
<event>
 5   0  0.2456600E-06  0.2600307E+04  0.7818609E-02  0.8368097E-01
        1   -1    0    0  501    0  0.00000000000E+00  0.00000000000E+00  0.57038048549E+03  0.57038048552E+03  0.50400001928E-02 0.  1.
       -1   -1    0    0    0  501  0.00000000000E+00  0.00000000000E+00 -0.29636342131E+04  0.29636342131E+04  0.50400001928E-02 0. -1.
    10030    2    1    2    0    0  0.00000000000E+00  0.00000000000E+00 -0.23932537276E+04  0.35340146986E+04  0.26003069983E+04 0.  0.
        5    1    3    3  502    0 -0.19091233862E+03 -0.12473919495E+04 -0.77129290230E+03  0.14789689070E+04  0.46999998093E+01 0.  1.
       -5    1    3    3    0  502  0.19091233862E+03  0.12473919495E+04 -0.16219608253E+04  0.20550457916E+04  0.46999998093E+01 0. -1.
</event>
<event>
 5   0  0.2333979E-06  0.2576712E+04  0.7818609E-02  0.8376155E-01
        1   -1    0    0  501    0  0.00000000000E+00  0.00000000000E+00  0.17881608510E+04  0.17881608510E+04  0.50400001928E-02 0.  1.
       -1   -1    0    0    0  501  0.00000000000E+00  0.00000000000E+00 -0.92825024990E+03  0.92825024991E+03  0.50400001928E-02 0. -1.
    10030    2    1    2    0    0  0.00000000000E+00  0.00000000000E+00  0.85991060108E+03  0.27164111009E+04  0.25767116694E+04 0.  0.
        3    1    3    3  502    0 -0.53998684071E+03 -0.12611262973E+03 -0.79600816115E+03  0.97011297606E+03  0.10100000352E+00 0. -1.
       -3    1    3    3    0  502  0.53998684071E+03  0.12611262973E+03  0.16559187622E+04  0.17462981248E+04  0.10100000352E+00 0.  1.
</event>
<event>
 5   0  0.2440590E-06  0.2598989E+04  0.7818609E-02  0.8368545E-01
       -1   -1    0    0    0  501  0.00000000000E+00  0.00000000000E+00  0.86046666326E+03  0.86046666327E+03  0.50400001928E-02 0.  1.
        1   -1    0    0  501    0  0.00000000000E+00  0.00000000000E+00 -0.19625236913E+04  0.19625236913E+04  0.50400001928E-02 0. -1.
    10030    2    1    2    0    0  0.00000000000E+00  0.00000000000E+00 -0.11020570280E+04  0.28229903545E+04  0.25989891975E+04 0.  0.
        1    1    3    3  502    0 -0.22975856633E+03 -0.95659612768E+03 -0.14732147881E+04  0.17715041524E+04  0.50400001928E-02 0. -1.
       -1    1    3    3    0  502  0.22975856633E+03  0.95659612768E+03  0.37115776007E+03  0.10514862021E+04  0.50400001928E-02 0.  1.
</event>
<event>
 5   0  0.2456600E-06  0.2623252E+04  0.7818609E-02  0.8360346E-01
        1   -1    0    0  501    0  0.00000000000E+00  0.00000000000E+00  0.17751637716E+04  0.17751637716E+04  0.50400001928E-02 0.  1.
       -1   -1    0    0    0  501  0.00000000000E+00  0.00000000000E+00 -0.96912931345E+03  0.96912931346E+03  0.50400001928E-02 0. -1.
    10030    2    1    2    0    0  0.00000000000E+00  0.00000000000E+00  0.80603445814E+03  0.27442930851E+04  0.26232523685E+04 0.  0.
        5    1    3    3  502    0 -0.98207656226E+03  0.82447974269E+03  0.69160808500E+03  0.14569094184E+04  0.46999998093E+01 0.  1.
       -5    1    3    3    0  502  0.98207656226E+03 -0.82447974269E+03  0.11442637314E+03  0.12873836666E+04  0.46999998093E+01 0. -1.
</event>
<event>
 5   0  0.6158063E-06  0.2597863E+04  0.7818609E-02  0.8368927E-01
       -2   -1    0    0    0  501  0.00000000000E+00  0.00000000000E+00  0.16862520081E+04  0.16862520081E+04  0.25500000920E-02 0. -1.
        2   -1    0    0  501    0  0.00000000000E+00  0.00000000000E+00 -0.10005758805E+04  0.10005758805E+04  0.25500000920E-02 0.  1.
    10030    2    1    2    0    0  0.00000000000E+00  0.00000000000E+00  0.68567612754E+03  0.26868278886E+04  0.25978630355E+04 0.  0.
        2    1    3    3  502    0 -0.16059091559E+03 -0.74303734348E+03 -0.74647775397E+03  0.10654215002E+04  0.25500000920E-02 0.  1.
       -2    1    3    3    0  502  0.16059091559E+03  0.74303734348E+03  0.14321538815E+04  0.16214063884E+04  0.25500000920E-02 0. -1.
</event>
<event>
 5   0  0.2503292E-06  0.2598858E+04  0.7818609E-02  0.8368589E-01
        1   -1    0    0  501    0  0.00000000000E+00  0.00000000000E+00  0.21101937627E+04  0.21101937628E+04  0.50400001928E-02 0. -1.
       -1   -1    0    0    0  501  0.00000000000E+00  0.00000000000E+00 -0.80017102688E+03  0.80017102690E+03  0.50400001928E-02 0.  1.
    10030    2    1    2    0    0  0.00000000000E+00  0.00000000000E+00  0.13100227359E+04  0.29103647897E+04  0.25988581416E+04 0.  0.
        2    1    3    3  502    0  0.32504399951E+03 -0.53943399987E+03 -0.61783154622E+03  0.88224625890E+03  0.25500000920E-02 0.  1.
       -2    1    3    3    0  502 -0.32504399951E+03  0.53943399987E+03  0.19278542821E+04  0.20281185308E+04  0.25500000920E-02 0. -1.
</event>
<event>
 5   0  0.6161834E-06  0.2597824E+04  0.7818609E-02  0.8368941E-01
        2   -1    0    0  501    0  0.00000000000E+00  0.00000000000E+00  0.15621824454E+04  0.15621824454E+04  0.25500000920E-02 0.  1.
       -2   -1    0    0    0  501  0.00000000000E+00  0.00000000000E+00 -0.10800097059E+04  0.10800097059E+04  0.25500000920E-02 0. -1.
    10030    2    1    2    0    0  0.00000000000E+00  0.00000000000E+00  0.48217273942E+03  0.26421921513E+04  0.25978238612E+04 0.  0.
        5    1    3    3  502    0  0.95344473072E+03  0.87701250249E+03  0.14490742044E+03  0.13035444122E+04  0.46999998093E+01 0.  1.
       -5    1    3    3    0  502 -0.95344473072E+03 -0.87701250249E+03  0.33726531898E+03  0.13386477391E+04  0.46999998093E+01 0. -1.
</event>
<event>
 5   0  0.2440590E-06  0.2627303E+04  0.7818609E-02  0.8358986E-01
        1   -1    0    0  501    0  0.00000000000E+00  0.00000000000E+00  0.12773113435E+04  0.12773113435E+04  0.50400001928E-02 0. -1.
       -1   -1    0    0    0  501  0.00000000000E+00  0.00000000000E+00 -0.13510252221E+04  0.13510252221E+04  0.50400001928E-02 0.  1.
    10030    2    1    2    0    0  0.00000000000E+00  0.00000000000E+00 -0.73713878530E+02  0.26283365656E+04  0.26273026789E+04 0.  0.
        1    1    3    3  502    0 -0.30268299403E+03  0.24607846526E+03 -0.12917461304E+04  0.13493626908E+04  0.50400001928E-02 0.  1.
       -1    1    3    3    0  502  0.30268299403E+03 -0.24607846526E+03  0.12180322518E+04  0.12789738748E+04  0.50400001928E-02 0. -1.
</event>
<event>
 5   0  0.6173140E-06  0.2615079E+04  0.7818609E-02  0.8363097E-01
        2   -1    0    0  501    0  0.00000000000E+00  0.00000000000E+00  0.14805267573E+04  0.14805267573E+04  0.25500000920E-02 0.  1.
       -2   -1    0    0    0  501  0.00000000000E+00  0.00000000000E+00 -0.11547646824E+04  0.11547646824E+04  0.25500000920E-02 0. -1.
    10030    2    1    2    0    0  0.00000000000E+00  0.00000000000E+00  0.32576207483E+03  0.26352914397E+04  0.26150793569E+04 0.  0.
        3    1    3    3  502    0  0.71167038100E+03 -0.65325133837E+03 -0.72509235986E+03  0.12078787120E+04  0.10100000352E+00 0. -1.
       -3    1    3    3    0  502 -0.71167038100E+03  0.65325133837E+03  0.10508544347E+04  0.14274127278E+04  0.10100000352E+00 0.  1.
</event>
<event>
 5   0  0.6161834E-06  0.2606030E+04  0.7818609E-02  0.8366156E-01
       -2   -1    0    0    0  501  0.00000000000E+00  0.00000000000E+00  0.61095387080E+03  0.61095387080E+03  0.25500000920E-02 0.  1.
        2   -1    0    0  501    0  0.00000000000E+00  0.00000000000E+00 -0.27790120794E+04  0.27790120794E+04  0.25500000920E-02 0. -1.
    10030    2    1    2    0    0  0.00000000000E+00  0.00000000000E+00 -0.21680582086E+04  0.33899659502E+04  0.26060300742E+04 0.  0.
        5    1    3    3  502    0 -0.84014809016E+03 -0.29356450916E+03 -0.23220597373E+04  0.24867674696E+04  0.46999998093E+01 0. -1.
       -5    1    3    3    0  502  0.84014809016E+03  0.29356450916E+03  0.15400152872E+03  0.90319848056E+03  0.46999998093E+01 0.  1.
</event>
<event>
 5   0  0.6161834E-06  0.2621211E+04  0.7818609E-02  0.8361032E-01
       -2   -1    0    0    0  501  0.00000000000E+00  0.00000000000E+00  0.87121973184E+03  0.87121973185E+03  0.25500000920E-02 0. -1.
        2   -1    0    0  501    0  0.00000000000E+00  0.00000000000E+00 -0.19715880548E+04  0.19715880548E+04  0.25500000920E-02 0.  1.
    10030    2    1    2    0    0  0.00000000000E+00  0.00000000000E+00 -0.11003683229E+04  0.28428077866E+04  0.26212107251E+04 0.  0.
        5    1    3    3  502    0 -0.44570681704E+02 -0.27617673283E+03  0.83845235261E+03  0.88390303259E+03  0.46999998093E+01 0. -1.
       -5    1    3    3    0  502  0.44570681704E+02  0.27617673283E+03 -0.19388206756E+04  0.19589047540E+04  0.46999998093E+01 0.  1.
</event>
<event>
 5   0  0.6173140E-06  0.2622825E+04  0.7818609E-02  0.8360489E-01
        2   -1    0    0  501    0  0.00000000000E+00  0.00000000000E+00  0.18495616473E+04  0.18495616473E+04  0.25500000920E-02 0. -1.
       -2   -1    0    0    0  501  0.00000000000E+00  0.00000000000E+00 -0.92984364254E+03  0.92984364255E+03  0.25500000920E-02 0.  1.
    10030    2    1    2    0    0  0.00000000000E+00  0.00000000000E+00  0.91971800476E+03  0.27794052898E+04  0.26228253005E+04 0.  0.
        3    1    3    3  502    0 -0.11846677937E+04  0.35496803685E+03  0.92221216395E+03  0.15426974344E+04  0.10100000352E+00 0.  1.
       -3    1    3    3    0  502  0.11846677937E+04 -0.35496803685E+03 -0.24941591937E+01  0.12367078554E+04  0.10100000352E+00 0. -1.
</event>
<event>
 5   0  0.2440590E-06  0.2595619E+04  0.7818609E-02  0.8369691E-01
        1   -1    0    0  501    0  0.00000000000E+00  0.00000000000E+00  0.13363349014E+04  0.13363349014E+04  0.50400001928E-02 0.  1.
       -1   -1    0    0    0  501  0.00000000000E+00  0.00000000000E+00 -0.12603947698E+04  0.12603947698E+04  0.50400001928E-02 0. -1.
    10030    2    1    2    0    0  0.00000000000E+00  0.00000000000E+00  0.75940131615E+02  0.25967296712E+04  0.25956190170E+04 0.  0.
        1    1    3    3  502    0 -0.81384745749E+03  0.43994799719E+03  0.94852851632E+03  0.13249936870E+04  0.50400001928E-02 0.  1.
       -1    1    3    3    0  502  0.81384745749E+03 -0.43994799719E+03 -0.87258838471E+03  0.12717359842E+04  0.50400001928E-02 0. -1.
</event>
<event>
 5   0  0.2471488E-06  0.2599035E+04  0.7818609E-02  0.8368529E-01
        1   -1    0    0  501    0  0.00000000000E+00  0.00000000000E+00  0.16582890568E+04  0.16582890568E+04  0.50400001928E-02 0.  1.
       -1   -1    0    0    0  501  0.00000000000E+00  0.00000000000E+00 -0.10183661083E+04  0.10183661083E+04  0.50400001928E-02 0. -1.
    10030    2    1    2    0    0  0.00000000000E+00  0.00000000000E+00  0.63992294851E+03  0.26766551652E+04  0.25990347234E+04 0.  0.
        4    1    3    3  502    0 -0.10192062912E+04  0.57009744883E+03  0.90703083084E+03  0.14786815432E+04  0.12699999809E+01 0. -1.
       -4    1    3    3    0  502  0.10192062912E+04 -0.57009744883E+03 -0.26710788233E+03  0.11979736220E+04  0.12699999809E+01 0.  1.
</event>
<event>
 5   0  0.2456600E-06  0.2597972E+04  0.7818609E-02  0.8368890E-01
        1   -1    0    0  501    0  0.00000000000E+00  0.00000000000E+00  0.18580019426E+04  0.18580019426E+04  0.50400001928E-02 0.  1.
       -1   -1    0    0    0  501  0.00000000000E+00  0.00000000000E+00 -0.90816086261E+03  0.90816086263E+03  0.50400001928E-02 0. -1.
    10030    2    1    2    0    0  0.00000000000E+00  0.00000000000E+00  0.94984107997E+03  0.27661628052E+04  0.25979720144E+04 0.  0.
        5    1    3    3  502    0 -0.83895610492E+03  0.96039613260E+03  0.21165963002E+03  0.12926832429E+04  0.46999998093E+01 0.  1.
       -5    1    3    3    0  502  0.83895610492E+03 -0.96039613260E+03  0.73818144994E+03  0.14734795623E+04  0.46999998093E+01 0. -1.
</event>
<event>
 5   0  0.6158063E-06  0.2600679E+04  0.7818609E-02  0.8367971E-01
        2   -1    0    0  501    0  0.00000000000E+00  0.00000000000E+00  0.20867236723E+04  0.20867236723E+04  0.25500000920E-02 0. -1.
       -2   -1    0    0    0  501  0.00000000000E+00  0.00000000000E+00 -0.81030504540E+03  0.81030504541E+03  0.25500000920E-02 0.  1.
    10030    2    1    2    0    0  0.00000000000E+00  0.00000000000E+00  0.12764186269E+04  0.28970287177E+04  0.26006789267E+04 0.  0.
        2    1    3    3  502    0  0.22822884475E+03 -0.68060109919E+03 -0.56958088790E+03  0.91636709329E+03  0.25500000920E-02 0.  1.
       -2    1    3    3    0  502 -0.22822884475E+03  0.68060109919E+03  0.18459995148E+04  0.19806616244E+04  0.25500000920E-02 0. -1.
</event>
<event>
 5   0  0.2333979E-06  0.2602865E+04  0.7818609E-02  0.8367229E-01
        1   -1    0    0  501    0  0.00000000000E+00  0.00000000000E+00  0.12507172141E+04  0.12507172141E+04  0.50400001928E-02 0.  1.
       -1   -1    0    0    0  501  0.00000000000E+00  0.00000000000E+00 -0.13542044642E+04  0.13542044642E+04  0.50400001928E-02 0. -1.
    10030    2    1    2    0    0  0.00000000000E+00  0.00000000000E+00 -0.10348725011E+03  0.26049216784E+04  0.26028652173E+04 0.  0.
        3    1    3    3  502    0  0.12789532414E+03  0.48368791706E+03 -0.12541151676E+04  0.13502281581E+04  0.10100000352E+00 0. -1.
       -3    1    3    3    0  502 -0.12789532414E+03 -0.48368791706E+03  0.11506279175E+04  0.12546935203E+04  0.10100000352E+00 0.  1.
</event>
<event>
 5   0  0.2471488E-06  0.2597858E+04  0.7818609E-02  0.8368929E-01
       -1   -1    0    0    0  501  0.00000000000E+00  0.00000000000E+00  0.14145472150E+04  0.14145472150E+04  0.50400001928E-02 0. -1.
        1   -1    0    0  501    0  0.00000000000E+00  0.00000000000E+00 -0.11927611902E+04  0.11927611903E+04  0.50400001928E-02 0.  1.
    10030    2    1    2    0    0  0.00000000000E+00  0.00000000000E+00  0.22178602474E+03  0.26073084053E+04  0.25978583640E+04 0.  0.
        4    1    3    3  502    0 -0.77737039207E+03  0.11886823390E+03 -0.92668629573E+03  0.12153943751E+04  0.12699999809E+01 0.  1.
       -4    1    3    3    0  502  0.77737039207E+03 -0.11886823390E+03  0.11484723205E+04  0.13919140301E+04  0.12699999809E+01 0. -1.
</event>
<event>
 5   0  0.5942229E-06  0.2570529E+04  0.7818609E-02  0.8378281E-01
        2   -1    0    0  501    0  0.00000000000E+00  0.00000000000E+00  0.22901882369E+04  0.22901882369E+04  0.25500000920E-02 0.  1.
       -2   -1    0    0    0  501  0.00000000000E+00  0.00000000000E+00 -0.72129680493E+03  0.72129680493E+03  0.25500000920E-02 0. -1.
    10030    2    1    2    0    0  0.00000000000E+00  0.00000000000E+00  0.15688914320E+04  0.30114850418E+04  0.25705294847E+04 0.  0.
        4    1    3    3  502    0 -0.78440040659E+03  0.64679115904E+02  0.19748371334E+04  0.21258999746E+04  0.12699999809E+01 0.  1.
       -4    1    3    3    0  502  0.78440040659E+03 -0.64679115904E+02 -0.40594570139E+03  0.88558506721E+03  0.12699999809E+01 0. -1.
</event>
<event>
 5   0  0.2471488E-06  0.2602905E+04  0.7818609E-02  0.8367215E-01
       -1   -1    0    0    0  501  0.00000000000E+00  0.00000000000E+00  0.60174101343E+03  0.60174101345E+03  0.50400001928E-02 0. -1.
        1   -1    0    0  501    0  0.00000000000E+00  0.00000000000E+00 -0.28147961245E+04  0.28147961245E+04  0.50400001928E-02 0.  1.
    10030    2    1    2    0    0  0.00000000000E+00  0.00000000000E+00 -0.22130551111E+04  0.34165371380E+04  0.26029047409E+04 0.  0.
        4    1    3    3  502    0 -0.10048488687E+04 -0.15031909947E+03 -0.38998936955E+02  0.10167790373E+04  0.12699999809E+01 0. -1.
       -4    1    3    3    0  502  0.10048488687E+04  0.15031909947E+03 -0.21740561741E+04  0.23997581007E+04  0.12699999809E+01 0.  1.
</event>
<event>
 5   0  0.2471488E-06  0.2596991E+04  0.7818609E-02  0.8369224E-01
        1   -1    0    0  501    0  0.00000000000E+00  0.00000000000E+00  0.18389895770E+04  0.18389895771E+04  0.50400001928E-02 0. -1.
       -1   -1    0    0    0  501  0.00000000000E+00  0.00000000000E+00 -0.91685693463E+03  0.91685693464E+03  0.50400001928E-02 0.  1.
    10030    2    1    2    0    0  0.00000000000E+00  0.00000000000E+00  0.92213264242E+03  0.27558465117E+04  0.25969908328E+04 0.  0.
        4    1    3    3  502    0 -0.21283874680E+03 -0.29336399540E+03 -0.86209115563E+03  0.93518208892E+03  0.12699999809E+01 0.  1.
       -4    1    3    3    0  502  0.21283874680E+03  0.29336399540E+03  0.17842237980E+04  0.18206644228E+04  0.12699999809E+01 0. -1.
</event>
<event>
 5   0  0.2440590E-06  0.2575727E+04  0.7818609E-02  0.8376493E-01
       -1   -1    0    0    0  501  0.00000000000E+00  0.00000000000E+00  0.13991065982E+04  0.13991065982E+04  0.50400001928E-02 0. -1.
        1   -1    0    0  501    0  0.00000000000E+00  0.00000000000E+00 -0.11854652629E+04  0.11854652629E+04  0.50400001928E-02 0.  1.
    10030    2    1    2    0    0  0.00000000000E+00  0.00000000000E+00  0.21364133527E+03  0.25845718611E+04  0.25757269042E+04 0.  0.
        1    1    3    3  502    0  0.12314159864E+04 -0.37621073620E+03  0.80800526314E+02  0.12901350994E+04  0.50400001928E-02 0.  1.
       -1    1    3    3    0  502 -0.12314159864E+04  0.37621073620E+03  0.13284080895E+03  0.12944367617E+04  0.50400001928E-02 0. -1.
</event>
<event>
 5   0  0.5940748E-06  0.2600549E+04  0.7818609E-02  0.8368015E-01
       -2   -1    0    0    0  501  0.00000000000E+00  0.00000000000E+00  0.67859083030E+03  0.67859083031E+03  0.25500000920E-02 0.  1.
        2   -1    0    0  501    0  0.00000000000E+00  0.00000000000E+00 -0.24915062719E+04  0.24915062719E+04  0.25500000920E-02 0. -1.
    10030    2    1    2    0    0  0.00000000000E+00  0.00000000000E+00 -0.18129154416E+04  0.31700971022E+04  0.26005486419E+04 0.  0.
        1    1    3    3  502    0  0.23517635700E+03 -0.10846427337E+04 -0.17322919657E+04  0.20573267200E+04  0.50400001928E-02 0. -1.
       -1    1    3    3    0  502 -0.23517635700E+03  0.10846427337E+04 -0.80623475915E+02  0.11127703822E+04  0.50400001928E-02 0.  1.
</event>
<event>
 5   0  0.2333979E-06  0.2543388E+04  0.7818609E-02  0.8387689E-01
        1   -1    0    0  501    0  0.00000000000E+00  0.00000000000E+00  0.26690751087E+04  0.26690751087E+04  0.50400001928E-02 0.  1.
       -1   -1    0    0    0  501  0.00000000000E+00  0.00000000000E+00 -0.60590495052E+03  0.60590495054E+03  0.50400001928E-02 0. -1.
    10030    2    1    2    0    0  0.00000000000E+00  0.00000000000E+00  0.20631701582E+04  0.32749800593E+04  0.25433881510E+04 0.  0.
        3    1    3    3  502    0  0.36731033209E+03 -0.59135569307E+03 -0.33876608970E+03  0.77419694492E+03  0.10100000352E+00 0. -1.
       -3    1    3    3    0  502 -0.36731033209E+03  0.59135569307E+03  0.24019362479E+04  0.25007831143E+04  0.10100000352E+00 0.  1.
</event>
<event>
 5   0  0.6158063E-06  0.2596669E+04  0.7818609E-02  0.8369334E-01
       -2   -1    0    0    0  501  0.00000000000E+00  0.00000000000E+00  0.72599957077E+03  0.72599957078E+03  0.25500000920E-02 0.  1.
        2   -1    0    0  501    0  0.00000000000E+00  0.00000000000E+00 -0.23218639317E+04  0.23218639317E+04  0.25500000920E-02 0. -1.
    10030    2    1    2    0    0  0.00000000000E+00  0.00000000000E+00 -0.15958643609E+04  0.30478635025E+04  0.25966688028E+04 0.  0.
        2    1    3    3  502    0  0.53608525786E+03 -0.27981225405E+03 -0.21464735066E+04  0.22300293307E+04  0.25500000920E-02 0. -1.
       -2    1    3    3    0  502 -0.53608525786E+03  0.27981225405E+03  0.55060914568E+03  0.81783417178E+03  0.25500000920E-02 0.  1.
</event>
<event>
 5   0  0.6173140E-06  0.2615163E+04  0.7818609E-02  0.8363069E-01
        2   -1    0    0  501    0  0.00000000000E+00  0.00000000000E+00  0.15061183285E+04  0.15061183285E+04  0.25500000920E-02 0.  1.
       -2   -1    0    0    0  501  0.00000000000E+00  0.00000000000E+00 -0.11352162347E+04  0.11352162347E+04  0.25500000920E-02 0. -1.
    10030    2    1    2    0    0  0.00000000000E+00  0.00000000000E+00  0.37090209379E+03  0.26413345632E+04  0.26151634579E+04 0.  0.
        3    1    3    3  502    0  0.82071159737E+01 -0.28596265128E+03  0.14741223815E+04  0.15016253862E+04  0.10100000352E+00 0.  1.
       -3    1    3    3    0  502 -0.82071159737E+01  0.28596265128E+03 -0.11032202877E+04  0.11397091770E+04  0.10100000352E+00 0. -1.
</event>
<event>
 5   0  0.2072125E-06  0.2599105E+04  0.7818609E-02  0.8368505E-01
        3   -1    0    0  501    0  0.00000000000E+00  0.00000000000E+00  0.12614825367E+04  0.12614825407E+04  0.10100000352E+00 0. -1.
       -3   -1    0    0    0  501  0.00000000000E+00  0.00000000000E+00 -0.13387709434E+04  0.13387709472E+04  0.10100000352E+00 0.  1.
    10030    2    1    2    0    0  0.00000000000E+00  0.00000000000E+00 -0.77288406737E+02  0.26002534880E+04  0.25991045965E+04 0.  0.
        3    1    3    3  502    0  0.36954648981E+03  0.63042163398E+03 -0.11137541060E+04  0.13320826790E+04  0.10100000352E+00 0.  1.
       -3    1    3    3    0  502 -0.36954648981E+03 -0.63042163398E+03  0.10364656993E+04  0.12681708090E+04  0.10100000352E+00 0. -1.
</event>
<event>
 5   0  0.2456600E-06  0.2610556E+04  0.7818609E-02  0.8364625E-01
        1   -1    0    0  501    0  0.00000000000E+00  0.00000000000E+00  0.11510287844E+04  0.11510287844E+04  0.50400001928E-02 0. -1.
       -1   -1    0    0    0  501  0.00000000000E+00  0.00000000000E+00 -0.14801976378E+04  0.14801976378E+04  0.50400001928E-02 0.  1.
    10030    2    1    2    0    0  0.00000000000E+00  0.00000000000E+00 -0.32916885340E+03  0.26312264222E+04  0.26105555637E+04 0.  0.
        5    1    3    3  502    0  0.10696028442E+04 -0.22322001697E+02 -0.91828855482E+03  0.14099022930E+04  0.46999998093E+01 0.  1.
       -5    1    3    3    0  502 -0.10696028442E+04  0.22322001697E+02  0.58911970141E+03  0.12213241292E+04  0.46999998093E+01 0. -1.
</event>
<event>
 5   0  0.5942229E-06  0.2594752E+04  0.7818609E-02  0.8369986E-01
        2   -1    0    0  501    0  0.00000000000E+00  0.00000000000E+00  0.11506348935E+04  0.11506348935E+04  0.25500000920E-02 0.  1.
       -2   -1    0    0    0  501  0.00000000000E+00  0.00000000000E+00 -0.14628306244E+04  0.14628306244E+04  0.25500000920E-02 0. -1.
    10030    2    1    2    0    0  0.00000000000E+00  0.00000000000E+00 -0.31219573097E+03  0.26134655179E+04  0.25947515949E+04 0.  0.
        4    1    3    3  502    0 -0.11593091472E+03 -0.56283583494E+02  0.11441715781E+04  0.11514069792E+04  0.12699999809E+01 0.  1.
       -4    1    3    3    0  502  0.11593091472E+03  0.56283583494E+02 -0.14563673091E+04  0.14620585387E+04  0.12699999809E+01 0. -1.
</event>
<event>
 5   0  0.5942229E-06  0.2581910E+04  0.7818609E-02  0.8374372E-01
       -2   -1    0    0    0  501  0.00000000000E+00  0.00000000000E+00  0.75768613674E+03  0.75768613674E+03  0.25500000920E-02 0. -1.
        2   -1    0    0  501    0  0.00000000000E+00  0.00000000000E+00 -0.21995447065E+04  0.21995447065E+04  0.25500000920E-02 0.  1.
    10030    2    1    2    0    0  0.00000000000E+00  0.00000000000E+00 -0.14418585698E+04  0.29572308432E+04  0.25819097825E+04 0.  0.
        4    1    3    3  502    0 -0.80261561617E+03  0.96685074928E+03 -0.10598699080E+04  0.16438728763E+04  0.12699999809E+01 0.  1.
       -4    1    3    3    0  502  0.80261561617E+03 -0.96685074928E+03 -0.38198866179E+03  0.13133579669E+04  0.12699999809E+01 0. -1.
</event>
<event>
 5   0  0.6158063E-06  0.2599851E+04  0.7818609E-02  0.8368252E-01
       -2   -1    0    0    0  501  0.00000000000E+00  0.00000000000E+00  0.14184178621E+04  0.14184178621E+04  0.25500000920E-02 0.  1.
        2   -1    0    0  501    0  0.00000000000E+00  0.00000000000E+00 -0.11913317844E+04  0.11913317844E+04  0.25500000920E-02 0. -1.
    10030    2    1    2    0    0  0.00000000000E+00  0.00000000000E+00  0.22708607770E+03  0.26097496465E+04  0.25998509824E+04 0.  0.
        2    1    3    3  502    0  0.84290991694E+03  0.65748955922E+03  0.85596474006E+03  0.13694762812E+04  0.25500000920E-02 0.  1.
       -2    1    3    3    0  502 -0.84290991694E+03 -0.65748955922E+03 -0.62887866236E+03  0.12402733652E+04  0.25500000920E-02 0. -1.
</event>
<event>
 5   0  0.2456600E-06  0.2598064E+04  0.7818609E-02  0.8368859E-01
       -1   -1    0    0    0  501  0.00000000000E+00  0.00000000000E+00  0.10405268338E+04  0.10405268338E+04  0.50400001928E-02 0.  1.
        1   -1    0    0  501    0  0.00000000000E+00  0.00000000000E+00 -0.16217592101E+04  0.16217592101E+04  0.50400001928E-02 0. -1.
    10030    2    1    2    0    0  0.00000000000E+00  0.00000000000E+00 -0.58123237625E+03  0.26622860439E+04  0.25980638761E+04 0.  0.
        5    1    3    3  502    0  0.75538273168E+03  0.15844890130E+03 -0.13613143089E+04  0.15648986751E+04  0.46999998093E+01 0. -1.
       -5    1    3    3    0  502 -0.75538273168E+03 -0.15844890130E+03  0.78008193265E+03  0.10973873688E+04  0.46999998093E+01 0.  1.
</event>
<event>
 5   0  0.6173140E-06  0.2450561E+04  0.7818609E-02  0.8420813E-01
       -2   -1    0    0    0  501  0.00000000000E+00  0.00000000000E+00  0.11794012878E+04  0.11794012878E+04  0.25500000920E-02 0. -1.
        2   -1    0    0  501    0  0.00000000000E+00  0.00000000000E+00 -0.12729443351E+04  0.12729443351E+04  0.25500000920E-02 0.  1.
    10030    2    1    2    0    0  0.00000000000E+00  0.00000000000E+00 -0.93543047289E+02  0.24523456229E+04  0.24505609057E+04 0.  0.
        3    1    3    3  502    0 -0.93091922802E+03 -0.69276931599E+03 -0.44046907722E+03  0.12411901355E+04  0.10100000352E+00 0.  1.
       -3    1    3    3    0  502  0.93091922802E+03  0.69276931599E+03  0.34692602993E+03  0.12111554874E+04  0.10100000352E+00 0. -1.
</event>
<event>
 5   0  0.2072125E-06  0.2598268E+04  0.7818609E-02  0.8368790E-01
       -3   -1    0    0    0  501  0.00000000000E+00  0.00000000000E+00  0.14945206245E+04  0.14945206279E+04  0.10100000352E+00 0. -1.
        3   -1    0    0  501    0  0.00000000000E+00  0.00000000000E+00 -0.11292914757E+04  0.11292914802E+04  0.10100000352E+00 0.  1.
    10030    2    1    2    0    0  0.00000000000E+00  0.00000000000E+00  0.36522914880E+03  0.26238121082E+04  0.25982682017E+04 0.  0.
        2    1    3    3  502    0 -0.10575812579E+04 -0.74980548893E+03  0.26748259790E+03  0.13237195052E+04  0.25500000920E-02 0. -1.
       -2    1    3    3    0  502  0.10575812579E+04  0.74980548893E+03  0.97746550898E+02  0.13000926030E+04  0.25500000920E-02 0.  1.
</event>
<event>
 5   0  0.2333979E-06  0.2604718E+04  0.7818609E-02  0.8366600E-01
       -1   -1    0    0    0  501  0.00000000000E+00  0.00000000000E+00  0.34712683026E+04  0.34712683026E+04  0.50400001928E-02 0. -1.
        1   -1    0    0  501    0  0.00000000000E+00  0.00000000000E+00 -0.48862231717E+03  0.48862231720E+03  0.50400001928E-02 0.  1.
    10030    2    1    2    0    0  0.00000000000E+00  0.00000000000E+00  0.29826459855E+04  0.39598906198E+04  0.26047181511E+04 0.  0.
        3    1    3    3  502    0  0.76891767011E+03  0.34625246919E+03  0.30001646093E+04  0.31164262945E+04  0.10100000352E+00 0. -1.
       -3    1    3    3    0  502 -0.76891767011E+03 -0.34625246919E+03 -0.17518623801E+02  0.84346432539E+03  0.10100000352E+00 0.  1.
</event>
<event>
 5   0  0.2072125E-06  0.2565592E+04  0.7818609E-02  0.8379984E-01
        3   -1    0    0  501    0  0.00000000000E+00  0.00000000000E+00  0.15279488604E+04  0.15279488637E+04  0.10100000352E+00 0. -1.
       -3   -1    0    0    0  501  0.00000000000E+00  0.00000000000E+00 -0.10769767087E+04  0.10769767135E+04  0.10100000352E+00 0.  1.
    10030    2    1    2    0    0  0.00000000000E+00  0.00000000000E+00  0.45097215161E+03  0.26049255772E+04  0.25655918189E+04 0.  0.
        4    1    3    3  502    0 -0.87518329975E+03  0.79348811545E+03  0.73314615742E+03  0.13903503510E+04  0.12699999809E+01 0.  1.
       -4    1    3    3    0  502  0.87518329975E+03 -0.79348811545E+03 -0.28217400581E+03  0.12145752262E+04  0.12699999809E+01 0. -1.
</event>
<event>
 5   0  0.5942229E-06  0.2596552E+04  0.7818609E-02  0.8369373E-01
       -2   -1    0    0    0  501  0.00000000000E+00  0.00000000000E+00  0.15396286064E+04  0.15396286064E+04  0.25500000920E-02 0. -1.
        2   -1    0    0  501    0  0.00000000000E+00  0.00000000000E+00 -0.10947577138E+04  0.10947577138E+04  0.25500000920E-02 0.  1.
    10030    2    1    2    0    0  0.00000000000E+00  0.00000000000E+00  0.44487089263E+03  0.26343863202E+04  0.25965517852E+04 0.  0.
        4    1    3    3  502    0  0.30421214409E+03  0.41521429574E+03  0.14316793501E+04  0.15213991305E+04  0.12699999809E+01 0. -1.
       -4    1    3    3    0  502 -0.30421214409E+03 -0.41521429574E+03 -0.98680845742E+03  0.11129871897E+04  0.12699999809E+01 0.  1.
</event>
<event>
 5   0  0.2471488E-06  0.2592481E+04  0.7818609E-02  0.8370760E-01
        1   -1    0    0  501    0  0.00000000000E+00  0.00000000000E+00  0.15048705691E+04  0.15048705691E+04  0.50400001928E-02 0. -1.
       -1   -1    0    0    0  501  0.00000000000E+00  0.00000000000E+00 -0.11165342279E+04  0.11165342279E+04  0.50400001928E-02 0.  1.
    10030    2    1    2    0    0  0.00000000000E+00  0.00000000000E+00  0.38833634125E+03  0.26214047970E+04  0.25924810502E+04 0.  0.
        4    1    3    3  502    0 -0.10569642596E+04 -0.30047909590E+03 -0.50109072778E+03  0.12077063648E+04  0.12699999809E+01 0.  1.
       -4    1    3    3    0  502  0.10569642596E+04  0.30047909590E+03  0.88942706903E+03  0.14136984322E+04  0.12699999809E+01 0. -1.
</event>
<event>
 5   0  0.2333979E-06  0.2607869E+04  0.7818609E-02  0.8365533E-01
       -1   -1    0    0    0  501  0.00000000000E+00  0.00000000000E+00  0.95333298657E+03  0.95333298659E+03  0.50400001928E-02 0. -1.
        1   -1    0    0  501    0  0.00000000000E+00  0.00000000000E+00 -0.17834741388E+04  0.17834741388E+04  0.50400001928E-02 0.  1.
    10030    2    1    2    0    0  0.00000000000E+00  0.00000000000E+00 -0.83014115221E+03  0.27368071254E+04  0.26078686525E+04 0.  0.
        3    1    3    3  502    0 -0.35178126674E+03  0.73478956197E+03 -0.14835340300E+04  0.16924949005E+04  0.10100000352E+00 0.  1.
       -3    1    3    3    0  502  0.35178126674E+03 -0.73478956197E+03  0.65339287778E+03  0.10443122248E+04  0.10100000352E+00 0. -1.
</event>
<event>
 5   0  0.6158063E-06  0.2604470E+04  0.7818609E-02  0.8366684E-01
        2   -1    0    0  501    0  0.00000000000E+00  0.00000000000E+00  0.23139503914E+04  0.23139503914E+04  0.25500000920E-02 0. -1.
       -2   -1    0    0    0  501  0.00000000000E+00  0.00000000000E+00 -0.73286624134E+03  0.73286624134E+03  0.25500000920E-02 0.  1.
    10030    2    1    2    0    0  0.00000000000E+00  0.00000000000E+00  0.15810841500E+04  0.30468166327E+04  0.26044701004E+04 0.  0.
        2    1    3    3  502    0 -0.23721628453E+03  0.22750525330E+03  0.22646283920E+04  0.22883557328E+04  0.25500000920E-02 0. -1.
       -2    1    3    3    0  502  0.23721628453E+03 -0.22750525330E+03 -0.68354424199E+03  0.75846089991E+03  0.25500000920E-02 0.  1.
</event>
<event>
 5   0  0.2333979E-06  0.2598408E+04  0.7818609E-02  0.8368742E-01
       -1   -1    0    0    0  501  0.00000000000E+00  0.00000000000E+00  0.29130327600E+04  0.29130327600E+04  0.50400001928E-02 0.  1.
        1   -1    0    0  501    0  0.00000000000E+00  0.00000000000E+00 -0.57944135112E+03  0.57944135114E+03  0.50400001928E-02 0. -1.
    10030    2    1    2    0    0  0.00000000000E+00  0.00000000000E+00  0.23335914089E+04  0.34924741112E+04  0.25984084655E+04 0.  0.
        3    1    3    3  502    0  0.12085659510E+04  0.34684336133E+03  0.16064557065E+04  0.20400078241E+04  0.10100000352E+00 0. -1.
       -3    1    3    3    0  502 -0.12085659510E+04 -0.34684336133E+03  0.72713570244E+03  0.14524662871E+04  0.10100000352E+00 0.  1.
</event>
<event>
 5   0  0.5942229E-06  0.2602327E+04  0.7818609E-02  0.8367411E-01
       -2   -1    0    0    0  501  0.00000000000E+00  0.00000000000E+00  0.14464032001E+04  0.14464032001E+04  0.25500000920E-02 0.  1.
        2   -1    0    0  501    0  0.00000000000E+00  0.00000000000E+00 -0.11705082702E+04  0.11705082702E+04  0.25500000920E-02 0. -1.
    10030    2    1    2    0    0  0.00000000000E+00  0.00000000000E+00  0.27589492996E+03  0.26169114703E+04  0.26023273489E+04 0.  0.
        4    1    3    3  502    0  0.76846483993E+03 -0.69544564930E+03 -0.65312660161E+03  0.12250546241E+04  0.12699999809E+01 0. -1.
       -4    1    3    3    0  502 -0.76846483993E+03  0.69544564930E+03  0.92902153156E+03  0.13918568462E+04  0.12699999809E+01 0.  1.
</event>
<event>
 5   0  0.5940748E-06  0.2597529E+04  0.7818609E-02  0.8369041E-01
        2   -1    0    0  501    0  0.00000000000E+00  0.00000000000E+00  0.21031857809E+04  0.21031857809E+04  0.25500000920E-02 0.  1.
       -2   -1    0    0    0  501  0.00000000000E+00  0.00000000000E+00 -0.80201639011E+03  0.80201639011E+03  0.25500000920E-02 0. -1.
    10030    2    1    2    0    0  0.00000000000E+00  0.00000000000E+00  0.13011693908E+04  0.29052021711E+04  0.25975291858E+04 0.  0.
        1    1    3    3  502    0  0.12167611317E+04  0.13594255648E+03  0.16589322156E+03  0.12355195633E+04  0.50400001928E-02 0. -1.
       -1    1    3    3    0  502 -0.12167611317E+04 -0.13594255648E+03  0.11352761693E+04  0.16696826078E+04  0.50400001928E-02 0.  1.
</event>
<event>
 5   0  0.5940748E-06  0.2611422E+04  0.7818609E-02  0.8364332E-01
       -2   -1    0    0    0  501  0.00000000000E+00  0.00000000000E+00  0.11016089546E+04  0.11016089546E+04  0.25500000920E-02 0.  1.
        2   -1    0    0  501    0  0.00000000000E+00  0.00000000000E+00 -0.15476282521E+04  0.15476282521E+04  0.25500000920E-02 0. -1.
    10030    2    1    2    0    0  0.00000000000E+00  0.00000000000E+00 -0.44601929744E+03  0.26492372067E+04  0.26114219429E+04 0.  0.
        1    1    3    3  502    0 -0.31978919247E+03  0.34240824900E+03 -0.14594167809E+04  0.15327771778E+04  0.50400001928E-02 0. -1.
       -1    1    3    3    0  502  0.31978919247E+03 -0.34240824900E+03  0.10133974834E+04  0.11164600289E+04  0.50400001928E-02 0.  1.
</event>
<event>
 5   0  0.6173140E-06  0.2592409E+04  0.7818609E-02  0.8370784E-01
       -2   -1    0    0    0  501  0.00000000000E+00  0.00000000000E+00  0.91571035769E+03  0.91571035769E+03  0.25500000920E-02 0. -1.
        2   -1    0    0  501    0  0.00000000000E+00  0.00000000000E+00 -0.18348008856E+04  0.18348008856E+04  0.25500000920E-02 0.  1.
    10030    2    1    2    0    0  0.00000000000E+00  0.00000000000E+00 -0.91909052795E+03  0.27505112433E+04  0.25924090536E+04 0.  0.
        3    1    3    3  502    0  0.64019185211E+03  0.33309670839E+03  0.68285065412E+03  0.99352103686E+03  0.10100000352E+00 0. -1.
       -3    1    3    3    0  502 -0.64019185211E+03 -0.33309670839E+03 -0.16019411821E+04  0.17569902065E+04  0.10100000352E+00 0.  1.
</event>
<event>
 5   0  0.6161834E-06  0.2590014E+04  0.7818609E-02  0.8371601E-01
        2   -1    0    0  501    0  0.00000000000E+00  0.00000000000E+00  0.75891048966E+03  0.75891048966E+03  0.25500000920E-02 0. -1.
       -2   -1    0    0    0  501  0.00000000000E+00  0.00000000000E+00 -0.22098032734E+04  0.22098032734E+04  0.25500000920E-02 0.  1.
    10030    2    1    2    0    0  0.00000000000E+00  0.00000000000E+00 -0.14508927837E+04  0.29687137630E+04  0.25900138102E+04 0.  0.
        5    1    3    3  502    0  0.42059390995E+02 -0.92359458901E+03  0.31390294144E+03  0.97639802533E+03  0.46999998093E+01 0. -1.
       -5    1    3    3    0  502 -0.42059390995E+02  0.92359458901E+03 -0.17647957252E+04  0.19923157377E+04  0.46999998093E+01 0.  1.
</event>
<event>
 5   0  0.2333979E-06  0.2603930E+04  0.7818609E-02  0.8366868E-01
        1   -1    0    0  501    0  0.00000000000E+00  0.00000000000E+00  0.13792928021E+04  0.13792928021E+04  0.50400001928E-02 0. -1.
       -1   -1    0    0    0  501  0.00000000000E+00  0.00000000000E+00 -0.12289723641E+04  0.12289723641E+04  0.50400001928E-02 0.  1.
    10030    2    1    2    0    0  0.00000000000E+00  0.00000000000E+00  0.15032043797E+03  0.26082651662E+04  0.26039299037E+04 0.  0.
        3    1    3    3  502    0 -0.80617625370E+03  0.82353313310E+03 -0.53164185167E+03  0.12691611568E+04  0.10100000352E+00 0.  1.
       -3    1    3    3    0  502  0.80617625370E+03 -0.82353313310E+03  0.68196228964E+03  0.13391040094E+04  0.10100000352E+00 0. -1.
</event>
<event>
 5   0  0.2471488E-06  0.2599443E+04  0.7818609E-02  0.8368390E-01
        1   -1    0    0  501    0  0.00000000000E+00  0.00000000000E+00  0.15507967626E+04  0.15507967626E+04  0.50400001928E-02 0. -1.
       -1   -1    0    0    0  501  0.00000000000E+00  0.00000000000E+00 -0.10892958022E+04  0.10892958022E+04  0.50400001928E-02 0.  1.
    10030    2    1    2    0    0  0.00000000000E+00  0.00000000000E+00  0.46150096045E+03  0.26400925649E+04  0.25994433278E+04 0.  0.
        4    1    3    3  502    0  0.49175722342E+03  0.39446536552E+03 -0.92361754954E+03  0.11182571628E+04  0.12699999809E+01 0.  1.
       -4    1    3    3    0  502 -0.49175722342E+03 -0.39446536552E+03  0.13851185100E+04  0.15218354021E+04  0.12699999809E+01 0. -1.
</event>
<event>
 5   0  0.5942229E-06  0.2562665E+04  0.7818609E-02  0.8380995E-01
        2   -1    0    0  501    0  0.00000000000E+00  0.00000000000E+00  0.16341611784E+04  0.16341611784E+04  0.25500000920E-02 0. -1.
       -2   -1    0    0    0  501  0.00000000000E+00  0.00000000000E+00 -0.10046820875E+04  0.10046820875E+04  0.25500000920E-02 0.  1.
    10030    2    1    2    0    0  0.00000000000E+00  0.00000000000E+00  0.62947909092E+03  0.26388432660E+04  0.25626646008E+04 0.  0.
        4    1    3    3  502    0 -0.12758451156E+04  0.89511276397E+02  0.39462018893E+03  0.13384766468E+04  0.12699999809E+01 0. -1.
       -4    1    3    3    0  502  0.12758451156E+04 -0.89511276397E+02  0.23485890199E+03  0.13003666192E+04  0.12699999809E+01 0.  1.
</event>
<event>
 5   0  0.2333979E-06  0.2627112E+04  0.7818609E-02  0.8359050E-01
        1   -1    0    0  501    0  0.00000000000E+00  0.00000000000E+00  0.16067925756E+04  0.16067925756E+04  0.50400001928E-02 0. -1.
       -1   -1    0    0    0  501  0.00000000000E+00  0.00000000000E+00 -0.10738346969E+04  0.10738346969E+04  0.50400001928E-02 0.  1.
    10030    2    1    2    0    0  0.00000000000E+00  0.00000000000E+00  0.53295787872E+03  0.26806272725E+04  0.26271121928E+04 0.  0.
        3    1    3    3  502    0  0.42872105066E+03  0.10907803685E+04  0.87171084169E+03  0.14606448416E+04  0.10100000352E+00 0. -1.
       -3    1    3    3    0  502 -0.42872105066E+03 -0.10907803685E+04 -0.33875296297E+03  0.12199824309E+04  0.10100000352E+00 0.  1.
</event>
<event>
 5   0  0.2503292E-06  0.2584314E+04  0.7818609E-02  0.8373549E-01
       -1   -1    0    0    0  501  0.00000000000E+00  0.00000000000E+00  0.11461798024E+04  0.11461798024E+04  0.50400001928E-02 0.  1.
        1   -1    0    0  501    0  0.00000000000E+00  0.00000000000E+00 -0.14567260827E+04  0.14567260827E+04  0.50400001928E-02 0. -1.
    10030    2    1    2    0    0  0.00000000000E+00  0.00000000000E+00 -0.31054628027E+03  0.26029058851E+04  0.25843142329E+04 0.  0.
        2    1    3    3  502    0  0.51485111876E+03  0.10747290212E+04  0.34787635460E+03  0.12414234175E+04  0.25500000920E-02 0.  1.
       -2    1    3    3    0  502 -0.51485111876E+03 -0.10747290212E+04 -0.65842263487E+03  0.13614824676E+04  0.25500000920E-02 0. -1.
</event>
<event>
 5   0  0.2333979E-06  0.2618986E+04  0.7818609E-02  0.8361781E-01
        1   -1    0    0  501    0  0.00000000000E+00  0.00000000000E+00  0.11403660939E+04  0.11403660939E+04  0.50400001928E-02 0. -1.
       -1   -1    0    0    0  501  0.00000000000E+00  0.00000000000E+00 -0.15037025196E+04  0.15037025196E+04  0.50400001928E-02 0.  1.
    10030    2    1    2    0    0  0.00000000000E+00  0.00000000000E+00 -0.36333642568E+03  0.26440686135E+04  0.26189855813E+04 0.  0.
        3    1    3    3  502    0  0.85827877536E+03  0.57490100752E+03  0.63078615860E+03  0.12103903555E+04  0.10100000352E+00 0. -1.
       -3    1    3    3    0  502 -0.85827877536E+03 -0.57490100752E+03 -0.99412258428E+03  0.14336782580E+04  0.10100000352E+00 0.  1.
</event>
<event>
 5   0  0.2333979E-06  0.2595412E+04  0.7818609E-02  0.8369761E-01
       -1   -1    0    0    0  501  0.00000000000E+00  0.00000000000E+00  0.11995350897E+04  0.11995350897E+04  0.50400001928E-02 0. -1.
        1   -1    0    0  501    0  0.00000000000E+00  0.00000000000E+00 -0.14039115686E+04  0.14039115686E+04  0.50400001928E-02 0.  1.
    10030    2    1    2    0    0  0.00000000000E+00  0.00000000000E+00 -0.20437647891E+03  0.26034466583E+04  0.25954122519E+04 0.  0.
        3    1    3    3  502    0  0.15461203166E+03  0.12884607299E+04 -0.99890649462E+02  0.13015429631E+04  0.10100000352E+00 0. -1.
       -3    1    3    3    0  502 -0.15461203166E+03 -0.12884607299E+04 -0.10448582944E+03  0.13019036952E+04  0.10100000352E+00 0.  1.
</event>
<event>
 5   0  0.2456600E-06  0.2613122E+04  0.7818609E-02  0.8363758E-01
        1   -1    0    0  501    0  0.00000000000E+00  0.00000000000E+00  0.11543541979E+04  0.11543541979E+04  0.50400001928E-02 0. -1.
       -1   -1    0    0    0  501  0.00000000000E+00  0.00000000000E+00 -0.14788364273E+04  0.14788364273E+04  0.50400001928E-02 0.  1.
    10030    2    1    2    0    0  0.00000000000E+00  0.00000000000E+00 -0.32448222942E+03  0.26331906252E+04  0.26131215340E+04 0.  0.
        5    1    3    3  502    0 -0.12600289145E+04 -0.65759326209E+02  0.17960134299E+03  0.12744708261E+04  0.46999998093E+01 0. -1.
       -5    1    3    3    0  502  0.12600289145E+04  0.65759326209E+02 -0.50408357241E+03  0.13587197990E+04  0.46999998093E+01 0.  1.
</event>
<event>
 5   0  0.2503292E-06  0.2521625E+04  0.7818609E-02  0.8395322E-01
       -1   -1    0    0    0  501  0.00000000000E+00  0.00000000000E+00  0.91254425828E+03  0.91254425829E+03  0.50400001928E-02 0.  1.
        1   -1    0    0  501    0  0.00000000000E+00  0.00000000000E+00 -0.17419958336E+04  0.17419958336E+04  0.50400001928E-02 0. -1.
    10030    2    1    2    0    0  0.00000000000E+00  0.00000000000E+00 -0.82945157530E+03  0.26545400919E+04  0.25216251077E+04 0.  0.
        2    1    3    3  502    0 -0.47998458046E+03  0.86848686292E+03 -0.12335377584E+04  0.15831203460E+04  0.25500000920E-02 0. -1.
       -2    1    3    3    0  502  0.47998458046E+03 -0.86848686292E+03  0.40408618306E+03  0.10714197459E+04  0.25500000920E-02 0.  1.
</event>
<event>
 5   0  0.2072125E-06  0.2604833E+04  0.7818609E-02  0.8366561E-01
       -3   -1    0    0    0  501  0.00000000000E+00  0.00000000000E+00  0.13731967600E+04  0.13731967637E+04  0.10100000352E+00 0. -1.
        3   -1    0    0  501    0  0.00000000000E+00  0.00000000000E+00 -0.12352849112E+04  0.12352849153E+04  0.10100000352E+00 0.  1.
    10030    2    1    2    0    0  0.00000000000E+00  0.00000000000E+00  0.13791184885E+03  0.26084816790E+04  0.26048333904E+04 0.  0.
        5    1    3    3  502    0 -0.34363705333E+03  0.12448811276E+04  0.23786852154E+03  0.13131713406E+04  0.46999998093E+01 0.  1.
       -5    1    3    3    0  502  0.34363705333E+03 -0.12448811276E+04 -0.99956672690E+02  0.12953103384E+04  0.46999998093E+01 0. -1.
</event>
<event>
 5   0  0.2503292E-06  0.2603357E+04  0.7818609E-02  0.8367062E-01
        1   -1    0    0  501    0  0.00000000000E+00  0.00000000000E+00  0.10358544222E+04  0.10358544222E+04  0.50400001928E-02 0. -1.
       -1   -1    0    0    0  501  0.00000000000E+00  0.00000000000E+00 -0.16357196026E+04  0.16357196026E+04  0.50400001928E-02 0.  1.
    10030    2    1    2    0    0  0.00000000000E+00  0.00000000000E+00 -0.59986518046E+03  0.26715740248E+04  0.26033573584E+04 0.  0.
        2    1    3    3  502    0  0.75672669986E+03 -0.28607100624E+03 -0.13464061678E+04  0.15707582525E+04  0.25500000920E-02 0.  1.
       -2    1    3    3    0  502 -0.75672669986E+03  0.28607100624E+03  0.74654098737E+03  0.11008157724E+04  0.25500000920E-02 0. -1.
</event>
<event>
 5   0  0.6161834E-06  0.2603568E+04  0.7818609E-02  0.8366990E-01
       -2   -1    0    0    0  501  0.00000000000E+00  0.00000000000E+00  0.13699862843E+04  0.13699862843E+04  0.25500000920E-02 0. -1.
        2   -1    0    0  501    0  0.00000000000E+00  0.00000000000E+00 -0.12369773194E+04  0.12369773194E+04  0.25500000920E-02 0.  1.
    10030    2    1    2    0    0  0.00000000000E+00  0.00000000000E+00  0.13300896487E+03  0.26069636037E+04  0.26035682911E+04 0.  0.
        5    1    3    3  502    0 -0.11504339776E+04 -0.60039051609E+03  0.16985130452E+03  0.13087546234E+04  0.46999998093E+01 0. -1.
       -5    1    3    3    0  502  0.11504339776E+04  0.60039051609E+03 -0.36842339650E+02  0.12982089803E+04  0.46999998093E+01 0.  1.
</event>
<event>
 5   0  0.2333979E-06  0.2594544E+04  0.7818609E-02  0.8370057E-01
       -1   -1    0    0    0  501  0.00000000000E+00  0.00000000000E+00  0.11846378040E+04  0.11846378040E+04  0.50400001928E-02 0.  1.
        1   -1    0    0  501    0  0.00000000000E+00  0.00000000000E+00 -0.14206149650E+04  0.14206149650E+04  0.50400001928E-02 0. -1.
    10030    2    1    2    0    0  0.00000000000E+00  0.00000000000E+00 -0.23597716097E+03  0.26052527690E+04  0.25945436535E+04 0.  0.
        3    1    3    3  502    0  0.38027764048E+03  0.99260654750E+03 -0.86472154955E+03  0.13702635551E+04  0.10100000352E+00 0. -1.
       -3    1    3    3    0  502 -0.38027764048E+03 -0.99260654750E+03  0.62874438858E+03  0.12349892139E+04  0.10100000352E+00 0.  1.
</event>
<event>
 5   0  0.6161834E-06  0.2605694E+04  0.7818609E-02  0.8366270E-01
        2   -1    0    0  501    0  0.00000000000E+00  0.00000000000E+00  0.14791284948E+04  0.14791284948E+04  0.25500000920E-02 0.  1.
       -2   -1    0    0    0  501  0.00000000000E+00  0.00000000000E+00 -0.11475743299E+04  0.11475743299E+04  0.25500000920E-02 0. -1.
    10030    2    1    2    0    0  0.00000000000E+00  0.00000000000E+00  0.33155416488E+03  0.26267028247E+04  0.26056936821E+04 0.  0.
        5    1    3    3  502    0  0.57711785807E+03  0.68957345184E+03  0.11161462728E+04  0.14333112572E+04  0.46999998093E+01 0.  1.
       -5    1    3    3    0  502 -0.57711785807E+03 -0.68957345184E+03 -0.78459210795E+03  0.11933915675E+04  0.46999998093E+01 0. -1.
</event>
<event>
 5   0  0.2333979E-06  0.2598201E+04  0.7818609E-02  0.8368813E-01
        1   -1    0    0  501    0  0.00000000000E+00  0.00000000000E+00  0.90153139779E+03  0.90153139780E+03  0.50400001928E-02 0. -1.
       -1   -1    0    0    0  501  0.00000000000E+00  0.00000000000E+00 -0.18719947143E+04  0.18719947143E+04  0.50400001928E-02 0.  1.
    10030    2    1    2    0    0  0.00000000000E+00  0.00000000000E+00 -0.97046331653E+03  0.27735261121E+04  0.25982009249E+04 0.  0.
        3    1    3    3  502    0  0.52898167901E+03 -0.30022720574E+03 -0.17106050896E+04  0.18155241047E+04  0.10100000352E+00 0.  1.
       -3    1    3    3    0  502 -0.52898167901E+03  0.30022720574E+03  0.74014177310E+03  0.95800200745E+03  0.10100000352E+00 0. -1.
</event>
<event>
 5   0  0.5942229E-06  0.2614808E+04  0.7818609E-02  0.8363189E-01
        2   -1    0    0  501    0  0.00000000000E+00  0.00000000000E+00  0.11059854701E+04  0.11059854701E+04  0.25500000920E-02 0.  1.
       -2   -1    0    0    0  501  0.00000000000E+00  0.00000000000E+00 -0.15455037697E+04  0.15455037697E+04  0.25500000920E-02 0. -1.
    10030    2    1    2    0    0  0.00000000000E+00  0.00000000000E+00 -0.43951829953E+03  0.26514892398E+04  0.26148076130E+04 0.  0.
        4    1    3    3  502    0 -0.11708536370E+04  0.43922935998E+03 -0.60653148462E+03  0.13898570879E+04  0.12699999809E+01 0.  1.
       -4    1    3    3    0  502  0.11708536370E+04 -0.43922935998E+03  0.16701318509E+03  0.12616321520E+04  0.12699999809E+01 0. -1.
</event>
<event>
 5   0  0.2471488E-06  0.2585842E+04  0.7818609E-02  0.8373026E-01
        1   -1    0    0  501    0  0.00000000000E+00  0.00000000000E+00  0.11197364629E+04  0.11197364629E+04  0.50400001928E-02 0.  1.
       -1   -1    0    0    0  501  0.00000000000E+00  0.00000000000E+00 -0.14928915377E+04  0.14928915377E+04  0.50400001928E-02 0. -1.
    10030    2    1    2    0    0  0.00000000000E+00  0.00000000000E+00 -0.37315507479E+03  0.26126280005E+04  0.25858422920E+04 0.  0.
        4    1    3    3  502    0  0.86819097881E+03  0.46409740834E+02 -0.11534300303E+04  0.14444071058E+04  0.12699999809E+01 0. -1.
       -4    1    3    3    0  502 -0.86819097881E+03 -0.46409740834E+02  0.78027495549E+03  0.11682208947E+04  0.12699999809E+01 0.  1.
</event>
<event>
 5   0  0.5942229E-06  0.2597566E+04  0.7818609E-02  0.8369028E-01
       -2   -1    0    0    0  501  0.00000000000E+00  0.00000000000E+00  0.11246392054E+04  0.11246392054E+04  0.25500000920E-02 0. -1.
        2   -1    0    0  501    0  0.00000000000E+00  0.00000000000E+00 -0.14998919134E+04  0.14998919134E+04  0.25500000920E-02 0.  1.
    10030    2    1    2    0    0  0.00000000000E+00  0.00000000000E+00 -0.37525270802E+03  0.26245311188E+04  0.25975659758E+04 0.  0.
        4    1    3    3  502    0  0.56473871664E+03  0.11463199664E+04  0.46852461569E+02  0.12787400242E+04  0.12699999809E+01 0.  1.
       -4    1    3    3    0  502 -0.56473871664E+03 -0.11463199664E+04 -0.42210516959E+03  0.13457910947E+04  0.12699999809E+01 0. -1.
</event>
<event>
 5   0  0.6158063E-06  0.2591732E+04  0.7818609E-02  0.8371015E-01
       -2   -1    0    0    0  501  0.00000000000E+00  0.00000000000E+00  0.93955961749E+03  0.93955961749E+03  0.25500000920E-02 0.  1.
        2   -1    0    0  501    0  0.00000000000E+00  0.00000000000E+00 -0.17872934325E+04  0.17872934325E+04  0.25500000920E-02 0. -1.
    10030    2    1    2    0    0  0.00000000000E+00  0.00000000000E+00 -0.84773381497E+03  0.27268530499E+04  0.25917320338E+04 0.  0.
        2    1    3    3  502    0 -0.12183793213E+03  0.11814642724E+04  0.12138538093E+03  0.11939165462E+04  0.25500000920E-02 0.  1.
       -2    1    3    3    0  502  0.12183793213E+03 -0.11814642724E+04 -0.96911919590E+03  0.15329365037E+04  0.25500000920E-02 0. -1.
</event>
<event>
 5   0  0.2440590E-06  0.2596553E+04  0.7818609E-02  0.8369373E-01
        1   -1    0    0  501    0  0.00000000000E+00  0.00000000000E+00  0.17591297875E+04  0.17591297875E+04  0.50400001928E-02 0. -1.
       -1   -1    0    0    0  501  0.00000000000E+00  0.00000000000E+00 -0.95815691123E+03  0.95815691124E+03  0.50400001928E-02 0.  1.
    10030    2    1    2    0    0  0.00000000000E+00  0.00000000000E+00  0.80097287623E+03  0.27172866987E+04  0.25965533799E+04 0.  0.
        1    1    3    3  502    0  0.10150165187E+04  0.38967247359E+03 -0.34202490485E+03  0.11397737519E+04  0.50400001928E-02 0.  1.
       -1    1    3    3    0  502 -0.10150165187E+04 -0.38967247359E+03  0.11429977811E+04  0.15775129468E+04  0.50400001928E-02 0. -1.
</event>
<event>
 5   0  0.2072125E-06  0.2589656E+04  0.7818609E-02  0.8371723E-01
        3   -1    0    0  501    0  0.00000000000E+00  0.00000000000E+00  0.94229131858E+03  0.94229132399E+03  0.10100000352E+00 0.  1.
       -3   -1    0    0    0  501  0.00000000000E+00  0.00000000000E+00 -0.17792576488E+04  0.17792576516E+04  0.10100000352E+00 0. -1.
    10030    2    1    2    0    0  0.00000000000E+00  0.00000000000E+00 -0.83696633020E+03  0.27215489756E+04  0.25896556120E+04 0.  0.
        4    1    3    3  502    0 -0.10289265835E+04 -0.70538842912E+03 -0.53953011313E+02  0.12486694080E+04  0.12699999809E+01 0.  1.
       -4    1    3    3    0  502  0.10289265835E+04  0.70538842912E+03 -0.78301331889E+03  0.14728795676E+04  0.12699999809E+01 0. -1.
</event>
<event>
 5   0  0.2440590E-06  0.2640467E+04  0.7818609E-02  0.8354584E-01
       -1   -1    0    0    0  501  0.00000000000E+00  0.00000000000E+00  0.87753341975E+03  0.87753341976E+03  0.50400001928E-02 0.  1.
        1   -1    0    0  501    0  0.00000000000E+00  0.00000000000E+00 -0.19862684173E+04  0.19862684174E+04  0.50400001928E-02 0. -1.
    10030    2    1    2    0    0  0.00000000000E+00  0.00000000000E+00 -0.11087349976E+04  0.28638018371E+04  0.26404673199E+04 0.  0.
        1    1    3    3  502    0  0.13608880958E+03  0.47910080222E+02  0.86895768167E+03  0.88085355903E+03  0.50400001928E-02 0.  1.
       -1    1    3    3    0  502 -0.13608880958E+03 -0.47910080222E+02 -0.19776926793E+04  0.19829482781E+04  0.50400001928E-02 0. -1.
</event>
<event>
 5   0  0.6161834E-06  0.2598740E+04  0.7818609E-02  0.8368629E-01
       -2   -1    0    0    0  501  0.00000000000E+00  0.00000000000E+00  0.78493218381E+03  0.78493218382E+03  0.25500000920E-02 0. -1.
        2   -1    0    0  501    0  0.00000000000E+00  0.00000000000E+00 -0.21509653600E+04  0.21509653600E+04  0.25500000920E-02 0.  1.
    10030    2    1    2    0    0  0.00000000000E+00  0.00000000000E+00 -0.13660331762E+04  0.29358975439E+04  0.25987396463E+04 0.  0.
        5    1    3    3  502    0 -0.77524293906E+03 -0.99136173320E+03 -0.31774181787E+03  0.12979913919E+04  0.46999998093E+01 0. -1.
       -5    1    3    3    0  502  0.77524293906E+03  0.99136173320E+03 -0.10482913584E+04  0.16379061520E+04  0.46999998093E+01 0.  1.
</event>
<event>
 5   0  0.6173140E-06  0.2602389E+04  0.7818609E-02  0.8367390E-01
       -2   -1    0    0    0  501  0.00000000000E+00  0.00000000000E+00  0.88431054557E+03  0.88431054558E+03  0.25500000920E-02 0. -1.
        2   -1    0    0  501    0  0.00000000000E+00  0.00000000000E+00 -0.19146076814E+04  0.19146076814E+04  0.25500000920E-02 0.  1.
    10030    2    1    2    0    0  0.00000000000E+00  0.00000000000E+00 -0.10302971359E+04  0.27989182270E+04  0.26023894892E+04 0.  0.
        3    1    3    3  502    0 -0.10534006949E+03 -0.95558958397E+03 -0.14582132544E+04  0.17466063921E+04  0.10100000352E+00 0.  1.
       -3    1    3    3    0  502  0.10534006949E+03  0.95558958397E+03  0.42791611856E+03  0.10523118349E+04  0.10100000352E+00 0. -1.
</event>
<event>
 5   0  0.6173140E-06  0.2599710E+04  0.7818609E-02  0.8368300E-01
        2   -1    0    0  501    0  0.00000000000E+00  0.00000000000E+00  0.10923385734E+04  0.10923385734E+04  0.25500000920E-02 0. -1.
       -2   -1    0    0    0  501  0.00000000000E+00  0.00000000000E+00 -0.15467941034E+04  0.15467941034E+04  0.25500000920E-02 0.  1.
    10030    2    1    2    0    0  0.00000000000E+00  0.00000000000E+00 -0.45445552997E+03  0.26391326768E+04  0.25997098794E+04 0.  0.
        3    1    3    3  502    0  0.10396778682E+03  0.55423281179E+03  0.96170237828E+03  0.11148339719E+04  0.10100000352E+00 0. -1.
       -3    1    3    3    0  502 -0.10396778682E+03 -0.55423281179E+03 -0.14161579082E+04  0.15242987049E+04  0.10100000352E+00 0.  1.
</event>
<event>
 5   0  0.2503292E-06  0.2595775E+04  0.7818609E-02  0.8369638E-01
       -1   -1    0    0    0  501  0.00000000000E+00  0.00000000000E+00  0.10301995874E+04  0.10301995874E+04  0.50400001928E-02 0. -1.
        1   -1    0    0  501    0  0.00000000000E+00  0.00000000000E+00 -0.16351318302E+04  0.16351318302E+04  0.50400001928E-02 0.  1.
    10030    2    1    2    0    0  0.00000000000E+00  0.00000000000E+00 -0.60493224272E+03  0.26653314176E+04  0.25957751342E+04 0.  0.
        2    1    3    3  502    0 -0.54380468886E+03 -0.94554725917E+03  0.41975107550E+03  0.11687489569E+04  0.25500000920E-02 0. -1.
       -2    1    3    3    0  502  0.54380468886E+03  0.94554725917E+03 -0.10246833182E+04  0.14965824607E+04  0.25500000920E-02 0.  1.
</event>
<event>
 5   0  0.5942229E-06  0.2596505E+04  0.7818609E-02  0.8369389E-01
        2   -1    0    0  501    0  0.00000000000E+00  0.00000000000E+00  0.17698144726E+04  0.17698144726E+04  0.25500000920E-02 0.  1.
       -2   -1    0    0    0  501  0.00000000000E+00  0.00000000000E+00 -0.95233695456E+03  0.95233695456E+03  0.25500000920E-02 0. -1.
    10030    2    1    2    0    0  0.00000000000E+00  0.00000000000E+00  0.81747751803E+03  0.27221514272E+04  0.25965051319E+04 0.  0.
        4    1    3    3  502    0  0.11643356402E+04 -0.52396326671E+03  0.16232655643E+03  0.12870767311E+04  0.12699999809E+01 0.  1.
       -4    1    3    3    0  502 -0.11643356402E+04  0.52396326671E+03  0.65515096160E+03  0.14350746961E+04  0.12699999809E+01 0. -1.
</event>
<event>
 5   0  0.2440590E-06  0.2602075E+04  0.7818609E-02  0.8367497E-01
       -1   -1    0    0    0  501  0.00000000000E+00  0.00000000000E+00  0.74456493841E+03  0.74456493843E+03  0.50400001928E-02 0. -1.
        1   -1    0    0  501    0  0.00000000000E+00  0.00000000000E+00 -0.22734063233E+04  0.22734063233E+04  0.50400001928E-02 0.  1.
    10030    2    1    2    0    0  0.00000000000E+00  0.00000000000E+00 -0.15288413849E+04  0.30179712617E+04  0.26020750482E+04 0.  0.
        1    1    3    3  502    0 -0.81932979831E+03 -0.98027979758E+03 -0.47926026020E+03  0.13645292950E+04  0.50400001928E-02 0. -1.
       -1    1    3    3    0  502  0.81932979831E+03  0.98027979758E+03 -0.10495811247E+04  0.16534419667E+04  0.50400001928E-02 0.  1.
</event>
<event>
 5   0  0.6173140E-06  0.2619739E+04  0.7818609E-02  0.8361527E-01
        2   -1    0    0  501    0  0.00000000000E+00  0.00000000000E+00  0.12611765686E+04  0.12611765686E+04  0.25500000920E-02 0.  1.
       -2   -1    0    0    0  501  0.00000000000E+00  0.00000000000E+00 -0.13604422959E+04  0.13604422959E+04  0.25500000920E-02 0. -1.
    10030    2    1    2    0    0  0.00000000000E+00  0.00000000000E+00 -0.99265727325E+02  0.26216188645E+04  0.26197388774E+04 0.  0.
        3    1    3    3  502    0 -0.11429690008E+04  0.36018062298E+03 -0.57883153049E+03  0.13308471621E+04  0.10100000352E+00 0. -1.
       -3    1    3    3    0  502  0.11429690008E+04 -0.36018062298E+03  0.47956580317E+03  0.12907717024E+04  0.10100000352E+00 0.  1.
</event>
<event>
 5   0  0.2440590E-06  0.2605293E+04  0.7818609E-02  0.8366405E-01
       -1   -1    0    0    0  501  0.00000000000E+00  0.00000000000E+00  0.63045614412E+03  0.63045614414E+03  0.50400001928E-02 0. -1.
        1   -1    0    0  501    0  0.00000000000E+00  0.00000000000E+00 -0.26915246075E+04  0.26915246075E+04  0.50400001928E-02 0.  1.
    10030    2    1    2    0    0  0.00000000000E+00  0.00000000000E+00 -0.20610684633E+04  0.33219807516E+04  0.26052932471E+04 0.  0.
        1    1    3    3  502    0 -0.64549028733E+03 -0.60156396695E+03  0.19139181534E+03  0.90286640450E+03  0.50400001928E-02 0. -1.
       -1    1    3    3    0  502  0.64549028733E+03  0.60156396695E+03 -0.22524602787E+04  0.24191143471E+04  0.50400001928E-02 0.  1.
</event>
<event>
 5   0  0.6161834E-06  0.2595282E+04  0.7818609E-02  0.8369806E-01
       -2   -1    0    0    0  501  0.00000000000E+00  0.00000000000E+00  0.10345866155E+04  0.10345866155E+04  0.25500000920E-02 0. -1.
        2   -1    0    0  501    0  0.00000000000E+00  0.00000000000E+00 -0.16275794928E+04  0.16275794928E+04  0.25500000920E-02 0.  1.
    10030    2    1    2    0    0  0.00000000000E+00  0.00000000000E+00 -0.59299287733E+03  0.26621661083E+04  0.25952818413E+04 0.  0.
        5    1    3    3  502    0  0.94695230806E+03 -0.68289121107E+02  0.61087239274E+03  0.11289682228E+04  0.46999998093E+01 0. -1.
       -5    1    3    3    0  502 -0.94695230806E+03  0.68289121107E+02 -0.12038652701E+04  0.15331978856E+04  0.46999998093E+01 0.  1.
</event>
<event>
 5   0  0.2072125E-06  0.2594979E+04  0.7818609E-02  0.8369909E-01
        3   -1    0    0  501    0  0.00000000000E+00  0.00000000000E+00  0.13048743758E+04  0.13048743797E+04  0.10100000352E+00 0.  1.
       -3   -1    0    0    0  501  0.00000000000E+00  0.00000000000E+00 -0.12901462120E+04  0.12901462159E+04  0.10100000352E+00 0. -1.
    10030    2    1    2    0    0  0.00000000000E+00  0.00000000000E+00  0.14728163795E+02  0.25950205956E+04  0.25949788001E+04 0.  0.
        3    1    3    3  502    0 -0.10455801131E+04 -0.26977308742E+02  0.77517406805E+03  0.13018680402E+04  0.10100000352E+00 0.  1.
       -3    1    3    3    0  502  0.10455801131E+04  0.26977308742E+02 -0.76044590425E+03  0.12931525554E+04  0.10100000352E+00 0. -1.
</event>
<event>
 5   0  0.2471488E-06  0.2595132E+04  0.7818609E-02  0.8369857E-01
        1   -1    0    0  501    0  0.00000000000E+00  0.00000000000E+00  0.19624376910E+04  0.19624376910E+04  0.50400001928E-02 0. -1.
       -1   -1    0    0    0  501  0.00000000000E+00  0.00000000000E+00 -0.85795198110E+03  0.85795198112E+03  0.50400001928E-02 0.  1.
    10030    2    1    2    0    0  0.00000000000E+00  0.00000000000E+00  0.11044857099E+04  0.28203896721E+04  0.25951318308E+04 0.  0.
        4    1    3    3  502    0 -0.16804157818E+03  0.76305140156E+03 -0.57362664996E+03  0.96929590934E+03  0.12699999809E+01 0.  1.
       -4    1    3    3    0  502  0.16804157818E+03 -0.76305140156E+03  0.16781123598E+04  0.18510937628E+04  0.12699999809E+01 0. -1.
</event>
<event>
 5   0  0.6158063E-06  0.2623916E+04  0.7818609E-02  0.8360123E-01
        2   -1    0    0  501    0  0.00000000000E+00  0.00000000000E+00  0.11864098813E+04  0.11864098813E+04  0.25500000920E-02 0. -1.
       -2   -1    0    0    0  501  0.00000000000E+00  0.00000000000E+00 -0.14507916812E+04  0.14507916812E+04  0.25500000920E-02 0.  1.
    10030    2    1    2    0    0  0.00000000000E+00  0.00000000000E+00 -0.26438179989E+03  0.26372015625E+04  0.26239158419E+04 0.  0.
        2    1    3    3  502    0 -0.84152750996E+03 -0.49895826426E+03  0.74636649526E+03  0.12305246218E+04  0.25500000920E-02 0. -1.
       -2    1    3    3    0  502  0.84152750996E+03  0.49895826426E+03 -0.10107482952E+04  0.14066769408E+04  0.25500000920E-02 0.  1.
</event>
<event>
 5   0  0.6173140E-06  0.2601023E+04  0.7818609E-02  0.8367854E-01
        2   -1    0    0  501    0  0.00000000000E+00  0.00000000000E+00  0.16253380295E+04  0.16253380295E+04  0.25500000920E-02 0.  1.
       -2   -1    0    0    0  501  0.00000000000E+00  0.00000000000E+00 -0.10406023515E+04  0.10406023515E+04  0.25500000920E-02 0. -1.
    10030    2    1    2    0    0  0.00000000000E+00  0.00000000000E+00  0.58473567804E+03  0.26659403810E+04  0.26010233182E+04 0.  0.
        3    1    3    3  502    0 -0.12180450339E+04  0.11101504722E+03  0.74540927625E+03  0.14323383136E+04  0.10100000352E+00 0.  1.
       -3    1    3    3    0  502  0.12180450339E+04 -0.11101504722E+03 -0.16067359820E+03  0.12336020674E+04  0.10100000352E+00 0. -1.
</event>
<event>
 5   0  0.2456600E-06  0.2590013E+04  0.7818609E-02  0.8371601E-01
       -1   -1    0    0    0  501  0.00000000000E+00  0.00000000000E+00  0.16031910128E+04  0.16031910128E+04  0.50400001928E-02 0.  1.
        1   -1    0    0  501    0  0.00000000000E+00  0.00000000000E+00 -0.10460650134E+04  0.10460650134E+04  0.50400001928E-02 0. -1.
    10030    2    1    2    0    0  0.00000000000E+00  0.00000000000E+00  0.55712599941E+03  0.26492560262E+04  0.25900131492E+04 0.  0.
        5    1    3    3  502    0 -0.31949291781E+03 -0.11266183825E+04 -0.28696236514E+03  0.12057007063E+04  0.46999998093E+01 0. -1.
       -5    1    3    3    0  502  0.31949291781E+03  0.11266183825E+04  0.84408836455E+03  0.14435553198E+04  0.46999998093E+01 0.  1.
</event>
<event>
 5   0  0.2072125E-06  0.2592123E+04  0.7818609E-02  0.8370882E-01
       -4   -1    0    0    0  501  0.00000000000E+00  0.00000000000E+00  0.18357583195E+04  0.18357587588E+04  0.12699999809E+01 0. -1.
        4   -1    0    0  501    0  0.00000000000E+00  0.00000000000E+00 -0.91502986961E+03  0.91503075095E+03  0.12699999809E+01 0.  1.
    10030    2    1    2    0    0  0.00000000000E+00  0.00000000000E+00  0.92072844985E+03  0.27507895097E+04  0.25921230774E+04 0.  0.
        4    1    3    3  502    0  0.32385463811E+03 -0.57361263916E+03 -0.72413960403E+03  0.97892444318E+03  0.12699999809E+01 0.  1.
       -4    1    3    3    0  502 -0.32385463811E+03  0.57361263916E+03  0.16448680539E+04  0.17718650665E+04  0.12699999809E+01 0. -1.
</event>
<event>
 5   0  0.5942229E-06  0.2602110E+04  0.7818609E-02  0.8367485E-01
       -2   -1    0    0    0  501  0.00000000000E+00  0.00000000000E+00  0.15261966801E+04  0.15261966801E+04  0.25500000920E-02 0. -1.
        2   -1    0    0  501    0  0.00000000000E+00  0.00000000000E+00 -0.11091260414E+04  0.11091260414E+04  0.25500000920E-02 0.  1.
    10030    2    1    2    0    0  0.00000000000E+00  0.00000000000E+00  0.41707063873E+03  0.26353227215E+04  0.26021102837E+04 0.  0.
        4    1    3    3  502    0  0.58082109786E+03  0.10927149385E+04 -0.19829296875E+03  0.12532760266E+04  0.12699999809E+01 0.  1.
       -4    1    3    3    0  502 -0.58082109786E+03 -0.10927149385E+04  0.61536360748E+03  0.13820466949E+04  0.12699999809E+01 0. -1.
</event>
<event>
 5   0  0.6158063E-06  0.2569254E+04  0.7818609E-02  0.8378721E-01
       -2   -1    0    0    0  501  0.00000000000E+00  0.00000000000E+00  0.97383400736E+03  0.97383400736E+03  0.25500000920E-02 0.  1.
        2   -1    0    0  501    0  0.00000000000E+00  0.00000000000E+00 -0.16946070216E+04  0.16946070216E+04  0.25500000920E-02 0. -1.
    10030    2    1    2    0    0  0.00000000000E+00  0.00000000000E+00 -0.72077301421E+03  0.26684410289E+04  0.25692535466E+04 0.  0.
        2    1    3    3  502    0  0.10386932457E+02  0.52866491675E+02  0.97266006963E+03  0.97415109986E+03  0.25500000920E-02 0.  1.
       -2    1    3    3    0  502 -0.10386932457E+02 -0.52866491675E+02 -0.16934330838E+04  0.16942899291E+04  0.25500000920E-02 0. -1.
</event>
<event>
 5   0  0.2503292E-06  0.2589091E+04  0.7818609E-02  0.8371916E-01
       -1   -1    0    0    0  501  0.00000000000E+00  0.00000000000E+00  0.21157479477E+04  0.21157479477E+04  0.50400001928E-02 0. -1.
        1   -1    0    0  501    0  0.00000000000E+00  0.00000000000E+00 -0.79208306282E+03  0.79208306283E+03  0.50400001928E-02 0.  1.
    10030    2    1    2    0    0  0.00000000000E+00  0.00000000000E+00  0.13236648849E+04  0.29078310106E+04  0.25890910487E+04 0.  0.
        2    1    3    3  502    0  0.49408893911E+02  0.76829516069E+03 -0.50702626661E+03  0.92184289756E+03  0.25500000920E-02 0.  1.
       -2    1    3    3    0  502 -0.49408893911E+02 -0.76829516069E+03  0.18306911515E+04  0.19859881130E+04  0.25500000920E-02 0. -1.
</event>
<event>
 5   0  0.6158063E-06  0.2598153E+04  0.7818609E-02  0.8368829E-01
        2   -1    0    0  501    0  0.00000000000E+00  0.00000000000E+00  0.16833731447E+04  0.16833731447E+04  0.25500000920E-02 0. -1.
       -2   -1    0    0    0  501  0.00000000000E+00  0.00000000000E+00 -0.10025107687E+04  0.10025107687E+04  0.25500000920E-02 0.  1.
    10030    2    1    2    0    0  0.00000000000E+00  0.00000000000E+00  0.68086237599E+03  0.26858839133E+04  0.25981529633E+04 0.  0.
        2    1    3    3  502    0 -0.53568035970E+03  0.78165958898E+03  0.12590621765E+04  0.15758117670E+04  0.25500000920E-02 0. -1.
       -2    1    3    3    0  502  0.53568035970E+03 -0.78165958898E+03 -0.57819980047E+03  0.11100721463E+04  0.25500000920E-02 0.  1.
</event>
<event>
 5   0  0.6161834E-06  0.2596430E+04  0.7818609E-02  0.8369415E-01
        2   -1    0    0  501    0  0.00000000000E+00  0.00000000000E+00  0.16105532530E+04  0.16105532530E+04  0.25500000920E-02 0. -1.
       -2   -1    0    0    0  501  0.00000000000E+00  0.00000000000E+00 -0.10464495631E+04  0.10464495631E+04  0.25500000920E-02 0.  1.
    10030    2    1    2    0    0  0.00000000000E+00  0.00000000000E+00  0.56410368991E+03  0.26570028160E+04  0.25964304326E+04 0.  0.
        5    1    3    3  502    0  0.67932086201E+03  0.98190623559E+02  0.14096762033E+04  0.15679053927E+04  0.46999998093E+01 0. -1.
       -5    1    3    3    0  502 -0.67932086201E+03 -0.98190623559E+02 -0.84557251342E+03  0.10890974234E+04  0.46999998093E+01 0.  1.
</event>
<event>
 5   0  0.5942229E-06  0.2612118E+04  0.7818609E-02  0.8364097E-01
        2   -1    0    0  501    0  0.00000000000E+00  0.00000000000E+00  0.16047338293E+04  0.16047338293E+04  0.25500000920E-02 0. -1.
       -2   -1    0    0    0  501  0.00000000000E+00  0.00000000000E+00 -0.10629738532E+04  0.10629738532E+04  0.25500000920E-02 0.  1.
    10030    2    1    2    0    0  0.00000000000E+00  0.00000000000E+00  0.54175997614E+03  0.26677076825E+04  0.26121179927E+04 0.  0.
        4    1    3    3  502    0  0.42674450787E+03 -0.26733660723E+03 -0.95984203965E+03  0.10839179353E+04  0.12699999809E+01 0.  1.
       -4    1    3    3    0  502 -0.42674450787E+03  0.26733660723E+03  0.15016020158E+04  0.15837897472E+04  0.12699999809E+01 0. -1.
</event>
<event>
 5   0  0.6158063E-06  0.2575469E+04  0.7818609E-02  0.8376582E-01
       -2   -1    0    0    0  501  0.00000000000E+00  0.00000000000E+00  0.79199036579E+03  0.79199036579E+03  0.25500000920E-02 0. -1.
        2   -1    0    0  501    0  0.00000000000E+00  0.00000000000E+00 -0.20937883957E+04  0.20937883957E+04  0.25500000920E-02 0.  1.
    10030    2    1    2    0    0  0.00000000000E+00  0.00000000000E+00 -0.13017980300E+04  0.28857787615E+04  0.25754690737E+04 0.  0.
        2    1    3    3  502    0 -0.27720508710E+03  0.82329483337E+02 -0.20569376526E+04  0.20771647289E+04  0.25500000920E-02 0.  1.
       -2    1    3    3    0  502  0.27720508710E+03 -0.82329483337E+02  0.75513962264E+03  0.80861403267E+03  0.25500000920E-02 0. -1.
</event>
<event>
 5   0  0.6161834E-06  0.2622394E+04  0.7818609E-02  0.8360634E-01
       -2   -1    0    0    0  501  0.00000000000E+00  0.00000000000E+00  0.98331489009E+03  0.98331489010E+03  0.25500000920E-02 0. -1.
        2   -1    0    0  501    0  0.00000000000E+00  0.00000000000E+00 -0.17484105225E+04  0.17484105225E+04  0.25500000920E-02 0.  1.
    10030    2    1    2    0    0  0.00000000000E+00  0.00000000000E+00 -0.76509563245E+03  0.27317254126E+04  0.26223944027E+04 0.  0.
        5    1    3    3  502    0 -0.44948839878E+03  0.11993520909E+04 -0.90259649082E+02  0.12839992807E+04  0.46999998093E+01 0. -1.
       -5    1    3    3    0  502  0.44948839878E+03 -0.11993520909E+04 -0.67483598337E+03  0.14477261319E+04  0.46999998093E+01 0.  1.
</event>
<event>
 5   0  0.2440590E-06  0.2597425E+04  0.7818609E-02  0.8369076E-01
       -1   -1    0    0    0  501  0.00000000000E+00  0.00000000000E+00  0.14738322769E+04  0.14738322769E+04  0.50400001928E-02 0. -1.
        1   -1    0    0  501    0  0.00000000000E+00  0.00000000000E+00 -0.11444000607E+04  0.11444000607E+04  0.50400001928E-02 0.  1.
    10030    2    1    2    0    0  0.00000000000E+00  0.00000000000E+00  0.32943221627E+03  0.26182323376E+04  0.25974246839E+04 0.  0.
        1    1    3    3  502    0 -0.52858707215E+03  0.98391472800E+03 -0.50328507464E+03  0.12250666721E+04  0.50400001928E-02 0.  1.
       -1    1    3    3    0  502  0.52858707215E+03 -0.98391472800E+03  0.83271729091E+03  0.13931656655E+04  0.50400001928E-02 0. -1.
</event>
<event>
 5   0  0.6173140E-06  0.2601237E+04  0.7818609E-02  0.8367781E-01
        2   -1    0    0  501    0  0.00000000000E+00  0.00000000000E+00  0.18340352750E+04  0.18340352750E+04  0.25500000920E-02 0.  1.
       -2   -1    0    0    0  501  0.00000000000E+00  0.00000000000E+00 -0.92234206171E+03  0.92234206171E+03  0.25500000920E-02 0. -1.
    10030    2    1    2    0    0  0.00000000000E+00  0.00000000000E+00  0.91169321329E+03  0.27563773367E+04  0.26012365343E+04 0.  0.
        3    1    3    3  502    0  0.76046456225E+02 -0.72752807074E+03  0.15954056886E+04  0.17551066858E+04  0.10100000352E+00 0.  1.
       -3    1    3    3    0  502 -0.76046456225E+02  0.72752807074E+03 -0.68371247531E+03  0.10012706509E+04  0.10100000352E+00 0. -1.
</event>
<event>
 5   0  0.2440590E-06  0.2650038E+04  0.7818609E-02  0.8351400E-01
        1   -1    0    0  501    0  0.00000000000E+00  0.00000000000E+00  0.20466892564E+04  0.20466892564E+04  0.50400001928E-02 0.  1.
       -1   -1    0    0    0  501  0.00000000000E+00  0.00000000000E+00 -0.85781211221E+03  0.85781211223E+03  0.50400001928E-02 0. -1.
    10030    2    1    2    0    0  0.00000000000E+00  0.00000000000E+00  0.11888771442E+04  0.29045013687E+04  0.26500376104E+04 0.  0.
        1    1    3    3  502    0 -0.86607434051E+03 -0.72810449640E+03  0.13501809241E+04  0.17615928726E+04  0.50400001928E-02 0.  1.
       -1    1    3    3    0  502  0.86607434051E+03  0.72810449640E+03 -0.16130377988E+03  0.11429084961E+04  0.50400001928E-02 0. -1.
</event>
<event>
 5   0  0.6158063E-06  0.2541015E+04  0.7818609E-02  0.8388518E-01
        2   -1    0    0  501    0  0.00000000000E+00  0.00000000000E+00  0.22509557686E+04  0.22509557686E+04  0.25500000920E-02 0.  1.
       -2   -1    0    0    0  501  0.00000000000E+00  0.00000000000E+00 -0.71711266330E+03  0.71711266331E+03  0.25500000920E-02 0. -1.
    10030    2    1    2    0    0  0.00000000000E+00  0.00000000000E+00  0.15338431053E+04  0.29680684319E+04  0.25410146684E+04 0.  0.
        2    1    3    3  502    0  0.72251619336E+02 -0.89242439189E+03 -0.28598799066E+03  0.93990995449E+03  0.25500000920E-02 0. -1.
       -2    1    3    3    0  502 -0.72251619336E+02  0.89242439189E+03  0.18198310960E+04  0.20281584774E+04  0.25500000920E-02 0.  1.
</event>
<event>
 5   0  0.6161834E-06  0.2609469E+04  0.7818609E-02  0.8364992E-01
       -2   -1    0    0    0  501  0.00000000000E+00  0.00000000000E+00  0.10667522724E+04  0.10667522724E+04  0.25500000920E-02 0.  1.
        2   -1    0    0  501    0  0.00000000000E+00  0.00000000000E+00 -0.15958084111E+04  0.15958084111E+04  0.25500000920E-02 0. -1.
    10030    2    1    2    0    0  0.00000000000E+00  0.00000000000E+00 -0.52905613870E+03  0.26625606835E+04  0.26094691022E+04 0.  0.
        5    1    3    3  502    0  0.19871401370E+03 -0.12806752907E+04 -0.41823732023E+03  0.13618226777E+04  0.46999998093E+01 0. -1.
       -5    1    3    3    0  502 -0.19871401370E+03  0.12806752907E+04 -0.11081881847E+03  0.13007380059E+04  0.46999998093E+01 0.  1.
</event>
<event>
 5   0  0.2440590E-06  0.2605957E+04  0.7818609E-02  0.8366181E-01
       -1   -1    0    0    0  501  0.00000000000E+00  0.00000000000E+00  0.13001684331E+04  0.13001684331E+04  0.50400001928E-02 0. -1.
        1   -1    0    0  501    0  0.00000000000E+00  0.00000000000E+00 -0.13057945696E+04  0.13057945696E+04  0.50400001928E-02 0.  1.
    10030    2    1    2    0    0  0.00000000000E+00  0.00000000000E+00 -0.56261364805E+01  0.26059630027E+04  0.26059569295E+04 0.  0.
        1    1    3    3  502    0 -0.23166574975E+02  0.67149725054E+03  0.11135710238E+04  0.13005712871E+04  0.50400001928E-02 0. -1.
       -1    1    3    3    0  502  0.23166574975E+02 -0.67149725054E+03 -0.11191971603E+04  0.13053917157E+04  0.50400001928E-02 0.  1.
</event>
<event>
 5   0  0.2440590E-06  0.2594543E+04  0.7818609E-02  0.8370057E-01
       -1   -1    0    0    0  501  0.00000000000E+00  0.00000000000E+00  0.28223700435E+04  0.28223700435E+04  0.50400001928E-02 0. -1.
        1   -1    0    0  501    0  0.00000000000E+00  0.00000000000E+00 -0.59627678843E+03  0.59627678845E+03  0.50400001928E-02 0.  1.
    10030    2    1    2    0    0  0.00000000000E+00  0.00000000000E+00  0.22260932551E+04  0.34186468320E+04  0.25945433088E+04 0.  0.
        1    1    3    3  502    0 -0.35526100985E+02  0.34849053211E+03  0.27588740107E+04  0.27810238334E+04  0.50400001928E-02 0. -1.
       -1    1    3    3    0  502  0.35526100985E+02 -0.34849053211E+03 -0.53278075559E+03  0.63762299862E+03  0.50400001928E-02 0.  1.
</event>
<event>
 5   0  0.2333979E-06  0.2590604E+04  0.7818609E-02  0.8371400E-01
        1   -1    0    0  501    0  0.00000000000E+00  0.00000000000E+00  0.19306961475E+04  0.19306961475E+04  0.50400001928E-02 0.  1.
       -1   -1    0    0    0  501  0.00000000000E+00  0.00000000000E+00 -0.86901678560E+03  0.86901678561E+03  0.50400001928E-02 0. -1.
    10030    2    1    2    0    0  0.00000000000E+00  0.00000000000E+00  0.10616793619E+04  0.27997129331E+04  0.25906040686E+04 0.  0.
        3    1    3    3  502    0 -0.87901855486E+03  0.95103813675E+03  0.55860788307E+03  0.14103864487E+04  0.10100000352E+00 0. -1.
       -3    1    3    3    0  502  0.87901855486E+03 -0.95103813675E+03  0.50307147879E+03  0.13893264844E+04  0.10100000352E+00 0.  1.
</event>
<event>
 5   0  0.2072125E-06  0.2593961E+04  0.7818609E-02  0.8370255E-01
        3   -1    0    0  501    0  0.00000000000E+00  0.00000000000E+00  0.10849240003E+04  0.10849240050E+04  0.10100000352E+00 0.  1.
       -3   -1    0    0    0  501  0.00000000000E+00  0.00000000000E+00 -0.15504848616E+04  0.15504848649E+04  0.10100000352E+00 0. -1.
    10030    2    1    2    0    0  0.00000000000E+00  0.00000000000E+00 -0.46556086132E+03  0.26354088698E+04  0.25939608701E+04 0.  0.
        3    1    3    3  502    0  0.30625928367E+03  0.34923149743E+03  0.99751931668E+03  0.11003645691E+04  0.10100000352E+00 0.  1.
       -3    1    3    3    0  502 -0.30625928367E+03 -0.34923149743E+03 -0.14630801780E+04  0.15350443007E+04  0.10100000352E+00 0. -1.
</event>
<event>
 5   0  0.2072125E-06  0.2606239E+04  0.7818609E-02  0.8366085E-01
        3   -1    0    0  501    0  0.00000000000E+00  0.00000000000E+00  0.94938760780E+03  0.94938761318E+03  0.10100000352E+00 0. -1.
       -3   -1    0    0    0  501  0.00000000000E+00  0.00000000000E+00 -0.17886477987E+04  0.17886478015E+04  0.10100000352E+00 0.  1.
    10030    2    1    2    0    0  0.00000000000E+00  0.00000000000E+00 -0.83926019088E+03  0.27380354147E+04  0.26062387197E+04 0.  0.
        2    1    3    3  502    0 -0.10461853955E+04  0.24844822630E+02 -0.12354290330E+04  0.16190756753E+04  0.25500000920E-02 0.  1.
       -2    1    3    3    0  502  0.10461853955E+04 -0.24844822630E+02  0.39616884209E+03  0.11189597394E+04  0.25500000920E-02 0. -1.
</event>
<event>
 5   0  0.2333979E-06  0.2599095E+04  0.7818609E-02  0.8368509E-01
        1   -1    0    0  501    0  0.00000000000E+00  0.00000000000E+00  0.15331484057E+04  0.15331484057E+04  0.50400001928E-02 0. -1.
       -1   -1    0    0    0  501  0.00000000000E+00  0.00000000000E+00 -0.11015394701E+04  0.11015394701E+04  0.50400001928E-02 0.  1.
    10030    2    1    2    0    0  0.00000000000E+00  0.00000000000E+00  0.43160893557E+03  0.26346878758E+04  0.25990948289E+04 0.  0.
        3    1    3    3  502    0  0.11089716092E+04  0.26728067052E+02 -0.47043823122E+03  0.12049251260E+04  0.10100000352E+00 0.  1.
       -3    1    3    3    0  502 -0.11089716092E+04 -0.26728067052E+02  0.90204716680E+03  0.14297627499E+04  0.10100000352E+00 0. -1.
</event>
<event>
 5   0  0.6161834E-06  0.2593629E+04  0.7818609E-02  0.8370369E-01
       -2   -1    0    0    0  501  0.00000000000E+00  0.00000000000E+00  0.15391169934E+04  0.15391169934E+04  0.25500000920E-02 0.  1.
        2   -1    0    0  501    0  0.00000000000E+00  0.00000000000E+00 -0.10926571999E+04  0.10926571999E+04  0.25500000920E-02 0. -1.
    10030    2    1    2    0    0  0.00000000000E+00  0.00000000000E+00  0.44645979354E+03  0.26317741933E+04  0.25936285504E+04 0.  0.
        5    1    3    3  502    0 -0.89925505293E+03 -0.52476448511E+03  0.10076898183E+04  0.14489645527E+04  0.46999998093E+01 0.  1.
       -5    1    3    3    0  502  0.89925505293E+03  0.52476448511E+03 -0.56123002481E+03  0.11828096406E+04  0.46999998093E+01 0. -1.
</event>
<event>
 5   0  0.2072125E-06  0.2609997E+04  0.7818609E-02  0.8364813E-01
        3   -1    0    0  501    0  0.00000000000E+00  0.00000000000E+00  0.14557769819E+04  0.14557769854E+04  0.10100000352E+00 0. -1.
       -3   -1    0    0    0  501  0.00000000000E+00  0.00000000000E+00 -0.11698366052E+04  0.11698366096E+04  0.10100000352E+00 0.  1.
    10030    2    1    2    0    0  0.00000000000E+00  0.00000000000E+00  0.28594037667E+03  0.26256135950E+04  0.26099970980E+04 0.  0.
        2    1    3    3  502    0  0.90873187663E+03 -0.58932930312E+03  0.87528084484E+03  0.13925585117E+04  0.25500000920E-02 0. -1.
       -2    1    3    3    0  502 -0.90873187663E+03  0.58932930312E+03 -0.58934046816E+03  0.12330550833E+04  0.25500000920E-02 0.  1.
</event>
<event>
 5   0  0.6161834E-06  0.2608172E+04  0.7818609E-02  0.8365431E-01
        2   -1    0    0  501    0  0.00000000000E+00  0.00000000000E+00  0.23672482954E+04  0.23672482954E+04  0.25500000920E-02 0.  1.
       -2   -1    0    0    0  501  0.00000000000E+00  0.00000000000E+00 -0.71840382161E+03  0.71840382162E+03  0.25500000920E-02 0. -1.
    10030    2    1    2    0    0  0.00000000000E+00  0.00000000000E+00  0.16488444738E+04  0.30856521170E+04  0.26081719438E+04 0.  0.
        5    1    3    3  502    0  0.80150810913E+03  0.95187639886E+03  0.12858717331E+04  0.17894055247E+04  0.46999998093E+01 0.  1.
       -5    1    3    3    0  502 -0.80150810913E+03 -0.95187639886E+03  0.36297274069E+03  0.12962465924E+04  0.46999998093E+01 0. -1.
</event>
<event>
 5   0  0.2440590E-06  0.2636691E+04  0.7818609E-02  0.8355844E-01
        1   -1    0    0  501    0  0.00000000000E+00  0.00000000000E+00  0.18341460585E+04  0.18341460586E+04  0.50400001928E-02 0. -1.
       -1   -1    0    0    0  501  0.00000000000E+00  0.00000000000E+00 -0.94759864355E+03  0.94759864357E+03  0.50400001928E-02 0.  1.
    10030    2    1    2    0    0  0.00000000000E+00  0.00000000000E+00  0.88654741499E+03  0.27817447021E+04  0.26366905903E+04 0.  0.
        1    1    3    3  502    0 -0.33844499489E+03 -0.54771728567E+03  0.16569958233E+04  0.17776879361E+04  0.50400001928E-02 0. -1.
       -1    1    3    3    0  502  0.33844499489E+03  0.54771728567E+03 -0.77044840830E+03  0.10040567661E+04  0.50400001928E-02 0.  1.
</event>
<event>
 5   0  0.2456600E-06  0.2607424E+04  0.7818609E-02  0.8365684E-01
        1   -1    0    0  501    0  0.00000000000E+00  0.00000000000E+00  0.18048264182E+04  0.18048264182E+04  0.50400001928E-02 0.  1.
       -1   -1    0    0    0  501  0.00000000000E+00  0.00000000000E+00 -0.94173297177E+03  0.94173297179E+03  0.50400001928E-02 0. -1.
    10030    2    1    2    0    0  0.00000000000E+00  0.00000000000E+00  0.86309344639E+03  0.27465593900E+04  0.26074236682E+04 0.  0.
        5    1    3    3  502    0 -0.11089886303E+04 -0.24115392265E+00  0.11535309521E+04  0.16001598632E+04  0.46999998093E+01 0. -1.
       -5    1    3    3    0  502  0.11089886303E+04  0.24115392265E+00 -0.29043750568E+03  0.11463995268E+04  0.46999998093E+01 0.  1.
</event>
<event>
 5   0  0.6173140E-06  0.2608396E+04  0.7818609E-02  0.8365355E-01
        2   -1    0    0  501    0  0.00000000000E+00  0.00000000000E+00  0.12178801790E+04  0.12178801790E+04  0.25500000920E-02 0. -1.
       -2   -1    0    0    0  501  0.00000000000E+00  0.00000000000E+00 -0.13966339579E+04  0.13966339579E+04  0.25500000920E-02 0.  1.
    10030    2    1    2    0    0  0.00000000000E+00  0.00000000000E+00 -0.17875377897E+03  0.26145141369E+04  0.26083963002E+04 0.  0.
        3    1    3    3  502    0  0.81537469156E+03 -0.89765621955E+03  0.39165518105E+03  0.12743690075E+04  0.10100000352E+00 0. -1.
       -3    1    3    3    0  502 -0.81537469156E+03  0.89765621955E+03 -0.57040896002E+03  0.13401451295E+04  0.10100000352E+00 0.  1.
</event>
<event>
 5   0  0.6161834E-06  0.2586924E+04  0.7818609E-02  0.8372656E-01
        2   -1    0    0  501    0  0.00000000000E+00  0.00000000000E+00  0.32161740512E+04  0.32161740512E+04  0.25500000920E-02 0. -1.
       -2   -1    0    0    0  501  0.00000000000E+00  0.00000000000E+00 -0.52019685876E+03  0.52019685877E+03  0.25500000920E-02 0.  1.
    10030    2    1    2    0    0  0.00000000000E+00  0.00000000000E+00  0.26959771925E+04  0.37363709100E+04  0.25869237628E+04 0.  0.
        5    1    3    3  502    0 -0.19629638419E+02  0.12715362701E+04  0.16892655272E+04  0.21144337115E+04  0.46999998093E+01 0. -1.
       -5    1    3    3    0  502  0.19629638419E+02 -0.12715362701E+04  0.10067116653E+04  0.16219371985E+04  0.46999998093E+01 0.  1.
</event>
<event>
 5   0  0.2072125E-06  0.2592776E+04  0.7818609E-02  0.8370659E-01
       -3   -1    0    0    0  501  0.00000000000E+00  0.00000000000E+00  0.14366366016E+04  0.14366366051E+04  0.10100000352E+00 0.  1.
        3   -1    0    0  501    0  0.00000000000E+00  0.00000000000E+00 -0.11698306580E+04  0.11698306624E+04  0.10100000352E+00 0. -1.
    10030    2    1    2    0    0  0.00000000000E+00  0.00000000000E+00  0.26680594356E+03  0.26064672675E+04  0.25927757722E+04 0.  0.
        4    1    3    3  502    0 -0.75092702924E+03  0.92148915089E+03 -0.38661605769E+03  0.12500028990E+04  0.12699999809E+01 0. -1.
       -4    1    3    3    0  502  0.75092702924E+03 -0.92148915089E+03  0.65342200125E+03  0.13564643685E+04  0.12699999809E+01 0.  1.
</event>
<event>
 5   0  0.5942229E-06  0.2619415E+04  0.7818609E-02  0.8361636E-01
       -2   -1    0    0    0  501  0.00000000000E+00  0.00000000000E+00  0.11130670660E+04  0.11130670660E+04  0.25500000920E-02 0.  1.
        2   -1    0    0  501    0  0.00000000000E+00  0.00000000000E+00 -0.15410876674E+04  0.15410876674E+04  0.25500000920E-02 0. -1.
    10030    2    1    2    0    0  0.00000000000E+00  0.00000000000E+00 -0.42802060140E+03  0.26541547334E+04  0.26194151473E+04 0.  0.
        4    1    3    3  502    0 -0.11631186664E+03 -0.11456148803E+04  0.41826086470E+03  0.12251145531E+04  0.12699999809E+01 0.  1.
       -4    1    3    3    0  502  0.11631186664E+03  0.11456148803E+04 -0.84628146609E+03  0.14290401804E+04  0.12699999809E+01 0. -1.
</event>
<event>
 5   0  0.2440590E-06  0.2620146E+04  0.7818609E-02  0.8361390E-01
        1   -1    0    0  501    0  0.00000000000E+00  0.00000000000E+00  0.17419372732E+04  0.17419372732E+04  0.50400001928E-02 0.  1.
       -1   -1    0    0    0  501  0.00000000000E+00  0.00000000000E+00 -0.98527740199E+03  0.98527740201E+03  0.50400001928E-02 0. -1.
    10030    2    1    2    0    0  0.00000000000E+00  0.00000000000E+00  0.75665987116E+03  0.27272146752E+04  0.26201461264E+04 0.  0.
        1    1    3    3  502    0  0.50307956195E+03 -0.67900190456E+03  0.14203164166E+04  0.16527042553E+04  0.50400001928E-02 0.  1.
       -1    1    3    3    0  502 -0.50307956195E+03  0.67900190456E+03 -0.66365654548E+03  0.10745104199E+04  0.50400001928E-02 0. -1.
</event>
<event>
 5   0  0.2471488E-06  0.2523128E+04  0.7818609E-02  0.8394792E-01
        1   -1    0    0  501    0  0.00000000000E+00  0.00000000000E+00  0.13487500537E+04  0.13487500538E+04  0.50400001928E-02 0. -1.
       -1   -1    0    0    0  501  0.00000000000E+00  0.00000000000E+00 -0.11800140593E+04  0.11800140593E+04  0.50400001928E-02 0.  1.
    10030    2    1    2    0    0  0.00000000000E+00  0.00000000000E+00  0.16873599449E+03  0.25287641130E+04  0.25231282376E+04 0.  0.
        4    1    3    3  502    0  0.41188608008E+03 -0.20327657994E+03 -0.10932335114E+04  0.11858046358E+04  0.12699999809E+01 0.  1.
       -4    1    3    3    0  502 -0.41188608008E+03  0.20327657994E+03  0.12619695059E+04  0.13429594773E+04  0.12699999809E+01 0. -1.
</event>
<event>
 5   0  0.2471488E-06  0.2622057E+04  0.7818609E-02  0.8360747E-01
       -1   -1    0    0    0  501  0.00000000000E+00  0.00000000000E+00  0.98137532778E+03  0.98137532779E+03  0.50400001928E-02 0. -1.
        1   -1    0    0  501    0  0.00000000000E+00  0.00000000000E+00 -0.17514146878E+04  0.17514146878E+04  0.50400001928E-02 0.  1.
    10030    2    1    2    0    0  0.00000000000E+00  0.00000000000E+00 -0.77003936000E+03  0.27327900156E+04  0.26220565694E+04 0.  0.
        4    1    3    3  502    0  0.22691956114E+02  0.10749379466E+04  0.39685337690E+03  0.11460805947E+04  0.12699999809E+01 0. -1.
       -4    1    3    3    0  502 -0.22691956114E+02 -0.10749379466E+04 -0.11668927369E+04  0.15867094209E+04  0.12699999809E+01 0.  1.
</event>
<event>
 5   0  0.2471488E-06  0.2598892E+04  0.7818609E-02  0.8368578E-01
        1   -1    0    0  501    0  0.00000000000E+00  0.00000000000E+00  0.13515969303E+04  0.13515969304E+04  0.50400001928E-02 0. -1.
       -1   -1    0    0    0  501  0.00000000000E+00  0.00000000000E+00 -0.12493075386E+04  0.12493075386E+04  0.50400001928E-02 0.  1.
    10030    2    1    2    0    0  0.00000000000E+00  0.00000000000E+00  0.10228939176E+03  0.26009044689E+04  0.25988922519E+04 0.  0.
        4    1    3    3  502    0 -0.50560109677E+03 -0.64339275058E+03 -0.95907826418E+03  0.12607217894E+04  0.12699999809E+01 0.  1.
       -4    1    3    3    0  502  0.50560109677E+03  0.64339275058E+03  0.10613676559E+04  0.13401826795E+04  0.12699999809E+01 0. -1.
</event>
<event>
 5   0  0.2440590E-06  0.2601995E+04  0.7818609E-02  0.8367524E-01
       -1   -1    0    0    0  501  0.00000000000E+00  0.00000000000E+00  0.15267153304E+04  0.15267153304E+04  0.50400001928E-02 0. -1.
        1   -1    0    0  501    0  0.00000000000E+00  0.00000000000E+00 -0.11086509936E+04  0.11086509937E+04  0.50400001928E-02 0.  1.
    10030    2    1    2    0    0  0.00000000000E+00  0.00000000000E+00  0.41806433678E+03  0.26353663241E+04  0.26019949793E+04 0.  0.
        1    1    3    3  502    0 -0.11724809788E+04  0.55535378739E+03  0.30756811544E+03  0.13333145242E+04  0.50400001928E-02 0. -1.
       -1    1    3    3    0  502  0.11724809788E+04 -0.55535378739E+03  0.11049622134E+03  0.13020517999E+04  0.50400001928E-02 0.  1.
</event>
<event>
 5   0  0.2456600E-06  0.2601774E+04  0.7818609E-02  0.8367599E-01
        1   -1    0    0  501    0  0.00000000000E+00  0.00000000000E+00  0.10533862674E+04  0.10533862674E+04  0.50400001928E-02 0.  1.
       -1   -1    0    0    0  501  0.00000000000E+00  0.00000000000E+00 -0.16065401753E+04  0.16065401753E+04  0.50400001928E-02 0. -1.
    10030    2    1    2    0    0  0.00000000000E+00  0.00000000000E+00 -0.55315390795E+03  0.26599264427E+04  0.26017742859E+04 0.  0.
        5    1    3    3  502    0 -0.43054157378E+03  0.72065493454E+03 -0.12925570612E+04  0.15412447657E+04  0.46999998093E+01 0. -1.
       -5    1    3    3    0  502  0.43054157378E+03 -0.72065493454E+03  0.73940315325E+03  0.11186816770E+04  0.46999998093E+01 0.  1.
</event>
<event>
 5   0  0.5942229E-06  0.2585715E+04  0.7818609E-02  0.8373070E-01
       -2   -1    0    0    0  501  0.00000000000E+00  0.00000000000E+00  0.10362892972E+04  0.10362892972E+04  0.25500000920E-02 0.  1.
        2   -1    0    0  501    0  0.00000000000E+00  0.00000000000E+00 -0.16129483169E+04  0.16129483169E+04  0.25500000920E-02 0. -1.
    10030    2    1    2    0    0  0.00000000000E+00  0.00000000000E+00 -0.57665901967E+03  0.26492376141E+04  0.25857154350E+04 0.  0.
        4    1    3    3  502    0 -0.12334140937E+04  0.33258559911E+03 -0.84556746050E+02  0.12802636305E+04  0.12699999809E+01 0.  1.
       -4    1    3    3    0  502  0.12334140937E+04 -0.33258559911E+03 -0.49210227362E+03  0.13689739836E+04  0.12699999809E+01 0. -1.
</event>
<event>
 5   0  0.2456600E-06  0.2610429E+04  0.7818609E-02  0.8364667E-01
        1   -1    0    0  501    0  0.00000000000E+00  0.00000000000E+00  0.13490550397E+04  0.13490550398E+04  0.50400001928E-02 0.  1.
       -1   -1    0    0    0  501  0.00000000000E+00  0.00000000000E+00 -0.12627983336E+04  0.12627983336E+04  0.50400001928E-02 0. -1.
    10030    2    1    2    0    0  0.00000000000E+00  0.00000000000E+00  0.86256706136E+02  0.26118533734E+04  0.26104286668E+04 0.  0.
        5    1    3    3  502    0  0.81492012450E+03 -0.92610597933E+03 -0.38347891907E+03  0.12918379409E+04  0.46999998093E+01 0.  1.
       -5    1    3    3    0  502 -0.81492012450E+03  0.92610597933E+03  0.46973562520E+03  0.13200154324E+04  0.46999998093E+01 0. -1.
</event>
<event>
 5   0  0.5942229E-06  0.2595726E+04  0.7818609E-02  0.8369655E-01
       -2   -1    0    0    0  501  0.00000000000E+00  0.00000000000E+00  0.11338161226E+04  0.11338161226E+04  0.25500000920E-02 0.  1.
        2   -1    0    0  501    0  0.00000000000E+00  0.00000000000E+00 -0.14856448309E+04  0.14856448309E+04  0.25500000920E-02 0. -1.
    10030    2    1    2    0    0  0.00000000000E+00  0.00000000000E+00 -0.35182870836E+03  0.26194609535E+04  0.25957257649E+04 0.  0.
        4    1    3    3  502    0 -0.46027407287E+03 -0.23327543721E+03  0.10258472074E+04  0.11483177947E+04  0.12699999809E+01 0.  1.
       -4    1    3    3    0  502  0.46027407287E+03  0.23327543721E+03 -0.13776759158E+04  0.14711431588E+04  0.12699999809E+01 0. -1.
</event>
<event>
 5   0  0.2440590E-06  0.2598033E+04  0.7818609E-02  0.8368870E-01
       -1   -1    0    0    0  501  0.00000000000E+00  0.00000000000E+00  0.59948675471E+03  0.59948675473E+03  0.50400001928E-02 0. -1.
        1   -1    0    0  501    0  0.00000000000E+00  0.00000000000E+00 -0.28148148235E+04  0.28148148235E+04  0.50400001928E-02 0.  1.
    10030    2    1    2    0    0  0.00000000000E+00  0.00000000000E+00 -0.22153280688E+04  0.34143015782E+04  0.25980332590E+04 0.  0.
        1    1    3    3  502    0  0.10109280235E+04 -0.80015023534E+03 -0.13164020134E+04  0.18425878890E+04  0.50400001928E-02 0.  1.
       -1    1    3    3    0  502 -0.10109280235E+04  0.80015023534E+03 -0.89892605535E+03  0.15717136892E+04  0.50400001928E-02 0. -1.
</event>
<event>
 5   0  0.5940748E-06  0.2604999E+04  0.7818609E-02  0.8366505E-01
        2   -1    0    0  501    0  0.00000000000E+00  0.00000000000E+00  0.12953257818E+04  0.12953257818E+04  0.25500000920E-02 0.  1.
       -2   -1    0    0    0  501  0.00000000000E+00  0.00000000000E+00 -0.13097125707E+04  0.13097125707E+04  0.25500000920E-02 0. -1.
    10030    2    1    2    0    0  0.00000000000E+00  0.00000000000E+00 -0.14386788834E+02  0.26050383525E+04  0.26049986254E+04 0.  0.
        1    1    3    3  502    0  0.10071125487E+03 -0.43916686809E+01 -0.13058056733E+04  0.13096909941E+04  0.50400001928E-02 0. -1.
       -1    1    3    3    0  502 -0.10071125487E+03  0.43916686809E+01  0.12914188845E+04  0.12953473584E+04  0.50400001928E-02 0.  1.
</event>
<event>
 5   0  0.2333979E-06  0.2605922E+04  0.7818609E-02  0.8366193E-01
        1   -1    0    0  501    0  0.00000000000E+00  0.00000000000E+00  0.18615213379E+04  0.18615213379E+04  0.50400001928E-02 0.  1.
       -1   -1    0    0    0  501  0.00000000000E+00  0.00000000000E+00 -0.91199972662E+03  0.91199972663E+03  0.50400001928E-02 0. -1.
    10030    2    1    2    0    0  0.00000000000E+00  0.00000000000E+00  0.94952161125E+03  0.27735210645E+04  0.26059216805E+04 0.  0.
        3    1    3    3  502    0  0.61908729389E+03  0.41038516463E+01 -0.74545699912E+03  0.96901603020E+03  0.10100000352E+00 0. -1.
       -3    1    3    3    0  502 -0.61908729389E+03 -0.41038516463E+01  0.16949786104E+04  0.18045050343E+04  0.10100000352E+00 0.  1.
</event>
<event>
 5   0  0.6158063E-06  0.2606924E+04  0.7818609E-02  0.8365853E-01
       -2   -1    0    0    0  501  0.00000000000E+00  0.00000000000E+00  0.10916837143E+04  0.10916837143E+04  0.25500000920E-02 0.  1.
        2   -1    0    0  501    0  0.00000000000E+00  0.00000000000E+00 -0.15563237941E+04  0.15563237941E+04  0.25500000920E-02 0. -1.
    10030    2    1    2    0    0  0.00000000000E+00  0.00000000000E+00 -0.46464007978E+03  0.26480075085E+04  0.26069241188E+04 0.  0.
        2    1    3    3  502    0  0.58642638024E+03  0.94104912474E+03  0.46371156980E+03  0.12018726116E+04  0.25500000920E-02 0.  1.
       -2    1    3    3    0  502 -0.58642638024E+03 -0.94104912474E+03 -0.92835164958E+03  0.14461348969E+04  0.25500000920E-02 0. -1.
</event>
<event>
 5   0  0.2440590E-06  0.2592877E+04  0.7818609E-02  0.8370625E-01
        1   -1    0    0  501    0  0.00000000000E+00  0.00000000000E+00  0.14887616800E+04  0.14887616800E+04  0.50400001928E-02 0. -1.
       -1   -1    0    0    0  501  0.00000000000E+00  0.00000000000E+00 -0.11289600062E+04  0.11289600062E+04  0.50400001928E-02 0.  1.
    10030    2    1    2    0    0  0.00000000000E+00  0.00000000000E+00  0.35980167380E+03  0.26177216862E+04  0.25928767001E+04 0.  0.
        1    1    3    3  502    0 -0.22636973394E+03  0.85736858658E+03  0.11347051202E+04  0.14400971701E+04  0.50400001928E-02 0. -1.
       -1    1    3    3    0  502  0.22636973394E+03 -0.85736858658E+03 -0.77490344636E+03  0.11776245161E+04  0.50400001928E-02 0.  1.
</event>
<event>
 5   0  0.2333979E-06  0.2597667E+04  0.7818609E-02  0.8368994E-01
       -1   -1    0    0    0  501  0.00000000000E+00  0.00000000000E+00  0.14037213240E+04  0.14037213240E+04  0.50400001928E-02 0.  1.
        1   -1    0    0  501    0  0.00000000000E+00  0.00000000000E+00 -0.12017831660E+04  0.12017831660E+04  0.50400001928E-02 0. -1.
    10030    2    1    2    0    0  0.00000000000E+00  0.00000000000E+00  0.20193815799E+03  0.26055044900E+04  0.25976671511E+04 0.  0.
        3    1    3    3  502    0 -0.41832505794E+03  0.44544467942E+03 -0.10485916797E+04  0.12136561859E+04  0.10100000352E+00 0. -1.
       -3    1    3    3    0  502  0.41832505794E+03 -0.44544467942E+03  0.12505298377E+04  0.13918483041E+04  0.10100000352E+00 0.  1.
</event>
<event>
 5   0  0.2440590E-06  0.2607141E+04  0.7818609E-02  0.8365780E-01
        1   -1    0    0  501    0  0.00000000000E+00  0.00000000000E+00  0.15396590203E+04  0.15396590203E+04  0.50400001928E-02 0. -1.
       -1   -1    0    0    0  501  0.00000000000E+00  0.00000000000E+00 -0.11036833398E+04  0.11036833398E+04  0.50400001928E-02 0.  1.
    10030    2    1    2    0    0  0.00000000000E+00  0.00000000000E+00  0.43597568054E+03  0.26433423601E+04  0.26071409703E+04 0.  0.
        1    1    3    3  502    0 -0.70575208851E+03 -0.90412720602E+03 -0.41010090917E+03  0.12180783106E+04  0.50400001928E-02 0.  1.
       -1    1    3    3    0  502  0.70575208851E+03  0.90412720602E+03  0.84607658970E+03  0.14252640495E+04  0.50400001928E-02 0. -1.
</event>
<event>
 5   0  0.6161834E-06  0.2602966E+04  0.7818609E-02  0.8367194E-01
        2   -1    0    0  501    0  0.00000000000E+00  0.00000000000E+00  0.25891441464E+04  0.25891441464E+04  0.25500000920E-02 0. -1.
       -2   -1    0    0    0  501  0.00000000000E+00  0.00000000000E+00 -0.65421545127E+03  0.65421545128E+03  0.25500000920E-02 0.  1.
    10030    2    1    2    0    0  0.00000000000E+00  0.00000000000E+00  0.19349286951E+04  0.32433595976E+04  0.26029660821E+04 0.  0.
        5    1    3    3  502    0  0.52893426903E+03 -0.40691256241E+03  0.23597186134E+04  0.24522730922E+04  0.46999998093E+01 0. -1.
       -5    1    3    3    0  502 -0.52893426903E+03  0.40691256241E+03 -0.42478991829E+03  0.79108650544E+03  0.46999998093E+01 0.  1.
</event>
<event>
 5   0  0.6173140E-06  0.2600072E+04  0.7818609E-02  0.8368177E-01
       -2   -1    0    0    0  501  0.00000000000E+00  0.00000000000E+00  0.92217547170E+03  0.92217547170E+03  0.25500000920E-02 0. -1.
        2   -1    0    0  501    0  0.00000000000E+00  0.00000000000E+00 -0.18327240001E+04  0.18327240001E+04  0.25500000920E-02 0.  1.
    10030    2    1    2    0    0  0.00000000000E+00  0.00000000000E+00 -0.91054852838E+03  0.27548994718E+04  0.26000716292E+04 0.  0.
        3    1    3    3  502    0  0.48810451065E+03 -0.11379498507E+04 -0.87499049487E+03  0.15161742157E+04  0.10100000352E+00 0.  1.
       -3    1    3    3    0  502 -0.48810451065E+03  0.11379498507E+04 -0.35558033513E+02  0.12387252561E+04  0.10100000352E+00 0. -1.
</event>
<event>
 5   0  0.5940748E-06  0.2599499E+04  0.7818609E-02  0.8368371E-01
        2   -1    0    0  501    0  0.00000000000E+00  0.00000000000E+00  0.14414121166E+04  0.14414121166E+04  0.25500000920E-02 0. -1.
       -2   -1    0    0    0  501  0.00000000000E+00  0.00000000000E+00 -0.11720095819E+04  0.11720095819E+04  0.25500000920E-02 0.  1.
    10030    2    1    2    0    0  0.00000000000E+00  0.00000000000E+00  0.26940253465E+03  0.26134216986E+04  0.25994990380E+04 0.  0.
        1    1    3    3  502    0 -0.43688549791E+03  0.75358254511E+03 -0.83513802212E+03  0.12067357236E+04  0.50400001928E-02 0.  1.
       -1    1    3    3    0  502  0.43688549791E+03 -0.75358254511E+03  0.11045405568E+04  0.14066859750E+04  0.50400001928E-02 0. -1.
</event>
<event>
 5   0  0.2503292E-06  0.2577404E+04  0.7818609E-02  0.8375917E-01
        1   -1    0    0  501    0  0.00000000000E+00  0.00000000000E+00  0.19046599853E+04  0.19046599853E+04  0.50400001928E-02 0.  1.
       -1   -1    0    0    0  501  0.00000000000E+00  0.00000000000E+00 -0.87194197658E+03  0.87194197660E+03  0.50400001928E-02 0. -1.
    10030    2    1    2    0    0  0.00000000000E+00  0.00000000000E+00  0.10327180087E+04  0.27766019619E+04  0.25774041145E+04 0.  0.
        2    1    3    3  502    0 -0.92164380847E+03  0.48501745827E+03 -0.30130319433E+03  0.10841830378E+04  0.25500000920E-02 0. -1.
       -2    1    3    3    0  502  0.92164380847E+03 -0.48501745827E+03  0.13340212030E+04  0.16924189241E+04  0.25500000920E-02 0.  1.
</event>
<event>
 5   0  0.2440590E-06  0.2611202E+04  0.7818609E-02  0.8364406E-01
       -1   -1    0    0    0  501  0.00000000000E+00  0.00000000000E+00  0.12061344075E+04  0.12061344075E+04  0.50400001928E-02 0.  1.
        1   -1    0    0  501    0  0.00000000000E+00  0.00000000000E+00 -0.14132707637E+04  0.14132707637E+04  0.50400001928E-02 0. -1.
    10030    2    1    2    0    0  0.00000000000E+00  0.00000000000E+00 -0.20713635626E+03  0.26194051712E+04  0.26112024014E+04 0.  0.
        1    1    3    3  502    0  0.84176299964E+03  0.97237239607E+03  0.12190772635E+03  0.12918724852E+04  0.50400001928E-02 0. -1.
       -1    1    3    3    0  502 -0.84176299964E+03 -0.97237239607E+03 -0.32904408261E+03  0.13275326860E+04  0.50400001928E-02 0.  1.
</event>
<event>
 5   0  0.6161834E-06  0.2583167E+04  0.7818609E-02  0.8373942E-01
        2   -1    0    0  501    0  0.00000000000E+00  0.00000000000E+00  0.10484601930E+04  0.10484601930E+04  0.25500000920E-02 0. -1.
       -2   -1    0    0    0  501  0.00000000000E+00  0.00000000000E+00 -0.15910835634E+04  0.15910835634E+04  0.25500000920E-02 0.  1.
    10030    2    1    2    0    0  0.00000000000E+00  0.00000000000E+00 -0.54262337041E+03  0.26395437565E+04  0.25831668781E+04 0.  0.
        5    1    3    3  502    0 -0.93732533457E+03  0.47575895746E+03  0.49556100376E+03  0.11621222685E+04  0.46999998093E+01 0. -1.
       -5    1    3    3    0  502  0.93732533457E+03 -0.47575895746E+03 -0.10381843742E+04  0.14774214880E+04  0.46999998093E+01 0.  1.
</event>
<event>
 5   0  0.2333979E-06  0.2585477E+04  0.7818609E-02  0.8373151E-01
        1   -1    0    0  501    0  0.00000000000E+00  0.00000000000E+00  0.16582903224E+04  0.16582903224E+04  0.50400001928E-02 0.  1.
       -1   -1    0    0    0  501  0.00000000000E+00  0.00000000000E+00 -0.10077686211E+04  0.10077686211E+04  0.50400001928E-02 0. -1.
    10030    2    1    2    0    0  0.00000000000E+00  0.00000000000E+00  0.65052170129E+03  0.26660589435E+04  0.25854770945E+04 0.  0.
        3    1    3    3  502    0  0.21231024039E+03 -0.27298378516E+03  0.16097065258E+04  0.16464358155E+04  0.10100000352E+00 0.  1.
       -3    1    3    3    0  502 -0.21231024039E+03  0.27298378516E+03 -0.95918482455E+03  0.10196231279E+04  0.10100000352E+00 0. -1.
</event>
<event>
 5   0  0.2471488E-06  0.2540288E+04  0.7818609E-02  0.8388772E-01
       -1   -1    0    0    0  501  0.00000000000E+00  0.00000000000E+00  0.10712168039E+04  0.10712168039E+04  0.50400001928E-02 0.  1.
        1   -1    0    0  501    0  0.00000000000E+00  0.00000000000E+00 -0.15060122097E+04  0.15060122097E+04  0.50400001928E-02 0. -1.
    10030    2    1    2    0    0  0.00000000000E+00  0.00000000000E+00 -0.43479540579E+03  0.25772290137E+04  0.25402878467E+04 0.  0.
        4    1    3    3  502    0 -0.12652936052E+04  0.65320404087E+02 -0.30830719083E+03  0.13039515326E+04  0.12699999809E+01 0.  1.
       -4    1    3    3    0  502  0.12652936052E+04 -0.65320404087E+02 -0.12648821496E+03  0.12732774811E+04  0.12699999809E+01 0. -1.
</event>
<event>
 5   0  0.6173140E-06  0.2611505E+04  0.7818609E-02  0.8364304E-01
        2   -1    0    0  501    0  0.00000000000E+00  0.00000000000E+00  0.90144440192E+03  0.90144440192E+03  0.25500000920E-02 0. -1.
       -2   -1    0    0    0  501  0.00000000000E+00  0.00000000000E+00 -0.18913970526E+04  0.18913970526E+04  0.25500000920E-02 0.  1.
    10030    2    1    2    0    0  0.00000000000E+00  0.00000000000E+00 -0.98995265068E+03  0.27928414545E+04  0.26115047654E+04 0.  0.
        3    1    3    3  502    0  0.10114748236E+04 -0.29209030814E+03  0.33104999130E+03  0.11036268272E+04  0.10100000352E+00 0. -1.
       -3    1    3    3    0  502 -0.10114748236E+04  0.29209030814E+03 -0.13210026420E+04  0.16892146273E+04  0.10100000352E+00 0.  1.
</event>
<event>
 5   0  0.2456600E-06  0.2594517E+04  0.7818609E-02  0.8370066E-01
       -1   -1    0    0    0  501  0.00000000000E+00  0.00000000000E+00  0.83452797707E+03  0.83452797708E+03  0.50400001928E-02 0.  1.
        1   -1    0    0  501    0  0.00000000000E+00  0.00000000000E+00 -0.20165642959E+04  0.20165642959E+04  0.50400001928E-02 0. -1.
    10030    2    1    2    0    0  0.00000000000E+00  0.00000000000E+00 -0.11820363188E+04  0.28510922730E+04  0.25945167739E+04 0.  0.
        5    1    3    3  502    0  0.12722326586E+04  0.14988261260E+03 -0.81573137590E+03  0.15187101445E+04  0.46999998093E+01 0.  1.
       -5    1    3    3    0  502 -0.12722326586E+04 -0.14988261260E+03 -0.36630494294E+03  0.13323821285E+04  0.46999998093E+01 0. -1.
</event>
<event>
 5   0  0.6161834E-06  0.2747082E+04  0.7818609E-02  0.8319888E-01
        2   -1    0    0  501    0  0.00000000000E+00  0.00000000000E+00  0.20582033626E+04  0.20582033626E+04  0.25500000920E-02 0.  1.
       -2   -1    0    0    0  501  0.00000000000E+00  0.00000000000E+00 -0.91663186135E+03  0.91663186135E+03  0.25500000920E-02 0. -1.
    10030    2    1    2    0    0  0.00000000000E+00  0.00000000000E+00  0.11415715013E+04  0.29748352240E+04  0.27470819277E+04 0.  0.
        5    1    3    3  502    0 -0.65286210805E+03 -0.86086119333E+03  0.14892046835E+04  0.18398542349E+04  0.46999998093E+01 0.  1.
       -5    1    3    3    0  502  0.65286210805E+03  0.86086119333E+03 -0.34763318218E+03  0.11349809891E+04  0.46999998093E+01 0. -1.
</event>
<event>
 5   0  0.5942229E-06  0.2600238E+04  0.7818609E-02  0.8368120E-01
       -2   -1    0    0    0  501  0.00000000000E+00  0.00000000000E+00  0.16323567920E+04  0.16323567920E+04  0.25500000920E-02 0. -1.
        2   -1    0    0  501    0  0.00000000000E+00  0.00000000000E+00 -0.10355025335E+04  0.10355025335E+04  0.25500000920E-02 0.  1.
    10030    2    1    2    0    0  0.00000000000E+00  0.00000000000E+00  0.59685425853E+03  0.26678593255E+04  0.26002381381E+04 0.  0.
        4    1    3    3  502    0  0.13924615490E+03  0.80205379508E+03  0.13385096755E+04  0.15666172303E+04  0.12699999809E+01 0. -1.
       -4    1    3    3    0  502 -0.13924615490E+03 -0.80205379508E+03 -0.74165541700E+03  0.11012420952E+04  0.12699999809E+01 0.  1.
</event>
<event>
 5   0  0.5940748E-06  0.2604528E+04  0.7818609E-02  0.8366665E-01
       -2   -1    0    0    0  501  0.00000000000E+00  0.00000000000E+00  0.11332533340E+04  0.11332533340E+04  0.25500000920E-02 0. -1.
        2   -1    0    0  501    0  0.00000000000E+00  0.00000000000E+00 -0.14964810308E+04  0.14964810308E+04  0.25500000920E-02 0.  1.
    10030    2    1    2    0    0  0.00000000000E+00  0.00000000000E+00 -0.36322769685E+03  0.26297343648E+04  0.26045284544E+04 0.  0.
        1    1    3    3  502    0 -0.74859168339E+03  0.94356483139E+03  0.31834285602E+03  0.12458114919E+04  0.50400001928E-02 0.  1.
       -1    1    3    3    0  502  0.74859168339E+03 -0.94356483139E+03 -0.68157055286E+03  0.13839228729E+04  0.50400001928E-02 0. -1.
</event>
<event>
 5   0  0.5940748E-06  0.2587459E+04  0.7818609E-02  0.8372474E-01
       -2   -1    0    0    0  501  0.00000000000E+00  0.00000000000E+00  0.73414929408E+03  0.73414929408E+03  0.25500000920E-02 0.  1.
        2   -1    0    0  501    0  0.00000000000E+00  0.00000000000E+00 -0.22798303965E+04  0.22798303965E+04  0.25500000920E-02 0. -1.
    10030    2    1    2    0    0  0.00000000000E+00  0.00000000000E+00 -0.15456811024E+04  0.30139796906E+04  0.25874588895E+04 0.  0.
        1    1    3    3  502    0 -0.22687925525E+03 -0.12374429126E+04 -0.42145837591E+03  0.13267879714E+04  0.50400001928E-02 0.  1.
       -1    1    3    3    0  502  0.22687925525E+03  0.12374429126E+04 -0.11242227265E+04  0.16871917192E+04  0.50400001928E-02 0. -1.
</event>
<event>
 5   0  0.2503292E-06  0.2595430E+04  0.7818609E-02  0.8369755E-01
       -1   -1    0    0    0  501  0.00000000000E+00  0.00000000000E+00  0.93408087591E+03  0.93408087592E+03  0.50400001928E-02 0.  1.
        1   -1    0    0  501    0  0.00000000000E+00  0.00000000000E+00 -0.18029102104E+04  0.18029102104E+04  0.50400001928E-02 0. -1.
    10030    2    1    2    0    0  0.00000000000E+00  0.00000000000E+00 -0.86882933448E+03  0.27369910863E+04  0.25954297899E+04 0.  0.
        2    1    3    3  502    0 -0.75610368705E+03 -0.96746955761E+03  0.84603234047E+01  0.12279094867E+04  0.25500000920E-02 0.  1.
       -2    1    3    3    0  502  0.75610368705E+03  0.96746955761E+03 -0.87728965789E+03  0.15090815996E+04  0.25500000920E-02 0. -1.
</event>
<event>
 5   0  0.5940748E-06  0.2604577E+04  0.7818609E-02  0.8366648E-01
       -2   -1    0    0    0  501  0.00000000000E+00  0.00000000000E+00  0.13071208571E+04  0.13071208571E+04  0.25500000920E-02 0. -1.
        2   -1    0    0  501    0  0.00000000000E+00  0.00000000000E+00 -0.12974735544E+04  0.12974735544E+04  0.25500000920E-02 0.  1.
    10030    2    1    2    0    0  0.00000000000E+00  0.00000000000E+00  0.96473027523E+01  0.26045944115E+04  0.26045765448E+04 0.  0.
        1    1    3    3  502    0  0.56534852716E+03 -0.10158913253E+04 -0.58195171111E+03  0.13001238157E+04  0.50400001928E-02 0.  1.
       -1    1    3    3    0  502 -0.56534852716E+03  0.10158913253E+04  0.59159901387E+03  0.13044705958E+04  0.50400001928E-02 0. -1.
</event>
<event>
 5   0  0.2456600E-06  0.2589079E+04  0.7818609E-02  0.8371920E-01
       -1   -1    0    0    0  501  0.00000000000E+00  0.00000000000E+00  0.11326018827E+04  0.11326018827E+04  0.50400001928E-02 0.  1.
        1   -1    0    0  501    0  0.00000000000E+00  0.00000000000E+00 -0.14796302988E+04  0.14796302988E+04  0.50400001928E-02 0. -1.
    10030    2    1    2    0    0  0.00000000000E+00  0.00000000000E+00 -0.34702841609E+03  0.26122321815E+04  0.25890786486E+04 0.  0.
        5    1    3    3  502    0 -0.59416758774E+03  0.11495301239E+04 -0.13636998145E+03  0.13011815745E+04  0.46999998093E+01 0.  1.
       -5    1    3    3    0  502  0.59416758774E+03 -0.11495301239E+04 -0.21065843463E+03  0.13110506070E+04  0.46999998093E+01 0. -1.
</event>
<event>
 5   0  0.2333979E-06  0.2566656E+04  0.7818609E-02  0.8379617E-01
        1   -1    0    0  501    0  0.00000000000E+00  0.00000000000E+00  0.15521931717E+04  0.15521931717E+04  0.50400001928E-02 0. -1.
       -1   -1    0    0    0  501  0.00000000000E+00  0.00000000000E+00 -0.10610342739E+04  0.10610342739E+04  0.50400001928E-02 0.  1.
    10030    2    1    2    0    0  0.00000000000E+00  0.00000000000E+00  0.49115889777E+03  0.26132274456E+04  0.25666555320E+04 0.  0.
        3    1    3    3  502    0 -0.27836596759E+03 -0.92344297908E+03  0.11075193639E+04  0.14686162532E+04  0.10100000352E+00 0. -1.
       -3    1    3    3    0  502  0.27836596759E+03  0.92344297908E+03 -0.61636046611E+03  0.11446111925E+04  0.10100000352E+00 0.  1.
</event>
<event>
 5   0  0.5942229E-06  0.2598805E+04  0.7818609E-02  0.8368607E-01
        2   -1    0    0  501    0  0.00000000000E+00  0.00000000000E+00  0.10243369187E+04  0.10243369187E+04  0.25500000920E-02 0.  1.
       -2   -1    0    0    0  501  0.00000000000E+00  0.00000000000E+00 -0.16483315844E+04  0.16483315844E+04  0.25500000920E-02 0. -1.
    10030    2    1    2    0    0  0.00000000000E+00  0.00000000000E+00 -0.62399466568E+03  0.26726685030E+04  0.25988050301E+04 0.  0.
        4    1    3    3  502    0 -0.12219237496E+04 -0.43967013887E+03 -0.35842238873E+03  0.13471732266E+04  0.12699999809E+01 0. -1.
       -4    1    3    3    0  502  0.12219237496E+04  0.43967013887E+03 -0.26557227695E+03  0.13254952765E+04  0.12699999809E+01 0.  1.
</event>
<event>
 5   0  0.2471488E-06  0.2596830E+04  0.7818609E-02  0.8369279E-01
       -1   -1    0    0    0  501  0.00000000000E+00  0.00000000000E+00  0.10867906971E+04  0.10867906971E+04  0.50400001928E-02 0.  1.
        1   -1    0    0  501    0  0.00000000000E+00  0.00000000000E+00 -0.15512476655E+04  0.15512476656E+04  0.50400001928E-02 0. -1.
    10030    2    1    2    0    0  0.00000000000E+00  0.00000000000E+00 -0.46445696848E+03  0.26380383626E+04  0.25968300151E+04 0.  0.
        4    1    3    3  502    0 -0.12679496105E+04 -0.26143222604E+03 -0.13147348362E+03  0.13012801056E+04  0.12699999809E+01 0. -1.
       -4    1    3    3    0  502  0.12679496105E+04  0.26143222604E+03 -0.33298348487E+03  0.13367582570E+04  0.12699999809E+01 0.  1.
</event>
<event>
 5   0  0.6173140E-06  0.2597189E+04  0.7818609E-02  0.8369157E-01
        2   -1    0    0  501    0  0.00000000000E+00  0.00000000000E+00  0.16233099539E+04  0.16233099539E+04  0.25500000920E-02 0.  1.
       -2   -1    0    0    0  501  0.00000000000E+00  0.00000000000E+00 -0.10388328329E+04  0.10388328329E+04  0.25500000920E-02 0. -1.
    10030    2    1    2    0    0  0.00000000000E+00  0.00000000000E+00  0.58447712096E+03  0.26621427868E+04  0.25971890021E+04 0.  0.
        3    1    3    3  502    0 -0.96447940710E+03  0.86116735323E+02 -0.59468238557E+03  0.11363466763E+04  0.10100000352E+00 0. -1.
       -3    1    3    3    0  502  0.96447940710E+03 -0.86116735323E+02  0.11791595065E+04  0.15257961105E+04  0.10100000352E+00 0.  1.
</event>
<event>
 5   0  0.6173140E-06  0.2513454E+04  0.7818609E-02  0.8398208E-01
        2   -1    0    0  501    0  0.00000000000E+00  0.00000000000E+00  0.16726557245E+04  0.16726557245E+04  0.25500000920E-02 0. -1.
       -2   -1    0    0    0  501  0.00000000000E+00  0.00000000000E+00 -0.94422449163E+03  0.94422449163E+03  0.25500000920E-02 0.  1.
    10030    2    1    2    0    0  0.00000000000E+00  0.00000000000E+00  0.72843123288E+03  0.26168802161E+04  0.25134538000E+04 0.  0.
        3    1    3    3  502    0  0.17634145389E+03 -0.73429720226E+03 -0.68164642847E+03  0.10173153657E+04  0.10100000352E+00 0.  1.
       -3    1    3    3    0  502 -0.17634145389E+03  0.73429720226E+03  0.14100776613E+04  0.15995648505E+04  0.10100000352E+00 0. -1.
</event>
<event>
 5   0  0.6173140E-06  0.2595561E+04  0.7818609E-02  0.8369711E-01
       -2   -1    0    0    0  501  0.00000000000E+00  0.00000000000E+00  0.94169728525E+03  0.94169728525E+03  0.25500000920E-02 0.  1.
        2   -1    0    0  501    0  0.00000000000E+00  0.00000000000E+00 -0.17885090089E+04  0.17885090089E+04  0.25500000920E-02 0. -1.
    10030    2    1    2    0    0  0.00000000000E+00  0.00000000000E+00 -0.84681172367E+03  0.27302062942E+04  0.25955608861E+04 0.  0.
        3    1    3    3  502    0 -0.87419930924E+03 -0.88380190173E+03 -0.81543771885E+03  0.14866973187E+04  0.10100000352E+00 0.  1.
       -3    1    3    3    0  502  0.87419930924E+03  0.88380190173E+03 -0.31374004813E+02  0.12435089755E+04  0.10100000352E+00 0. -1.
</event>
<event>
 5   0  0.2503292E-06  0.2594503E+04  0.7818609E-02  0.8370071E-01
        1   -1    0    0  501    0  0.00000000000E+00  0.00000000000E+00  0.17765699924E+04  0.17765699924E+04  0.50400001928E-02 0. -1.
       -1   -1    0    0    0  501  0.00000000000E+00  0.00000000000E+00 -0.94725324557E+03  0.94725324558E+03  0.50400001928E-02 0.  1.
    10030    2    1    2    0    0  0.00000000000E+00  0.00000000000E+00  0.82931674679E+03  0.27238232379E+04  0.25945031827E+04 0.  0.
        2    1    3    3  502    0  0.42009175677E+03  0.12682702357E+03 -0.86696816801E+03  0.97169747471E+03  0.25500000920E-02 0.  1.
       -2    1    3    3    0  502 -0.42009175677E+03 -0.12682702357E+03  0.16962849148E+04  0.17521257632E+04  0.25500000920E-02 0. -1.
</event>
<event>
 5   0  0.6161834E-06  0.2600640E+04  0.7818609E-02  0.8367984E-01
        2   -1    0    0  501    0  0.00000000000E+00  0.00000000000E+00  0.22179898933E+04  0.22179898934E+04  0.25500000920E-02 0. -1.
       -2   -1    0    0    0  501  0.00000000000E+00  0.00000000000E+00 -0.76232644495E+03  0.76232644495E+03  0.25500000920E-02 0.  1.
    10030    2    1    2    0    0  0.00000000000E+00  0.00000000000E+00  0.14556634484E+04  0.29803163383E+04  0.26006401907E+04 0.  0.
        5    1    3    3  502    0  0.10859312659E+04 -0.66873820099E+03  0.43711789039E+03  0.13481660268E+04  0.46999998093E+01 0. -1.
       -5    1    3    3    0  502 -0.10859312659E+04  0.66873820099E+03  0.10185455580E+04  0.16321503115E+04  0.46999998093E+01 0.  1.
</event>
<event>
 5   0  0.6161834E-06  0.2594594E+04  0.7818609E-02  0.8370040E-01
        2   -1    0    0  501    0  0.00000000000E+00  0.00000000000E+00  0.22112333142E+04  0.22112333142E+04  0.25500000920E-02 0. -1.
       -2   -1    0    0    0  501  0.00000000000E+00  0.00000000000E+00 -0.76110452264E+03  0.76110452265E+03  0.25500000920E-02 0.  1.
    10030    2    1    2    0    0  0.00000000000E+00  0.00000000000E+00  0.14501287916E+04  0.29723378369E+04  0.25945941310E+04 0.  0.
        5    1    3    3  502    0  0.10321091088E+04 -0.55883109361E+03  0.13581679633E+04  0.17950442084E+04  0.46999998093E+01 0. -1.
       -5    1    3    3    0  502 -0.10321091088E+04  0.55883109361E+03  0.91960828286E+02  0.11772936285E+04  0.46999998093E+01 0.  1.
</event>
<event>
 5   0  0.5942229E-06  0.2594100E+04  0.7818609E-02  0.8370208E-01
       -2   -1    0    0    0  501  0.00000000000E+00  0.00000000000E+00  0.98272785048E+03  0.98272785049E+03  0.25500000920E-02 0. -1.
        2   -1    0    0  501    0  0.00000000000E+00  0.00000000000E+00 -0.17119071143E+04  0.17119071143E+04  0.25500000920E-02 0.  1.
    10030    2    1    2    0    0  0.00000000000E+00  0.00000000000E+00 -0.72917926382E+03  0.26946349648E+04  0.25941000741E+04 0.  0.
        4    1    3    3  502    0  0.54034433094E+03 -0.10844576122E+04 -0.84547482055E+03  0.14774469851E+04  0.12699999809E+01 0.  1.
       -4    1    3    3    0  502 -0.54034433094E+03  0.10844576122E+04  0.11629555673E+03  0.12171879797E+04  0.12699999809E+01 0. -1.
</event>
<event>
 5   0  0.5942229E-06  0.2617271E+04  0.7818609E-02  0.8362358E-01
       -2   -1    0    0    0  501  0.00000000000E+00  0.00000000000E+00  0.72034933312E+03  0.72034933312E+03  0.25500000920E-02 0. -1.
        2   -1    0    0  501    0  0.00000000000E+00  0.00000000000E+00 -0.23773566304E+04  0.23773566304E+04  0.25500000920E-02 0.  1.
    10030    2    1    2    0    0  0.00000000000E+00  0.00000000000E+00 -0.16570072973E+04  0.30977059636E+04  0.26172712992E+04 0.  0.
        4    1    3    3  502    0  0.30774216040E+03 -0.76871479748E+03  0.37087164236E+03  0.90728995649E+03  0.12699999809E+01 0. -1.
       -4    1    3    3    0  502 -0.30774216040E+03  0.76871479748E+03 -0.20278789397E+04  0.21904160071E+04  0.12699999809E+01 0.  1.
</event>
<event>
 5   0  0.2503292E-06  0.2594015E+04  0.7818609E-02  0.8370237E-01
       -1   -1    0    0    0  501  0.00000000000E+00  0.00000000000E+00  0.10746250200E+04  0.10746250200E+04  0.50400001928E-02 0. -1.
        1   -1    0    0  501    0  0.00000000000E+00  0.00000000000E+00 -0.15654102735E+04  0.15654102735E+04  0.50400001928E-02 0.  1.
    10030    2    1    2    0    0  0.00000000000E+00  0.00000000000E+00 -0.49078525344E+03  0.26400352935E+04  0.25940154560E+04 0.  0.
        2    1    3    3  502    0 -0.12604164442E+04 -0.30491493180E+03 -0.22033225907E+03  0.13153588988E+04  0.25500000920E-02 0. -1.
       -2    1    3    3    0  502  0.12604164442E+04  0.30491493180E+03 -0.27045299437E+03  0.13246763947E+04  0.25500000920E-02 0.  1.
</event>
<event>
 5   0  0.6173140E-06  0.2598254E+04  0.7818609E-02  0.8368794E-01
        2   -1    0    0  501    0  0.00000000000E+00  0.00000000000E+00  0.14045586505E+04  0.14045586505E+04  0.25500000920E-02 0. -1.
       -2   -1    0    0    0  501  0.00000000000E+00  0.00000000000E+00 -0.12016098630E+04  0.12016098630E+04  0.25500000920E-02 0.  1.
    10030    2    1    2    0    0  0.00000000000E+00  0.00000000000E+00  0.20294878755E+03  0.26061685135E+04  0.25982544353E+04 0.  0.
        3    1    3    3  502    0 -0.69670278532E+03  0.85132933273E+03 -0.59169864137E+03  0.12491051582E+04  0.10100000352E+00 0.  1.
       -3    1    3    3    0  502  0.69670278532E+03 -0.85132933273E+03  0.79464742891E+03  0.13570633553E+04  0.10100000352E+00 0. -1.
</event>
<event>
 5   0  0.2471488E-06  0.2602469E+04  0.7818609E-02  0.8367363E-01
       -1   -1    0    0    0  501  0.00000000000E+00  0.00000000000E+00  0.16777600205E+04  0.16777600205E+04  0.50400001928E-02 0. -1.
        1   -1    0    0  501    0  0.00000000000E+00  0.00000000000E+00 -0.10092092568E+04  0.10092092568E+04  0.50400001928E-02 0.  1.
    10030    2    1    2    0    0  0.00000000000E+00  0.00000000000E+00  0.66855076368E+03  0.26869692773E+04  0.26024687843E+04 0.  0.
        4    1    3    3  502    0 -0.30968183084E+03  0.86512612689E+03  0.12855283942E+04  0.15801680028E+04  0.12699999809E+01 0. -1.
       -4    1    3    3    0  502  0.30968183084E+03 -0.86512612689E+03 -0.61697763054E+03  0.11068012745E+04  0.12699999809E+01 0.  1.
</event>
<event>
 5   0  0.5940748E-06  0.2597500E+04  0.7818609E-02  0.8369051E-01
       -2   -1    0    0    0  501  0.00000000000E+00  0.00000000000E+00  0.10178134647E+04  0.10178134647E+04  0.25500000920E-02 0. -1.
        2   -1    0    0  501    0  0.00000000000E+00  0.00000000000E+00 -0.16572310643E+04  0.16572310643E+04  0.25500000920E-02 0.  1.
    10030    2    1    2    0    0  0.00000000000E+00  0.00000000000E+00 -0.63941759961E+03  0.26750445290E+04  0.25975004072E+04 0.  0.
        1    1    3    3  502    0 -0.81220426807E+03  0.10130202030E+04 -0.28939563688E+03  0.13302764898E+04  0.50400001928E-02 0. -1.
       -1    1    3    3    0  502  0.81220426807E+03 -0.10130202030E+04 -0.35002196273E+03  0.13447680392E+04  0.50400001928E-02 0.  1.
</event>
<event>
 5   0  0.6158063E-06  0.2534258E+04  0.7818609E-02  0.8390882E-01
        2   -1    0    0  501    0  0.00000000000E+00  0.00000000000E+00  0.27421698742E+04  0.27421698742E+04  0.25500000920E-02 0.  1.
       -2   -1    0    0    0  501  0.00000000000E+00  0.00000000000E+00 -0.58552757664E+03  0.58552757665E+03  0.25500000920E-02 0. -1.
    10030    2    1    2    0    0  0.00000000000E+00  0.00000000000E+00  0.21566422975E+04  0.33276974508E+04  0.25342581409E+04 0.  0.
        2    1    3    3  502    0  0.58257550956E+03 -0.68154696735E+03 -0.97396798387E+02  0.90187949826E+03  0.25500000920E-02 0. -1.
       -2    1    3    3    0  502 -0.58257550956E+03  0.68154696735E+03  0.22540390959E+04  0.24258179526E+04  0.25500000920E-02 0.  1.
</event>
<event>
 5   0  0.2471488E-06  0.2549867E+04  0.7818609E-02  0.8385433E-01
        1   -1    0    0  501    0  0.00000000000E+00  0.00000000000E+00  0.13472750238E+04  0.13472750238E+04  0.50400001928E-02 0. -1.
       -1   -1    0    0    0  501  0.00000000000E+00  0.00000000000E+00 -0.12064760699E+04  0.12064760699E+04  0.50400001928E-02 0.  1.
    10030    2    1    2    0    0  0.00000000000E+00  0.00000000000E+00  0.14079895387E+03  0.25537510938E+04  0.25498667227E+04 0.  0.
        4    1    3    3  502    0  0.16007087328E+03  0.37422856331E+03  0.12804551401E+04  0.13435909648E+04  0.12699999809E+01 0. -1.
       -4    1    3    3    0  502 -0.16007087328E+03 -0.37422856331E+03 -0.11396561862E+04  0.12101601290E+04  0.12699999809E+01 0.  1.
</event>
<event>
 5   0  0.2503292E-06  0.2602465E+04  0.7818609E-02  0.8367364E-01
       -1   -1    0    0    0  501  0.00000000000E+00  0.00000000000E+00  0.12880458254E+04  0.12880458254E+04  0.50400001928E-02 0.  1.
        1   -1    0    0  501    0  0.00000000000E+00  0.00000000000E+00 -0.13145539218E+04  0.13145539218E+04  0.50400001928E-02 0. -1.
    10030    2    1    2    0    0  0.00000000000E+00  0.00000000000E+00 -0.26508096363E+02  0.26025997472E+04  0.26024647481E+04 0.  0.
        2    1    3    3  502    0 -0.32417219767E+03  0.26712771231E+03 -0.12448863905E+04  0.13138443415E+04  0.25500000920E-02 0. -1.
       -2    1    3    3    0  502  0.32417219767E+03 -0.26712771231E+03  0.12183782941E+04  0.12887554058E+04  0.25500000920E-02 0.  1.
</event>
<event>
 5   0  0.5942229E-06  0.2599786E+04  0.7818609E-02  0.8368274E-01
        2   -1    0    0  501    0  0.00000000000E+00  0.00000000000E+00  0.26850945296E+04  0.26850945296E+04  0.25500000920E-02 0.  1.
       -2   -1    0    0    0  501  0.00000000000E+00  0.00000000000E+00 -0.62929698079E+03  0.62929698080E+03  0.25500000920E-02 0. -1.
    10030    2    1    2    0    0  0.00000000000E+00  0.00000000000E+00  0.20557975488E+04  0.33143915104E+04  0.25997860532E+04 0.  0.
        4    1    3    3  502    0 -0.52114227802E+03  0.11257101337E+04  0.53265174168E+03  0.13500118776E+04  0.12699999809E+01 0. -1.
       -4    1    3    3    0  502  0.52114227802E+03 -0.11257101337E+04  0.15231458071E+04  0.19643796328E+04  0.12699999809E+01 0.  1.
</event>
<event>
 5   0  0.5942229E-06  0.2603946E+04  0.7818609E-02  0.8366862E-01
        2   -1    0    0  501    0  0.00000000000E+00  0.00000000000E+00  0.17787557384E+04  0.17787557384E+04  0.25500000920E-02 0. -1.
       -2   -1    0    0    0  501  0.00000000000E+00  0.00000000000E+00 -0.95298847001E+03  0.95298847002E+03  0.25500000920E-02 0.  1.
    10030    2    1    2    0    0  0.00000000000E+00  0.00000000000E+00  0.82576726835E+03  0.27317442084E+04  0.26039460130E+04 0.  0.
        4    1    3    3  502    0  0.96145045223E+03 -0.45195515171E+03  0.12024724430E+04  0.16045535268E+04  0.12699999809E+01 0. -1.
       -4    1    3    3    0  502 -0.96145045223E+03  0.45195515171E+03 -0.37670517462E+03  0.11271906816E+04  0.12699999809E+01 0.  1.
</event>
<event>
 5   0  0.2471488E-06  0.2610730E+04  0.7818609E-02  0.8364565E-01
        1   -1    0    0  501    0  0.00000000000E+00  0.00000000000E+00  0.13081637955E+04  0.13081637955E+04  0.50400001928E-02 0. -1.
       -1   -1    0    0    0  501  0.00000000000E+00  0.00000000000E+00 -0.13025726435E+04  0.13025726435E+04  0.50400001928E-02 0.  1.
    10030    2    1    2    0    0  0.00000000000E+00  0.00000000000E+00  0.55911520451E+01  0.26107364390E+04  0.26107304520E+04 0.  0.
        4    1    3    3  502    0 -0.11930077183E+04  0.48017175274E+03  0.22672561499E+03  0.13058477880E+04  0.12699999809E+01 0. -1.
       -4    1    3    3    0  502  0.11930077183E+04 -0.48017175274E+03 -0.22113446294E+03  0.13048886510E+04  0.12699999809E+01 0.  1.
</event>
<event>
 5   0  0.2503292E-06  0.2611710E+04  0.7818609E-02  0.8364234E-01
        1   -1    0    0  501    0  0.00000000000E+00  0.00000000000E+00  0.27421736527E+04  0.27421736527E+04  0.50400001928E-02 0.  1.
       -1   -1    0    0    0  501  0.00000000000E+00  0.00000000000E+00 -0.62186351188E+03  0.62186351190E+03  0.50400001928E-02 0. -1.
    10030    2    1    2    0    0  0.00000000000E+00  0.00000000000E+00  0.21203101409E+04  0.33640371646E+04  0.26117103499E+04 0.  0.
        2    1    3    3  502    0 -0.78231100136E+03  0.53585267109E+03 -0.96310480253E+02  0.95311295059E+03  0.25500000920E-02 0. -1.
       -2    1    3    3    0  502  0.78231100136E+03 -0.53585267109E+03  0.22166206211E+04  0.24109242141E+04  0.25500000920E-02 0.  1.
</event>
<event>
 5   0  0.6161834E-06  0.2595155E+04  0.7818609E-02  0.8369849E-01
       -2   -1    0    0    0  501  0.00000000000E+00  0.00000000000E+00  0.11766915966E+04  0.11766915966E+04  0.25500000920E-02 0. -1.
        2   -1    0    0  501    0  0.00000000000E+00  0.00000000000E+00 -0.14308824570E+04  0.14308824570E+04  0.25500000920E-02 0.  1.
    10030    2    1    2    0    0  0.00000000000E+00  0.00000000000E+00 -0.25419086035E+03  0.26075740536E+04  0.25951549957E+04 0.  0.
        5    1    3    3  502    0  0.47941734115E+03 -0.38603951565E+03 -0.12748480229E+04  0.14156719486E+04  0.46999998093E+01 0.  1.
       -5    1    3    3    0  502 -0.47941734115E+03  0.38603951565E+03  0.10206571625E+04  0.11919021050E+04  0.46999998093E+01 0. -1.
</event>
<event>
 5   0  0.6161834E-06  0.2614360E+04  0.7818609E-02  0.8363340E-01
       -2   -1    0    0    0  501  0.00000000000E+00  0.00000000000E+00  0.10269719594E+04  0.10269719594E+04  0.25500000920E-02 0. -1.
        2   -1    0    0  501    0  0.00000000000E+00  0.00000000000E+00 -0.16638424984E+04  0.16638424984E+04  0.25500000920E-02 0.  1.
    10030    2    1    2    0    0  0.00000000000E+00  0.00000000000E+00 -0.63687053892E+03  0.26908144578E+04  0.26143600294E+04 0.  0.
        5    1    3    3  502    0  0.63907909139E+03  0.22073203245E+03 -0.14698795928E+04  0.16179347399E+04  0.46999998093E+01 0.  1.
       -5    1    3    3    0  502 -0.63907909139E+03 -0.22073203245E+03  0.83300905391E+03  0.10728797179E+04  0.46999998093E+01 0. -1.
</event>
<event>
 5   0  0.2456600E-06  0.2640478E+04  0.7818609E-02  0.8354580E-01
       -1   -1    0    0    0  501  0.00000000000E+00  0.00000000000E+00  0.11136133301E+04  0.11136133301E+04  0.50400001928E-02 0.  1.
        1   -1    0    0  501    0  0.00000000000E+00  0.00000000000E+00 -0.15652031708E+04  0.15652031708E+04  0.50400001928E-02 0. -1.
    10030    2    1    2    0    0  0.00000000000E+00  0.00000000000E+00 -0.45158984074E+03  0.26788165010E+04  0.26404780744E+04 0.  0.
        5    1    3    3  502    0 -0.39835337935E+03  0.96633019024E+03  0.59246997978E+03  0.12014666946E+04  0.46999998093E+01 0.  1.
       -5    1    3    3    0  502  0.39835337935E+03 -0.96633019024E+03 -0.10440598205E+04  0.14773498063E+04  0.46999998093E+01 0. -1.
</event>
<event>
 5   0  0.6158063E-06  0.2562545E+04  0.7818609E-02  0.8381036E-01
       -2   -1    0    0    0  501  0.00000000000E+00  0.00000000000E+00  0.10860812321E+04  0.10860812321E+04  0.25500000920E-02 0. -1.
        2   -1    0    0  501    0  0.00000000000E+00  0.00000000000E+00 -0.15115436002E+04  0.15115436002E+04  0.25500000920E-02 0.  1.
    10030    2    1    2    0    0  0.00000000000E+00  0.00000000000E+00 -0.42546236804E+03  0.25976248323E+04  0.25625449348E+04 0.  0.
        2    1    3    3  502    0  0.17078706533E+03  0.47666888030E+03  0.98035923485E+03  0.11033973321E+04  0.25500000920E-02 0. -1.
       -2    1    3    3    0  502 -0.17078706533E+03 -0.47666888030E+03 -0.14058216029E+04  0.14942275002E+04  0.25500000920E-02 0.  1.
</event>
<event>
 5   0  0.2471488E-06  0.2602738E+04  0.7818609E-02  0.8367272E-01
        1   -1    0    0  501    0  0.00000000000E+00  0.00000000000E+00  0.13081177143E+04  0.13081177144E+04  0.50400001928E-02 0. -1.
       -1   -1    0    0    0  501  0.00000000000E+00  0.00000000000E+00 -0.12946546827E+04  0.12946546827E+04  0.50400001928E-02 0.  1.
    10030    2    1    2    0    0  0.00000000000E+00  0.00000000000E+00  0.13463031649E+02  0.26027723971E+04  0.26027375776E+04 0.  0.
        4    1    3    3  502    0 -0.12368488623E+03  0.42050844733E+03 -0.12186149572E+04  0.12950480038E+04  0.12699999809E+01 0.  1.
       -4    1    3    3    0  502  0.12368488623E+03 -0.42050844733E+03  0.12320779888E+04  0.13077243933E+04  0.12699999809E+01 0. -1.
</event>
<event>
 5   0  0.6173140E-06  0.2593819E+04  0.7818609E-02  0.8370304E-01
       -2   -1    0    0    0  501  0.00000000000E+00  0.00000000000E+00  0.78134529261E+03  0.78134529262E+03  0.25500000920E-02 0. -1.
        2   -1    0    0  501    0  0.00000000000E+00  0.00000000000E+00 -0.21526646231E+04  0.21526646231E+04  0.25500000920E-02 0.  1.
    10030    2    1    2    0    0  0.00000000000E+00  0.00000000000E+00 -0.13713193305E+04  0.29340099157E+04  0.25938190915E+04 0.  0.
        3    1    3    3  502    0 -0.39013733455E+03 -0.11989365211E+04 -0.10293490504E+04  0.16276410536E+04  0.10100000352E+00 0.  1.
       -3    1    3    3    0  502  0.39013733455E+03  0.11989365211E+04 -0.34197028011E+03  0.13063688622E+04  0.10100000352E+00 0. -1.
</event>
<event>
 5   0  0.6161834E-06  0.2505696E+04  0.7818609E-02  0.8400959E-01
       -2   -1    0    0    0  501  0.00000000000E+00  0.00000000000E+00  0.14295911139E+04  0.14295911139E+04  0.25500000920E-02 0.  1.
        2   -1    0    0  501    0  0.00000000000E+00  0.00000000000E+00 -0.10979561716E+04  0.10979561716E+04  0.25500000920E-02 0. -1.
    10030    2    1    2    0    0  0.00000000000E+00  0.00000000000E+00  0.33163494228E+03  0.25275472855E+04  0.25056962197E+04 0.  0.
        5    1    3    3  502    0 -0.88817197334E+03 -0.51830797723E+03 -0.55604433064E+03  0.11690594515E+04  0.46999998093E+01 0. -1.
       -5    1    3    3    0  502  0.88817197334E+03  0.51830797723E+03  0.88767927293E+03  0.13584878340E+04  0.46999998093E+01 0.  1.
</event>
<event>
 5   0  0.6158063E-06  0.2598519E+04  0.7818609E-02  0.8368704E-01
        2   -1    0    0  501    0  0.00000000000E+00  0.00000000000E+00  0.19212991540E+04  0.19212991540E+04  0.25500000920E-02 0. -1.
       -2   -1    0    0    0  501  0.00000000000E+00  0.00000000000E+00 -0.87861167836E+03  0.87861167836E+03  0.25500000920E-02 0.  1.
    10030    2    1    2    0    0  0.00000000000E+00  0.00000000000E+00  0.10426874756E+04  0.27999108323E+04  0.25985194818E+04 0.  0.
        2    1    3    3  502    0  0.20971763593E+03 -0.41747262694E+03  0.18276619125E+04  0.18864286225E+04  0.25500000920E-02 0. -1.
       -2    1    3    3    0  502 -0.20971763593E+03  0.41747262694E+03 -0.78497443695E+03  0.91348220986E+03  0.25500000920E-02 0.  1.
</event>
<event>
 5   0  0.2333979E-06  0.2603039E+04  0.7818609E-02  0.8367170E-01
        1   -1    0    0  501    0  0.00000000000E+00  0.00000000000E+00  0.18882453248E+04  0.18882453248E+04  0.50400001928E-02 0. -1.
       -1   -1    0    0    0  501  0.00000000000E+00  0.00000000000E+00 -0.89710421144E+03  0.89710421146E+03  0.50400001928E-02 0.  1.
    10030    2    1    2    0    0  0.00000000000E+00  0.00000000000E+00  0.99114111335E+03  0.27853495363E+04  0.26030388650E+04 0.  0.
        3    1    3    3  502    0 -0.31781500587E+03  0.12344541674E+03  0.18396109453E+04  0.18709392264E+04  0.10100000352E+00 0. -1.
       -3    1    3    3    0  502  0.31781500587E+03 -0.12344541674E+03 -0.84846983191E+03  0.91441030983E+03  0.10100000352E+00 0.  1.
</event>
<event>
 5   0  0.6158063E-06  0.2598983E+04  0.7818609E-02  0.8368547E-01
        2   -1    0    0  501    0  0.00000000000E+00  0.00000000000E+00  0.15725764015E+04  0.15725764015E+04  0.25500000920E-02 0.  1.
       -2   -1    0    0    0  501  0.00000000000E+00  0.00000000000E+00 -0.10738288846E+04  0.10738288846E+04  0.25500000920E-02 0. -1.
    10030    2    1    2    0    0  0.00000000000E+00  0.00000000000E+00  0.49874751691E+03  0.26464052860E+04  0.25989828496E+04 0.  0.
        2    1    3    3  502    0 -0.20855280664E+03 -0.41647151243E+03  0.14846604876E+04  0.15560075698E+04  0.25500000920E-02 0.  1.
       -2    1    3    3    0  502  0.20855280664E+03  0.41647151243E+03 -0.98591297068E+03  0.10903977162E+04  0.25500000920E-02 0. -1.
</event>
<event>
 5   0  0.2456600E-06  0.2585345E+04  0.7818609E-02  0.8373196E-01
        1   -1    0    0  501    0  0.00000000000E+00  0.00000000000E+00  0.13515209875E+04  0.13515209875E+04  0.50400001928E-02 0.  1.
       -1   -1    0    0    0  501  0.00000000000E+00  0.00000000000E+00 -0.12363860202E+04  0.12363860202E+04  0.50400001928E-02 0. -1.
    10030    2    1    2    0    0  0.00000000000E+00  0.00000000000E+00  0.11513496733E+03  0.25879070077E+04  0.25853445844E+04 0.  0.
        5    1    3    3  502    0  0.50205130148E+03 -0.11457186242E+04 -0.26872014392E+03  0.12794370953E+04  0.46999998093E+01 0. -1.
       -5    1    3    3    0  502 -0.50205130148E+03  0.11457186242E+04  0.38385511126E+03  0.13084699124E+04  0.46999998093E+01 0.  1.
</event>
<event>
 5   0  0.2471488E-06  0.2604365E+04  0.7818609E-02  0.8366720E-01
       -1   -1    0    0    0  501  0.00000000000E+00  0.00000000000E+00  0.10637986353E+04  0.10637986353E+04  0.50400001928E-02 0. -1.
        1   -1    0    0  501    0  0.00000000000E+00  0.00000000000E+00 -0.15939846195E+04  0.15939846195E+04  0.50400001928E-02 0.  1.
    10030    2    1    2    0    0  0.00000000000E+00  0.00000000000E+00 -0.53018598420E+03  0.26577832548E+04  0.26043645390E+04 0.  0.
        4    1    3    3  502    0 -0.12015441367E+04 -0.23706106033E+03  0.18644233641E+03  0.12388174266E+04  0.12699999809E+01 0. -1.
       -4    1    3    3    0  502  0.12015441367E+04  0.23706106033E+03 -0.71662832061E+03  0.14189658282E+04  0.12699999809E+01 0.  1.
</event>
<event>
 5   0  0.6173140E-06  0.2610402E+04  0.7818609E-02  0.8364677E-01
       -2   -1    0    0    0  501  0.00000000000E+00  0.00000000000E+00  0.14872239253E+04  0.14872239253E+04  0.25500000920E-02 0. -1.
        2   -1    0    0  501    0  0.00000000000E+00  0.00000000000E+00 -0.11454558020E+04  0.11454558020E+04  0.25500000920E-02 0.  1.
    10030    2    1    2    0    0  0.00000000000E+00  0.00000000000E+00  0.34176812332E+03  0.26326797273E+04  0.26104017117E+04 0.  0.
        3    1    3    3  502    0 -0.22346077966E+03  0.60365838929E+03 -0.97424042246E+03  0.11676825690E+04  0.10100000352E+00 0.  1.
       -3    1    3    3    0  502  0.22346077966E+03 -0.60365838929E+03  0.13160085458E+04  0.14649971583E+04  0.10100000352E+00 0. -1.
</event>
<event>
 5   0  0.2333979E-06  0.2604500E+04  0.7818609E-02  0.8366674E-01
        1   -1    0    0  501    0  0.00000000000E+00  0.00000000000E+00  0.14105115643E+04  0.14105115644E+04  0.50400001928E-02 0. -1.
       -1   -1    0    0    0  501  0.00000000000E+00  0.00000000000E+00 -0.12022977792E+04  0.12022977792E+04  0.50400001928E-02 0.  1.
    10030    2    1    2    0    0  0.00000000000E+00  0.00000000000E+00  0.20821378517E+03  0.26128093435E+04  0.26044998916E+04 0.  0.
        3    1    3    3  502    0 -0.81231179805E+03 -0.15985390640E+03  0.11125259511E+04  0.13867652039E+04  0.10100000352E+00 0. -1.
       -3    1    3    3    0  502  0.81231179805E+03  0.15985390640E+03 -0.90431216595E+03  0.12260441396E+04  0.10100000352E+00 0.  1.
</event>
<event>
 5   0  0.2503292E-06  0.2563758E+04  0.7818609E-02  0.8380617E-01
        1   -1    0    0  501    0  0.00000000000E+00  0.00000000000E+00  0.16716948695E+04  0.16716948695E+04  0.50400001928E-02 0.  1.
       -1   -1    0    0    0  501  0.00000000000E+00  0.00000000000E+00 -0.98296277720E+03  0.98296277722E+03  0.50400001928E-02 0. -1.
    10030    2    1    2    0    0  0.00000000000E+00  0.00000000000E+00  0.68873209233E+03  0.26546576468E+04  0.25637580476E+04 0.  0.
        2    1    3    3  502    0 -0.21105162770E+03  0.12346626824E+03  0.16473243687E+04  0.16653721160E+04  0.25500000920E-02 0.  1.
       -2    1    3    3    0  502  0.21105162770E+03 -0.12346626824E+03 -0.95859227641E+03  0.98928553074E+03  0.25500000920E-02 0. -1.
</event>
<event>
 5   0  0.2503292E-06  0.2688741E+04  0.7818609E-02  0.8338667E-01
        1   -1    0    0  501    0  0.00000000000E+00  0.00000000000E+00  0.23654156626E+04  0.23654156626E+04  0.50400001928E-02 0. -1.
       -1   -1    0    0    0  501  0.00000000000E+00  0.00000000000E+00 -0.76406558385E+03  0.76406558387E+03  0.50400001928E-02 0.  1.
    10030    2    1    2    0    0  0.00000000000E+00  0.00000000000E+00  0.16013500787E+04  0.31294812464E+04  0.26887414895E+04 0.  0.
        2    1    3    3  502    0  0.63726496886E+03  0.99191137037E+03  0.15525873818E+04  0.19494928533E+04  0.25500000920E-02 0. -1.
       -2    1    3    3    0  502 -0.63726496886E+03 -0.99191137037E+03  0.48762696949E+02  0.11799883931E+04  0.25500000920E-02 0.  1.
</event>
<event>
 5   0  0.5942229E-06  0.2610770E+04  0.7818609E-02  0.8364552E-01
       -2   -1    0    0    0  501  0.00000000000E+00  0.00000000000E+00  0.58949616449E+03  0.58949616450E+03  0.25500000920E-02 0. -1.
        2   -1    0    0  501    0  0.00000000000E+00  0.00000000000E+00 -0.28906555699E+04  0.28906555699E+04  0.25500000920E-02 0.  1.
    10030    2    1    2    0    0  0.00000000000E+00  0.00000000000E+00 -0.23011594054E+04  0.34801517344E+04  0.26107702858E+04 0.  0.
        4    1    3    3  502    0 -0.15815915387E+03 -0.11230938447E+04 -0.28909299595E+03  0.11704402912E+04  0.12699999809E+01 0. -1.
       -4    1    3    3    0  502  0.15815915387E+03  0.11230938447E+04 -0.20120664095E+04  0.23097114432E+04  0.12699999809E+01 0.  1.
</event>
<event>
 5   0  0.2440590E-06  0.2603192E+04  0.7818609E-02  0.8367118E-01
        1   -1    0    0  501    0  0.00000000000E+00  0.00000000000E+00  0.10319311511E+04  0.10319311511E+04  0.50400001928E-02 0. -1.
       -1   -1    0    0    0  501  0.00000000000E+00  0.00000000000E+00 -0.16417296460E+04  0.16417296460E+04  0.50400001928E-02 0.  1.
    10030    2    1    2    0    0  0.00000000000E+00  0.00000000000E+00 -0.60979849492E+03  0.26736607971E+04  0.26031918588E+04 0.  0.
        1    1    3    3  502    0  0.11691954592E+03 -0.12865220178E+04 -0.46840315008E+03  0.13741217535E+04  0.50400001928E-02 0.  1.
       -1    1    3    3    0  502 -0.11691954592E+03  0.12865220178E+04 -0.14139534484E+03  0.12995390437E+04  0.50400001928E-02 0. -1.
</event>
<event>
 5   0  0.2440590E-06  0.2592655E+04  0.7818609E-02  0.8370701E-01
        1   -1    0    0  501    0  0.00000000000E+00  0.00000000000E+00  0.20546472066E+04  0.20546472066E+04  0.50400001928E-02 0.  1.
       -1   -1    0    0    0  501  0.00000000000E+00  0.00000000000E+00 -0.81788469608E+03  0.81788469610E+03  0.50400001928E-02 0. -1.
    10030    2    1    2    0    0  0.00000000000E+00  0.00000000000E+00  0.12367625105E+04  0.28725319027E+04  0.25926546289E+04 0.  0.
        1    1    3    3  502    0  0.86777547753E+02 -0.65214788451E+03 -0.61917334298E+03  0.90343944719E+03  0.50400001928E-02 0. -1.
       -1    1    3    3    0  502 -0.86777547753E+02  0.65214788451E+03  0.18559358535E+04  0.19690924555E+04  0.50400001928E-02 0.  1.
</event>
<event>
 5   0  0.6161834E-06  0.2616788E+04  0.7818609E-02  0.8362521E-01
        2   -1    0    0  501    0  0.00000000000E+00  0.00000000000E+00  0.15887183575E+04  0.15887183575E+04  0.25500000920E-02 0. -1.
       -2   -1    0    0    0  501  0.00000000000E+00  0.00000000000E+00 -0.10775320463E+04  0.10775320463E+04  0.25500000920E-02 0.  1.
    10030    2    1    2    0    0  0.00000000000E+00  0.00000000000E+00  0.51118631122E+03  0.26662504038E+04  0.26167880638E+04 0.  0.
        5    1    3    3  502    0 -0.77174979823E+03  0.53944160725E+03  0.11812126223E+04  0.15105894041E+04  0.46999998093E+01 0. -1.
       -5    1    3    3    0  502  0.77174979823E+03 -0.53944160725E+03 -0.67002631109E+03  0.11556609997E+04  0.46999998093E+01 0.  1.
</event>
<event>
 5   0  0.5940748E-06  0.2601068E+04  0.7818609E-02  0.8367839E-01
       -2   -1    0    0    0  501  0.00000000000E+00  0.00000000000E+00  0.16560818472E+04  0.16560818472E+04  0.25500000920E-02 0. -1.
        2   -1    0    0  501    0  0.00000000000E+00  0.00000000000E+00 -0.10213192594E+04  0.10213192594E+04  0.25500000920E-02 0.  1.
    10030    2    1    2    0    0  0.00000000000E+00  0.00000000000E+00  0.63476258777E+03  0.26774011066E+04  0.26010676929E+04 0.  0.
        1    1    3    3  502    0  0.10786096067E+04 -0.20172599309E+03  0.10359334676E+04  0.15090560656E+04  0.50400001928E-02 0. -1.
       -1    1    3    3    0  502 -0.10786096067E+04  0.20172599309E+03 -0.40117087988E+03  0.11683450410E+04  0.50400001928E-02 0.  1.
</event>
<event>
 5   0  0.5940748E-06  0.2561992E+04  0.7818609E-02  0.8381227E-01
       -2   -1    0    0    0  501  0.00000000000E+00  0.00000000000E+00  0.83284011535E+03  0.83284011535E+03  0.25500000920E-02 0. -1.
        2   -1    0    0  501    0  0.00000000000E+00  0.00000000000E+00 -0.19703072408E+04  0.19703072408E+04  0.25500000920E-02 0.  1.
    10030    2    1    2    0    0  0.00000000000E+00  0.00000000000E+00 -0.11374671255E+04  0.28031473562E+04  0.25619921231E+04 0.  0.
        1    1    3    3  502    0 -0.11832606787E+04 -0.42235424764E+03 -0.29528480085E+03  0.12906130550E+04  0.50400001928E-02 0. -1.
       -1    1    3    3    0  502  0.11832606787E+04  0.42235424764E+03 -0.84218232464E+03  0.15125343012E+04  0.50400001928E-02 0.  1.
</event>
<event>
 5   0  0.2333979E-06  0.2603322E+04  0.7818609E-02  0.8367074E-01
       -1   -1    0    0    0  501  0.00000000000E+00  0.00000000000E+00  0.12967696176E+04  0.12967696176E+04  0.50400001928E-02 0.  1.
        1   -1    0    0  501    0  0.00000000000E+00  0.00000000000E+00 -0.13065713172E+04  0.13065713172E+04  0.50400001928E-02 0. -1.
    10030    2    1    2    0    0  0.00000000000E+00  0.00000000000E+00 -0.98016995938E+01  0.26033409348E+04  0.26033224828E+04 0.  0.
        3    1    3    3  502    0  0.66550540049E+03  0.32838442804E+03  0.10644935666E+04  0.12976441477E+04  0.10100000352E+00 0.  1.
       -3    1    3    3    0  502 -0.66550540049E+03 -0.32838442804E+03 -0.10742952662E+04  0.13056967871E+04  0.10100000352E+00 0. -1.
</event>
<event>
 5   0  0.6161834E-06  0.2603230E+04  0.7818609E-02  0.8367105E-01
        2   -1    0    0  501    0  0.00000000000E+00  0.00000000000E+00  0.12234456115E+04  0.12234456115E+04  0.25500000920E-02 0. -1.
       -2   -1    0    0    0  501  0.00000000000E+00  0.00000000000E+00 -0.13847793539E+04  0.13847793539E+04  0.25500000920E-02 0.  1.
    10030    2    1    2    0    0  0.00000000000E+00  0.00000000000E+00 -0.16133374232E+03  0.26082249654E+04  0.26032304727E+04 0.  0.
        5    1    3    3  502    0 -0.21247448768E+03  0.79669458984E+03 -0.10897299309E+04  0.13665288470E+04  0.46999998093E+01 0.  1.
       -5    1    3    3    0  502  0.21247448768E+03 -0.79669458984E+03  0.92839618861E+03  0.12416961184E+04  0.46999998093E+01 0. -1.
</event>
<event>
 5   0  0.6158063E-06  0.2611829E+04  0.7818609E-02  0.8364194E-01
        2   -1    0    0  501    0  0.00000000000E+00  0.00000000000E+00  0.20718472096E+04  0.20718472096E+04  0.25500000920E-02 0. -1.
       -2   -1    0    0    0  501  0.00000000000E+00  0.00000000000E+00 -0.82313621245E+03  0.82313621245E+03  0.25500000920E-02 0.  1.
    10030    2    1    2    0    0  0.00000000000E+00  0.00000000000E+00  0.12487109972E+04  0.28949834221E+04  0.26118288343E+04 0.  0.
        2    1    3    3  502    0 -0.80910231033E+03  0.35339781531E+03  0.16908969989E+04  0.19075296132E+04  0.25500000920E-02 0. -1.
       -2    1    3    3    0  502  0.80910231033E+03 -0.35339781531E+03 -0.44218600174E+03  0.98745380883E+03  0.25500000920E-02 0.  1.
</event>
<event>
 5   0  0.2456600E-06  0.2603526E+04  0.7818609E-02  0.8367005E-01
        1   -1    0    0  501    0  0.00000000000E+00  0.00000000000E+00  0.15401184613E+04  0.15401184613E+04  0.50400001928E-02 0.  1.
       -1   -1    0    0    0  501  0.00000000000E+00  0.00000000000E+00 -0.11002963316E+04  0.11002963316E+04  0.50400001928E-02 0. -1.
    10030    2    1    2    0    0  0.00000000000E+00  0.00000000000E+00  0.43982212969E+03  0.26404147929E+04  0.26035258349E+04 0.  0.
        5    1    3    3  502    0  0.89653698096E+03 -0.88339150649E+03 -0.11707008122E+03  0.12640753956E+04  0.46999998093E+01 0. -1.
       -5    1    3    3    0  502 -0.89653698096E+03  0.88339150649E+03  0.55689221091E+03  0.13763393973E+04  0.46999998093E+01 0.  1.
</event>
<event>
 5   0  0.5940748E-06  0.2595809E+04  0.7818609E-02  0.8369626E-01
        2   -1    0    0  501    0  0.00000000000E+00  0.00000000000E+00  0.17482233753E+04  0.17482233753E+04  0.25500000920E-02 0.  1.
       -2   -1    0    0    0  501  0.00000000000E+00  0.00000000000E+00 -0.96358176432E+03  0.96358176433E+03  0.25500000920E-02 0. -1.
    10030    2    1    2    0    0  0.00000000000E+00  0.00000000000E+00  0.78464161093E+03  0.27118051396E+04  0.25958090564E+04 0.  0.
        1    1    3    3  502    0  0.80221183821E+03  0.70548599656E+03  0.11623484625E+04  0.15787046187E+04  0.50400001928E-02 0.  1.
       -1    1    3    3    0  502 -0.80221183821E+03 -0.70548599656E+03 -0.37770685159E+03  0.11331005209E+04  0.50400001928E-02 0. -1.
</event>
<event>
 5   0  0.5942229E-06  0.2609113E+04  0.7818609E-02  0.8365112E-01
       -2   -1    0    0    0  501  0.00000000000E+00  0.00000000000E+00  0.16159668706E+04  0.16159668706E+04  0.25500000920E-02 0.  1.
        2   -1    0    0  501    0  0.00000000000E+00  0.00000000000E+00 -0.10531578860E+04  0.10531578860E+04  0.25500000920E-02 0. -1.
    10030    2    1    2    0    0  0.00000000000E+00  0.00000000000E+00  0.56280898460E+03  0.26691247567E+04  0.26091134536E+04 0.  0.
        4    1    3    3  502    0  0.99306590069E+03  0.52749255577E+03  0.95800815138E+03  0.14772303512E+04  0.12699999809E+01 0.  1.
       -4    1    3    3    0  502 -0.99306590069E+03 -0.52749255577E+03 -0.39519916678E+03  0.11918944055E+04  0.12699999809E+01 0. -1.
</event>
<event>
 5   0  0.5940748E-06  0.2596641E+04  0.7818609E-02  0.8369343E-01
       -2   -1    0    0    0  501  0.00000000000E+00  0.00000000000E+00  0.10175621711E+04  0.10175621711E+04  0.25500000920E-02 0.  1.
        2   -1    0    0  501    0  0.00000000000E+00  0.00000000000E+00 -0.16565434005E+04  0.16565434005E+04  0.25500000920E-02 0. -1.
    10030    2    1    2    0    0  0.00000000000E+00  0.00000000000E+00 -0.63898122935E+03  0.26741055716E+04  0.25966408294E+04 0.  0.
        1    1    3    3  502    0  0.92690690786E+03  0.84702245191E+03  0.20560772868E+02  0.12557970359E+04  0.50400001928E-02 0.  1.
       -1    1    3    3    0  502 -0.92690690786E+03 -0.84702245191E+03 -0.65954200221E+03  0.14183085357E+04  0.50400001928E-02 0. -1.
</event>
<event>
 5   0  0.6158063E-06  0.2595976E+04  0.7818609E-02  0.8369569E-01
        2   -1    0    0  501    0  0.00000000000E+00  0.00000000000E+00  0.10945098036E+04  0.10945098036E+04  0.25500000920E-02 0.  1.
       -2   -1    0    0    0  501  0.00000000000E+00  0.00000000000E+00 -0.15392950262E+04  0.15392950262E+04  0.25500000920E-02 0. -1.
    10030    2    1    2    0    0  0.00000000000E+00  0.00000000000E+00 -0.44478522261E+03  0.26338048298E+04  0.25959764998E+04 0.  0.
        2    1    3    3  502    0  0.26121968668E+03  0.16658238039E+03  0.10564462345E+04  0.11009378095E+04  0.25500000920E-02 0.  1.
       -2    1    3    3    0  502 -0.26121968668E+03 -0.16658238039E+03 -0.15012314571E+04  0.15328670203E+04  0.25500000920E-02 0. -1.
</event>
<event>
 5   0  0.2503292E-06  0.2599340E+04  0.7818609E-02  0.8368425E-01
       -1   -1    0    0    0  501  0.00000000000E+00  0.00000000000E+00  0.94478057350E+03  0.94478057351E+03  0.50400001928E-02 0. -1.
        1   -1    0    0  501    0  0.00000000000E+00  0.00000000000E+00 -0.17878668428E+04  0.17878668428E+04  0.50400001928E-02 0.  1.
    10030    2    1    2    0    0  0.00000000000E+00  0.00000000000E+00 -0.84308626928E+03  0.27326474163E+04  0.25993398093E+04 0.  0.
        2    1    3    3  502    0 -0.81967384520E+03  0.95171502710E+03 -0.70478170648E+02  0.12580118751E+04  0.25500000920E-02 0. -1.
       -2    1    3    3    0  502  0.81967384520E+03 -0.95171502710E+03 -0.77260809863E+03  0.14746355412E+04  0.25500000920E-02 0.  1.
</event>
<event>
 5   0  0.2503292E-06  0.2605920E+04  0.7818609E-02  0.8366193E-01
       -1   -1    0    0    0  501  0.00000000000E+00  0.00000000000E+00  0.19475466368E+04  0.19475466368E+04  0.50400001928E-02 0.  1.
        1   -1    0    0  501    0  0.00000000000E+00  0.00000000000E+00 -0.87171463710E+03  0.87171463711E+03  0.50400001928E-02 0. -1.
    10030    2    1    2    0    0  0.00000000000E+00  0.00000000000E+00  0.10758319997E+04  0.28192612739E+04  0.26059201137E+04 0.  0.
        2    1    3    3  502    0 -0.60430182044E+02  0.12472679223E+04  0.13547302405E+03  0.12560581265E+04  0.25500000920E-02 0. -1.
       -2    1    3    3    0  502  0.60430182044E+02 -0.12472679223E+04  0.94035897562E+03  0.15632031474E+04  0.25500000920E-02 0.  1.
</event>
<event>
 5   0  0.5940748E-06  0.2604261E+04  0.7818609E-02  0.8366755E-01
       -2   -1    0    0    0  501  0.00000000000E+00  0.00000000000E+00  0.16027833345E+04  0.16027833345E+04  0.25500000920E-02 0. -1.
        2   -1    0    0  501    0  0.00000000000E+00  0.00000000000E+00 -0.10578745751E+04  0.10578745751E+04  0.25500000920E-02 0.  1.
    10030    2    1    2    0    0  0.00000000000E+00  0.00000000000E+00  0.54490875943E+03  0.26606579096E+04  0.26042609232E+04 0.  0.
        1    1    3    3  502    0 -0.11480682349E+04  0.45554556363E+03 -0.14873709815E+03  0.12440679872E+04  0.50400001928E-02 0.  1.
       -1    1    3    3    0  502  0.11480682349E+04 -0.45554556363E+03  0.69364585758E+03  0.14165899224E+04  0.50400001928E-02 0. -1.
</event>
<event>
 5   0  0.2440590E-06  0.2606421E+04  0.7818609E-02  0.8366024E-01
        1   -1    0    0  501    0  0.00000000000E+00  0.00000000000E+00  0.15361021958E+04  0.15361021958E+04  0.50400001928E-02 0. -1.
       -1   -1    0    0    0  501  0.00000000000E+00  0.00000000000E+00 -0.11056276731E+04  0.11056276731E+04  0.50400001928E-02 0.  1.
    10030    2    1    2    0    0  0.00000000000E+00  0.00000000000E+00  0.43047452269E+03  0.26417298689E+04  0.26064206080E+04 0.  0.
        1    1    3    3  502    0  0.10558899398E+04  0.68051385032E+03  0.56685837694E+03  0.13781622129E+04  0.50400001928E-02 0.  1.
       -1    1    3    3    0  502 -0.10558899398E+04 -0.68051385032E+03 -0.13638385425E+03  0.12635676560E+04  0.50400001928E-02 0. -1.
</event>
<event>
 5   0  0.2456600E-06  0.2585916E+04  0.7818609E-02  0.8373001E-01
        1   -1    0    0  501    0  0.00000000000E+00  0.00000000000E+00  0.24334127808E+04  0.24334127808E+04  0.50400001928E-02 0. -1.
       -1   -1    0    0    0  501  0.00000000000E+00  0.00000000000E+00 -0.68699441868E+03  0.68699441870E+03  0.50400001928E-02 0.  1.
    10030    2    1    2    0    0  0.00000000000E+00  0.00000000000E+00  0.17464183621E+04  0.31204071995E+04  0.25859164710E+04 0.  0.
        5    1    3    3  502    0  0.15191022830E+03  0.11059985537E+04  0.86162820504E+02  0.11197123023E+04  0.46999998093E+01 0.  1.
       -5    1    3    3    0  502 -0.15191022830E+03 -0.11059985537E+04  0.16602555416E+04  0.20006948972E+04  0.46999998093E+01 0. -1.
</event>
<event>
 5   0  0.5940748E-06  0.2582760E+04  0.7818609E-02  0.8374081E-01
       -2   -1    0    0    0  501  0.00000000000E+00  0.00000000000E+00  0.17846510141E+04  0.17846510141E+04  0.25500000920E-02 0. -1.
        2   -1    0    0  501    0  0.00000000000E+00  0.00000000000E+00 -0.93444754517E+03  0.93444754517E+03  0.25500000920E-02 0.  1.
    10030    2    1    2    0    0  0.00000000000E+00  0.00000000000E+00  0.85020346892E+03  0.27190985593E+04  0.25827603521E+04 0.  0.
        1    1    3    3  502    0 -0.25281755096E+03 -0.88609750203E+03  0.13776142202E+04  0.16573793884E+04  0.50400001928E-02 0. -1.
       -1    1    3    3    0  502  0.25281755096E+03  0.88609750203E+03 -0.52741075133E+03  0.10617191709E+04  0.50400001928E-02 0.  1.
</event>
<event>
 5   0  0.2471488E-06  0.2600098E+04  0.7818609E-02  0.8368168E-01
        1   -1    0    0  501    0  0.00000000000E+00  0.00000000000E+00  0.26051823282E+04  0.26051823282E+04  0.50400001928E-02 0. -1.
       -1   -1    0    0    0  501  0.00000000000E+00  0.00000000000E+00 -0.64875567215E+03  0.64875567217E+03  0.50400001928E-02 0.  1.
    10030    2    1    2    0    0  0.00000000000E+00  0.00000000000E+00  0.19564266561E+04  0.32539380004E+04  0.26000975462E+04 0.  0.
        4    1    3    3  502    0  0.11929418143E+04 -0.12116536527E+03  0.16068612763E+04  0.20049428900E+04  0.12699999809E+01 0. -1.
       -4    1    3    3    0  502 -0.11929418143E+04  0.12116536527E+03  0.34956537976E+03  0.12489951104E+04  0.12699999809E+01 0.  1.
</event>
<event>
 5   0  0.6158063E-06  0.2604918E+04  0.7818609E-02  0.8366532E-01
        2   -1    0    0  501    0  0.00000000000E+00  0.00000000000E+00  0.13498683946E+04  0.13498683946E+04  0.25500000920E-02 0.  1.
       -2   -1    0    0    0  501  0.00000000000E+00  0.00000000000E+00 -0.12567151294E+04  0.12567151294E+04  0.25500000920E-02 0. -1.
    10030    2    1    2    0    0  0.00000000000E+00  0.00000000000E+00  0.93153265211E+02  0.26065835239E+04  0.26049184510E+04 0.  0.
        2    1    3    3  502    0  0.27307317662E+03 -0.43181154105E+03  0.12454116674E+04  0.13461353528E+04  0.25500000920E-02 0.  1.
       -2    1    3    3    0  502 -0.27307317662E+03  0.43181154105E+03 -0.11522584022E+04  0.12604481712E+04  0.25500000920E-02 0. -1.
</event>
<event>
 5   0  0.2471488E-06  0.2599491E+04  0.7818609E-02  0.8368374E-01
       -1   -1    0    0    0  501  0.00000000000E+00  0.00000000000E+00  0.68383258456E+03  0.68383258458E+03  0.50400001928E-02 0.  1.
        1   -1    0    0  501    0  0.00000000000E+00  0.00000000000E+00 -0.24703983905E+04  0.24703983905E+04  0.50400001928E-02 0. -1.
    10030    2    1    2    0    0  0.00000000000E+00  0.00000000000E+00 -0.17865658059E+04  0.31542309751E+04  0.25994914243E+04 0.  0.
        4    1    3    3  502    0  0.28921658557E+03  0.12667743839E+04 -0.85541908300E+03  0.15556693073E+04  0.12699999809E+01 0.  1.
       -4    1    3    3    0  502 -0.28921658557E+03 -0.12667743839E+04 -0.93114672294E+03  0.15985616678E+04  0.12699999809E+01 0. -1.
</event>
<event>
 5   0  0.2440590E-06  0.2595809E+04  0.7818609E-02  0.8369626E-01
        1   -1    0    0  501    0  0.00000000000E+00  0.00000000000E+00  0.14216837447E+04  0.14216837447E+04  0.50400001928E-02 0. -1.
       -1   -1    0    0    0  501  0.00000000000E+00  0.00000000000E+00 -0.11849017576E+04  0.11849017577E+04  0.50400001928E-02 0.  1.
    10030    2    1    2    0    0  0.00000000000E+00  0.00000000000E+00  0.23678198703E+03  0.26065855023E+04  0.25958085969E+04 0.  0.
        1    1    3    3  502    0  0.11111306361E+04  0.23949367634E+03 -0.51077797927E+03  0.12461390996E+04  0.50400001928E-02 0.  1.
       -1    1    3    3    0  502 -0.11111306361E+04 -0.23949367634E+03  0.74755996629E+03  0.13604464027E+04  0.50400001928E-02 0. -1.
</event>
<event>
 5   0  0.6161834E-06  0.2601129E+04  0.7818609E-02  0.8367818E-01
        2   -1    0    0  501    0  0.00000000000E+00  0.00000000000E+00  0.10331721127E+04  0.10331721127E+04  0.25500000920E-02 0.  1.
       -2   -1    0    0    0  501  0.00000000000E+00  0.00000000000E+00 -0.16371604231E+04  0.16371604231E+04  0.25500000920E-02 0. -1.
    10030    2    1    2    0    0  0.00000000000E+00  0.00000000000E+00 -0.60398831035E+03  0.26703325358E+04  0.26011293649E+04 0.  0.
        5    1    3    3  502    0  0.19081146611E+03 -0.69983805075E+03 -0.14101875999E+04  0.15858226477E+04  0.46999998093E+01 0. -1.
       -5    1    3    3    0  502 -0.19081146611E+03  0.69983805075E+03  0.80619928959E+03  0.10845098881E+04  0.46999998093E+01 0.  1.
</event>
<event>
 5   0  0.2333979E-06  0.2622577E+04  0.7818609E-02  0.8360572E-01
        1   -1    0    0  501    0  0.00000000000E+00  0.00000000000E+00  0.15714472063E+04  0.15714472063E+04  0.50400001928E-02 0.  1.
       -1   -1    0    0    0  501  0.00000000000E+00  0.00000000000E+00 -0.10942003143E+04  0.10942003143E+04  0.50400001928E-02 0. -1.
    10030    2    1    2    0    0  0.00000000000E+00  0.00000000000E+00  0.47724689201E+03  0.26656475206E+04  0.26225773789E+04 0.  0.
        3    1    3    3  502    0 -0.11686736508E+04 -0.46931780752E+03 -0.13264328587E+03  0.12663536465E+04  0.10100000352E+00 0. -1.
       -3    1    3    3    0  502  0.11686736508E+04  0.46931780752E+03  0.60989017789E+03  0.13992938740E+04  0.10100000352E+00 0.  1.
</event>
<event>
 5   0  0.2333979E-06  0.2597035E+04  0.7818609E-02  0.8369209E-01
       -1   -1    0    0    0  501  0.00000000000E+00  0.00000000000E+00  0.27673421123E+04  0.27673421123E+04  0.50400001928E-02 0.  1.
        1   -1    0    0  501    0  0.00000000000E+00  0.00000000000E+00 -0.60930236815E+03  0.60930236817E+03  0.50400001928E-02 0. -1.
    10030    2    1    2    0    0  0.00000000000E+00  0.00000000000E+00  0.21580397441E+04  0.33766444805E+04  0.25970353117E+04 0.  0.
        3    1    3    3  502    0 -0.12661968414E+04 -0.32378579534E+02  0.14509867745E+04  0.19260491800E+04  0.10100000352E+00 0.  1.
       -3    1    3    3    0  502  0.12661968414E+04  0.32378579534E+02  0.70705296959E+03  0.14505953005E+04  0.10100000352E+00 0. -1.
</event>
<event>
 5   0  0.6158063E-06  0.2572451E+04  0.7818609E-02  0.8377620E-01
       -2   -1    0    0    0  501  0.00000000000E+00  0.00000000000E+00  0.11665623052E+04  0.11665623052E+04  0.25500000920E-02 0.  1.
        2   -1    0    0  501    0  0.00000000000E+00  0.00000000000E+00 -0.14181634823E+04  0.14181634823E+04  0.25500000920E-02 0. -1.
    10030    2    1    2    0    0  0.00000000000E+00  0.00000000000E+00 -0.25160117706E+03  0.25847257875E+04  0.25724510188E+04 0.  0.
        2    1    3    3  502    0  0.33009489954E+03  0.58891479429E+03 -0.12258271979E+04  0.13994411730E+04  0.25500000920E-02 0. -1.
       -2    1    3    3    0  502 -0.33009489954E+03 -0.58891479429E+03  0.97422602083E+03  0.11852846145E+04  0.25500000920E-02 0.  1.
</event>
<event>
 5   0  0.5942229E-06  0.2533689E+04  0.7818609E-02  0.8391081E-01
       -2   -1    0    0    0  501  0.00000000000E+00  0.00000000000E+00  0.84063265058E+03  0.84063265058E+03  0.25500000920E-02 0. -1.
        2   -1    0    0  501    0  0.00000000000E+00  0.00000000000E+00 -0.19091511808E+04  0.19091511808E+04  0.25500000920E-02 0.  1.
    10030    2    1    2    0    0  0.00000000000E+00  0.00000000000E+00 -0.10685185302E+04  0.27497838314E+04  0.25336888660E+04 0.  0.
        4    1    3    3  502    0 -0.75673698433E+03 -0.98471369125E+03 -0.80575781698E+03  0.14803915663E+04  0.12699999809E+01 0.  1.
       -4    1    3    3    0  502  0.75673698433E+03  0.98471369125E+03 -0.26276071324E+03  0.12693922650E+04  0.12699999809E+01 0. -1.
</event>
<event>
 5   0  0.2333979E-06  0.2593342E+04  0.7818609E-02  0.8370466E-01
        1   -1    0    0  501    0  0.00000000000E+00  0.00000000000E+00  0.21467362189E+04  0.21467362189E+04  0.50400001928E-02 0.  1.
       -1   -1    0    0    0  501  0.00000000000E+00  0.00000000000E+00 -0.78321455145E+03  0.78321455147E+03  0.50400001928E-02 0. -1.
    10030    2    1    2    0    0  0.00000000000E+00  0.00000000000E+00  0.13635216674E+04  0.29299507704E+04  0.25933415084E+04 0.  0.
        3    1    3    3  502    0 -0.75242227571E+03 -0.21146596180E+03  0.18507043380E+04  0.20089708039E+04  0.10100000352E+00 0.  1.
       -3    1    3    3    0  502  0.75242227571E+03  0.21146596180E+03 -0.48718267056E+03  0.92097996649E+03  0.10100000352E+00 0. -1.
</event>
<event>
 5   0  0.6158063E-06  0.2619851E+04  0.7818609E-02  0.8361489E-01
       -2   -1    0    0    0  501  0.00000000000E+00  0.00000000000E+00  0.13496167490E+04  0.13496167490E+04  0.25500000920E-02 0. -1.
        2   -1    0    0  501    0  0.00000000000E+00  0.00000000000E+00 -0.12714012973E+04  0.12714012973E+04  0.25500000920E-02 0.  1.
    10030    2    1    2    0    0  0.00000000000E+00  0.00000000000E+00  0.78215451735E+02  0.26210180463E+04  0.26198507481E+04 0.  0.
        2    1    3    3  502    0  0.67290766798E+03  0.10666582139E+04  0.39329938049E+03  0.13210786796E+04  0.25500000920E-02 0. -1.
       -2    1    3    3    0  502 -0.67290766798E+03 -0.10666582139E+04 -0.31508392875E+03  0.12999393667E+04  0.25500000920E-02 0.  1.
</event>
<event>
 5   0  0.5942229E-06  0.2598838E+04  0.7818609E-02  0.8368596E-01
       -2   -1    0    0    0  501  0.00000000000E+00  0.00000000000E+00  0.10376592315E+04  0.10376592315E+04  0.25500000920E-02 0. -1.
        2   -1    0    0  501    0  0.00000000000E+00  0.00000000000E+00 -0.16272101821E+04  0.16272101821E+04  0.25500000920E-02 0.  1.
    10030    2    1    2    0    0  0.00000000000E+00  0.00000000000E+00 -0.58955095058E+03  0.26648694136E+04  0.25988379457E+04 0.  0.
        4    1    3    3  502    0  0.61590639584E+03  0.11439053223E+04 -0.26907924468E+03  0.13267499115E+04  0.12699999809E+01 0. -1.
       -4    1    3    3    0  502 -0.61590639584E+03 -0.11439053223E+04 -0.32047170590E+03  0.13381195021E+04  0.12699999809E+01 0.  1.
</event>
<event>
 5   0  0.6173140E-06  0.2601982E+04  0.7818609E-02  0.8367528E-01
        2   -1    0    0  501    0  0.00000000000E+00  0.00000000000E+00  0.12791651870E+04  0.12791651870E+04  0.25500000920E-02 0.  1.
       -2   -1    0    0    0  501  0.00000000000E+00  0.00000000000E+00 -0.13231892732E+04  0.13231892732E+04  0.25500000920E-02 0. -1.
    10030    2    1    2    0    0  0.00000000000E+00  0.00000000000E+00 -0.44024086191E+02  0.26023544603E+04  0.26019820554E+04 0.  0.
        3    1    3    3  502    0  0.46582642229E+03 -0.74025803825E+03  0.94124647219E+03  0.12848817652E+04  0.10100000352E+00 0.  1.
       -3    1    3    3    0  502 -0.46582642229E+03  0.74025803825E+03 -0.98527055838E+03  0.13174726951E+04  0.10100000352E+00 0. -1.
</event>
<event>
 5   0  0.2333979E-06  0.2598668E+04  0.7818609E-02  0.8368654E-01
       -1   -1    0    0    0  501  0.00000000000E+00  0.00000000000E+00  0.10336812972E+04  0.10336812972E+04  0.50400001928E-02 0. -1.
        1   -1    0    0  501    0  0.00000000000E+00  0.00000000000E+00 -0.16332581585E+04  0.16332581585E+04  0.50400001928E-02 0.  1.
    10030    2    1    2    0    0  0.00000000000E+00  0.00000000000E+00 -0.59957686134E+03  0.26669394557E+04  0.25986676678E+04 0.  0.
        3    1    3    3  502    0 -0.43532719619E+03 -0.76436700057E+03 -0.12812079184E+04  0.15541108132E+04  0.10100000352E+00 0.  1.
       -3    1    3    3    0  502  0.43532719619E+03  0.76436700057E+03  0.68163105710E+03  0.11128286425E+04  0.10100000352E+00 0. -1.
</event>
<event>
 5   0  0.6158063E-06  0.2619208E+04  0.7818609E-02  0.8361706E-01
       -2   -1    0    0    0  501  0.00000000000E+00  0.00000000000E+00  0.75758518696E+03  0.75758518697E+03  0.25500000920E-02 0. -1.
        2   -1    0    0  501    0  0.00000000000E+00  0.00000000000E+00 -0.22638546415E+04  0.22638546415E+04  0.25500000920E-02 0.  1.
    10030    2    1    2    0    0  0.00000000000E+00  0.00000000000E+00 -0.15062694545E+04  0.30214398285E+04  0.26192080802E+04 0.  0.
        2    1    3    3  502    0  0.10284654880E+03  0.58252920128E+03  0.59468977952E+03  0.83879295229E+03  0.25500000920E-02 0. -1.
       -2    1    3    3    0  502 -0.10284654880E+03 -0.58252920128E+03 -0.21009592340E+04  0.21826468762E+04  0.25500000920E-02 0.  1.
</event>
<event>
 5   0  0.2456600E-06  0.2598170E+04  0.7818609E-02  0.8368823E-01
        1   -1    0    0  501    0  0.00000000000E+00  0.00000000000E+00  0.10197022605E+04  0.10197022605E+04  0.50400001928E-02 0.  1.
       -1   -1    0    0    0  501  0.00000000000E+00  0.00000000000E+00 -0.16550144845E+04  0.16550144845E+04  0.50400001928E-02 0. -1.
    10030    2    1    2    0    0  0.00000000000E+00  0.00000000000E+00 -0.63531222398E+03  0.26747167450E+04  0.25981701338E+04 0.  0.
        5    1    3    3  502    0  0.14291338666E+03  0.10187600619E+04  0.49900208556E+03  0.11433815947E+04  0.46999998093E+01 0.  1.
       -5    1    3    3    0  502 -0.14291338666E+03 -0.10187600619E+04 -0.11343143095E+04  0.15313351503E+04  0.46999998093E+01 0. -1.
</event>
<event>
 5   0  0.2471488E-06  0.2622929E+04  0.7818609E-02  0.8360454E-01
        1   -1    0    0  501    0  0.00000000000E+00  0.00000000000E+00  0.18601703774E+04  0.18601703774E+04  0.50400001928E-02 0.  1.
       -1   -1    0    0    0  501  0.00000000000E+00  0.00000000000E+00 -0.92461355483E+03  0.92461355485E+03  0.50400001928E-02 0. -1.
    10030    2    1    2    0    0  0.00000000000E+00  0.00000000000E+00  0.93555682260E+03  0.27847839323E+04  0.26229287030E+04 0.  0.
        4    1    3    3  502    0 -0.57198901948E+03  0.10565270823E+04 -0.90518626064E+02  0.12048303402E+04  0.12699999809E+01 0.  1.
       -4    1    3    3    0  502  0.57198901948E+03 -0.10565270823E+04  0.10260754487E+04  0.15799535921E+04  0.12699999809E+01 0. -1.
</event>
<event>
 5   0  0.6158063E-06  0.2595034E+04  0.7818609E-02  0.8369890E-01
        2   -1    0    0  501    0  0.00000000000E+00  0.00000000000E+00  0.12746387678E+04  0.12746387678E+04  0.25500000920E-02 0.  1.
       -2   -1    0    0    0  501  0.00000000000E+00  0.00000000000E+00 -0.13208053637E+04  0.13208053637E+04  0.25500000920E-02 0. -1.
    10030    2    1    2    0    0  0.00000000000E+00  0.00000000000E+00 -0.46166595851E+02  0.25954441315E+04  0.25950335036E+04 0.  0.
        2    1    3    3  502    0 -0.12041909866E+04  0.48316836038E+03 -0.18378886924E+02  0.12976383858E+04  0.25500000920E-02 0.  1.
       -2    1    3    3    0  502  0.12041909866E+04 -0.48316836038E+03 -0.27787708927E+02  0.12978057457E+04  0.25500000920E-02 0. -1.
</event>
<event>
 5   0  0.2456600E-06  0.2598005E+04  0.7818609E-02  0.8368879E-01
        1   -1    0    0  501    0  0.00000000000E+00  0.00000000000E+00  0.12011019181E+04  0.12011019182E+04  0.50400001928E-02 0.  1.
       -1   -1    0    0    0  501  0.00000000000E+00  0.00000000000E+00 -0.14048826809E+04  0.14048826809E+04  0.50400001928E-02 0. -1.
    10030    2    1    2    0    0  0.00000000000E+00  0.00000000000E+00 -0.20378076271E+03  0.26059845990E+04  0.25980048366E+04 0.  0.
        5    1    3    3  502    0  0.40715304791E+03  0.18259229991E+02  0.11352990712E+04  0.12062475181E+04  0.46999998093E+01 0.  1.
       -5    1    3    3    0  502 -0.40715304791E+03 -0.18259229991E+02 -0.13390798339E+04  0.13997370809E+04  0.46999998093E+01 0. -1.
</event>
<event>
 5   0  0.2333979E-06  0.2591294E+04  0.7818609E-02  0.8371164E-01
        1   -1    0    0  501    0  0.00000000000E+00  0.00000000000E+00  0.16460598973E+04  0.16460598973E+04  0.50400001928E-02 0.  1.
       -1   -1    0    0    0  501  0.00000000000E+00  0.00000000000E+00 -0.10198302911E+04  0.10198302911E+04  0.50400001928E-02 0. -1.
    10030    2    1    2    0    0  0.00000000000E+00  0.00000000000E+00  0.62622960621E+03  0.26658901884E+04  0.25912944597E+04 0.  0.
        3    1    3    3  502    0  0.80105609636E+03 -0.10181561632E+04  0.29335534903E+03  0.13283035095E+04  0.10100000352E+00 0. -1.
       -3    1    3    3    0  502 -0.80105609636E+03  0.10181561632E+04  0.33287425718E+03  0.13375866789E+04  0.10100000352E+00 0.  1.
</event>
<event>
 5   0  0.2333979E-06  0.2590206E+04  0.7818609E-02  0.8371536E-01
        1   -1    0    0  501    0  0.00000000000E+00  0.00000000000E+00  0.15007045804E+04  0.15007045804E+04  0.50400001928E-02 0. -1.
       -1   -1    0    0    0  501  0.00000000000E+00  0.00000000000E+00 -0.11176692066E+04  0.11176692066E+04  0.50400001928E-02 0.  1.
    10030    2    1    2    0    0  0.00000000000E+00  0.00000000000E+00  0.38303537384E+03  0.26183737871E+04  0.25902056272E+04 0.  0.
        3    1    3    3  502    0  0.97557473114E+03 -0.57711225978E+03  0.82481822692E+03  0.14018308507E+04  0.10100000352E+00 0. -1.
       -3    1    3    3    0  502 -0.97557473114E+03  0.57711225978E+03 -0.44178285308E+03  0.12165429363E+04  0.10100000352E+00 0.  1.
</event>
<event>
 5   0  0.2503292E-06  0.2612405E+04  0.7818609E-02  0.8364000E-01
        1   -1    0    0  501    0  0.00000000000E+00  0.00000000000E+00  0.17063481353E+04  0.17063481353E+04  0.50400001928E-02 0.  1.
       -1   -1    0    0    0  501  0.00000000000E+00  0.00000000000E+00 -0.99989265825E+03  0.99989265826E+03  0.50400001928E-02 0. -1.
    10030    2    1    2    0    0  0.00000000000E+00  0.00000000000E+00  0.70645547708E+03  0.27062407936E+04  0.26124050015E+04 0.  0.
        2    1    3    3  502    0  0.22605037459E+03  0.71008533500E+03 -0.75808003118E+03  0.10630170688E+04  0.25500000920E-02 0. -1.
       -2    1    3    3    0  502 -0.22605037459E+03 -0.71008533500E+03  0.14645355083E+04  0.16432237248E+04  0.25500000920E-02 0.  1.
</event>
<event>
 5   0  0.6161834E-06  0.2602305E+04  0.7818609E-02  0.8367419E-01
        2   -1    0    0  501    0  0.00000000000E+00  0.00000000000E+00  0.10303527565E+04  0.10303527565E+04  0.25500000920E-02 0. -1.
       -2   -1    0    0    0  501  0.00000000000E+00  0.00000000000E+00 -0.16431239196E+04  0.16431239196E+04  0.25500000920E-02 0.  1.
    10030    2    1    2    0    0  0.00000000000E+00  0.00000000000E+00 -0.61277116315E+03  0.26734766761E+04  0.26023045632E+04 0.  0.
        5    1    3    3  502    0 -0.32013591483E+03  0.24073619541E+03 -0.15781989068E+04  0.16282428564E+04  0.46999998093E+01 0.  1.
       -5    1    3    3    0  502  0.32013591483E+03 -0.24073619541E+03  0.96542774368E+03  0.10452338198E+04  0.46999998093E+01 0. -1.
</event>
<event>
 5   0  0.2471488E-06  0.2601496E+04  0.7818609E-02  0.8367693E-01
        1   -1    0    0  501    0  0.00000000000E+00  0.00000000000E+00  0.23270038263E+04  0.23270038263E+04  0.50400001928E-02 0. -1.
       -1   -1    0    0    0  501  0.00000000000E+00  0.00000000000E+00 -0.72709195284E+03  0.72709195286E+03  0.50400001928E-02 0.  1.
    10030    2    1    2    0    0  0.00000000000E+00  0.00000000000E+00  0.15999118734E+04  0.30540957791E+04  0.26014963051E+04 0.  0.
        4    1    3    3  502    0 -0.20479512770E+03 -0.98275411361E+03  0.17710251051E+04  0.20357500406E+04  0.12699999809E+01 0. -1.
       -4    1    3    3    0  502  0.20479512770E+03  0.98275411361E+03 -0.17111323168E+03  0.10183457385E+04  0.12699999809E+01 0.  1.
</event>
<event>
 5   0  0.2333979E-06  0.2606801E+04  0.7818609E-02  0.8365895E-01
        1   -1    0    0  501    0  0.00000000000E+00  0.00000000000E+00  0.19039326842E+04  0.19039326842E+04  0.50400001928E-02 0. -1.
       -1   -1    0    0    0  501  0.00000000000E+00  0.00000000000E+00 -0.89228626362E+03  0.89228626363E+03  0.50400001928E-02 0.  1.
    10030    2    1    2    0    0  0.00000000000E+00  0.00000000000E+00  0.10116464205E+04  0.27962189478E+04  0.26068010902E+04 0.  0.
        3    1    3    3  502    0  0.86363897410E+03  0.31547972914E+03  0.14967764103E+04  0.17566272711E+04  0.10100000352E+00 0. -1.
       -3    1    3    3    0  502 -0.86363897410E+03 -0.31547972914E+03 -0.48512998974E+03  0.10395916767E+04  0.10100000352E+00 0.  1.
</event>
<event>
 5   0  0.6158063E-06  0.2587637E+04  0.7818609E-02  0.8372413E-01
       -2   -1    0    0    0  501  0.00000000000E+00  0.00000000000E+00  0.13189762920E+04  0.13189762920E+04  0.25500000920E-02 0.  1.
        2   -1    0    0  501    0  0.00000000000E+00  0.00000000000E+00 -0.12691404105E+04  0.12691404105E+04  0.25500000920E-02 0. -1.
    10030    2    1    2    0    0  0.00000000000E+00  0.00000000000E+00  0.49835881527E+02  0.25881167024E+04  0.25876368467E+04 0.  0.
        2    1    3    3  502    0 -0.23397716047E+02  0.87052007456E+03 -0.93213643416E+03  0.12756296427E+04  0.25500000920E-02 0. -1.
       -2    1    3    3    0  502  0.23397716047E+02 -0.87052007456E+03  0.98197231568E+03  0.13124870598E+04  0.25500000920E-02 0.  1.
</event>
<event>
 5   0  0.2503292E-06  0.2601492E+04  0.7818609E-02  0.8367695E-01
        1   -1    0    0  501    0  0.00000000000E+00  0.00000000000E+00  0.19516511333E+04  0.19516511333E+04  0.50400001928E-02 0.  1.
       -1   -1    0    0    0  501  0.00000000000E+00  0.00000000000E+00 -0.86692737810E+03  0.86692737811E+03  0.50400001928E-02 0. -1.
    10030    2    1    2    0    0  0.00000000000E+00  0.00000000000E+00  0.10847237552E+04  0.28185785114E+04  0.26014917259E+04 0.  0.
        2    1    3    3  502    0  0.32033104100E+03  0.10784037396E+04  0.12498230938E+04  0.16815541523E+04  0.25500000920E-02 0.  1.
       -2    1    3    3    0  502 -0.32033104100E+03 -0.10784037396E+04 -0.16509933864E+03  0.11370243590E+04  0.25500000920E-02 0. -1.
</event>
<event>
 5   0  0.6161834E-06  0.2606740E+04  0.7818609E-02  0.8365915E-01
        2   -1    0    0  501    0  0.00000000000E+00  0.00000000000E+00  0.86544974037E+03  0.86544974037E+03  0.25500000920E-02 0.  1.
       -2   -1    0    0    0  501  0.00000000000E+00  0.00000000000E+00 -0.19628793528E+04  0.19628793528E+04  0.25500000920E-02 0. -1.
    10030    2    1    2    0    0  0.00000000000E+00  0.00000000000E+00 -0.10974296124E+04  0.28283290931E+04  0.26067400532E+04 0.  0.
        5    1    3    3  502    0  0.14518733660E+03 -0.63862911843E+03 -0.17713703518E+04  0.18885712925E+04  0.46999998093E+01 0. -1.
       -5    1    3    3    0  502 -0.14518733660E+03  0.63862911843E+03  0.67394073941E+03  0.93975780063E+03  0.46999998093E+01 0.  1.
</event>
<event>
 5   0  0.2440590E-06  0.2604129E+04  0.7818609E-02  0.8366800E-01
       -1   -1    0    0    0  501  0.00000000000E+00  0.00000000000E+00  0.66623927066E+03  0.66623927068E+03  0.50400001928E-02 0. -1.
        1   -1    0    0  501    0  0.00000000000E+00  0.00000000000E+00 -0.25446893495E+04  0.25446893495E+04  0.50400001928E-02 0.  1.
    10030    2    1    2    0    0  0.00000000000E+00  0.00000000000E+00 -0.18784500788E+04  0.32109286202E+04  0.26041290109E+04 0.  0.
        1    1    3    3  502    0 -0.22465061750E+03 -0.88947756676E+03 -0.20785021623E+04  0.22719615931E+04  0.50400001928E-02 0.  1.
       -1    1    3    3    0  502  0.22465061750E+03  0.88947756676E+03  0.20005208353E+03  0.93896702704E+03  0.50400001928E-02 0. -1.
</event>
<event>
 5   0  0.6173140E-06  0.2601653E+04  0.7818609E-02  0.8367640E-01
        2   -1    0    0  501    0  0.00000000000E+00  0.00000000000E+00  0.17593005922E+04  0.17593005922E+04  0.25500000920E-02 0.  1.
       -2   -1    0    0    0  501  0.00000000000E+00  0.00000000000E+00 -0.96183070418E+03  0.96183070418E+03  0.25500000920E-02 0. -1.
    10030    2    1    2    0    0  0.00000000000E+00  0.00000000000E+00  0.79746988806E+03  0.27211312964E+04  0.26016528035E+04 0.  0.
        3    1    3    3  502    0 -0.11033500950E+04  0.42414532770E+03  0.96669061708E+03  0.15270138999E+04  0.10100000352E+00 0. -1.
       -3    1    3    3    0  502  0.11033500950E+04 -0.42414532770E+03 -0.16922072902E+03  0.11941173965E+04  0.10100000352E+00 0.  1.
</event>
<event>
 5   0  0.6161834E-06  0.2601499E+04  0.7818609E-02  0.8367692E-01
        2   -1    0    0  501    0  0.00000000000E+00  0.00000000000E+00  0.17831428124E+04  0.17831428124E+04  0.25500000920E-02 0. -1.
       -2   -1    0    0    0  501  0.00000000000E+00  0.00000000000E+00 -0.94885796581E+03  0.94885796581E+03  0.25500000920E-02 0.  1.
    10030    2    1    2    0    0  0.00000000000E+00  0.00000000000E+00  0.83428484659E+03  0.27320007782E+04  0.26014990000E+04 0.  0.
        5    1    3    3  502    0 -0.12760892021E+04  0.12337567126E+03  0.18634043291E+03  0.12955192221E+04  0.46999998093E+01 0.  1.
       -5    1    3    3    0  502  0.12760892021E+04 -0.12337567126E+03  0.64794441367E+03  0.14364815561E+04  0.46999998093E+01 0. -1.
</event>
<event>
 5   0  0.2440590E-06  0.2589763E+04  0.7818609E-02  0.8371687E-01
       -1   -1    0    0    0  501  0.00000000000E+00  0.00000000000E+00  0.12912081698E+04  0.12912081698E+04  0.50400001928E-02 0. -1.
        1   -1    0    0  501    0  0.00000000000E+00  0.00000000000E+00 -0.12985650639E+04  0.12985650639E+04  0.50400001928E-02 0.  1.
    10030    2    1    2    0    0  0.00000000000E+00  0.00000000000E+00 -0.73568941296E+01  0.25897732337E+04  0.25897627841E+04 0.  0.
        1    1    3    3  502    0  0.65974801208E+03 -0.11119390685E+04  0.67328092002E+02  0.12946849051E+04  0.50400001928E-02 0.  1.
       -1    1    3    3    0  502 -0.65974801208E+03  0.11119390685E+04 -0.74684986131E+02  0.12950883285E+04  0.50400001928E-02 0. -1.
</event>
<event>
 5   0  0.6158063E-06  0.2598384E+04  0.7818609E-02  0.8368750E-01
       -2   -1    0    0    0  501  0.00000000000E+00  0.00000000000E+00  0.96594340775E+03  0.96594340775E+03  0.25500000920E-02 0.  1.
        2   -1    0    0  501    0  0.00000000000E+00  0.00000000000E+00 -0.17474104924E+04  0.17474104924E+04  0.25500000920E-02 0. -1.
    10030    2    1    2    0    0  0.00000000000E+00  0.00000000000E+00 -0.78146708467E+03  0.27133539002E+04  0.25983838406E+04 0.  0.
        2    1    3    3  502    0 -0.59906098626E+03  0.73134167650E+03 -0.13213237721E+04  0.16246941939E+04  0.25500000920E-02 0. -1.
       -2    1    3    3    0  502  0.59906098626E+03 -0.73134167650E+03  0.53985668742E+03  0.10886597063E+04  0.25500000920E-02 0.  1.
</event>
<event>
 5   0  0.6161834E-06  0.2606918E+04  0.7818609E-02  0.8365855E-01
       -2   -1    0    0    0  501  0.00000000000E+00  0.00000000000E+00  0.77423667880E+03  0.77423667880E+03  0.25500000920E-02 0.  1.
        2   -1    0    0  501    0  0.00000000000E+00  0.00000000000E+00 -0.21944268005E+04  0.21944268005E+04  0.25500000920E-02 0. -1.
    10030    2    1    2    0    0  0.00000000000E+00  0.00000000000E+00 -0.14201901217E+04  0.29686634793E+04  0.26069182710E+04 0.  0.
        5    1    3    3  502    0 -0.76934369985E+03 -0.76982547037E+03 -0.15268851828E+04  0.18750790476E+04  0.46999998093E+01 0.  1.
       -5    1    3    3    0  502  0.76934369985E+03  0.76982547037E+03  0.10669506103E+03  0.10935844318E+04  0.46999998093E+01 0. -1.
</event>
<event>
 5   0  0.2503292E-06  0.2595819E+04  0.7818609E-02  0.8369623E-01
        1   -1    0    0  501    0  0.00000000000E+00  0.00000000000E+00  0.17064553725E+04  0.17064553725E+04  0.50400001928E-02 0.  1.
       -1   -1    0    0    0  501  0.00000000000E+00  0.00000000000E+00 -0.98717447772E+03  0.98717447774E+03  0.50400001928E-02 0. -1.
    10030    2    1    2    0    0  0.00000000000E+00  0.00000000000E+00  0.71928089474E+03  0.26936298502E+04  0.25958190932E+04 0.  0.
        2    1    3    3  502    0 -0.24203410092E+03 -0.12123738598E+04 -0.50392004193E+02  0.12373238202E+04  0.25500000920E-02 0. -1.
       -2    1    3    3    0  502  0.24203410092E+03  0.12123738598E+04  0.76967289894E+03  0.14563060301E+04  0.25500000920E-02 0.  1.
</event>
<event>
 5   0  0.6161834E-06  0.2606879E+04  0.7818609E-02  0.8365868E-01
        2   -1    0    0  501    0  0.00000000000E+00  0.00000000000E+00  0.66715382231E+03  0.66715382231E+03  0.25500000920E-02 0.  1.
       -2   -1    0    0    0  501  0.00000000000E+00  0.00000000000E+00 -0.25465708093E+04  0.25465708093E+04  0.25500000920E-02 0. -1.
    10030    2    1    2    0    0  0.00000000000E+00  0.00000000000E+00 -0.18794169870E+04  0.32137246316E+04  0.26068789379E+04 0.  0.
        5    1    3    3  502    0 -0.63360261040E+03  0.79856459393E+03 -0.19410578448E+04  0.21924610202E+04  0.46999998093E+01 0. -1.
       -5    1    3    3    0  502  0.63360261040E+03 -0.79856459393E+03  0.61640857754E+02  0.10212636114E+04  0.46999998093E+01 0.  1.
</event>
<event>
 5   0  0.2471488E-06  0.2562047E+04  0.7818609E-02  0.8381208E-01
       -1   -1    0    0    0  501  0.00000000000E+00  0.00000000000E+00  0.70268321419E+03  0.70268321421E+03  0.50400001928E-02 0. -1.
        1   -1    0    0  501    0  0.00000000000E+00  0.00000000000E+00 -0.23353647581E+04  0.23353647581E+04  0.50400001928E-02 0.  1.
    10030    2    1    2    0    0  0.00000000000E+00  0.00000000000E+00 -0.16326815439E+04  0.30380479723E+04  0.25620473177E+04 0.  0.
        4    1    3    3  502    0  0.29398579791E+03  0.86374995099E+03  0.24989957844E+03  0.94601429134E+03  0.12699999809E+01 0. -1.
       -4    1    3    3    0  502 -0.29398579791E+03 -0.86374995099E+03 -0.18825811223E+04  0.20920336810E+04  0.12699999809E+01 0.  1.
</event>
<event>
 5   0  0.2456600E-06  0.2626871E+04  0.7818609E-02  0.8359131E-01
       -1   -1    0    0    0  501  0.00000000000E+00  0.00000000000E+00  0.86234667475E+03  0.86234667476E+03  0.50400001928E-02 0. -1.
        1   -1    0    0  501    0  0.00000000000E+00  0.00000000000E+00 -0.20004860252E+04  0.20004860252E+04  0.50400001928E-02 0.  1.
    10030    2    1    2    0    0  0.00000000000E+00  0.00000000000E+00 -0.11381393504E+04  0.28628327000E+04  0.26268707404E+04 0.  0.
        5    1    3    3  502    0  0.57256898327E+02 -0.65584402707E+02 -0.19973287551E+04  0.19992308302E+04  0.46999998093E+01 0.  1.
       -5    1    3    3    0  502 -0.57256898327E+02  0.65584402707E+02  0.85918940471E+03  0.86360186976E+03  0.46999998093E+01 0. -1.
</event>
<event>
 5   0  0.2456600E-06  0.2714656E+04  0.7818609E-02  0.8330265E-01
        1   -1    0    0  501    0  0.00000000000E+00  0.00000000000E+00  0.11388804498E+04  0.11388804498E+04  0.50400001928E-02 0. -1.
       -1   -1    0    0    0  501  0.00000000000E+00  0.00000000000E+00 -0.16176754311E+04  0.16176754311E+04  0.50400001928E-02 0.  1.
    10030    2    1    2    0    0  0.00000000000E+00  0.00000000000E+00 -0.47879498125E+03  0.27565558809E+04  0.27146557223E+04 0.  0.
        5    1    3    3  502    0 -0.63164879857E+03 -0.12012465974E+04 -0.25821018899E+03  0.13815455780E+04  0.46999998093E+01 0.  1.
       -5    1    3    3    0  502  0.63164879857E+03  0.12012465974E+04 -0.22058479225E+03  0.13750103029E+04  0.46999998093E+01 0. -1.
</event>
<event>
 5   0  0.2072125E-06  0.2585675E+04  0.7818609E-02  0.8373083E-01
        3   -1    0    0  501    0  0.00000000000E+00  0.00000000000E+00  0.14313396526E+04  0.14313396561E+04  0.10100000352E+00 0. -1.
       -3   -1    0    0    0  501  0.00000000000E+00  0.00000000000E+00 -0.11677370898E+04  0.11677370942E+04  0.10100000352E+00 0.  1.
    10030    2    1    2    0    0  0.00000000000E+00  0.00000000000E+00  0.26360256273E+03  0.25990767503E+04  0.25856746978E+04 0.  0.
        2    1    3    3  502    0  0.88798147032E+02  0.37007427253E+03  0.13737572189E+04  0.14254995527E+04  0.25500000920E-02 0. -1.
       -2    1    3    3    0  502 -0.88798147032E+02 -0.37007427253E+03 -0.11101546562E+04  0.11735771976E+04  0.25500000920E-02 0.  1.
</event>
<event>
 5   0  0.6173140E-06  0.2601092E+04  0.7818609E-02  0.8367830E-01
       -2   -1    0    0    0  501  0.00000000000E+00  0.00000000000E+00  0.15380754262E+04  0.15380754262E+04  0.25500000920E-02 0.  1.
        2   -1    0    0  501    0  0.00000000000E+00  0.00000000000E+00 -0.10996990589E+04  0.10996990589E+04  0.25500000920E-02 0. -1.
    10030    2    1    2    0    0  0.00000000000E+00  0.00000000000E+00  0.43837636725E+03  0.26377744851E+04  0.26010921542E+04 0.  0.
        3    1    3    3  502    0 -0.11980540710E+04  0.50050103411E+03  0.14339972210E+03  0.13062918252E+04  0.10100000352E+00 0. -1.
       -3    1    3    3    0  502  0.11980540710E+04 -0.50050103411E+03  0.29497664515E+03  0.13314826599E+04  0.10100000352E+00 0.  1.
</event>
<event>
 5   0  0.2456600E-06  0.2608613E+04  0.7818609E-02  0.8365281E-01
       -1   -1    0    0    0  501  0.00000000000E+00  0.00000000000E+00  0.11312380026E+04  0.11312380026E+04  0.50400001928E-02 0.  1.
        1   -1    0    0  501    0  0.00000000000E+00  0.00000000000E+00 -0.15038531393E+04  0.15038531393E+04  0.50400001928E-02 0. -1.
    10030    2    1    2    0    0  0.00000000000E+00  0.00000000000E+00 -0.37261513669E+03  0.26350911420E+04  0.26086132880E+04 0.  0.
        5    1    3    3  502    0 -0.89159011709E+03 -0.95151618678E+03 -0.15638015819E+03  0.13133136847E+04  0.46999998093E+01 0.  1.
       -5    1    3    3    0  502  0.89159011709E+03  0.95151618678E+03 -0.21623497850E+03  0.13217774573E+04  0.46999998093E+01 0. -1.
</event>
<event>
 5   0  0.2456600E-06  0.2598592E+04  0.7818609E-02  0.8368680E-01
       -1   -1    0    0    0  501  0.00000000000E+00  0.00000000000E+00  0.95477644615E+03  0.95477644616E+03  0.50400001928E-02 0.  1.
        1   -1    0    0  501    0  0.00000000000E+00  0.00000000000E+00 -0.17681309465E+04  0.17681309465E+04  0.50400001928E-02 0. -1.
    10030    2    1    2    0    0  0.00000000000E+00  0.00000000000E+00 -0.81335450033E+03  0.27229073926E+04  0.25985917582E+04 0.  0.
        5    1    3    3  502    0 -0.33244634259E+03 -0.12017153445E+04 -0.23810718051E+02  0.12470883610E+04  0.46999998093E+01 0.  1.
       -5    1    3    3    0  502  0.33244634259E+03  0.12017153445E+04 -0.78954378228E+03  0.14758190316E+04  0.46999998093E+01 0. -1.
</event>
<event>
 5   0  0.6173140E-06  0.2598240E+04  0.7818609E-02  0.8368799E-01
        2   -1    0    0  501    0  0.00000000000E+00  0.00000000000E+00  0.81592534646E+03  0.81592534647E+03  0.25500000920E-02 0.  1.
       -2   -1    0    0    0  501  0.00000000000E+00  0.00000000000E+00 -0.20684650774E+04  0.20684650775E+04  0.25500000920E-02 0. -1.
    10030    2    1    2    0    0  0.00000000000E+00  0.00000000000E+00 -0.12525397310E+04  0.28843904239E+04  0.25982402391E+04 0.  0.
        3    1    3    3  502    0 -0.11333538423E+04  0.10193556527E+03 -0.13220592099E+04  0.17443400919E+04  0.10100000352E+00 0. -1.
       -3    1    3    3    0  502  0.11333538423E+04 -0.10193556527E+03  0.69519478927E+02  0.11400503320E+04  0.10100000352E+00 0.  1.
</event>
<event>
 5   0  0.5940748E-06  0.2600063E+04  0.7818609E-02  0.8368180E-01
       -2   -1    0    0    0  501  0.00000000000E+00  0.00000000000E+00  0.10531385241E+04  0.10531385241E+04  0.25500000920E-02 0.  1.
        2   -1    0    0  501    0  0.00000000000E+00  0.00000000000E+00 -0.16048044826E+04  0.16048044826E+04  0.25500000920E-02 0. -1.
    10030    2    1    2    0    0  0.00000000000E+00  0.00000000000E+00 -0.55166595849E+03  0.26579430066E+04  0.26000626333E+04 0.  0.
        1    1    3    3  502    0 -0.52194900543E+03 -0.42863205057E+03 -0.14113830161E+04  0.15646591377E+04  0.50400001928E-02 0. -1.
       -1    1    3    3    0  502  0.52194900543E+03  0.42863205057E+03  0.85971705758E+03  0.10932838690E+04  0.50400001928E-02 0.  1.
</event>
<event>
 5   0  0.5942229E-06  0.2594345E+04  0.7818609E-02  0.8370125E-01
        2   -1    0    0  501    0  0.00000000000E+00  0.00000000000E+00  0.94885325401E+03  0.94885325401E+03  0.25500000920E-02 0. -1.
       -2   -1    0    0    0  501  0.00000000000E+00  0.00000000000E+00 -0.17733582832E+04  0.17733582832E+04  0.25500000920E-02 0.  1.
    10030    2    1    2    0    0  0.00000000000E+00  0.00000000000E+00 -0.82450502921E+03  0.27222115372E+04  0.25943452180E+04 0.  0.
        4    1    3    3  502    0  0.15494915157E+03  0.51838045897E+01  0.93909619117E+03  0.95180847894E+03  0.12699999809E+01 0. -1.
       -4    1    3    3    0  502 -0.15494915157E+03 -0.51838045897E+01 -0.17636012204E+04  0.17704030583E+04  0.12699999809E+01 0.  1.
</event>
<event>
 5   0  0.2503292E-06  0.2741253E+04  0.7818609E-02  0.8321743E-01
       -1   -1    0    0    0  501  0.00000000000E+00  0.00000000000E+00  0.19277208417E+04  0.19277208417E+04  0.50400001928E-02 0.  1.
        1   -1    0    0  501    0  0.00000000000E+00  0.00000000000E+00 -0.97452749504E+03  0.97452749505E+03  0.50400001928E-02 0. -1.
    10030    2    1    2    0    0  0.00000000000E+00  0.00000000000E+00  0.95319334667E+03  0.29022483368E+04  0.27412529712E+04 0.  0.
        2    1    3    3  502    0  0.11546776950E+04  0.18968280587E+03 -0.27901127378E+03  0.12029577869E+04  0.25500000920E-02 0. -1.
       -2    1    3    3    0  502 -0.11546776950E+04 -0.18968280587E+03  0.12322046204E+04  0.16992905499E+04  0.25500000920E-02 0.  1.
</event>
<event>
 5   0  0.6161834E-06  0.2594828E+04  0.7818609E-02  0.8369960E-01
        2   -1    0    0  501    0  0.00000000000E+00  0.00000000000E+00  0.16571818785E+04  0.16571818785E+04  0.25500000920E-02 0. -1.
       -2   -1    0    0    0  501  0.00000000000E+00  0.00000000000E+00 -0.10157506325E+04  0.10157506325E+04  0.25500000920E-02 0.  1.
    10030    2    1    2    0    0  0.00000000000E+00  0.00000000000E+00  0.64143124603E+03  0.26729325110E+04  0.25948283498E+04 0.  0.
        5    1    3    3  502    0  0.10563054030E+04 -0.68477118112E+03  0.64412234439E+03  0.14140750898E+04  0.46999998093E+01 0.  1.
       -5    1    3    3    0  502 -0.10563054030E+04  0.68477118112E+03 -0.26910983589E+01  0.12588574212E+04  0.46999998093E+01 0. -1.
</event>
<event>
 5   0  0.2471488E-06  0.2584876E+04  0.7818609E-02  0.8373357E-01
        1   -1    0    0  501    0  0.00000000000E+00  0.00000000000E+00  0.74515663514E+03  0.74515663516E+03  0.50400001928E-02 0.  1.
       -1   -1    0    0    0  501  0.00000000000E+00  0.00000000000E+00 -0.22416717409E+04  0.22416717409E+04  0.50400001928E-02 0. -1.
    10030    2    1    2    0    0  0.00000000000E+00  0.00000000000E+00 -0.14965151058E+04  0.29868283761E+04  0.25848764548E+04 0.  0.
        4    1    3    3  502    0  0.92056245969E+02 -0.62121581081E+02  0.73963235353E+03  0.74792451126E+03  0.12699999809E+01 0.  1.
       -4    1    3    3    0  502 -0.92056245969E+02  0.62121581081E+02 -0.22361474593E+04  0.22389038648E+04  0.12699999809E+01 0. -1.
</event>
<event>
 5   0  0.5940748E-06  0.2595439E+04  0.7818609E-02  0.8369752E-01
       -2   -1    0    0    0  501  0.00000000000E+00  0.00000000000E+00  0.11473594718E+04  0.11473594718E+04  0.25500000920E-02 0. -1.
        2   -1    0    0  501    0  0.00000000000E+00  0.00000000000E+00 -0.14677840358E+04  0.14677840358E+04  0.25500000920E-02 0.  1.
    10030    2    1    2    0    0  0.00000000000E+00  0.00000000000E+00 -0.32042456394E+03  0.26151435076E+04  0.25954390119E+04 0.  0.
        1    1    3    3  502    0  0.58593317128E+01  0.12907313566E+04 -0.24826451129E+02  0.12909833923E+04  0.50400001928E-02 0. -1.
       -1    1    3    3    0  502 -0.58593317128E+01 -0.12907313566E+04 -0.29559811281E+03  0.13241601153E+04  0.50400001928E-02 0.  1.
</event>
<event>
 5   0  0.6161834E-06  0.2600241E+04  0.7818609E-02  0.8368119E-01
       -2   -1    0    0    0  501  0.00000000000E+00  0.00000000000E+00  0.12697840290E+04  0.12697840290E+04  0.25500000920E-02 0. -1.
        2   -1    0    0  501    0  0.00000000000E+00  0.00000000000E+00 -0.13311819312E+04  0.13311819312E+04  0.25500000920E-02 0.  1.
    10030    2    1    2    0    0  0.00000000000E+00  0.00000000000E+00 -0.61397902170E+02  0.26009659601E+04  0.26002411856E+04 0.  0.
        5    1    3    3  502    0 -0.18965204772E+03  0.12182424463E+04  0.38197986822E+03  0.12907413632E+04  0.46999998093E+01 0. -1.
       -5    1    3    3    0  502  0.18965204772E+03 -0.12182424463E+04 -0.44337777039E+03  0.13102245969E+04  0.46999998093E+01 0.  1.
</event>
<event>
 5   0  0.6158063E-06  0.2599328E+04  0.7818609E-02  0.8368429E-01
       -2   -1    0    0    0  501  0.00000000000E+00  0.00000000000E+00  0.10590021891E+04  0.10590021891E+04  0.25500000920E-02 0. -1.
        2   -1    0    0  501    0  0.00000000000E+00  0.00000000000E+00 -0.15950173710E+04  0.15950173710E+04  0.25500000920E-02 0.  1.
    10030    2    1    2    0    0  0.00000000000E+00  0.00000000000E+00 -0.53601518196E+03  0.26540195601E+04  0.25993282883E+04 0.  0.
        2    1    3    3  502    0  0.11796422584E+04  0.23280249597E+02 -0.82447848831E+03  0.14393966116E+04  0.25500000920E-02 0.  1.
       -2    1    3    3    0  502 -0.11796422584E+04 -0.23280249597E+02  0.28846330635E+03  0.12146229485E+04  0.25500000920E-02 0. -1.
</event>
<event>
 5   0  0.2440590E-06  0.2616562E+04  0.7818609E-02  0.8362597E-01
        1   -1    0    0  501    0  0.00000000000E+00  0.00000000000E+00  0.15538971080E+04  0.15538971080E+04  0.50400001928E-02 0. -1.
       -1   -1    0    0    0  501  0.00000000000E+00  0.00000000000E+00 -0.11014879198E+04  0.11014879198E+04  0.50400001928E-02 0.  1.
    10030    2    1    2    0    0  0.00000000000E+00  0.00000000000E+00  0.45240918821E+03  0.26553850278E+04  0.26165617845E+04 0.  0.
        1    1    3    3  502    0  0.43660390242E+02 -0.28358586823E+03  0.15215729020E+04  0.15483898962E+04  0.50400001928E-02 0. -1.
       -1    1    3    3    0  502 -0.43660390242E+02  0.28358586823E+03 -0.10691637138E+04  0.11069951316E+04  0.50400001928E-02 0.  1.
</event>
<event>
 5   0  0.2471488E-06  0.2601055E+04  0.7818609E-02  0.8367843E-01
       -1   -1    0    0    0  501  0.00000000000E+00  0.00000000000E+00  0.12007687441E+04  0.12007687441E+04  0.50400001928E-02 0.  1.
        1   -1    0    0  501    0  0.00000000000E+00  0.00000000000E+00 -0.14085740297E+04  0.14085740297E+04  0.50400001928E-02 0. -1.
    10030    2    1    2    0    0  0.00000000000E+00  0.00000000000E+00 -0.20780528556E+03  0.26093427738E+04  0.26010549157E+04 0.  0.
        4    1    3    3  502    0  0.49861983757E+03  0.96451610373E+03 -0.82204464223E+03  0.13618634526E+04  0.12699999809E+01 0. -1.
       -4    1    3    3    0  502 -0.49861983757E+03 -0.96451610373E+03  0.61423935667E+03  0.12474793213E+04  0.12699999809E+01 0.  1.
</event>
<event>
 5   0  0.6158063E-06  0.2618612E+04  0.7818609E-02  0.8361906E-01
       -2   -1    0    0    0  501  0.00000000000E+00  0.00000000000E+00  0.11373804463E+04  0.11373804463E+04  0.25500000920E-02 0.  1.
        2   -1    0    0  501    0  0.00000000000E+00  0.00000000000E+00 -0.15072199903E+04  0.15072199903E+04  0.25500000920E-02 0. -1.
    10030    2    1    2    0    0  0.00000000000E+00  0.00000000000E+00 -0.36983954398E+03  0.26446004365E+04  0.26186122624E+04 0.  0.
        2    1    3    3  502    0 -0.22769338404E+03  0.85429505288E+03 -0.11602255978E+04  0.14586938515E+04  0.25500000920E-02 0. -1.
       -2    1    3    3    0  502  0.22769338404E+03 -0.85429505288E+03  0.79038605381E+03  0.11859065851E+04  0.25500000920E-02 0.  1.
</event>
<event>
 5   0  0.6161834E-06  0.2601732E+04  0.7818609E-02  0.8367613E-01
        2   -1    0    0  501    0  0.00000000000E+00  0.00000000000E+00  0.13467077012E+04  0.13467077012E+04  0.25500000920E-02 0. -1.
       -2   -1    0    0    0  501  0.00000000000E+00  0.00000000000E+00 -0.12565842960E+04  0.12565842960E+04  0.25500000920E-02 0.  1.
    10030    2    1    2    0    0  0.00000000000E+00  0.00000000000E+00  0.90123405221E+02  0.26032919971E+04  0.26017315377E+04 0.  0.
        5    1    3    3  502    0  0.16435177227E+03  0.54194341363E+03 -0.11267579042E+04  0.12610787578E+04  0.46999998093E+01 0.  1.
       -5    1    3    3    0  502 -0.16435177227E+03 -0.54194341363E+03  0.12168813094E+04  0.13422132393E+04  0.46999998093E+01 0. -1.
</event>
<event>
 5   0  0.2471488E-06  0.2599669E+04  0.7818609E-02  0.8368314E-01
        1   -1    0    0  501    0  0.00000000000E+00  0.00000000000E+00  0.16036979463E+04  0.16036979463E+04  0.50400001928E-02 0.  1.
       -1   -1    0    0    0  501  0.00000000000E+00  0.00000000000E+00 -0.10535463838E+04  0.10535463838E+04  0.50400001928E-02 0. -1.
    10030    2    1    2    0    0  0.00000000000E+00  0.00000000000E+00  0.55015156251E+03  0.26572443301E+04  0.25996693421E+04 0.  0.
        4    1    3    3  502    0 -0.43530151568E+03 -0.11757020496E+04 -0.75754270053E+02  0.12559868794E+04  0.12699999809E+01 0. -1.
       -4    1    3    3    0  502  0.43530151568E+03  0.11757020496E+04  0.62590583256E+03  0.14012574507E+04  0.12699999809E+01 0.  1.
</event>
<event>
 5   0  0.2503292E-06  0.2614067E+04  0.7818609E-02  0.8363439E-01
       -1   -1    0    0    0  501  0.00000000000E+00  0.00000000000E+00  0.99354173751E+03  0.99354173753E+03  0.50400001928E-02 0. -1.
        1   -1    0    0  501    0  0.00000000000E+00  0.00000000000E+00 -0.17194408993E+04  0.17194408993E+04  0.50400001928E-02 0.  1.
    10030    2    1    2    0    0  0.00000000000E+00  0.00000000000E+00 -0.72589916182E+03  0.27129826369E+04  0.26140667923E+04 0.  0.
        2    1    3    3  502    0  0.74718047644E+03 -0.22519479153E+03  0.72522186369E+03  0.10653347409E+04  0.25500000920E-02 0. -1.
       -2    1    3    3    0  502 -0.74718047644E+03  0.22519479153E+03 -0.14511210255E+04  0.16476478960E+04  0.25500000920E-02 0.  1.
</event>
<event>
 5   0  0.5942229E-06  0.2594763E+04  0.7818609E-02  0.8369982E-01
        2   -1    0    0  501    0  0.00000000000E+00  0.00000000000E+00  0.15534133889E+04  0.15534133889E+04  0.25500000920E-02 0.  1.
       -2   -1    0    0    0  501  0.00000000000E+00  0.00000000000E+00 -0.10835481593E+04  0.10835481593E+04  0.25500000920E-02 0. -1.
    10030    2    1    2    0    0  0.00000000000E+00  0.00000000000E+00  0.46986522959E+03  0.26369615483E+04  0.25947625851E+04 0.  0.
        4    1    3    3  502    0 -0.31166386582E+03 -0.59208976776E+03  0.13645363753E+04  0.15197584646E+04  0.12699999809E+01 0.  1.
       -4    1    3    3    0  502  0.31166386582E+03  0.59208976776E+03 -0.89467114569E+03  0.11172030837E+04  0.12699999809E+01 0. -1.
</event>
<event>
 5   0  0.2456600E-06  0.2600383E+04  0.7818609E-02  0.8368071E-01
       -1   -1    0    0    0  501  0.00000000000E+00  0.00000000000E+00  0.15616192313E+04  0.15616192313E+04  0.50400001928E-02 0.  1.
        1   -1    0    0  501    0  0.00000000000E+00  0.00000000000E+00 -0.10825290364E+04  0.10825290364E+04  0.50400001928E-02 0. -1.
    10030    2    1    2    0    0  0.00000000000E+00  0.00000000000E+00  0.47909019492E+03  0.26441482678E+04  0.26003831731E+04 0.  0.
        5    1    3    3  502    0  0.40988638098E+03  0.11207528041E+04  0.76435401174E+03  0.14171636597E+04  0.46999998093E+01 0.  1.
       -5    1    3    3    0  502 -0.40988638098E+03 -0.11207528041E+04 -0.28526381682E+03  0.12269846080E+04  0.46999998093E+01 0. -1.
</event>
<event>
 5   0  0.5942229E-06  0.2596546E+04  0.7818609E-02  0.8369376E-01
        2   -1    0    0  501    0  0.00000000000E+00  0.00000000000E+00  0.20166139339E+04  0.20166139339E+04  0.25500000920E-02 0. -1.
       -2   -1    0    0    0  501  0.00000000000E+00  0.00000000000E+00 -0.83581304464E+03  0.83581304464E+03  0.25500000920E-02 0.  1.
    10030    2    1    2    0    0  0.00000000000E+00  0.00000000000E+00  0.11808008893E+04  0.28524269786E+04  0.25965455759E+04 0.  0.
        4    1    3    3  502    0  0.49359432931E+03 -0.11024771820E+04  0.11131279185E+04  0.16426036268E+04  0.12699999809E+01 0. -1.
       -4    1    3    3    0  502 -0.49359432931E+03  0.11024771820E+04  0.67672970772E+02  0.12098233518E+04  0.12699999809E+01 0.  1.
</event>
<event>
 5   0  0.5942229E-06  0.2609794E+04  0.7818609E-02  0.8364882E-01
       -2   -1    0    0    0  501  0.00000000000E+00  0.00000000000E+00  0.73465036625E+03  0.73465036625E+03  0.25500000920E-02 0. -1.
        2   -1    0    0  501    0  0.00000000000E+00  0.00000000000E+00 -0.23177772822E+04  0.23177772822E+04  0.25500000920E-02 0.  1.
    10030    2    1    2    0    0  0.00000000000E+00  0.00000000000E+00 -0.15831269160E+04  0.30524276485E+04  0.26097938074E+04 0.  0.
        4    1    3    3  502    0  0.11540119105E+04 -0.60900441436E+03 -0.77851566952E+03  0.15194466515E+04  0.12699999809E+01 0. -1.
       -4    1    3    3    0  502 -0.11540119105E+04  0.60900441436E+03 -0.80461124646E+03  0.15329809970E+04  0.12699999809E+01 0.  1.
</event>
<event>
 5   0  0.6173140E-06  0.2602568E+04  0.7818609E-02  0.8367330E-01
       -2   -1    0    0    0  501  0.00000000000E+00  0.00000000000E+00  0.11271223376E+04  0.11271223376E+04  0.25500000920E-02 0. -1.
        2   -1    0    0  501    0  0.00000000000E+00  0.00000000000E+00 -0.15023566196E+04  0.15023566196E+04  0.25500000920E-02 0.  1.
    10030    2    1    2    0    0  0.00000000000E+00  0.00000000000E+00 -0.37523428201E+03  0.26294789572E+04  0.26025677359E+04 0.  0.
        3    1    3    3  502    0  0.63684316060E+03 -0.11349269638E+03  0.95316837086E+03  0.11519460737E+04  0.10100000352E+00 0. -1.
       -3    1    3    3    0  502 -0.63684316060E+03  0.11349269638E+03 -0.13284026529E+04  0.14775328835E+04  0.10100000352E+00 0.  1.
</event>
<event>
 5   0  0.2503292E-06  0.2604550E+04  0.7818609E-02  0.8366657E-01
        1   -1    0    0  501    0  0.00000000000E+00  0.00000000000E+00  0.21879432234E+04  0.21879432234E+04  0.50400001928E-02 0.  1.
       -1   -1    0    0    0  501  0.00000000000E+00  0.00000000000E+00 -0.77512062351E+03  0.77512062353E+03  0.50400001928E-02 0. -1.
    10030    2    1    2    0    0  0.00000000000E+00  0.00000000000E+00  0.14128225999E+04  0.29630638470E+04  0.26045498003E+04 0.  0.
        2    1    3    3  502    0 -0.39743919236E+03 -0.55928316514E+03 -0.55282002431E+03  0.88111608186E+03  0.25500000920E-02 0. -1.
       -2    1    3    3    0  502  0.39743919236E+03  0.55928316514E+03  0.19656426242E+04  0.20819477651E+04  0.25500000920E-02 0.  1.
</event>
<event>
 5   0  0.2440590E-06  0.2591462E+04  0.7818609E-02  0.8371107E-01
       -1   -1    0    0    0  501  0.00000000000E+00  0.00000000000E+00  0.17237372738E+04  0.17237372738E+04  0.50400001928E-02 0. -1.
        1   -1    0    0  501    0  0.00000000000E+00  0.00000000000E+00 -0.97399954638E+03  0.97399954639E+03  0.50400001928E-02 0.  1.
    10030    2    1    2    0    0  0.00000000000E+00  0.00000000000E+00  0.74973772737E+03  0.26977368202E+04  0.25914623846E+04 0.  0.
        1    1    3    3  502    0  0.63122488542E+03  0.71704328508E+03  0.12861674823E+04  0.16021306817E+04  0.50400001928E-02 0. -1.
       -1    1    3    3    0  502 -0.63122488542E+03 -0.71704328508E+03 -0.53642975493E+03  0.10956061385E+04  0.50400001928E-02 0.  1.
</event>
<event>
 5   0  0.2456600E-06  0.2602294E+04  0.7818609E-02  0.8367422E-01
       -1   -1    0    0    0  501  0.00000000000E+00  0.00000000000E+00  0.67508461475E+03  0.67508461477E+03  0.50400001928E-02 0.  1.
        1   -1    0    0  501    0  0.00000000000E+00  0.00000000000E+00 -0.25078097249E+04  0.25078097249E+04  0.50400001928E-02 0. -1.
    10030    2    1    2    0    0  0.00000000000E+00  0.00000000000E+00 -0.18327251101E+04  0.31828943396E+04  0.26022941894E+04 0.  0.
        5    1    3    3  502    0 -0.45602474145E+03 -0.48620114419E+03 -0.22830824132E+04  0.23784107115E+04  0.46999998093E+01 0. -1.
       -5    1    3    3    0  502  0.45602474145E+03  0.48620114419E+03  0.45035730308E+03  0.80448362809E+03  0.46999998093E+01 0.  1.
</event>
<event>
 5   0  0.5940748E-06  0.2650632E+04  0.7818609E-02  0.8351203E-01
       -2   -1    0    0    0  501  0.00000000000E+00  0.00000000000E+00  0.90332580283E+03  0.90332580283E+03  0.25500000920E-02 0. -1.
        2   -1    0    0  501    0  0.00000000000E+00  0.00000000000E+00 -0.19444397817E+04  0.19444397817E+04  0.25500000920E-02 0.  1.
    10030    2    1    2    0    0  0.00000000000E+00  0.00000000000E+00 -0.10411139788E+04  0.28477655845E+04  0.26506320958E+04 0.  0.
        1    1    3    3  502    0 -0.11430815877E+04  0.63513583785E+03 -0.28905637187E+03  0.13392485336E+04  0.50400001928E-02 0. -1.
       -1    1    3    3    0  502  0.11430815877E+04 -0.63513583785E+03 -0.75205760695E+03  0.15085170509E+04  0.50400001928E-02 0.  1.
</event>
<event>
 5   0  0.6161834E-06  0.2613325E+04  0.7818609E-02  0.8363689E-01
       -2   -1    0    0    0  501  0.00000000000E+00  0.00000000000E+00  0.10788781924E+04  0.10788781924E+04  0.25500000920E-02 0.  1.
        2   -1    0    0  501    0  0.00000000000E+00  0.00000000000E+00 -0.15825391602E+04  0.15825391602E+04  0.25500000920E-02 0. -1.
    10030    2    1    2    0    0  0.00000000000E+00  0.00000000000E+00 -0.50366096780E+03  0.26614173525E+04  0.26133250762E+04 0.  0.
        5    1    3    3  502    0 -0.92241881587E+03  0.85892914245E+03 -0.60274249740E+03  0.13971171575E+04  0.46999998093E+01 0. -1.
       -5    1    3    3    0  502  0.92241881587E+03 -0.85892914245E+03  0.99081529598E+02  0.12643001950E+04  0.46999998093E+01 0.  1.
</event>
<event>
 5   0  0.5942229E-06  0.2600516E+04  0.7818609E-02  0.8368026E-01
       -2   -1    0    0    0  501  0.00000000000E+00  0.00000000000E+00  0.91285890269E+03  0.91285890269E+03  0.25500000920E-02 0.  1.
        2   -1    0    0  501    0  0.00000000000E+00  0.00000000000E+00 -0.18520621102E+04  0.18520621102E+04  0.25500000920E-02 0. -1.
    10030    2    1    2    0    0  0.00000000000E+00  0.00000000000E+00 -0.93920320754E+03  0.27649210129E+04  0.26005163992E+04 0.  0.
        4    1    3    3  502    0 -0.55080204898E+03  0.31957372365E+02 -0.17214344879E+04  0.18076898185E+04  0.12699999809E+01 0. -1.
       -4    1    3    3    0  502  0.55080204898E+03 -0.31957372365E+02  0.78223128034E+03  0.95723119446E+03  0.12699999809E+01 0.  1.
</event>
<event>
 5   0  0.2456600E-06  0.2601075E+04  0.7818609E-02  0.8367836E-01
       -1   -1    0    0    0  501  0.00000000000E+00  0.00000000000E+00  0.11468780995E+04  0.11468780995E+04  0.50400001928E-02 0.  1.
        1   -1    0    0  501    0  0.00000000000E+00  0.00000000000E+00 -0.14747848015E+04  0.14747848015E+04  0.50400001928E-02 0. -1.
    10030    2    1    2    0    0  0.00000000000E+00  0.00000000000E+00 -0.32790670199E+03  0.26216629010E+04  0.26010754624E+04 0.  0.
        5    1    3    3  502    0  0.77814392179E+03  0.21260124635E+03 -0.11921595433E+04  0.14394352086E+04  0.46999998093E+01 0. -1.
       -5    1    3    3    0  502 -0.77814392179E+03 -0.21260124635E+03  0.86425284130E+03  0.11822276924E+04  0.46999998093E+01 0.  1.
</event>
<event>
 5   0  0.2440590E-06  0.2602314E+04  0.7818609E-02  0.8367416E-01
        1   -1    0    0  501    0  0.00000000000E+00  0.00000000000E+00  0.11181858386E+04  0.11181858386E+04  0.50400001928E-02 0. -1.
       -1   -1    0    0    0  501  0.00000000000E+00  0.00000000000E+00 -0.15140675974E+04  0.15140675975E+04  0.50400001928E-02 0.  1.
    10030    2    1    2    0    0  0.00000000000E+00  0.00000000000E+00 -0.39588175887E+03  0.26322534360E+04  0.26023135446E+04 0.  0.
        1    1    3    3  502    0 -0.31541748135E+03  0.68391177594E+03  0.87529675446E+03  0.11547155118E+04  0.50400001928E-02 0. -1.
       -1    1    3    3    0  502  0.31541748135E+03 -0.68391177594E+03 -0.12711785133E+04  0.14775379242E+04  0.50400001928E-02 0.  1.
</event>
<event>
 5   0  0.2503292E-06  0.2595711E+04  0.7818609E-02  0.8369660E-01
        1   -1    0    0  501    0  0.00000000000E+00  0.00000000000E+00  0.61960419092E+03  0.61960419094E+03  0.50400001928E-02 0.  1.
       -1   -1    0    0    0  501  0.00000000000E+00  0.00000000000E+00 -0.27185564049E+04  0.27185564049E+04  0.50400001928E-02 0. -1.
    10030    2    1    2    0    0  0.00000000000E+00  0.00000000000E+00 -0.20989522140E+04  0.33381605959E+04  0.25957110330E+04 0.  0.
        2    1    3    3  502    0 -0.89201171669E+03  0.94053078876E+03 -0.11322815636E+04  0.17211463060E+04  0.25500000920E-02 0.  1.
       -2    1    3    3    0  502  0.89201171669E+03 -0.94053078876E+03 -0.96667065036E+03  0.16170142899E+04  0.25500000920E-02 0. -1.
</event>
<event>
 5   0  0.2503292E-06  0.2599647E+04  0.7818609E-02  0.8368321E-01
       -1   -1    0    0    0  501  0.00000000000E+00  0.00000000000E+00  0.74741804150E+03  0.74741804151E+03  0.50400001928E-02 0. -1.
        1   -1    0    0  501    0  0.00000000000E+00  0.00000000000E+00 -0.22605043627E+04  0.22605043627E+04  0.50400001928E-02 0.  1.
    10030    2    1    2    0    0  0.00000000000E+00  0.00000000000E+00 -0.15130863212E+04  0.30079224042E+04  0.25996474712E+04 0.  0.
        2    1    3    3  502    0 -0.10304088356E+04  0.75582245948E+03 -0.10316481824E+04  0.16423482977E+04  0.25500000920E-02 0.  1.
       -2    1    3    3    0  502  0.10304088356E+04 -0.75582245948E+03 -0.48143813881E+03  0.13655741065E+04  0.25500000920E-02 0. -1.
</event>
<event>
 5   0  0.2456600E-06  0.2591520E+04  0.7818609E-02  0.8371087E-01
        1   -1    0    0  501    0  0.00000000000E+00  0.00000000000E+00  0.29554878580E+04  0.29554878580E+04  0.50400001928E-02 0. -1.
       -1   -1    0    0    0  501  0.00000000000E+00  0.00000000000E+00 -0.56809382684E+03  0.56809382686E+03  0.50400001928E-02 0.  1.
    10030    2    1    2    0    0  0.00000000000E+00  0.00000000000E+00  0.23873940311E+04  0.35235816848E+04  0.25915203317E+04 0.  0.
        5    1    3    3  502    0  0.10446115739E+04  0.32870744323E+03  0.21354115810E+04  0.23998472105E+04  0.46999998093E+01 0. -1.
       -5    1    3    3    0  502 -0.10446115739E+04 -0.32870744323E+03  0.25198245012E+03  0.11237344743E+04  0.46999998093E+01 0.  1.
</event>
<event>
 5   0  0.5940748E-06  0.2629549E+04  0.7818609E-02  0.8358233E-01
       -2   -1    0    0    0  501  0.00000000000E+00  0.00000000000E+00  0.10521989398E+04  0.10521989398E+04  0.25500000920E-02 0.  1.
        2   -1    0    0  501    0  0.00000000000E+00  0.00000000000E+00 -0.16428759559E+04  0.16428759559E+04  0.25500000920E-02 0. -1.
    10030    2    1    2    0    0  0.00000000000E+00  0.00000000000E+00 -0.59067701618E+03  0.26950748957E+04  0.26295492686E+04 0.  0.
        1    1    3    3  502    0  0.97381531190E+03  0.39502438737E+03 -0.11051359277E+04  0.15250199825E+04  0.50400001928E-02 0. -1.
       -1    1    3    3    0  502 -0.97381531190E+03 -0.39502438737E+03  0.51445891150E+03  0.11700549132E+04  0.50400001928E-02 0.  1.
</event>
<event>
 5   0  0.2471488E-06  0.2602960E+04  0.7818609E-02  0.8367196E-01
       -1   -1    0    0    0  501  0.00000000000E+00  0.00000000000E+00  0.12723992926E+04  0.12723992926E+04  0.50400001928E-02 0. -1.
        1   -1    0    0  501    0  0.00000000000E+00  0.00000000000E+00 -0.13312254331E+04  0.13312254331E+04  0.50400001928E-02 0.  1.
    10030    2    1    2    0    0  0.00000000000E+00  0.00000000000E+00 -0.58826140457E+02  0.26036247257E+04  0.26029600838E+04 0.  0.
        4    1    3    3  502    0 -0.21840978880E+03 -0.10795290009E+04  0.66413471833E+03  0.12861423859E+04  0.12699999809E+01 0. -1.
       -4    1    3    3    0  502  0.21840978880E+03  0.10795290009E+04 -0.72296085878E+03  0.13174823399E+04  0.12699999809E+01 0.  1.
</event>
<event>
 5   0  0.2440590E-06  0.2604241E+04  0.7818609E-02  0.8366762E-01
       -1   -1    0    0    0  501  0.00000000000E+00  0.00000000000E+00  0.10242170680E+04  0.10242170680E+04  0.50400001928E-02 0. -1.
        1   -1    0    0  501    0  0.00000000000E+00  0.00000000000E+00 -0.16554280958E+04  0.16554280958E+04  0.50400001928E-02 0.  1.
    10030    2    1    2    0    0  0.00000000000E+00  0.00000000000E+00 -0.63121102777E+03  0.26796451638E+04  0.26042409340E+04 0.  0.
        1    1    3    3  502    0 -0.63282452500E+03 -0.88364871144E+03 -0.10534567861E+04  0.15136291240E+04  0.50400001928E-02 0.  1.
       -1    1    3    3    0  502  0.63282452500E+03  0.88364871144E+03  0.42224575836E+03  0.11660160398E+04  0.50400001928E-02 0. -1.
</event>
<event>
 5   0  0.5942229E-06  0.2596752E+04  0.7818609E-02  0.8369305E-01
        2   -1    0    0  501    0  0.00000000000E+00  0.00000000000E+00  0.24505938757E+04  0.24505938757E+04  0.25500000920E-02 0.  1.
       -2   -1    0    0    0  501  0.00000000000E+00  0.00000000000E+00 -0.68790702690E+03  0.68790702690E+03  0.25500000920E-02 0. -1.
    10030    2    1    2    0    0  0.00000000000E+00  0.00000000000E+00  0.17626868488E+04  0.31385009026E+04  0.25967523927E+04 0.  0.
        4    1    3    3  502    0 -0.43476819275E+03  0.28106514438E+03 -0.55776260176E+03  0.76100047940E+03  0.12699999809E+01 0. -1.
       -4    1    3    3    0  502  0.43476819275E+03 -0.28106514438E+03  0.23204494506E+04  0.23775004232E+04  0.12699999809E+01 0.  1.
</event>
<event>
 5   0  0.2456600E-06  0.2619958E+04  0.7818609E-02  0.8361453E-01
       -1   -1    0    0    0  501  0.00000000000E+00  0.00000000000E+00  0.99863311898E+03  0.99863311899E+03  0.50400001928E-02 0.  1.
        1   -1    0    0  501    0  0.00000000000E+00  0.00000000000E+00 -0.17183941404E+04  0.17183941404E+04  0.50400001928E-02 0. -1.
    10030    2    1    2    0    0  0.00000000000E+00  0.00000000000E+00 -0.71976102138E+03  0.27170272594E+04  0.26199582440E+04 0.  0.
        5    1    3    3  502    0  0.10774851416E+04 -0.73287022151E+03 -0.22093820854E+03  0.13217067655E+04  0.46999998093E+01 0.  1.
       -5    1    3    3    0  502 -0.10774851416E+04  0.73287022151E+03 -0.49882281284E+03  0.13953204939E+04  0.46999998093E+01 0. -1.
</event>
<event>
 5   0  0.2456600E-06  0.2581197E+04  0.7818609E-02  0.8374616E-01
       -1   -1    0    0    0  501  0.00000000000E+00  0.00000000000E+00  0.71159738763E+03  0.71159738765E+03  0.50400001928E-02 0. -1.
        1   -1    0    0  501    0  0.00000000000E+00  0.00000000000E+00 -0.23407112249E+04  0.23407112249E+04  0.50400001928E-02 0.  1.
    10030    2    1    2    0    0  0.00000000000E+00  0.00000000000E+00 -0.16291138373E+04  0.30523086126E+04  0.25811966162E+04 0.  0.
        5    1    3    3  502    0  0.11756581810E+04  0.24354842553E+03 -0.25472051209E+03  0.12273518743E+04  0.46999998093E+01 0. -1.
       -5    1    3    3    0  502 -0.11756581810E+04 -0.24354842553E+03 -0.13743933252E+04  0.18249567383E+04  0.46999998093E+01 0.  1.
</event>
<event>
 5   0  0.2503292E-06  0.2600243E+04  0.7818609E-02  0.8368119E-01
        1   -1    0    0  501    0  0.00000000000E+00  0.00000000000E+00  0.10629658887E+04  0.10629658887E+04  0.50400001928E-02 0.  1.
       -1   -1    0    0    0  501  0.00000000000E+00  0.00000000000E+00 -0.15901881117E+04  0.15901881117E+04  0.50400001928E-02 0. -1.
    10030    2    1    2    0    0  0.00000000000E+00  0.00000000000E+00 -0.52722222302E+03  0.26531540004E+04  0.26002428497E+04 0.  0.
        2    1    3    3  502    0 -0.52946630906E+03  0.19163219479E+03  0.93209557102E+03  0.10889718197E+04  0.25500000920E-02 0.  1.
       -2    1    3    3    0  502  0.52946630906E+03 -0.19163219479E+03 -0.14593177940E+04  0.15641821807E+04  0.25500000920E-02 0. -1.
</event>
<event>
 5   0  0.5940748E-06  0.2603059E+04  0.7818609E-02  0.8367163E-01
       -2   -1    0    0    0  501  0.00000000000E+00  0.00000000000E+00  0.25118618241E+04  0.25118618241E+04  0.25500000920E-02 0. -1.
        2   -1    0    0  501    0  0.00000000000E+00  0.00000000000E+00 -0.67439168294E+03  0.67439168295E+03  0.25500000920E-02 0.  1.
    10030    2    1    2    0    0  0.00000000000E+00  0.00000000000E+00  0.18374701412E+04  0.31862535071E+04  0.26030587568E+04 0.  0.
        1    1    3    3  502    0 -0.83263511357E+03  0.95597027016E+03  0.12793984742E+04  0.18011165552E+04  0.50400001928E-02 0. -1.
       -1    1    3    3    0  502  0.83263511357E+03 -0.95597027016E+03  0.55807166699E+03  0.13851369518E+04  0.50400001928E-02 0.  1.
</event>
<event>
 5   0  0.2471488E-06  0.2577538E+04  0.7818609E-02  0.8375871E-01
        1   -1    0    0  501    0  0.00000000000E+00  0.00000000000E+00  0.18067767957E+04  0.18067767957E+04  0.50400001928E-02 0. -1.
       -1   -1    0    0    0  501  0.00000000000E+00  0.00000000000E+00 -0.91927524683E+03  0.91927524684E+03  0.50400001928E-02 0.  1.
    10030    2    1    2    0    0  0.00000000000E+00  0.00000000000E+00  0.88750154886E+03  0.27260520425E+04  0.25775377280E+04 0.  0.
        4    1    3    3  502    0 -0.14644923522E+03  0.51624422459E+03  0.16830019347E+04  0.17664802866E+04  0.12699999809E+01 0. -1.
       -4    1    3    3    0  502  0.14644923522E+03 -0.51624422459E+03 -0.79550038586E+03  0.95957175590E+03  0.12699999809E+01 0.  1.
</event>
<event>
 5   0  0.5940748E-06  0.2593244E+04  0.7818609E-02  0.8370500E-01
       -2   -1    0    0    0  501  0.00000000000E+00  0.00000000000E+00  0.87827092652E+03  0.87827092652E+03  0.25500000920E-02 0.  1.
        2   -1    0    0  501    0  0.00000000000E+00  0.00000000000E+00 -0.19142480133E+04  0.19142480133E+04  0.25500000920E-02 0. -1.
    10030    2    1    2    0    0  0.00000000000E+00  0.00000000000E+00 -0.10359770868E+04  0.27925189399E+04  0.25932438191E+04 0.  0.
        1    1    3    3  502    0  0.10125090886E+04 -0.73152355550E+03 -0.89245630317E+03  0.15351806473E+04  0.50400001928E-02 0. -1.
       -1    1    3    3    0  502 -0.10125090886E+04  0.73152355550E+03 -0.14352078366E+03  0.12573382926E+04  0.50400001928E-02 0.  1.
</event>
<event>
 5   0  0.6173140E-06  0.2551095E+04  0.7818609E-02  0.8385005E-01
        2   -1    0    0  501    0  0.00000000000E+00  0.00000000000E+00  0.13183425517E+04  0.13183425517E+04  0.25500000920E-02 0. -1.
       -2   -1    0    0    0  501  0.00000000000E+00  0.00000000000E+00 -0.12341417136E+04  0.12341417136E+04  0.25500000920E-02 0.  1.
    10030    2    1    2    0    0  0.00000000000E+00  0.00000000000E+00  0.84200838173E+02  0.25524842653E+04  0.25510950871E+04 0.  0.
        3    1    3    3  502    0 -0.75803288392E+03 -0.23801667462E+03  0.10405194153E+04  0.13091777779E+04  0.10100000352E+00 0. -1.
       -3    1    3    3    0  502  0.75803288392E+03  0.23801667462E+03 -0.95631857708E+03  0.12433064874E+04  0.10100000352E+00 0.  1.
</event>
<event>
 5   0  0.6173140E-06  0.2588359E+04  0.7818609E-02  0.8372166E-01
        2   -1    0    0  501    0  0.00000000000E+00  0.00000000000E+00  0.17292172104E+04  0.17292172104E+04  0.25500000920E-02 0.  1.
       -2   -1    0    0    0  501  0.00000000000E+00  0.00000000000E+00 -0.96858869360E+03  0.96858869360E+03  0.25500000920E-02 0. -1.
    10030    2    1    2    0    0  0.00000000000E+00  0.00000000000E+00  0.76062851684E+03  0.26978059040E+04  0.25883587377E+04 0.  0.
        3    1    3    3  502    0  0.67435581135E+02  0.97321665659E+03 -0.50605777574E+03  0.10989962242E+04  0.10100000352E+00 0. -1.
       -3    1    3    3    0  502 -0.67435581135E+02 -0.97321665659E+03  0.12666862926E+04  0.15988096798E+04  0.10100000352E+00 0.  1.
</event>
<event>
 5   0  0.2440590E-06  0.2598734E+04  0.7818609E-02  0.8368631E-01
        1   -1    0    0  501    0  0.00000000000E+00  0.00000000000E+00  0.12600481752E+04  0.12600481752E+04  0.50400001928E-02 0. -1.
       -1   -1    0    0    0  501  0.00000000000E+00  0.00000000000E+00 -0.13399128080E+04  0.13399128080E+04  0.50400001928E-02 0.  1.
    10030    2    1    2    0    0  0.00000000000E+00  0.00000000000E+00 -0.79864632831E+02  0.25999609832E+04  0.25987340677E+04 0.  0.
        1    1    3    3  502    0 -0.47483133564E+03  0.10158020412E+04  0.61691104579E+03  0.12798038219E+04  0.50400001928E-02 0. -1.
       -1    1    3    3    0  502  0.47483133564E+03 -0.10158020412E+04 -0.69677567862E+03  0.13201571613E+04  0.50400001928E-02 0.  1.
</event>
<event>
 5   0  0.2456600E-06  0.2585464E+04  0.7818609E-02  0.8373156E-01
        1   -1    0    0  501    0  0.00000000000E+00  0.00000000000E+00  0.14110527409E+04  0.14110527409E+04  0.50400001928E-02 0. -1.
       -1   -1    0    0    0  501  0.00000000000E+00  0.00000000000E+00 -0.11843325817E+04  0.11843325817E+04  0.50400001928E-02 0.  1.
    10030    2    1    2    0    0  0.00000000000E+00  0.00000000000E+00  0.22672015922E+03  0.25953853225E+04  0.25854637769E+04 0.  0.
        5    1    3    3  502    0 -0.12726067910E+04  0.11193824119E+03 -0.85073549544E+02  0.12803584706E+04  0.46999998093E+01 0. -1.
       -5    1    3    3    0  502  0.12726067910E+04 -0.11193824119E+03  0.31179370876E+03  0.13150268519E+04  0.46999998093E+01 0.  1.
</event>
<event>
 5   0  0.6173140E-06  0.2600503E+04  0.7818609E-02  0.8368030E-01
        2   -1    0    0  501    0  0.00000000000E+00  0.00000000000E+00  0.16786131577E+04  0.16786131577E+04  0.25500000920E-02 0. -1.
       -2   -1    0    0    0  501  0.00000000000E+00  0.00000000000E+00 -0.10071729538E+04  0.10071729539E+04  0.25500000920E-02 0.  1.
    10030    2    1    2    0    0  0.00000000000E+00  0.00000000000E+00  0.67144020388E+03  0.26857861116E+04  0.26005028533E+04 0.  0.
        3    1    3    3  502    0 -0.85767109542E+03  0.41307441422E+03 -0.57900249940E+03  0.11142145593E+04  0.10100000352E+00 0.  1.
       -3    1    3    3    0  502  0.85767109542E+03 -0.41307441422E+03  0.12504427033E+04  0.15715715523E+04  0.10100000352E+00 0. -1.
</event>
<event>
 5   0  0.2456600E-06  0.2758459E+04  0.7818609E-02  0.8316282E-01
        1   -1    0    0  501    0  0.00000000000E+00  0.00000000000E+00  0.11886152897E+04  0.11886152897E+04  0.50400001928E-02 0. -1.
       -1   -1    0    0    0  501  0.00000000000E+00  0.00000000000E+00 -0.16004121555E+04  0.16004121555E+04  0.50400001928E-02 0.  1.
    10030    2    1    2    0    0  0.00000000000E+00  0.00000000000E+00 -0.41179686580E+03  0.27890274452E+04  0.27584592495E+04 0.  0.
        5    1    3    3  502    0  0.41292863833E+03  0.10442509571E+04  0.60377667877E+03  0.12749660739E+04  0.46999998093E+01 0. -1.
       -5    1    3    3    0  502 -0.41292863833E+03 -0.10442509571E+04 -0.10155735446E+04  0.15140613713E+04  0.46999998093E+01 0.  1.
</event>
<event>
 5   0  0.6158063E-06  0.2769198E+04  0.7818609E-02  0.8312896E-01
       -2   -1    0    0    0  501  0.00000000000E+00  0.00000000000E+00  0.17343936908E+04  0.17343936909E+04  0.25500000920E-02 0. -1.
        2   -1    0    0  501    0  0.00000000000E+00  0.00000000000E+00 -0.11053510110E+04  0.11053510110E+04  0.25500000920E-02 0.  1.
    10030    2    1    2    0    0  0.00000000000E+00  0.00000000000E+00  0.62904267988E+03  0.28397447018E+04  0.27691975875E+04 0.  0.
        2    1    3    3  502    0  0.18190862084E+03  0.82945732183E+03  0.14360108932E+04  0.16682977793E+04  0.25500000920E-02 0. -1.
       -2    1    3    3    0  502 -0.18190862084E+03 -0.82945732183E+03 -0.80696821328E+03  0.11714469225E+04  0.25500000920E-02 0.  1.
</event>
<event>
 5   0  0.2333979E-06  0.2604857E+04  0.7818609E-02  0.8366553E-01
       -1   -1    0    0    0  501  0.00000000000E+00  0.00000000000E+00  0.14427008805E+04  0.14427008805E+04  0.50400001928E-02 0.  1.
        1   -1    0    0  501    0  0.00000000000E+00  0.00000000000E+00 -0.11757951046E+04  0.11757951046E+04  0.50400001928E-02 0. -1.
    10030    2    1    2    0    0  0.00000000000E+00  0.00000000000E+00  0.26690577596E+03  0.26184959851E+04  0.26048574876E+04 0.  0.
        3    1    3    3  502    0 -0.85236712510E+03 -0.66397792128E+03 -0.59762672671E+03  0.12347283550E+04  0.10100000352E+00 0. -1.
       -3    1    3    3    0  502  0.85236712510E+03  0.66397792128E+03  0.86453250267E+03  0.13837676302E+04  0.10100000352E+00 0.  1.
</event>
<event>
 5   0  0.2440590E-06  0.2597909E+04  0.7818609E-02  0.8368912E-01
       -1   -1    0    0    0  501  0.00000000000E+00  0.00000000000E+00  0.22317221146E+04  0.22317221146E+04  0.50400001928E-02 0.  1.
        1   -1    0    0  501    0  0.00000000000E+00  0.00000000000E+00 -0.75604511557E+03  0.75604511558E+03  0.50400001928E-02 0. -1.
    10030    2    1    2    0    0  0.00000000000E+00  0.00000000000E+00  0.14756769990E+04  0.29877672302E+04  0.25979088545E+04 0.  0.
        1    1    3    3  502    0  0.11160533837E+04 -0.22498123507E+03  0.18618590430E+02  0.11386563851E+04  0.50400001928E-02 0. -1.
       -1    1    3    3    0  502 -0.11160533837E+04  0.22498123507E+03  0.14570584086E+04  0.18491108451E+04  0.50400001928E-02 0.  1.
</event>
<event>
 5   0  0.2471488E-06  0.2587233E+04  0.7818609E-02  0.8372551E-01
        1   -1    0    0  501    0  0.00000000000E+00  0.00000000000E+00  0.14395055815E+04  0.14395055815E+04  0.50400001928E-02 0. -1.
       -1   -1    0    0    0  501  0.00000000000E+00  0.00000000000E+00 -0.11625125889E+04  0.11625125889E+04  0.50400001928E-02 0.  1.
    10030    2    1    2    0    0  0.00000000000E+00  0.00000000000E+00  0.27699299255E+03  0.26020181704E+04  0.25872327768E+04 0.  0.
        4    1    3    3  502    0  0.83148671521E+03 -0.49844282627E+03 -0.72291820235E+03  0.12093087897E+04  0.12699999809E+01 0.  1.
       -4    1    3    3    0  502 -0.83148671521E+03  0.49844282627E+03  0.99991119490E+03  0.13927093807E+04  0.12699999809E+01 0. -1.
</event>
<event>
 5   0  0.5942229E-06  0.2623546E+04  0.7818609E-02  0.8360247E-01
        2   -1    0    0  501    0  0.00000000000E+00  0.00000000000E+00  0.19592789418E+04  0.19592789418E+04  0.25500000920E-02 0. -1.
       -2   -1    0    0    0  501  0.00000000000E+00  0.00000000000E+00 -0.87825565463E+03  0.87825565463E+03  0.25500000920E-02 0.  1.
    10030    2    1    2    0    0  0.00000000000E+00  0.00000000000E+00  0.10810232872E+04  0.28375345964E+04  0.26235455472E+04 0.  0.
        4    1    3    3  502    0 -0.30030041860E+03 -0.12745027437E+04  0.45529002022E+03  0.13863001841E+04  0.12699999809E+01 0.  1.
       -4    1    3    3    0  502  0.30030041860E+03  0.12745027437E+04  0.62573326693E+03  0.14512344123E+04  0.12699999809E+01 0. -1.
</event>
<event>
 5   0  0.2333979E-06  0.2587700E+04  0.7818609E-02  0.8372391E-01
       -1   -1    0    0    0  501  0.00000000000E+00  0.00000000000E+00  0.16274198859E+04  0.16274198859E+04  0.50400001928E-02 0. -1.
        1   -1    0    0  501    0  0.00000000000E+00  0.00000000000E+00 -0.10286513477E+04  0.10286513477E+04  0.50400001928E-02 0.  1.
    10030    2    1    2    0    0  0.00000000000E+00  0.00000000000E+00  0.59876853817E+03  0.26560712336E+04  0.25876998736E+04 0.  0.
        3    1    3    3  502    0  0.50548951170E+03  0.36119969340E+03  0.14642995167E+04  0.15906470224E+04  0.10100000352E+00 0. -1.
       -3    1    3    3    0  502 -0.50548951170E+03 -0.36119969340E+03 -0.86553097852E+03  0.10654242113E+04  0.10100000352E+00 0.  1.
</event>
<event>
 5   0  0.2456600E-06  0.2594262E+04  0.7818609E-02  0.8370153E-01
        1   -1    0    0  501    0  0.00000000000E+00  0.00000000000E+00  0.24106561711E+04  0.24106561712E+04  0.50400001928E-02 0.  1.
       -1   -1    0    0    0  501  0.00000000000E+00  0.00000000000E+00 -0.69796293197E+03  0.69796293199E+03  0.50400001928E-02 0. -1.
    10030    2    1    2    0    0  0.00000000000E+00  0.00000000000E+00  0.17126932392E+04  0.31086191031E+04  0.25942618597E+04 0.  0.
        5    1    3    3  502    0  0.43426572071E+03  0.80382490496E+03 -0.24697411783E+03  0.94643515303E+03  0.46999998093E+01 0. -1.
       -5    1    3    3    0  502 -0.43426572071E+03 -0.80382490496E+03  0.19596673570E+04  0.21621839501E+04  0.46999998093E+01 0.  1.
</event>
<event>
 5   0  0.2471488E-06  0.2685733E+04  0.7818609E-02  0.8339649E-01
        1   -1    0    0  501    0  0.00000000000E+00  0.00000000000E+00  0.18116546424E+04  0.18116546424E+04  0.50400001928E-02 0.  1.
       -1   -1    0    0    0  501  0.00000000000E+00  0.00000000000E+00 -0.99538326450E+03  0.99538326452E+03  0.50400001928E-02 0. -1.
    10030    2    1    2    0    0  0.00000000000E+00  0.00000000000E+00  0.81627137787E+03  0.28070379069E+04  0.26857332050E+04 0.  0.
        4    1    3    3  502    0  0.43838143539E+03 -0.10022041889E+04  0.12222240397E+04  0.16402514244E+04  0.12699999809E+01 0.  1.
       -4    1    3    3    0  502 -0.43838143539E+03  0.10022041889E+04 -0.40595266179E+03  0.11667864825E+04  0.12699999809E+01 0. -1.
</event>
<event>
 5   0  0.6158063E-06  0.2608718E+04  0.7818609E-02  0.8365246E-01
       -2   -1    0    0    0  501  0.00000000000E+00  0.00000000000E+00  0.10757788228E+04  0.10757788228E+04  0.25500000920E-02 0.  1.
        2   -1    0    0  501    0  0.00000000000E+00  0.00000000000E+00 -0.15815075602E+04  0.15815075602E+04  0.25500000920E-02 0. -1.
    10030    2    1    2    0    0  0.00000000000E+00  0.00000000000E+00 -0.50572873745E+03  0.26572863830E+04  0.26087179544E+04 0.  0.
        2    1    3    3  502    0 -0.70916067644E+03 -0.84772194393E+03  0.45271573664E+03  0.11943587809E+04  0.25500000920E-02 0. -1.
       -2    1    3    3    0  502  0.70916067644E+03  0.84772194393E+03 -0.95844447408E+03  0.14629276021E+04  0.25500000920E-02 0.  1.
</event>
<event>
 5   0  0.5942229E-06  0.2552598E+04  0.7818609E-02  0.8384483E-01
       -2   -1    0    0    0  501  0.00000000000E+00  0.00000000000E+00  0.12016762683E+04  0.12016762683E+04  0.25500000920E-02 0. -1.
        2   -1    0    0  501    0  0.00000000000E+00  0.00000000000E+00 -0.13555558959E+04  0.13555558959E+04  0.25500000920E-02 0.  1.
    10030    2    1    2    0    0  0.00000000000E+00  0.00000000000E+00 -0.15387962752E+03  0.25572321642E+04  0.25525981669E+04 0.  0.
        4    1    3    3  502    0 -0.28642889205E+03  0.58556271108E+03  0.10223272355E+04  0.12124684689E+04  0.12699999809E+01 0. -1.
       -4    1    3    3    0  502  0.28642889205E+03 -0.58556271108E+03 -0.11762068630E+04  0.13447636953E+04  0.12699999809E+01 0.  1.
</event>
<event>
 5   0  0.5942229E-06  0.2597487E+04  0.7818609E-02  0.8369055E-01
       -2   -1    0    0    0  501  0.00000000000E+00  0.00000000000E+00  0.88490492451E+03  0.88490492452E+03  0.25500000920E-02 0.  1.
        2   -1    0    0  501    0  0.00000000000E+00  0.00000000000E+00 -0.19061201454E+04  0.19061201454E+04  0.25500000920E-02 0. -1.
    10030    2    1    2    0    0  0.00000000000E+00  0.00000000000E+00 -0.10212152208E+04  0.27910250699E+04  0.25974873269E+04 0.  0.
        4    1    3    3  502    0 -0.12815775784E+03 -0.12896646600E+04 -0.60098239123E+03  0.14285799920E+04  0.12699999809E+01 0. -1.
       -4    1    3    3    0  502  0.12815775784E+03  0.12896646600E+04 -0.42023282962E+03  0.13624450778E+04  0.12699999809E+01 0.  1.
</event>
<event>
 5   0  0.2471488E-06  0.2593618E+04  0.7818609E-02  0.8370372E-01
        1   -1    0    0  501    0  0.00000000000E+00  0.00000000000E+00  0.13323252315E+04  0.13323252315E+04  0.50400001928E-02 0. -1.
       -1   -1    0    0    0  501  0.00000000000E+00  0.00000000000E+00 -0.12622392653E+04  0.12622392653E+04  0.50400001928E-02 0.  1.
    10030    2    1    2    0    0  0.00000000000E+00  0.00000000000E+00  0.70085966209E+02  0.25945644968E+04  0.25936177216E+04 0.  0.
        4    1    3    3  502    0 -0.12102054012E+04  0.36319318610E+03 -0.25696287802E+03  0.12893944072E+04  0.12699999809E+01 0. -1.
       -4    1    3    3    0  502  0.12102054012E+04 -0.36319318610E+03  0.32704884423E+03  0.13051700897E+04  0.12699999809E+01 0.  1.
</event>
<event>
 5   0  0.6158063E-06  0.2604301E+04  0.7818609E-02  0.8366742E-01
       -2   -1    0    0    0  501  0.00000000000E+00  0.00000000000E+00  0.12265047155E+04  0.12265047155E+04  0.25500000920E-02 0.  1.
        2   -1    0    0  501    0  0.00000000000E+00  0.00000000000E+00 -0.13824619770E+04  0.13824619770E+04  0.25500000920E-02 0. -1.
    10030    2    1    2    0    0  0.00000000000E+00  0.00000000000E+00 -0.15595726141E+03  0.26089666925E+04  0.26043011606E+04 0.  0.
        2    1    3    3  502    0  0.10596579470E+04  0.95473168648E+02  0.67410329340E+03  0.12595258397E+04  0.25500000920E-02 0.  1.
       -2    1    3    3    0  502 -0.10596579470E+04 -0.95473168648E+02 -0.83006055481E+03  0.13494408528E+04  0.25500000920E-02 0. -1.
</event>
<event>
 5   0  0.5942229E-06  0.2595726E+04  0.7818609E-02  0.8369655E-01
       -2   -1    0    0    0  501  0.00000000000E+00  0.00000000000E+00  0.12519117790E+04  0.12519117790E+04  0.25500000920E-02 0.  1.
        2   -1    0    0  501    0  0.00000000000E+00  0.00000000000E+00 -0.13455005465E+04  0.13455005465E+04  0.25500000920E-02 0. -1.
    10030    2    1    2    0    0  0.00000000000E+00  0.00000000000E+00 -0.93588767557E+02  0.25974123255E+04  0.25957257041E+04 0.  0.
        4    1    3    3  502    0 -0.19096295820E+03 -0.18729404386E+03  0.12240310035E+04  0.12529163662E+04  0.12699999809E+01 0.  1.
       -4    1    3    3    0  502  0.19096295820E+03  0.18729404386E+03 -0.13176197711E+04  0.13444959592E+04  0.12699999809E+01 0. -1.
</event>
<event>
 5   0  0.6161834E-06  0.2643959E+04  0.7818609E-02  0.8353421E-01
        2   -1    0    0  501    0  0.00000000000E+00  0.00000000000E+00  0.16765487467E+04  0.16765487467E+04  0.25500000920E-02 0.  1.
       -2   -1    0    0    0  501  0.00000000000E+00  0.00000000000E+00 -0.10423970954E+04  0.10423970954E+04  0.25500000920E-02 0. -1.
    10030    2    1    2    0    0  0.00000000000E+00  0.00000000000E+00  0.63415165128E+03  0.27189458421E+04  0.26439588075E+04 0.  0.
        5    1    3    3  502    0  0.88214474344E+03 -0.34960671674E+03 -0.62946571568E+03  0.11387068903E+04  0.46999998093E+01 0. -1.
       -5    1    3    3    0  502 -0.88214474344E+03  0.34960671674E+03  0.12636173670E+04  0.15802389518E+04  0.46999998093E+01 0.  1.
</event>
<event>
 5   0  0.2072125E-06  0.2606517E+04  0.7818609E-02  0.8365991E-01
       -4   -1    0    0    0  501  0.00000000000E+00  0.00000000000E+00  0.97828600235E+03  0.97828682670E+03  0.12699999809E+01 0. -1.
        4   -1    0    0  501    0  0.00000000000E+00  0.00000000000E+00 -0.17361800387E+04  0.17361805032E+04  0.12699999809E+01 0.  1.
    10030    2    1    2    0    0  0.00000000000E+00  0.00000000000E+00 -0.75789403632E+03  0.27144673299E+04  0.26065167397E+04 0.  0.
        3    1    3    3  502    0 -0.88029934974E+03  0.20144313592E+03 -0.13575320564E+04  0.16304599279E+04  0.10100000352E+00 0.  1.
       -3    1    3    3    0  502  0.88029934974E+03 -0.20144313592E+03  0.59963802008E+03  0.10840074020E+04  0.10100000352E+00 0. -1.
</event>
<event>
 5   0  0.6173140E-06  0.2555097E+04  0.7818609E-02  0.8383616E-01
       -2   -1    0    0    0  501  0.00000000000E+00  0.00000000000E+00  0.82063098279E+03  0.82063098279E+03  0.25500000920E-02 0. -1.
        2   -1    0    0  501    0  0.00000000000E+00  0.00000000000E+00 -0.19888724859E+04  0.19888724859E+04  0.25500000920E-02 0.  1.
    10030    2    1    2    0    0  0.00000000000E+00  0.00000000000E+00 -0.11682415031E+04  0.28095034687E+04  0.25550971666E+04 0.  0.
        3    1    3    3  502    0  0.42258451252E+03 -0.11286320050E+04 -0.10502942071E+04  0.15985949470E+04  0.10100000352E+00 0.  1.
       -3    1    3    3    0  502 -0.42258451252E+03  0.11286320050E+04 -0.11794729596E+03  0.12109085216E+04  0.10100000352E+00 0. -1.
</event>
<event>
 5   0  0.2456600E-06  0.2599205E+04  0.7818609E-02  0.8368471E-01
       -1   -1    0    0    0  501  0.00000000000E+00  0.00000000000E+00  0.81624227743E+03  0.81624227744E+03  0.50400001928E-02 0. -1.
        1   -1    0    0  501    0  0.00000000000E+00  0.00000000000E+00 -0.20691973315E+04  0.20691973315E+04  0.50400001928E-02 0.  1.
    10030    2    1    2    0    0  0.00000000000E+00  0.00000000000E+00 -0.12529550541E+04  0.28854396089E+04  0.25992047571E+04 0.  0.
        5    1    3    3  502    0 -0.61150865889E+02 -0.22535928715E+03  0.79275339946E+03  0.82644193931E+03  0.46999998093E+01 0. -1.
       -5    1    3    3    0  502  0.61150865889E+02  0.22535928715E+03 -0.20457084535E+04  0.20589976696E+04  0.46999998093E+01 0.  1.
</event>
<event>
 5   0  0.2503292E-06  0.2593027E+04  0.7818609E-02  0.8370574E-01
       -1   -1    0    0    0  501  0.00000000000E+00  0.00000000000E+00  0.14114778193E+04  0.14114778193E+04  0.50400001928E-02 0. -1.
        1   -1    0    0  501    0  0.00000000000E+00  0.00000000000E+00 -0.11909132165E+04  0.11909132165E+04  0.50400001928E-02 0.  1.
    10030    2    1    2    0    0  0.00000000000E+00  0.00000000000E+00  0.22056460285E+03  0.26023910358E+04  0.25930272577E+04 0.  0.
        2    1    3    3  502    0  0.14887610249E+03  0.48536577111E+03 -0.10870066741E+04  0.11997197736E+04  0.25500000920E-02 0.  1.
       -2    1    3    3    0  502 -0.14887610249E+03 -0.48536577111E+03  0.13075712769E+04  0.14026712622E+04  0.25500000920E-02 0. -1.
</event>
<event>
 5   0  0.5940748E-06  0.2602848E+04  0.7818609E-02  0.8367235E-01
       -2   -1    0    0    0  501  0.00000000000E+00  0.00000000000E+00  0.10049886797E+04  0.10049886797E+04  0.25500000920E-02 0. -1.
        2   -1    0    0  501    0  0.00000000000E+00  0.00000000000E+00 -0.16852964226E+04  0.16852964226E+04  0.25500000920E-02 0.  1.
    10030    2    1    2    0    0  0.00000000000E+00  0.00000000000E+00 -0.68030774282E+03  0.26902851023E+04  0.26028475381E+04 0.  0.
        1    1    3    3  502    0  0.52844683331E+03 -0.85826760186E+03 -0.11911120293E+04  0.15603291956E+04  0.50400001928E-02 0.  1.
       -1    1    3    3    0  502 -0.52844683331E+03  0.85826760186E+03  0.51080428653E+03  0.11299559067E+04  0.50400001928E-02 0. -1.
</event>
<event>
 5   0  0.2471488E-06  0.2591397E+04  0.7818609E-02  0.8371129E-01
       -1   -1    0    0    0  501  0.00000000000E+00  0.00000000000E+00  0.98201295365E+03  0.98201295367E+03  0.50400001928E-02 0. -1.
        1   -1    0    0  501    0  0.00000000000E+00  0.00000000000E+00 -0.17095852960E+04  0.17095852960E+04  0.50400001928E-02 0.  1.
    10030    2    1    2    0    0  0.00000000000E+00  0.00000000000E+00 -0.72757234231E+03  0.26915982496E+04  0.25913972340E+04 0.  0.
        4    1    3    3  502    0 -0.45838163923E+03 -0.10901877908E+04  0.18603084315E+03  0.11971767764E+04  0.12699999809E+01 0. -1.
       -4    1    3    3    0  502  0.45838163923E+03  0.10901877908E+04 -0.91360318546E+03  0.14944214733E+04  0.12699999809E+01 0.  1.
</event>
<event>
 5   0  0.6173140E-06  0.2598007E+04  0.7818609E-02  0.8368878E-01
        2   -1    0    0  501    0  0.00000000000E+00  0.00000000000E+00  0.16625467419E+04  0.16625467419E+04  0.25500000920E-02 0. -1.
       -2   -1    0    0    0  501  0.00000000000E+00  0.00000000000E+00 -0.10149553048E+04  0.10149553048E+04  0.25500000920E-02 0.  1.
    10030    2    1    2    0    0  0.00000000000E+00  0.00000000000E+00  0.64759143710E+03  0.26775020467E+04  0.25980074173E+04 0.  0.
        3    1    3    3  502    0 -0.40292615513E+03 -0.36903699315E+02  0.15959478575E+04  0.16464388673E+04  0.10100000352E+00 0. -1.
       -3    1    3    3    0  502  0.40292615513E+03  0.36903699315E+02 -0.94835642043E+03  0.10310631794E+04  0.10100000352E+00 0.  1.
</event>
<event>
 5   0  0.2456600E-06  0.2601174E+04  0.7818609E-02  0.8367803E-01
       -1   -1    0    0    0  501  0.00000000000E+00  0.00000000000E+00  0.98683203295E+03  0.98683203297E+03  0.50400001928E-02 0. -1.
        1   -1    0    0  501    0  0.00000000000E+00  0.00000000000E+00 -0.17140976789E+04  0.17140976789E+04  0.50400001928E-02 0.  1.
    10030    2    1    2    0    0  0.00000000000E+00  0.00000000000E+00 -0.72726564597E+03  0.27009297119E+04  0.26011739636E+04 0.  0.
        5    1    3    3  502    0  0.52180725220E+03  0.27999955218E+03  0.83871306747E+03  0.10267152756E+04  0.46999998093E+01 0. -1.
       -5    1    3    3    0  502 -0.52180725220E+03 -0.27999955218E+03 -0.15659787134E+04  0.16742144363E+04  0.46999998093E+01 0.  1.
</event>
<event>
 5   0  0.2333979E-06  0.2606877E+04  0.7818609E-02  0.8365869E-01
       -1   -1    0    0    0  501  0.00000000000E+00  0.00000000000E+00  0.12064895407E+04  0.12064895407E+04  0.50400001928E-02 0.  1.
        1   -1    0    0  501    0  0.00000000000E+00  0.00000000000E+00 -0.14081776194E+04  0.14081776195E+04  0.50400001928E-02 0. -1.
    10030    2    1    2    0    0  0.00000000000E+00  0.00000000000E+00 -0.20168807876E+03  0.26146671602E+04  0.26068767284E+04 0.  0.
        3    1    3    3  502    0 -0.12134162438E+04  0.39746706166E+02 -0.57659558275E+03  0.13440317175E+04  0.10100000352E+00 0. -1.
       -3    1    3    3    0  502  0.12134162438E+04 -0.39746706166E+02  0.37490750399E+03  0.12706354427E+04  0.10100000352E+00 0.  1.
</event>
<event>
 5   0  0.2072125E-06  0.2592843E+04  0.7818609E-02  0.8370636E-01
        3   -1    0    0  501    0  0.00000000000E+00  0.00000000000E+00  0.13470607763E+04  0.13470607801E+04  0.10100000352E+00 0. -1.
       -3   -1    0    0    0  501  0.00000000000E+00  0.00000000000E+00 -0.12476859488E+04  0.12476859529E+04  0.10100000352E+00 0.  1.
    10030    2    1    2    0    0  0.00000000000E+00  0.00000000000E+00  0.99374827428E+02  0.25947467330E+04  0.25928430828E+04 0.  0.
        2    1    3    3  502    0  0.10396074074E+04  0.28608918062E+03 -0.67061755741E+03  0.12697867888E+04  0.25500000920E-02 0.  1.
       -2    1    3    3    0  502 -0.10396074074E+04 -0.28608918062E+03  0.76999238484E+03  0.13249599441E+04  0.25500000920E-02 0. -1.
</event>
<event>
 5   0  0.6158063E-06  0.2593621E+04  0.7818609E-02  0.8370371E-01
        2   -1    0    0  501    0  0.00000000000E+00  0.00000000000E+00  0.14341350924E+04  0.14341350924E+04  0.25500000920E-02 0.  1.
       -2   -1    0    0    0  501  0.00000000000E+00  0.00000000000E+00 -0.11726350284E+04  0.11726350284E+04  0.25500000920E-02 0. -1.
    10030    2    1    2    0    0  0.00000000000E+00  0.00000000000E+00  0.26150006399E+03  0.26067701208E+04  0.25936206699E+04 0.  0.
        2    1    3    3  502    0 -0.93652356426E+03  0.51204867859E+03 -0.60949389860E+03  0.12291269455E+04  0.25500000920E-02 0.  1.
       -2    1    3    3    0  502  0.93652356426E+03 -0.51204867859E+03  0.87099396259E+03  0.13776431753E+04  0.25500000920E-02 0. -1.
</event>
<event>
 5   0  0.6161834E-06  0.2604049E+04  0.7818609E-02  0.8366827E-01
       -2   -1    0    0    0  501  0.00000000000E+00  0.00000000000E+00  0.12747509790E+04  0.12747509790E+04  0.25500000920E-02 0.  1.
        2   -1    0    0  501    0  0.00000000000E+00  0.00000000000E+00 -0.13298820132E+04  0.13298820132E+04  0.25500000920E-02 0. -1.
    10030    2    1    2    0    0  0.00000000000E+00  0.00000000000E+00 -0.55131034185E+02  0.26046329921E+04  0.26040494605E+04 0.  0.
        5    1    3    3  502    0  0.75569153994E+03 -0.10245307758E+04  0.24546688525E+03  0.12965373484E+04  0.46999998093E+01 0.  1.
       -5    1    3    3    0  502 -0.75569153994E+03  0.10245307758E+04 -0.30059791944E+03  0.13080956437E+04  0.46999998093E+01 0. -1.
</event>
<event>
 5   0  0.2471488E-06  0.2598898E+04  0.7818609E-02  0.8368576E-01
       -1   -1    0    0    0  501  0.00000000000E+00  0.00000000000E+00  0.84782350604E+03  0.84782350606E+03  0.50400001928E-02 0. -1.
        1   -1    0    0  501    0  0.00000000000E+00  0.00000000000E+00 -0.19916499690E+04  0.19916499690E+04  0.50400001928E-02 0.  1.
    10030    2    1    2    0    0  0.00000000000E+00  0.00000000000E+00 -0.11438264629E+04  0.28394734751E+04  0.25988979661E+04 0.  0.
        4    1    3    3  502    0 -0.94525491119E+03 -0.19781766328E+03 -0.15218367110E+04  0.18023948688E+04  0.12699999809E+01 0.  1.
       -4    1    3    3    0  502  0.94525491119E+03  0.19781766328E+03  0.37801024809E+03  0.10370786063E+04  0.12699999809E+01 0. -1.
</event>
<event>
 5   0  0.5942229E-06  0.2636500E+04  0.7818609E-02  0.8355908E-01
       -2   -1    0    0    0  501  0.00000000000E+00  0.00000000000E+00  0.11484269179E+04  0.11484269179E+04  0.25500000920E-02 0.  1.
        2   -1    0    0  501    0  0.00000000000E+00  0.00000000000E+00 -0.15131853602E+04  0.15131853602E+04  0.25500000920E-02 0. -1.
    10030    2    1    2    0    0  0.00000000000E+00  0.00000000000E+00 -0.36475844226E+03  0.26616122782E+04  0.26364998005E+04 0.  0.
        4    1    3    3  502    0  0.32007708386E+03 -0.10164756412E+04 -0.96572706149E+03  0.14381593927E+04  0.12699999809E+01 0. -1.
       -4    1    3    3    0  502 -0.32007708386E+03  0.10164756412E+04  0.60096861924E+03  0.12234528854E+04  0.12699999809E+01 0.  1.
</event>
<event>
 5   0  0.2456600E-06  0.2600226E+04  0.7818609E-02  0.8368125E-01
        1   -1    0    0  501    0  0.00000000000E+00  0.00000000000E+00  0.14840049809E+04  0.14840049809E+04  0.50400001928E-02 0.  1.
       -1   -1    0    0    0  501  0.00000000000E+00  0.00000000000E+00 -0.11390078891E+04  0.11390078891E+04  0.50400001928E-02 0. -1.
    10030    2    1    2    0    0  0.00000000000E+00  0.00000000000E+00  0.34499709174E+03  0.26230128700E+04  0.26002256677E+04 0.  0.
        5    1    3    3  502    0  0.72038586836E+03 -0.64378116442E+03  0.10501003982E+04  0.14269347999E+04  0.46999998093E+01 0.  1.
       -5    1    3    3    0  502 -0.72038586836E+03  0.64378116442E+03 -0.70510330642E+03  0.11960780701E+04  0.46999998093E+01 0. -1.
</event>
<event>
 5   0  0.6158063E-06  0.2606801E+04  0.7818609E-02  0.8365895E-01
       -2   -1    0    0    0  501  0.00000000000E+00  0.00000000000E+00  0.84773700790E+03  0.84773700791E+03  0.25500000920E-02 0.  1.
        2   -1    0    0  501    0  0.00000000000E+00  0.00000000000E+00 -0.20039864025E+04  0.20039864025E+04  0.25500000920E-02 0. -1.
    10030    2    1    2    0    0  0.00000000000E+00  0.00000000000E+00 -0.11562493946E+04  0.28517234104E+04  0.26068014399E+04 0.  0.
        2    1    3    3  502    0 -0.11435935161E+04  0.27237876706E+03 -0.11939126381E+04  0.16755368424E+04  0.25500000920E-02 0. -1.
       -2    1    3    3    0  502  0.11435935161E+04 -0.27237876706E+03  0.37663243474E+02  0.11761865680E+04  0.25500000920E-02 0.  1.
</event>
<event>
 5   0  0.6173140E-06  0.2592658E+04  0.7818609E-02  0.8370699E-01
       -2   -1    0    0    0  501  0.00000000000E+00  0.00000000000E+00  0.15020676292E+04  0.15020676292E+04  0.25500000920E-02 0. -1.
        2   -1    0    0  501    0  0.00000000000E+00  0.00000000000E+00 -0.11187708327E+04  0.11187708327E+04  0.25500000920E-02 0.  1.
    10030    2    1    2    0    0  0.00000000000E+00  0.00000000000E+00  0.38329679651E+03  0.26208384619E+04  0.25926584443E+04 0.  0.
        3    1    3    3  502    0 -0.39729294870E+02  0.10806065984E+03  0.14968891073E+04  0.15013102720E+04  0.10100000352E+00 0. -1.
       -3    1    3    3    0  502  0.39729294870E+02 -0.10806065984E+03 -0.11135923108E+04  0.11195281899E+04  0.10100000352E+00 0.  1.
</event>
<event>
 5   0  0.2503292E-06  0.2600476E+04  0.7818609E-02  0.8368039E-01
       -1   -1    0    0    0  501  0.00000000000E+00  0.00000000000E+00  0.13192457955E+04  0.13192457955E+04  0.50400001928E-02 0.  1.
        1   -1    0    0  501    0  0.00000000000E+00  0.00000000000E+00 -0.12815041803E+04  0.12815041803E+04  0.50400001928E-02 0. -1.
    10030    2    1    2    0    0  0.00000000000E+00  0.00000000000E+00  0.37741615173E+02  0.26007499759E+04  0.26004761117E+04 0.  0.
        2    1    3    3  502    0  0.31355400342E+03 -0.11961812431E+04  0.42072566996E+03  0.13062066333E+04  0.25500000920E-02 0.  1.
       -2    1    3    3    0  502 -0.31355400342E+03  0.11961812431E+04 -0.38298405479E+03  0.12945433425E+04  0.25500000920E-02 0. -1.
</event>
<event>
 5   0  0.2456600E-06  0.2593323E+04  0.7818609E-02  0.8370473E-01
       -1   -1    0    0    0  501  0.00000000000E+00  0.00000000000E+00  0.86226451913E+03  0.86226451915E+03  0.50400001928E-02 0. -1.
        1   -1    0    0  501    0  0.00000000000E+00  0.00000000000E+00 -0.19499020154E+04  0.19499020154E+04  0.50400001928E-02 0.  1.
    10030    2    1    2    0    0  0.00000000000E+00  0.00000000000E+00 -0.10876374963E+04  0.28121665346E+04  0.25933232145E+04 0.  0.
        5    1    3    3  502    0  0.12442433042E+04 -0.18442486446E+03 -0.88528073353E+03  0.15381475865E+04  0.46999998093E+01 0.  1.
       -5    1    3    3    0  502 -0.12442433042E+04  0.18442486446E+03 -0.20235676274E+03  0.12740189481E+04  0.46999998093E+01 0. -1.
</event>
<event>
 5   0  0.6173140E-06  0.2454998E+04  0.7818609E-02  0.8419195E-01
        2   -1    0    0  501    0  0.00000000000E+00  0.00000000000E+00  0.17596546094E+04  0.17596546094E+04  0.25500000920E-02 0. -1.
       -2   -1    0    0    0  501  0.00000000000E+00  0.00000000000E+00 -0.85627825167E+03  0.85627825168E+03  0.25500000920E-02 0.  1.
    10030    2    1    2    0    0  0.00000000000E+00  0.00000000000E+00  0.90337635775E+03  0.26159328611E+04  0.24549981446E+04 0.  0.
        3    1    3    3  502    0 -0.84938401988E+03  0.55797752150E+03 -0.28189119402E+03  0.10546349052E+04  0.10100000352E+00 0.  1.
       -3    1    3    3    0  502  0.84938401988E+03 -0.55797752150E+03  0.11852675518E+04  0.15612979559E+04  0.10100000352E+00 0. -1.
</event>
<event>
 5   0  0.6173140E-06  0.2629741E+04  0.7818609E-02  0.8358168E-01
       -2   -1    0    0    0  501  0.00000000000E+00  0.00000000000E+00  0.73310584892E+03  0.73310584892E+03  0.25500000920E-02 0. -1.
        2   -1    0    0  501    0  0.00000000000E+00  0.00000000000E+00 -0.23583017022E+04  0.23583017022E+04  0.25500000920E-02 0.  1.
    10030    2    1    2    0    0  0.00000000000E+00  0.00000000000E+00 -0.16251958533E+04  0.30914075511E+04  0.26297412583E+04 0.  0.
        3    1    3    3  502    0 -0.10679305955E+04  0.48946293756E+03 -0.15069077229E+04  0.19107120713E+04  0.10100000352E+00 0. -1.
       -3    1    3    3    0  502  0.10679305955E+04 -0.48946293756E+03 -0.11828813036E+03  0.11806954798E+04  0.10100000352E+00 0.  1.
</event>
<event>
 5   0  0.6158063E-06  0.2596624E+04  0.7818609E-02  0.8369349E-01
        2   -1    0    0  501    0  0.00000000000E+00  0.00000000000E+00  0.27961255978E+04  0.27961255978E+04  0.25500000920E-02 0.  1.
       -2   -1    0    0    0  501  0.00000000000E+00  0.00000000000E+00 -0.60283900912E+03  0.60283900912E+03  0.25500000920E-02 0. -1.
    10030    2    1    2    0    0  0.00000000000E+00  0.00000000000E+00  0.21932865887E+04  0.33989646069E+04  0.25966236422E+04 0.  0.
        2    1    3    3  502    0 -0.89557054730E+03 -0.63251906415E+03  0.20068286888E+04  0.22868074597E+04  0.25500000920E-02 0.  1.
       -2    1    3    3    0  502  0.89557054730E+03  0.63251906415E+03  0.18645789994E+03  0.11121571472E+04  0.25500000920E-02 0. -1.
</event>
<event>
 5   0  0.2440590E-06  0.2594172E+04  0.7818609E-02  0.8370184E-01
       -1   -1    0    0    0  501  0.00000000000E+00  0.00000000000E+00  0.12463353699E+04  0.12463353699E+04  0.50400001928E-02 0.  1.
        1   -1    0    0  501    0  0.00000000000E+00  0.00000000000E+00 -0.13499028989E+04  0.13499028989E+04  0.50400001928E-02 0. -1.
    10030    2    1    2    0    0  0.00000000000E+00  0.00000000000E+00 -0.10356752904E+03  0.25962382689E+04  0.25941717205E+04 0.  0.
        1    1    3    3  502    0  0.11548909607E+04 -0.33563360402E+03  0.43441048283E+03  0.12787241746E+04  0.50400001928E-02 0.  1.
       -1    1    3    3    0  502 -0.11548909607E+04  0.33563360402E+03 -0.53797801187E+03  0.13175140942E+04  0.50400001928E-02 0. -1.
</event>
<event>
 5   0  0.5942229E-06  0.2602729E+04  0.7818609E-02  0.8367275E-01
       -2   -1    0    0    0  501  0.00000000000E+00  0.00000000000E+00  0.17162805225E+04  0.17162805225E+04  0.25500000920E-02 0. -1.
        2   -1    0    0  501    0  0.00000000000E+00  0.00000000000E+00 -0.98675592760E+03  0.98675592761E+03  0.25500000920E-02 0.  1.
    10030    2    1    2    0    0  0.00000000000E+00  0.00000000000E+00  0.72952459490E+03  0.27030364501E+04  0.26027293206E+04 0.  0.
        4    1    3    3  502    0  0.17188114705E+03  0.45054755505E+03  0.16200688899E+04  0.16903138907E+04  0.12699999809E+01 0. -1.
       -4    1    3    3    0  502 -0.17188114705E+03 -0.45054755505E+03 -0.89054429502E+03  0.10127225594E+04  0.12699999809E+01 0.  1.
</event>
<event>
 5   0  0.6173140E-06  0.2607692E+04  0.7818609E-02  0.8365593E-01
        2   -1    0    0  501    0  0.00000000000E+00  0.00000000000E+00  0.16188711022E+04  0.16188711022E+04  0.25500000920E-02 0.  1.
       -2   -1    0    0    0  501  0.00000000000E+00  0.00000000000E+00 -0.10501231474E+04  0.10501231474E+04  0.25500000920E-02 0. -1.
    10030    2    1    2    0    0  0.00000000000E+00  0.00000000000E+00  0.56874795478E+03  0.26689942495E+04  0.26076917126E+04 0.  0.
        3    1    3    3  502    0 -0.61960850123E+03  0.10554677241E+04  0.74448304234E+03  0.14325438290E+04  0.10100000352E+00 0. -1.
       -3    1    3    3    0  502  0.61960850123E+03 -0.10554677241E+04 -0.17573508755E+03  0.12364504206E+04  0.10100000352E+00 0.  1.
</event>
<event>
 5   0  0.2503292E-06  0.2607403E+04  0.7818609E-02  0.8365691E-01
        1   -1    0    0  501    0  0.00000000000E+00  0.00000000000E+00  0.21068601062E+04  0.21068601062E+04  0.50400001928E-02 0.  1.
       -1   -1    0    0    0  501  0.00000000000E+00  0.00000000000E+00 -0.80671580866E+03  0.80671580867E+03  0.50400001928E-02 0. -1.
    10030    2    1    2    0    0  0.00000000000E+00  0.00000000000E+00  0.13001442975E+04  0.29135759148E+04  0.26074028107E+04 0.  0.
        2    1    3    3  502    0 -0.21699079478E+03  0.75410923067E+03  0.18134134076E+04  0.19759134403E+04  0.25500000920E-02 0.  1.
       -2    1    3    3    0  502  0.21699079478E+03 -0.75410923067E+03 -0.51326911007E+03  0.93766247454E+03  0.25500000920E-02 0. -1.
</event>
<event>
 5   0  0.2440590E-06  0.2593843E+04  0.7818609E-02  0.8370296E-01
        1   -1    0    0  501    0  0.00000000000E+00  0.00000000000E+00  0.12944317149E+04  0.12944317149E+04  0.50400001928E-02 0.  1.
       -1   -1    0    0    0  501  0.00000000000E+00  0.00000000000E+00 -0.12994160174E+04  0.12994160174E+04  0.50400001928E-02 0. -1.
    10030    2    1    2    0    0  0.00000000000E+00  0.00000000000E+00 -0.49843024898E+01  0.25938477323E+04  0.25938429435E+04 0.  0.
        1    1    3    3  502    0 -0.95002200708E+03  0.83141336827E+03 -0.29950330702E+03  0.12974945988E+04  0.50400001928E-02 0. -1.
       -1    1    3    3    0  502  0.95002200708E+03 -0.83141336827E+03  0.29451900453E+03  0.12963531336E+04  0.50400001928E-02 0.  1.
</event>
<event>
 5   0  0.5940748E-06  0.2546240E+04  0.7818609E-02  0.8386695E-01
        2   -1    0    0  501    0  0.00000000000E+00  0.00000000000E+00  0.21388614161E+04  0.21388614161E+04  0.25500000920E-02 0.  1.
       -2   -1    0    0    0  501  0.00000000000E+00  0.00000000000E+00 -0.75780254880E+03  0.75780254881E+03  0.25500000920E-02 0. -1.
    10030    2    1    2    0    0  0.00000000000E+00  0.00000000000E+00  0.13810588673E+04  0.28966639649E+04  0.25462400772E+04 0.  0.
        1    1    3    3  502    0 -0.95506074635E+03 -0.54069059842E+03 -0.43522239812E+02  0.10983540130E+04  0.50400001928E-02 0. -1.
       -1    1    3    3    0  502  0.95506074635E+03  0.54069059842E+03  0.14245811071E+04  0.17983099519E+04  0.50400001928E-02 0.  1.
</event>
<event>
 5   0  0.2456600E-06  0.2601065E+04  0.7818609E-02  0.8367840E-01
        1   -1    0    0  501    0  0.00000000000E+00  0.00000000000E+00  0.11180055156E+04  0.11180055156E+04  0.50400001928E-02 0.  1.
       -1   -1    0    0    0  501  0.00000000000E+00  0.00000000000E+00 -0.15128584915E+04  0.15128584915E+04  0.50400001928E-02 0. -1.
    10030    2    1    2    0    0  0.00000000000E+00  0.00000000000E+00 -0.39485297591E+03  0.26308640072E+04  0.26010645036E+04 0.  0.
        5    1    3    3  502    0  0.12498092339E+03  0.93581534073E+01 -0.15067274355E+04  0.15119383126E+04  0.46999998093E+01 0. -1.
       -5    1    3    3    0  502 -0.12498092339E+03 -0.93581534073E+01  0.11118744596E+04  0.11189256946E+04  0.46999998093E+01 0.  1.
</event>
<event>
 5   0  0.2440590E-06  0.2598817E+04  0.7818609E-02  0.8368603E-01
       -1   -1    0    0    0  501  0.00000000000E+00  0.00000000000E+00  0.95459385052E+03  0.95459385054E+03  0.50400001928E-02 0.  1.
        1   -1    0    0  501    0  0.00000000000E+00  0.00000000000E+00 -0.17687761773E+04  0.17687761774E+04  0.50400001928E-02 0. -1.
    10030    2    1    2    0    0  0.00000000000E+00  0.00000000000E+00 -0.81418232682E+03  0.27233700279E+04  0.25988173171E+04 0.  0.
        1    1    3    3  502    0  0.53179769897E+03  0.27651675943E+03  0.80106994369E+03  0.10004915620E+04  0.50400001928E-02 0.  1.
       -1    1    3    3    0  502 -0.53179769897E+03 -0.27651675943E+03 -0.16152522705E+04  0.17228784659E+04  0.50400001928E-02 0. -1.
</event>
<event>
 5   0  0.6173140E-06  0.2578171E+04  0.7818609E-02  0.8375654E-01
       -2   -1    0    0    0  501  0.00000000000E+00  0.00000000000E+00  0.10827738656E+04  0.10827738656E+04  0.25500000920E-02 0. -1.
        2   -1    0    0  501    0  0.00000000000E+00  0.00000000000E+00 -0.15347077386E+04  0.15347077386E+04  0.25500000920E-02 0.  1.
    10030    2    1    2    0    0  0.00000000000E+00  0.00000000000E+00 -0.45193387297E+03  0.26174816042E+04  0.25781710034E+04 0.  0.
        3    1    3    3  502    0 -0.65755444072E+03 -0.47977736604E+03 -0.12407966828E+04  0.14839611119E+04  0.10100000352E+00 0.  1.
       -3    1    3    3    0  502  0.65755444072E+03  0.47977736604E+03  0.78886280981E+03  0.11335204923E+04  0.10100000352E+00 0. -1.
</event>
<event>
 5   0  0.2440590E-06  0.2674640E+04  0.7818609E-02  0.8343281E-01
       -1   -1    0    0    0  501  0.00000000000E+00  0.00000000000E+00  0.72352982045E+03  0.72352982047E+03  0.50400001928E-02 0.  1.
        1   -1    0    0  501    0  0.00000000000E+00  0.00000000000E+00 -0.24718049008E+04  0.24718049008E+04  0.50400001928E-02 0. -1.
    10030    2    1    2    0    0  0.00000000000E+00  0.00000000000E+00 -0.17482750803E+04  0.31953347213E+04  0.26746398308E+04 0.  0.
        1    1    3    3  502    0 -0.95112833762E+03 -0.82463739486E+03 -0.14134030434E+04  0.18927176521E+04  0.50400001928E-02 0. -1.
       -1    1    3    3    0  502  0.95112833762E+03  0.82463739486E+03 -0.33487203697E+03  0.13026170691E+04  0.50400001928E-02 0.  1.
</event>
<event>
 5   0  0.2440590E-06  0.2596905E+04  0.7818609E-02  0.8369253E-01
        1   -1    0    0  501    0  0.00000000000E+00  0.00000000000E+00  0.10665210286E+04  0.10665210287E+04  0.50400001928E-02 0.  1.
       -1   -1    0    0    0  501  0.00000000000E+00  0.00000000000E+00 -0.15808208399E+04  0.15808208399E+04  0.50400001928E-02 0. -1.
    10030    2    1    2    0    0  0.00000000000E+00  0.00000000000E+00 -0.51429981129E+03  0.26473418686E+04  0.25969048256E+04 0.  0.
        1    1    3    3  502    0  0.75988648628E+03 -0.38818794137E+03 -0.12548621739E+04  0.15174967629E+04  0.50400001928E-02 0. -1.
       -1    1    3    3    0  502 -0.75988648628E+03  0.38818794137E+03  0.74056236264E+03  0.11298451057E+04  0.50400001928E-02 0.  1.
</event>
<event>
 5   0  0.2503292E-06  0.2607153E+04  0.7818609E-02  0.8365775E-01
       -1   -1    0    0    0  501  0.00000000000E+00  0.00000000000E+00  0.75115671321E+03  0.75115671323E+03  0.50400001928E-02 0. -1.
        1   -1    0    0  501    0  0.00000000000E+00  0.00000000000E+00 -0.22622604726E+04  0.22622604726E+04  0.50400001928E-02 0.  1.
    10030    2    1    2    0    0  0.00000000000E+00  0.00000000000E+00 -0.15111037594E+04  0.30134171859E+04  0.26071533450E+04 0.  0.
        2    1    3    3  502    0 -0.76696082819E+03 -0.10201888179E+04 -0.44909866253E+03  0.13530350124E+04  0.25500000920E-02 0. -1.
       -2    1    3    3    0  502  0.76696082819E+03  0.10201888179E+04 -0.10620050969E+04  0.16603821735E+04  0.25500000920E-02 0.  1.
</event>
<event>
 5   0  0.5940748E-06  0.2600682E+04  0.7818609E-02  0.8367970E-01
       -2   -1    0    0    0  501  0.00000000000E+00  0.00000000000E+00  0.12798452735E+04  0.12798452735E+04  0.25500000920E-02 0.  1.
        2   -1    0    0  501    0  0.00000000000E+00  0.00000000000E+00 -0.13211650097E+04  0.13211650097E+04  0.25500000920E-02 0. -1.
    10030    2    1    2    0    0  0.00000000000E+00  0.00000000000E+00 -0.41319736249E+02  0.26010102832E+04  0.26006820591E+04 0.  0.
        1    1    3    3  502    0 -0.27158790552E+03  0.12358564988E+04 -0.32034000044E+03  0.13052658702E+04  0.50400001928E-02 0. -1.
       -1    1    3    3    0  502  0.27158790552E+03 -0.12358564988E+04  0.27902026419E+03  0.12957444130E+04  0.50400001928E-02 0.  1.
</event>
<event>
 5   0  0.2072125E-06  0.2589550E+04  0.7818609E-02  0.8371760E-01
        3   -1    0    0  501    0  0.00000000000E+00  0.00000000000E+00  0.12139509734E+04  0.12139509776E+04  0.10100000352E+00 0. -1.
       -3   -1    0    0    0  501  0.00000000000E+00  0.00000000000E+00 -0.13809797412E+04  0.13809797448E+04  0.10100000352E+00 0.  1.
    10030    2    1    2    0    0  0.00000000000E+00  0.00000000000E+00 -0.16702876774E+03  0.25949307225E+04  0.25895495448E+04 0.  0.
        2    1    3    3  502    0  0.70983058348E+03 -0.37283245100E+03  0.93524874197E+03  0.12318902967E+04  0.25500000920E-02 0. -1.
       -2    1    3    3    0  502 -0.70983058348E+03  0.37283245100E+03 -0.11022775097E+04  0.13630404257E+04  0.25500000920E-02 0.  1.
</event>
<event>
 5   0  0.6173140E-06  0.2545157E+04  0.7818609E-02  0.8387072E-01
       -2   -1    0    0    0  501  0.00000000000E+00  0.00000000000E+00  0.13560816920E+04  0.13560816920E+04  0.25500000920E-02 0. -1.
        2   -1    0    0  501    0  0.00000000000E+00  0.00000000000E+00 -0.11942171537E+04  0.11942171537E+04  0.25500000920E-02 0.  1.
    10030    2    1    2    0    0  0.00000000000E+00  0.00000000000E+00  0.16186453822E+03  0.25502988457E+04  0.25451569841E+04 0.  0.
        3    1    3    3  502    0 -0.11919478616E+03 -0.12338571059E+04  0.36934226943E+03  0.12934544743E+04  0.10100000352E+00 0. -1.
       -3    1    3    3    0  502  0.11919478616E+03  0.12338571059E+04 -0.20747773121E+03  0.12568443714E+04  0.10100000352E+00 0.  1.
</event>
<event>
 5   0  0.6158063E-06  0.2594007E+04  0.7818609E-02  0.8370240E-01
       -2   -1    0    0    0  501  0.00000000000E+00  0.00000000000E+00  0.97052520285E+03  0.97052520285E+03  0.25500000920E-02 0.  1.
        2   -1    0    0  501    0  0.00000000000E+00  0.00000000000E+00 -0.17333069887E+04  0.17333069887E+04  0.25500000920E-02 0. -1.
    10030    2    1    2    0    0  0.00000000000E+00  0.00000000000E+00 -0.76278178583E+03  0.27038321915E+04  0.25940070291E+04 0.  0.
        2    1    3    3  502    0 -0.11266317179E+03  0.11582122834E+04 -0.97841445316E+03  0.15203432263E+04  0.25500000920E-02 0. -1.
       -2    1    3    3    0  502  0.11266317179E+03 -0.11582122834E+04  0.21563266733E+03  0.11834889652E+04  0.25500000920E-02 0.  1.
</event>
<event>
 5   0  0.5942229E-06  0.2596877E+04  0.7818609E-02  0.8369263E-01
       -2   -1    0    0    0  501  0.00000000000E+00  0.00000000000E+00  0.55756943812E+03  0.55756943812E+03  0.25500000920E-02 0.  1.
        2   -1    0    0  501    0  0.00000000000E+00  0.00000000000E+00 -0.30237359902E+04  0.30237359903E+04  0.25500000920E-02 0. -1.
    10030    2    1    2    0    0  0.00000000000E+00  0.00000000000E+00 -0.24661665521E+04  0.35813054284E+04  0.25968771839E+04 0.  0.
        4    1    3    3  502    0 -0.74838283849E+03  0.78685537097E+03 -0.25139134106E+03  0.11146378188E+04  0.12699999809E+01 0.  1.
       -4    1    3    3    0  502  0.74838283849E+03 -0.78685537097E+03 -0.22147752111E+04  0.24666676096E+04  0.12699999809E+01 0. -1.
</event>
<event>
 5   0  0.6173140E-06  0.2532358E+04  0.7818609E-02  0.8391548E-01
        2   -1    0    0  501    0  0.00000000000E+00  0.00000000000E+00  0.18010227285E+04  0.18010227285E+04  0.25500000920E-02 0.  1.
       -2   -1    0    0    0  501  0.00000000000E+00  0.00000000000E+00 -0.89016574704E+03  0.89016574705E+03  0.25500000920E-02 0. -1.
    10030    2    1    2    0    0  0.00000000000E+00  0.00000000000E+00  0.91085698141E+03  0.26911884755E+04  0.25323575913E+04 0.  0.
        3    1    3    3  502    0  0.35429978484E+03 -0.35278222163E+03  0.16916722282E+04  0.17640120666E+04  0.10100000352E+00 0.  1.
       -3    1    3    3    0  502 -0.35429978484E+03  0.35278222163E+03 -0.78081524675E+03  0.92717640888E+03  0.10100000352E+00 0. -1.
</event>
<event>
 5   0  0.2440590E-06  0.2577847E+04  0.7818609E-02  0.8375765E-01
        1   -1    0    0  501    0  0.00000000000E+00  0.00000000000E+00  0.14490817410E+04  0.14490817410E+04  0.50400001928E-02 0. -1.
       -1   -1    0    0    0  501  0.00000000000E+00  0.00000000000E+00 -0.11464666922E+04  0.11464666923E+04  0.50400001928E-02 0.  1.
    10030    2    1    2    0    0  0.00000000000E+00  0.00000000000E+00  0.30261504874E+03  0.25955484332E+04  0.25778471253E+04 0.  0.
        1    1    3    3  502    0 -0.57267575433E+03  0.63139862408E+03 -0.82213118657E+03  0.11842809760E+04  0.50400001928E-02 0. -1.
       -1    1    3    3    0  502  0.57267575433E+03 -0.63139862408E+03  0.11247462353E+04  0.14112674573E+04  0.50400001928E-02 0.  1.
</event>
<event>
 5   0  0.2456600E-06  0.2601547E+04  0.7818609E-02  0.8367676E-01
       -1   -1    0    0    0  501  0.00000000000E+00  0.00000000000E+00  0.15709322027E+04  0.15709322027E+04  0.50400001928E-02 0. -1.
        1   -1    0    0  501    0  0.00000000000E+00  0.00000000000E+00 -0.10770750114E+04  0.10770750114E+04  0.50400001928E-02 0.  1.
    10030    2    1    2    0    0  0.00000000000E+00  0.00000000000E+00  0.49385719132E+03  0.26480072141E+04  0.26015470937E+04 0.  0.
        5    1    3    3  502    0 -0.99499783198E+03  0.52618887130E+03 -0.41670768564E+03  0.12002344768E+04  0.46999998093E+01 0.  1.
       -5    1    3    3    0  502  0.99499783198E+03 -0.52618887130E+03  0.91056487696E+03  0.14477727374E+04  0.46999998093E+01 0. -1.
</event>
<event>
 5   0  0.2072125E-06  0.2600871E+04  0.7818609E-02  0.8367905E-01
       -3   -1    0    0    0  501  0.00000000000E+00  0.00000000000E+00  0.13846489956E+04  0.13846489992E+04  0.10100000352E+00 0.  1.
        3   -1    0    0  501    0  0.00000000000E+00  0.00000000000E+00 -0.12213438541E+04  0.12213438583E+04  0.10100000352E+00 0. -1.
    10030    2    1    2    0    0  0.00000000000E+00  0.00000000000E+00  0.16330514145E+03  0.26059928575E+04  0.26008710472E+04 0.  0.
        3    1    3    3  502    0  0.21539117462E+03  0.45957673284E+02  0.13658266200E+04  0.13834694907E+04  0.10100000352E+00 0.  1.
       -3    1    3    3    0  502 -0.21539117462E+03 -0.45957673284E+02 -0.12025214785E+04  0.12225233668E+04  0.10100000352E+00 0. -1.
</event>
<event>
 5   0  0.5942229E-06  0.2601901E+04  0.7818609E-02  0.8367556E-01
        2   -1    0    0  501    0  0.00000000000E+00  0.00000000000E+00  0.21987494058E+04  0.21987494058E+04  0.25500000920E-02 0.  1.
       -2   -1    0    0    0  501  0.00000000000E+00  0.00000000000E+00 -0.76974297060E+03  0.76974297060E+03  0.25500000920E-02 0. -1.
    10030    2    1    2    0    0  0.00000000000E+00  0.00000000000E+00  0.14290064352E+04  0.29684923764E+04  0.26019007661E+04 0.  0.
        4    1    3    3  502    0  0.37555772507E+03 -0.45654160386E+03  0.20366590360E+04  0.21207205102E+04  0.12699999809E+01 0.  1.
       -4    1    3    3    0  502 -0.37555772507E+03  0.45654160386E+03 -0.60765260077E+03  0.84777186615E+03  0.12699999809E+01 0. -1.
</event>
<event>
 5   0  0.6158063E-06  0.2648330E+04  0.7818609E-02  0.8351968E-01
       -2   -1    0    0    0  501  0.00000000000E+00  0.00000000000E+00  0.13011373176E+04  0.13011373176E+04  0.25500000920E-02 0.  1.
        2   -1    0    0  501    0  0.00000000000E+00  0.00000000000E+00 -0.13476001022E+04  0.13476001022E+04  0.25500000920E-02 0. -1.
    10030    2    1    2    0    0  0.00000000000E+00  0.00000000000E+00 -0.46462784582E+02  0.26487374197E+04  0.26483298753E+04 0.  0.
        2    1    3    3  502    0 -0.12344687101E+04  0.46955795891E+03  0.71731146890E+02  0.13227029260E+04  0.25500000920E-02 0.  1.
       -2    1    3    3    0  502  0.12344687101E+04 -0.46955795891E+03 -0.11819393147E+03  0.13260344937E+04  0.25500000920E-02 0. -1.
</event>
<event>
 5   0  0.2503292E-06  0.2613683E+04  0.7818609E-02  0.8363568E-01
       -1   -1    0    0    0  501  0.00000000000E+00  0.00000000000E+00  0.78220031167E+03  0.78220031168E+03  0.50400001928E-02 0. -1.
        1   -1    0    0  501    0  0.00000000000E+00  0.00000000000E+00 -0.21833718930E+04  0.21833718930E+04  0.50400001928E-02 0.  1.
    10030    2    1    2    0    0  0.00000000000E+00  0.00000000000E+00 -0.14011715814E+04  0.29655722047E+04  0.26136825938E+04 0.  0.
        2    1    3    3  502    0  0.11830500127E+04 -0.15506269726E+03 -0.13054449308E+04  0.17685695463E+04  0.25500000920E-02 0.  1.
       -2    1    3    3    0  502 -0.11830500127E+04  0.15506269726E+03 -0.95726650578E+02  0.11970026584E+04  0.25500000920E-02 0. -1.
</event>
<event>
 5   0  0.2503292E-06  0.2602666E+04  0.7818609E-02  0.8367296E-01
       -1   -1    0    0    0  501  0.00000000000E+00  0.00000000000E+00  0.12535407658E+04  0.12535407658E+04  0.50400001928E-02 0.  1.
        1   -1    0    0  501    0  0.00000000000E+00  0.00000000000E+00 -0.13509469654E+04  0.13509469654E+04  0.50400001928E-02 0. -1.
    10030    2    1    2    0    0  0.00000000000E+00  0.00000000000E+00 -0.97406199591E+02  0.26044877313E+04  0.26026656287E+04 0.  0.
        2    1    3    3  502    0 -0.84074101789E+03 -0.57986934886E+02  0.94358535293E+03  0.12651329029E+04  0.25500000920E-02 0.  1.
       -2    1    3    3    0  502  0.84074101789E+03  0.57986934886E+02 -0.10409915525E+04  0.13393548283E+04  0.25500000920E-02 0. -1.
</event>
<event>
 5   0  0.5940748E-06  0.2500184E+04  0.7818609E-02  0.8402920E-01
       -2   -1    0    0    0  501  0.00000000000E+00  0.00000000000E+00  0.82437566008E+03  0.82437566008E+03  0.25500000920E-02 0.  1.
        2   -1    0    0  501    0  0.00000000000E+00  0.00000000000E+00 -0.18956527308E+04  0.18956527308E+04  0.25500000920E-02 0. -1.
    10030    2    1    2    0    0  0.00000000000E+00  0.00000000000E+00 -0.10712770708E+04  0.27200283909E+04  0.25001839702E+04 0.  0.
        1    1    3    3  502    0 -0.94623765011E+03 -0.43564714765E+03  0.21619664977E+03  0.10639055969E+04  0.50400001928E-02 0.  1.
       -1    1    3    3    0  502  0.94623765011E+03  0.43564714765E+03 -0.12874737205E+04  0.16561227940E+04  0.50400001928E-02 0. -1.
</event>
<event>
 5   0  0.2440590E-06  0.2576788E+04  0.7818609E-02  0.8376129E-01
        1   -1    0    0  501    0  0.00000000000E+00  0.00000000000E+00  0.17022177002E+04  0.17022177002E+04  0.50400001928E-02 0. -1.
       -1   -1    0    0    0  501  0.00000000000E+00  0.00000000000E+00 -0.97517413102E+03  0.97517413103E+03  0.50400001928E-02 0.  1.
    10030    2    1    2    0    0  0.00000000000E+00  0.00000000000E+00  0.72704356923E+03  0.26773918313E+04  0.25767876643E+04 0.  0.
        1    1    3    3  502    0 -0.98228231103E+03  0.80976386699E+03  0.56966793671E+03  0.13946747352E+04  0.50400001928E-02 0. -1.
       -1    1    3    3    0  502  0.98228231103E+03 -0.80976386699E+03  0.15737563252E+03  0.12827170961E+04  0.50400001928E-02 0.  1.
</event>
<event>
 5   0  0.2456600E-06  0.2597427E+04  0.7818609E-02  0.8369076E-01
        1   -1    0    0  501    0  0.00000000000E+00  0.00000000000E+00  0.10522705232E+04  0.10522705232E+04  0.50400001928E-02 0.  1.
       -1   -1    0    0    0  501  0.00000000000E+00  0.00000000000E+00 -0.16028734766E+04  0.16028734766E+04  0.50400001928E-02 0. -1.
    10030    2    1    2    0    0  0.00000000000E+00  0.00000000000E+00 -0.55060295337E+03  0.26551439998E+04  0.25974268128E+04 0.  0.
        5    1    3    3  502    0 -0.93075493200E+03 -0.43051020971E+03 -0.10898714957E+04  0.14964911464E+04  0.46999998093E+01 0. -1.
       -5    1    3    3    0  502  0.93075493200E+03  0.43051020971E+03  0.53926854231E+03  0.11586528535E+04  0.46999998093E+01 0.  1.
</event>
<event>
 5   0  0.2440590E-06  0.2523217E+04  0.7818609E-02  0.8394761E-01
       -1   -1    0    0    0  501  0.00000000000E+00  0.00000000000E+00  0.65350393914E+03  0.65350393916E+03  0.50400001928E-02 0. -1.
        1   -1    0    0  501    0  0.00000000000E+00  0.00000000000E+00 -0.24355720927E+04  0.24355720927E+04  0.50400001928E-02 0.  1.
    10030    2    1    2    0    0  0.00000000000E+00  0.00000000000E+00 -0.17820681536E+04  0.30890760319E+04  0.25232169599E+04 0.  0.
        1    1    3    3  502    0  0.73692152634E+03 -0.34204520944E+03 -0.20726886397E+04  0.22262269557E+04  0.50400001928E-02 0.  1.
       -1    1    3    3    0  502 -0.73692152634E+03  0.34204520944E+03  0.29062048609E+03  0.86284907617E+03  0.50400001928E-02 0. -1.
</event>
<event>
 5   0  0.2333979E-06  0.2608959E+04  0.7818609E-02  0.8365164E-01
        1   -1    0    0  501    0  0.00000000000E+00  0.00000000000E+00  0.14373128838E+04  0.14373128838E+04  0.50400001928E-02 0. -1.
       -1   -1    0    0    0  501  0.00000000000E+00  0.00000000000E+00 -0.11839225865E+04  0.11839225865E+04  0.50400001928E-02 0.  1.
    10030    2    1    2    0    0  0.00000000000E+00  0.00000000000E+00  0.25339029738E+03  0.26212354703E+04  0.26089593228E+04 0.  0.
        3    1    3    3  502    0  0.91254896652E+03  0.17622887154E+03  0.10463518475E+04  0.13995193569E+04  0.10100000352E+00 0. -1.
       -3    1    3    3    0  502 -0.91254896652E+03 -0.17622887154E+03 -0.79296155014E+03  0.12217161134E+04  0.10100000352E+00 0.  1.
</event>
<event>
 5   0  0.5940748E-06  0.2570226E+04  0.7818609E-02  0.8378386E-01
        2   -1    0    0  501    0  0.00000000000E+00  0.00000000000E+00  0.24947504637E+04  0.24947504637E+04  0.25500000920E-02 0.  1.
       -2   -1    0    0    0  501  0.00000000000E+00  0.00000000000E+00 -0.66199630170E+03  0.66199630170E+03  0.25500000920E-02 0. -1.
    10030    2    1    2    0    0  0.00000000000E+00  0.00000000000E+00  0.18327541620E+04  0.31567467654E+04  0.25702261228E+04 0.  0.
        1    1    3    3  502    0  0.30143605921E+03  0.11749369223E+04  0.39504336770E+03  0.12756957833E+04  0.50400001928E-02 0. -1.
       -1    1    3    3    0  502 -0.30143605921E+03 -0.11749369223E+04  0.14377107943E+04  0.18810509821E+04  0.50400001928E-02 0.  1.
</event>
<event>
 5   0  0.5940748E-06  0.2598018E+04  0.7818609E-02  0.8368875E-01
        2   -1    0    0  501    0  0.00000000000E+00  0.00000000000E+00  0.18493056829E+04  0.18493056829E+04  0.25500000920E-02 0. -1.
       -2   -1    0    0    0  501  0.00000000000E+00  0.00000000000E+00 -0.91246392819E+03  0.91246392819E+03  0.25500000920E-02 0.  1.
    10030    2    1    2    0    0  0.00000000000E+00  0.00000000000E+00  0.93684175468E+03  0.27617696111E+04  0.25980182662E+04 0.  0.
        1    1    3    3  502    0  0.68987092722E+03 -0.43455079573E+03 -0.60658953973E+03  0.10162220033E+04  0.50400001928E-02 0.  1.
       -1    1    3    3    0  502 -0.68987092722E+03  0.43455079573E+03  0.15434312944E+04  0.17455476077E+04  0.50400001928E-02 0. -1.
</event>
<event>
 5   0  0.2072125E-06  0.2569083E+04  0.7818609E-02  0.8378779E-01
       -3   -1    0    0    0  501  0.00000000000E+00  0.00000000000E+00  0.86019041540E+03  0.86019042133E+03  0.10100000352E+00 0.  1.
        3   -1    0    0  501    0  0.00000000000E+00  0.00000000000E+00 -0.19182350777E+04  0.19182350804E+04  0.10100000352E+00 0. -1.
    10030    2    1    2    0    0  0.00000000000E+00  0.00000000000E+00 -0.10580446623E+04  0.27784255017E+04  0.25690834477E+04 0.  0.
        4    1    3    3  502    0  0.41341329328E+03 -0.41866851031E+03  0.70588590367E+03  0.91895070297E+03  0.12699999809E+01 0.  1.
       -4    1    3    3    0  502 -0.41341329328E+03  0.41866851031E+03 -0.17639305660E+04  0.18594747987E+04  0.12699999809E+01 0. -1.
</event>
<event>
 5   0  0.5942229E-06  0.2609253E+04  0.7818609E-02  0.8365065E-01
       -2   -1    0    0    0  501  0.00000000000E+00  0.00000000000E+00  0.11406096819E+04  0.11406096819E+04  0.25500000920E-02 0.  1.
        2   -1    0    0  501    0  0.00000000000E+00  0.00000000000E+00 -0.14922283179E+04  0.14922283179E+04  0.25500000920E-02 0. -1.
    10030    2    1    2    0    0  0.00000000000E+00  0.00000000000E+00 -0.35161863600E+03  0.26328379998E+04  0.26092528180E+04 0.  0.
        4    1    3    3  502    0 -0.10934238129E+04  0.53580508551E+02  0.54025441345E+03  0.12207878397E+04  0.12699999809E+01 0.  1.
       -4    1    3    3    0  502  0.10934238129E+04 -0.53580508551E+02 -0.89187304944E+03  0.14120501601E+04  0.12699999809E+01 0. -1.
</event>
<event>
 5   0  0.2503292E-06  0.2599561E+04  0.7818609E-02  0.8368350E-01
        1   -1    0    0  501    0  0.00000000000E+00  0.00000000000E+00  0.20020164901E+04  0.20020164901E+04  0.50400001928E-02 0. -1.
       -1   -1    0    0    0  501  0.00000000000E+00  0.00000000000E+00 -0.84386415753E+03  0.84386415754E+03  0.50400001928E-02 0.  1.
    10030    2    1    2    0    0  0.00000000000E+00  0.00000000000E+00  0.11581523326E+04  0.28458806477E+04  0.25995614698E+04 0.  0.
        2    1    3    3  502    0 -0.92530546572E+03  0.79057571270E+02 -0.41648197769E+03  0.10177905198E+04  0.25500000920E-02 0.  1.
       -2    1    3    3    0  502  0.92530546572E+03 -0.79057571270E+02  0.15746343103E+04  0.18280901279E+04  0.25500000920E-02 0. -1.
</event>
<event>
 5   0  0.6161834E-06  0.2596282E+04  0.7818609E-02  0.8369465E-01
       -2   -1    0    0    0  501  0.00000000000E+00  0.00000000000E+00  0.82584859915E+03  0.82584859915E+03  0.25500000920E-02 0. -1.
        2   -1    0    0  501    0  0.00000000000E+00  0.00000000000E+00 -0.20405308396E+04  0.20405308396E+04  0.25500000920E-02 0.  1.
    10030    2    1    2    0    0  0.00000000000E+00  0.00000000000E+00 -0.12146822405E+04  0.28663794388E+04  0.25962815991E+04 0.  0.
        5    1    3    3  502    0 -0.11638367284E+03 -0.12926721472E+04 -0.58027529535E+03  0.14217200666E+04  0.46999998093E+01 0.  1.
       -5    1    3    3    0  502  0.11638367284E+03  0.12926721472E+04 -0.63440694514E+03  0.14446593721E+04  0.46999998093E+01 0. -1.
</event>
<event>
 5   0  0.6161834E-06  0.2640109E+04  0.7818609E-02  0.8354703E-01
       -2   -1    0    0    0  501  0.00000000000E+00  0.00000000000E+00  0.10512366143E+04  0.10512366143E+04  0.25500000920E-02 0.  1.
        2   -1    0    0  501    0  0.00000000000E+00  0.00000000000E+00 -0.16576131482E+04  0.16576131482E+04  0.25500000920E-02 0. -1.
    10030    2    1    2    0    0  0.00000000000E+00  0.00000000000E+00 -0.60637653386E+03  0.27088497624E+04  0.26401088111E+04 0.  0.
        5    1    3    3  502    0 -0.47097729226E+03 -0.81864098833E+02  0.95929624567E+03  0.10718174833E+04  0.46999998093E+01 0.  1.
       -5    1    3    3    0  502  0.47097729226E+03  0.81864098833E+02 -0.15656727795E+04  0.16370322792E+04  0.46999998093E+01 0. -1.
</event>
<event>
 5   0  0.6173140E-06  0.2602890E+04  0.7818609E-02  0.8367220E-01
       -2   -1    0    0    0  501  0.00000000000E+00  0.00000000000E+00  0.14216284966E+04  0.14216284966E+04  0.25500000920E-02 0.  1.
        2   -1    0    0  501    0  0.00000000000E+00  0.00000000000E+00 -0.11914217750E+04  0.11914217750E+04  0.25500000920E-02 0. -1.
    10030    2    1    2    0    0  0.00000000000E+00  0.00000000000E+00  0.23020672157E+03  0.26130502716E+04  0.26028900451E+04 0.  0.
        3    1    3    3  502    0 -0.10226045312E+04  0.33414620059E+02  0.92255792741E+03  0.13776609538E+04  0.10100000352E+00 0.  1.
       -3    1    3    3    0  502  0.10226045312E+04 -0.33414620059E+02 -0.69235120584E+03  0.12353893178E+04  0.10100000352E+00 0. -1.
</event>
<event>
 5   0  0.6161834E-06  0.2596486E+04  0.7818609E-02  0.8369396E-01
       -2   -1    0    0    0  501  0.00000000000E+00  0.00000000000E+00  0.20286996734E+04  0.20286996734E+04  0.25500000920E-02 0. -1.
        2   -1    0    0  501    0  0.00000000000E+00  0.00000000000E+00 -0.83079597357E+03  0.83079597358E+03  0.25500000920E-02 0.  1.
    10030    2    1    2    0    0  0.00000000000E+00  0.00000000000E+00  0.11979036999E+04  0.28594956470E+04  0.25964864878E+04 0.  0.
        5    1    3    3  502    0  0.91730595907E+03 -0.91827565983E+03  0.56913502649E+03  0.14172569204E+04  0.46999998093E+01 0. -1.
       -5    1    3    3    0  502 -0.91730595907E+03  0.91827565983E+03  0.62876867336E+03  0.14422387266E+04  0.46999998093E+01 0.  1.
</event>
<event>
 5   0  0.6158063E-06  0.2643936E+04  0.7818609E-02  0.8353428E-01
       -2   -1    0    0    0  501  0.00000000000E+00  0.00000000000E+00  0.14882662596E+04  0.14882662596E+04  0.25500000920E-02 0.  1.
        2   -1    0    0  501    0  0.00000000000E+00  0.00000000000E+00 -0.11742520322E+04  0.11742520322E+04  0.25500000920E-02 0. -1.
    10030    2    1    2    0    0  0.00000000000E+00  0.00000000000E+00  0.31401422733E+03  0.26625182918E+04  0.26439362169E+04 0.  0.
        2    1    3    3  502    0  0.48130123319E+03  0.33065284813E+03  0.13513516683E+04  0.14721187162E+04  0.25500000920E-02 0.  1.
       -2    1    3    3    0  502 -0.48130123319E+03 -0.33065284813E+03 -0.10373374410E+04  0.11903995756E+04  0.25500000920E-02 0. -1.
</event>
<event>
 5   0  0.6161834E-06  0.2571397E+04  0.7818609E-02  0.8377982E-01
       -2   -1    0    0    0  501  0.00000000000E+00  0.00000000000E+00  0.15083325497E+04  0.15083325498E+04  0.25500000920E-02 0.  1.
        2   -1    0    0  501    0  0.00000000000E+00  0.00000000000E+00 -0.10959261503E+04  0.10959261503E+04  0.25500000920E-02 0. -1.
    10030    2    1    2    0    0  0.00000000000E+00  0.00000000000E+00  0.41240639944E+03  0.26042587001E+04  0.25713973514E+04 0.  0.
        5    1    3    3  502    0 -0.90633213882E+03 -0.87819837213E+03 -0.42554653184E+02  0.12627364393E+04  0.46999998093E+01 0. -1.
       -5    1    3    3    0  502  0.90633213882E+03  0.87819837213E+03  0.45496105262E+03  0.13415222607E+04  0.46999998093E+01 0.  1.
</event>
<event>
 5   0  0.6158063E-06  0.2607353E+04  0.7818609E-02  0.8365708E-01
        2   -1    0    0  501    0  0.00000000000E+00  0.00000000000E+00  0.26152314416E+04  0.26152314416E+04  0.25500000920E-02 0. -1.
       -2   -1    0    0    0  501  0.00000000000E+00  0.00000000000E+00 -0.64987464595E+03  0.64987464596E+03  0.25500000920E-02 0.  1.
    10030    2    1    2    0    0  0.00000000000E+00  0.00000000000E+00  0.19653567957E+04  0.32651060876E+04  0.26073531462E+04 0.  0.
        2    1    3    3  502    0  0.10729711381E+04  0.69923624577E+03  0.67754033428E+03  0.14488820846E+04  0.25500000920E-02 0. -1.
       -2    1    3    3    0  502 -0.10729711381E+04 -0.69923624577E+03  0.12878164614E+04  0.18162240030E+04  0.25500000920E-02 0.  1.
</event>
<event>
 5   0  0.5942229E-06  0.2614506E+04  0.7818609E-02  0.8363291E-01
        2   -1    0    0  501    0  0.00000000000E+00  0.00000000000E+00  0.27528217847E+04  0.27528217847E+04  0.25500000920E-02 0. -1.
       -2   -1    0    0    0  501  0.00000000000E+00  0.00000000000E+00 -0.62078480036E+03  0.62078480036E+03  0.25500000920E-02 0.  1.
    10030    2    1    2    0    0  0.00000000000E+00  0.00000000000E+00  0.21320369844E+04  0.33736065851E+04  0.26145056298E+04 0.  0.
        4    1    3    3  502    0 -0.81526335776E+02  0.19334349220E+03 -0.59891285520E+03  0.63460733562E+03  0.12699999809E+01 0.  1.
       -4    1    3    3    0  502  0.81526335776E+02 -0.19334349220E+03  0.27309498396E+04  0.27389992495E+04  0.12699999809E+01 0. -1.
</event>
<event>
 5   0  0.5940748E-06  0.2609963E+04  0.7818609E-02  0.8364825E-01
        2   -1    0    0  501    0  0.00000000000E+00  0.00000000000E+00  0.14158708138E+04  0.14158708138E+04  0.25500000920E-02 0. -1.
       -2   -1    0    0    0  501  0.00000000000E+00  0.00000000000E+00 -0.12027771100E+04  0.12027771100E+04  0.25500000920E-02 0.  1.
    10030    2    1    2    0    0  0.00000000000E+00  0.00000000000E+00  0.21309370371E+03  0.26186479238E+04  0.26099632224E+04 0.  0.
        1    1    3    3  502    0  0.12907616059E+04  0.50996167519E+02 -0.79301455417E+02  0.12942004687E+04  0.50400001928E-02 0.  1.
       -1    1    3    3    0  502 -0.12907616059E+04 -0.50996167519E+02  0.29239515912E+03  0.13244474551E+04  0.50400001928E-02 0. -1.
</event>
<event>
 5   0  0.2440590E-06  0.2597301E+04  0.7818609E-02  0.8369119E-01
       -1   -1    0    0    0  501  0.00000000000E+00  0.00000000000E+00  0.95493564557E+03  0.95493564558E+03  0.50400001928E-02 0.  1.
        1   -1    0    0  501    0  0.00000000000E+00  0.00000000000E+00 -0.17660797345E+04  0.17660797345E+04  0.50400001928E-02 0. -1.
    10030    2    1    2    0    0  0.00000000000E+00  0.00000000000E+00 -0.81114408889E+03  0.27210153800E+04  0.25973005151E+04 0.  0.
        1    1    3    3  502    0 -0.48594832709E+02 -0.88011209178E+03 -0.14046933082E+04  0.16583491918E+04  0.50400001928E-02 0. -1.
       -1    1    3    3    0  502  0.48594832709E+02  0.88011209178E+03  0.59354921931E+03  0.10626661882E+04  0.50400001928E-02 0.  1.
</event>
<event>
 5   0  0.2456600E-06  0.2603577E+04  0.7818609E-02  0.8366987E-01
       -1   -1    0    0    0  501  0.00000000000E+00  0.00000000000E+00  0.13406930386E+04  0.13406930386E+04  0.50400001928E-02 0. -1.
        1   -1    0    0  501    0  0.00000000000E+00  0.00000000000E+00 -0.12640128088E+04  0.12640128088E+04  0.50400001928E-02 0.  1.
    10030    2    1    2    0    0  0.00000000000E+00  0.00000000000E+00  0.76680229759E+02  0.26047058474E+04  0.26035769038E+04 0.  0.
        5    1    3    3  502    0  0.46266916736E+03 -0.17900400281E+03 -0.11657289705E+04  0.12669061978E+04  0.46999998093E+01 0.  1.
       -5    1    3    3    0  502 -0.46266916736E+03  0.17900400281E+03  0.12424092003E+04  0.13377996496E+04  0.46999998093E+01 0. -1.
</event>
<event>
 5   0  0.2503292E-06  0.2615087E+04  0.7818609E-02  0.8363094E-01
        1   -1    0    0  501    0  0.00000000000E+00  0.00000000000E+00  0.15088260813E+04  0.15088260813E+04  0.50400001928E-02 0. -1.
       -1   -1    0    0    0  501  0.00000000000E+00  0.00000000000E+00 -0.11331128518E+04  0.11331128519E+04  0.50400001928E-02 0.  1.
    10030    2    1    2    0    0  0.00000000000E+00  0.00000000000E+00  0.37571322942E+03  0.26419389331E+04  0.26150871679E+04 0.  0.
        2    1    3    3  502    0  0.12789041305E+04  0.10807295118E+03 -0.64497510021E+02  0.12850818910E+04  0.25500000920E-02 0.  1.
       -2    1    3    3    0  502 -0.12789041305E+04 -0.10807295118E+03  0.44021073944E+03  0.13568570422E+04  0.25500000920E-02 0. -1.
</event>
<event>
 5   0  0.2456600E-06  0.2597045E+04  0.7818609E-02  0.8369206E-01
       -1   -1    0    0    0  501  0.00000000000E+00  0.00000000000E+00  0.68421423154E+03  0.68421423155E+03  0.50400001928E-02 0.  1.
        1   -1    0    0  501    0  0.00000000000E+00  0.00000000000E+00 -0.24643755572E+04  0.24643755572E+04  0.50400001928E-02 0. -1.
    10030    2    1    2    0    0  0.00000000000E+00  0.00000000000E+00 -0.17801613257E+04  0.31485897888E+04  0.25970451118E+04 0.  0.
        5    1    3    3  502    0 -0.62090647888E+03 -0.23040792321E+03 -0.22442139199E+04  0.23398997574E+04  0.46999998093E+01 0. -1.
       -5    1    3    3    0  502  0.62090647888E+03  0.23040792321E+03  0.46405259422E+03  0.80869003134E+03  0.46999998093E+01 0.  1.
</event>
<event>
 5   0  0.5940748E-06  0.2598750E+04  0.7818609E-02  0.8368626E-01
       -2   -1    0    0    0  501  0.00000000000E+00  0.00000000000E+00  0.10274851258E+04  0.10274851258E+04  0.25500000920E-02 0.  1.
        2   -1    0    0  501    0  0.00000000000E+00  0.00000000000E+00 -0.16432115629E+04  0.16432115629E+04  0.25500000920E-02 0. -1.
    10030    2    1    2    0    0  0.00000000000E+00  0.00000000000E+00 -0.61572643709E+03  0.26706966888E+04  0.25987500376E+04 0.  0.
        1    1    3    3  502    0  0.37018697667E+03 -0.28578349217E+03 -0.15537231287E+04  0.16225800944E+04  0.50400001928E-02 0. -1.
       -1    1    3    3    0  502 -0.37018697667E+03  0.28578349217E+03  0.93799669156E+03  0.10481165944E+04  0.50400001928E-02 0.  1.
</event>
<event>
 5   0  0.5942229E-06  0.2598731E+04  0.7818609E-02  0.8368632E-01
        2   -1    0    0  501    0  0.00000000000E+00  0.00000000000E+00  0.17099865275E+04  0.17099865275E+04  0.25500000920E-02 0. -1.
       -2   -1    0    0    0  501  0.00000000000E+00  0.00000000000E+00 -0.98734763840E+03  0.98734763840E+03  0.25500000920E-02 0.  1.
    10030    2    1    2    0    0  0.00000000000E+00  0.00000000000E+00  0.72263888915E+03  0.26973341660E+04  0.25987313518E+04 0.  0.
        4    1    3    3  502    0 -0.13120675252E+03 -0.74820563839E+03 -0.73287234570E+03  0.10555237454E+04  0.12699999809E+01 0.  1.
       -4    1    3    3    0  502  0.13120675252E+03  0.74820563839E+03  0.14555112348E+04  0.16418104205E+04  0.12699999809E+01 0. -1.
</event>
<event>
 5   0  0.2471488E-06  0.2613846E+04  0.7818609E-02  0.8363513E-01
        1   -1    0    0  501    0  0.00000000000E+00  0.00000000000E+00  0.21343302192E+04  0.21343302192E+04  0.50400001928E-02 0. -1.
       -1   -1    0    0    0  501  0.00000000000E+00  0.00000000000E+00 -0.80027323706E+03  0.80027323708E+03  0.50400001928E-02 0.  1.
    10030    2    1    2    0    0  0.00000000000E+00  0.00000000000E+00  0.13340569822E+04  0.29346034563E+04  0.26138457135E+04 0.  0.
        4    1    3    3  502    0 -0.55376279614E+03 -0.56781958861E+03 -0.49917637425E+03  0.93715046023E+03  0.12699999809E+01 0.  1.
       -4    1    3    3    0  502  0.55376279614E+03  0.56781958861E+03  0.18332333564E+04  0.19974529961E+04  0.12699999809E+01 0. -1.
</event>
<event>
 5   0  0.2503292E-06  0.2591150E+04  0.7818609E-02  0.8371214E-01
       -1   -1    0    0    0  501  0.00000000000E+00  0.00000000000E+00  0.11256705672E+04  0.11256705672E+04  0.50400001928E-02 0. -1.
        1   -1    0    0  501    0  0.00000000000E+00  0.00000000000E+00 -0.14911236139E+04  0.14911236139E+04  0.50400001928E-02 0.  1.
    10030    2    1    2    0    0  0.00000000000E+00  0.00000000000E+00 -0.36545304668E+03  0.26167941811E+04  0.25911495242E+04 0.  0.
        2    1    3    3  502    0 -0.10472608360E+04  0.13645039728E+03 -0.94058005117E+03  0.14142364732E+04  0.25500000920E-02 0.  1.
       -2    1    3    3    0  502  0.10472608360E+04 -0.13645039728E+03  0.57512700449E+03  0.12025577079E+04  0.25500000920E-02 0. -1.
</event>
<event>
 5   0  0.2503292E-06  0.2601918E+04  0.7818609E-02  0.8367550E-01
        1   -1    0    0  501    0  0.00000000000E+00  0.00000000000E+00  0.23742283313E+04  0.23742283313E+04  0.50400001928E-02 0.  1.
       -1   -1    0    0    0  501  0.00000000000E+00  0.00000000000E+00 -0.71286086404E+03  0.71286086406E+03  0.50400001928E-02 0. -1.
    10030    2    1    2    0    0  0.00000000000E+00  0.00000000000E+00  0.16613674673E+04  0.30870891954E+04  0.26019181076E+04 0.  0.
        2    1    3    3  502    0 -0.72718373365E+03  0.98942764891E+03  0.32073597700E+03  0.12691078842E+04  0.25500000920E-02 0.  1.
       -2    1    3    3    0  502  0.72718373365E+03 -0.98942764891E+03  0.13406314903E+04  0.18179813111E+04  0.25500000920E-02 0. -1.
</event>
<event>
 5   0  0.6158063E-06  0.2611556E+04  0.7818609E-02  0.8364286E-01
       -2   -1    0    0    0  501  0.00000000000E+00  0.00000000000E+00  0.95986269810E+03  0.95986269811E+03  0.25500000920E-02 0. -1.
        2   -1    0    0  501    0  0.00000000000E+00  0.00000000000E+00 -0.17763544871E+04  0.17763544871E+04  0.25500000920E-02 0.  1.
    10030    2    1    2    0    0  0.00000000000E+00  0.00000000000E+00 -0.81649178896E+03  0.27362171852E+04  0.26115561727E+04 0.  0.
        2    1    3    3  502    0  0.70637282550E+03  0.86666793966E+03  0.29847445730E+03  0.11572220564E+04  0.25500000920E-02 0. -1.
       -2    1    3    3    0  502 -0.70637282550E+03 -0.86666793966E+03 -0.11149662463E+04  0.15789951287E+04  0.25500000920E-02 0.  1.
</event>
<event>
 5   0  0.2440590E-06  0.2618243E+04  0.7818609E-02  0.8362031E-01
       -1   -1    0    0    0  501  0.00000000000E+00  0.00000000000E+00  0.98597689382E+03  0.98597689383E+03  0.50400001928E-02 0. -1.
        1   -1    0    0  501    0  0.00000000000E+00  0.00000000000E+00 -0.17381742972E+04  0.17381742972E+04  0.50400001928E-02 0.  1.
    10030    2    1    2    0    0  0.00000000000E+00  0.00000000000E+00 -0.75219740341E+03  0.27241511911E+04  0.26182434528E+04 0.  0.
        1    1    3    3  502    0 -0.96024011796E+03 -0.61978770684E+03 -0.10403604321E+04  0.15454927092E+04  0.50400001928E-02 0.  1.
       -1    1    3    3    0  502  0.96024011796E+03  0.61978770684E+03  0.28816302864E+03  0.11786584818E+04  0.50400001928E-02 0. -1.
</event>
<event>
 5   0  0.2471488E-06  0.2604830E+04  0.7818609E-02  0.8366563E-01
       -1   -1    0    0    0  501  0.00000000000E+00  0.00000000000E+00  0.13444312390E+04  0.13444312390E+04  0.50400001928E-02 0.  1.
        1   -1    0    0  501    0  0.00000000000E+00  0.00000000000E+00 -0.12617114168E+04  0.12617114168E+04  0.50400001928E-02 0. -1.
    10030    2    1    2    0    0  0.00000000000E+00  0.00000000000E+00  0.82719822182E+02  0.26061426558E+04  0.26048295479E+04 0.  0.
        4    1    3    3  502    0  0.86829568669E+03 -0.67469135189E+03 -0.65694379844E+03  0.12809069393E+04  0.12699999809E+01 0.  1.
       -4    1    3    3    0  502 -0.86829568669E+03  0.67469135189E+03  0.73966362063E+03  0.13252357165E+04  0.12699999809E+01 0. -1.
</event>
<event>
 5   0  0.2333979E-06  0.2597155E+04  0.7818609E-02  0.8369168E-01
       -1   -1    0    0    0  501  0.00000000000E+00  0.00000000000E+00  0.20917820439E+04  0.20917820439E+04  0.50400001928E-02 0. -1.
        1   -1    0    0  501    0  0.00000000000E+00  0.00000000000E+00 -0.80615670253E+03  0.80615670254E+03  0.50400001928E-02 0.  1.
    10030    2    1    2    0    0  0.00000000000E+00  0.00000000000E+00  0.12856253414E+04  0.28979387465E+04  0.25971554555E+04 0.  0.
        3    1    3    3  502    0  0.12762361654E+04  0.87576169044E+02  0.89195583032E+03  0.15594978515E+04  0.10100000352E+00 0. -1.
       -3    1    3    3    0  502 -0.12762361654E+04 -0.87576169044E+02  0.39366951109E+03  0.13384408950E+04  0.10100000352E+00 0.  1.
</event>
<event>
 5   0  0.2471488E-06  0.2603020E+04  0.7818609E-02  0.8367176E-01
       -1   -1    0    0    0  501  0.00000000000E+00  0.00000000000E+00  0.11072568375E+04  0.11072568375E+04  0.50400001928E-02 0. -1.
        1   -1    0    0  501    0  0.00000000000E+00  0.00000000000E+00 -0.15298420081E+04  0.15298420081E+04  0.50400001928E-02 0.  1.
    10030    2    1    2    0    0  0.00000000000E+00  0.00000000000E+00 -0.42258517065E+03  0.26370988456E+04  0.26030198031E+04 0.  0.
        4    1    3    3  502    0 -0.35956552213E+03  0.91808151084E+03  0.64939782014E+03  0.11806270228E+04  0.12699999809E+01 0. -1.
       -4    1    3    3    0  502  0.35956552213E+03 -0.91808151084E+03 -0.10719829908E+04  0.14564718228E+04  0.12699999809E+01 0.  1.
</event>
<event>
 5   0  0.5942229E-06  0.2604460E+04  0.7818609E-02  0.8366688E-01
       -2   -1    0    0    0  501  0.00000000000E+00  0.00000000000E+00  0.14319682816E+04  0.14319682816E+04  0.25500000920E-02 0. -1.
        2   -1    0    0  501    0  0.00000000000E+00  0.00000000000E+00 -0.11842463700E+04  0.11842463700E+04  0.25500000920E-02 0.  1.
    10030    2    1    2    0    0  0.00000000000E+00  0.00000000000E+00  0.24772191159E+03  0.26162146516E+04  0.26044602047E+04 0.  0.
        4    1    3    3  502    0 -0.55838628553E+03  0.10232065826E+04  0.70704525506E+03  0.13633273856E+04  0.12699999809E+01 0. -1.
       -4    1    3    3    0  502  0.55838628553E+03 -0.10232065826E+04 -0.45932334347E+03  0.12528872660E+04  0.12699999809E+01 0.  1.
</event>
<event>
 5   0  0.6158063E-06  0.2604361E+04  0.7818609E-02  0.8366721E-01
       -2   -1    0    0    0  501  0.00000000000E+00  0.00000000000E+00  0.11157066785E+04  0.11157066785E+04  0.25500000920E-02 0.  1.
        2   -1    0    0  501    0  0.00000000000E+00  0.00000000000E+00 -0.15198205765E+04  0.15198205765E+04  0.25500000920E-02 0. -1.
    10030    2    1    2    0    0  0.00000000000E+00  0.00000000000E+00 -0.40411389796E+03  0.26355272550E+04  0.26043609330E+04 0.  0.
        2    1    3    3  502    0 -0.55118440362E+03 -0.25697692570E+03  0.96317043708E+03  0.11390955526E+04  0.25500000920E-02 0.  1.
       -2    1    3    3    0  502  0.55118440362E+03  0.25697692570E+03 -0.13672843350E+04  0.14964317024E+04  0.25500000920E-02 0. -1.
</event>
<event>
 5   0  0.6161834E-06  0.2590993E+04  0.7818609E-02  0.8371267E-01
       -2   -1    0    0    0  501  0.00000000000E+00  0.00000000000E+00  0.99940649287E+03  0.99940649288E+03  0.25500000920E-02 0. -1.
        2   -1    0    0  501    0  0.00000000000E+00  0.00000000000E+00 -0.16793077390E+04  0.16793077390E+04  0.25500000920E-02 0.  1.
    10030    2    1    2    0    0  0.00000000000E+00  0.00000000000E+00 -0.67990124617E+03  0.26787142319E+04  0.25909929046E+04 0.  0.
        5    1    3    3  502    0 -0.78825541261E+03 -0.33534448211E+03 -0.13447006522E+04  0.15943790174E+04  0.46999998093E+01 0. -1.
       -5    1    3    3    0  502  0.78825541261E+03  0.33534448211E+03  0.66479940601E+03  0.10843352145E+04  0.46999998093E+01 0.  1.
</event>
<event>
 5   0  0.6173140E-06  0.2594254E+04  0.7818609E-02  0.8370155E-01
       -2   -1    0    0    0  501  0.00000000000E+00  0.00000000000E+00  0.88367524924E+03  0.88367524924E+03  0.25500000920E-02 0.  1.
        2   -1    0    0  501    0  0.00000000000E+00  0.00000000000E+00 -0.19040242090E+04  0.19040242090E+04  0.25500000920E-02 0. -1.
    10030    2    1    2    0    0  0.00000000000E+00  0.00000000000E+00 -0.10203489597E+04  0.27876994582E+04  0.25942544728E+04 0.  0.
        3    1    3    3  502    0  0.12528217098E+04  0.93619728582E+02 -0.16328383294E+03  0.12668814113E+04  0.10100000352E+00 0.  1.
       -3    1    3    3    0  502 -0.12528217098E+04 -0.93619728582E+02 -0.85706512678E+03  0.15208180469E+04  0.10100000352E+00 0. -1.
</event>
<event>
 5   0  0.5940748E-06  0.2574077E+04  0.7818609E-02  0.8377060E-01
        2   -1    0    0  501    0  0.00000000000E+00  0.00000000000E+00  0.26327811321E+04  0.26327811321E+04  0.25500000920E-02 0. -1.
       -2   -1    0    0    0  501  0.00000000000E+00  0.00000000000E+00 -0.62917050402E+03  0.62917050403E+03  0.25500000920E-02 0.  1.
    10030    2    1    2    0    0  0.00000000000E+00  0.00000000000E+00  0.20036106280E+04  0.32619516361E+04  0.25740771021E+04 0.  0.
        1    1    3    3  502    0 -0.15179018220E+03  0.79059024578E+03  0.22743449428E+04  0.24126164459E+04  0.50400001928E-02 0. -1.
       -1    1    3    3    0  502  0.15179018220E+03 -0.79059024578E+03 -0.27073431474E+03  0.84933519021E+03  0.50400001928E-02 0.  1.
</event>
<event>
 5   0  0.2333979E-06  0.2620471E+04  0.7818609E-02  0.8361281E-01
       -1   -1    0    0    0  501  0.00000000000E+00  0.00000000000E+00  0.11446663070E+04  0.11446663070E+04  0.50400001928E-02 0.  1.
        1   -1    0    0  501    0  0.00000000000E+00  0.00000000000E+00 -0.14997538376E+04  0.14997538376E+04  0.50400001928E-02 0. -1.
    10030    2    1    2    0    0  0.00000000000E+00  0.00000000000E+00 -0.35508753066E+03  0.26444201446E+04  0.26204714741E+04 0.  0.
        3    1    3    3  502    0 -0.71675547155E+03  0.31757610650E+03 -0.12369594190E+04  0.14644663205E+04  0.10100000352E+00 0. -1.
       -3    1    3    3    0  502  0.71675547155E+03 -0.31757610650E+03  0.88187188834E+03  0.11799538241E+04  0.10100000352E+00 0.  1.
</event>
<event>
 5   0  0.2333979E-06  0.2600061E+04  0.7818609E-02  0.8368180E-01
        1   -1    0    0  501    0  0.00000000000E+00  0.00000000000E+00  0.19493282567E+04  0.19493282567E+04  0.50400001928E-02 0. -1.
       -1   -1    0    0    0  501  0.00000000000E+00  0.00000000000E+00 -0.86700611132E+03  0.86700611133E+03  0.50400001928E-02 0.  1.
    10030    2    1    2    0    0  0.00000000000E+00  0.00000000000E+00  0.10823221454E+04  0.28163343680E+04  0.26000611620E+04 0.  0.
        3    1    3    3  502    0  0.17889541466E+03  0.79259570016E+03 -0.55807616043E+03  0.98572842322E+03  0.10100000352E+00 0.  1.
       -3    1    3    3    0  502 -0.17889541466E+03 -0.79259570016E+03  0.16403983058E+04  0.18306059448E+04  0.10100000352E+00 0. -1.
</event>
<event>
 5   0  0.6173140E-06  0.2530265E+04  0.7818609E-02  0.8392282E-01
        2   -1    0    0  501    0  0.00000000000E+00  0.00000000000E+00  0.26103365397E+04  0.26103365397E+04  0.25500000920E-02 0. -1.
       -2   -1    0    0    0  501  0.00000000000E+00  0.00000000000E+00 -0.61316236011E+03  0.61316236012E+03  0.25500000920E-02 0.  1.
    10030    2    1    2    0    0  0.00000000000E+00  0.00000000000E+00  0.19971741795E+04  0.32234988998E+04  0.25302648979E+04 0.  0.
        3    1    3    3  502    0  0.68369423553E+03  0.10460415167E+04  0.12499173790E+04  0.17674654528E+04  0.10100000352E+00 0.  1.
       -3    1    3    3    0  502 -0.68369423553E+03 -0.10460415167E+04  0.74725680054E+03  0.14560334469E+04  0.10100000352E+00 0. -1.
</event>
<event>
 5   0  0.2471488E-06  0.2592772E+04  0.7818609E-02  0.8370661E-01
       -1   -1    0    0    0  501  0.00000000000E+00  0.00000000000E+00  0.11866740419E+04  0.11866740419E+04  0.50400001928E-02 0.  1.
        1   -1    0    0  501    0  0.00000000000E+00  0.00000000000E+00 -0.14162412494E+04  0.14162412494E+04  0.50400001928E-02 0. -1.
    10030    2    1    2    0    0  0.00000000000E+00  0.00000000000E+00 -0.22956720752E+03  0.26029152913E+04  0.25927720515E+04 0.  0.
        4    1    3    3  502    0  0.43218001917E+03 -0.12165571236E+04 -0.23282040892E+03  0.13118680420E+04  0.12699999809E+01 0. -1.
       -4    1    3    3    0  502 -0.43218001917E+03  0.12165571236E+04  0.32532014002E+01  0.12910472493E+04  0.12699999809E+01 0.  1.
</event>
<event>
 5   0  0.5940748E-06  0.2598998E+04  0.7818609E-02  0.8368542E-01
        2   -1    0    0  501    0  0.00000000000E+00  0.00000000000E+00  0.11396753229E+04  0.11396753229E+04  0.25500000920E-02 0. -1.
       -2   -1    0    0    0  501  0.00000000000E+00  0.00000000000E+00 -0.14817360061E+04  0.14817360061E+04  0.25500000920E-02 0.  1.
    10030    2    1    2    0    0  0.00000000000E+00  0.00000000000E+00 -0.34206068316E+03  0.26214113290E+04  0.25989982388E+04 0.  0.
        1    1    3    3  502    0  0.11438661948E+04 -0.60752502682E+03 -0.64376160089E+02  0.12967886566E+04  0.50400001928E-02 0.  1.
       -1    1    3    3    0  502 -0.11438661948E+04  0.60752502682E+03 -0.27768452307E+03  0.13246226724E+04  0.50400001928E-02 0. -1.
</event>
<event>
 5   0  0.6173140E-06  0.2603461E+04  0.7818609E-02  0.8367027E-01
        2   -1    0    0  501    0  0.00000000000E+00  0.00000000000E+00  0.14008084724E+04  0.14008084724E+04  0.25500000920E-02 0. -1.
       -2   -1    0    0    0  501  0.00000000000E+00  0.00000000000E+00 -0.12096601528E+04  0.12096601528E+04  0.25500000920E-02 0.  1.
    10030    2    1    2    0    0  0.00000000000E+00  0.00000000000E+00  0.19114831961E+03  0.26104686252E+04  0.26034609202E+04 0.  0.
        3    1    3    3  502    0  0.29034034993E+03  0.88653409340E+03 -0.81475833292E+03  0.12385763476E+04  0.10100000352E+00 0.  1.
       -3    1    3    3    0  502 -0.29034034993E+03 -0.88653409340E+03  0.10059066525E+04  0.13718922776E+04  0.10100000352E+00 0. -1.
</event>
<event>
 5   0  0.2440590E-06  0.2556674E+04  0.7818609E-02  0.8383069E-01
        1   -1    0    0  501    0  0.00000000000E+00  0.00000000000E+00  0.13217353495E+04  0.13217353495E+04  0.50400001928E-02 0.  1.
       -1   -1    0    0    0  501  0.00000000000E+00  0.00000000000E+00 -0.12363631387E+04  0.12363631388E+04  0.50400001928E-02 0. -1.
    10030    2    1    2    0    0  0.00000000000E+00  0.00000000000E+00  0.85372210789E+02  0.25580984883E+04  0.25566735148E+04 0.  0.
        1    1    3    3  502    0 -0.62211277367E+03  0.10732109485E+04 -0.26625584209E+03  0.12687388291E+04  0.50400001928E-02 0. -1.
       -1    1    3    3    0  502  0.62211277367E+03 -0.10732109485E+04  0.35162805288E+03  0.12893596592E+04  0.50400001928E-02 0.  1.
</event>
<event>
 5   0  0.6173140E-06  0.2482504E+04  0.7818609E-02  0.8409245E-01
        2   -1    0    0  501    0  0.00000000000E+00  0.00000000000E+00  0.14305389055E+04  0.14305389055E+04  0.25500000920E-02 0. -1.
       -2   -1    0    0    0  501  0.00000000000E+00  0.00000000000E+00 -0.10770112301E+04  0.10770112301E+04  0.25500000920E-02 0.  1.
    10030    2    1    2    0    0  0.00000000000E+00  0.00000000000E+00  0.35352767544E+03  0.25075501356E+04  0.24825039507E+04 0.  0.
        3    1    3    3  502    0  0.11494329454E+04 -0.42128193091E+03  0.38384908521E+03  0.12829710408E+04  0.10100000352E+00 0. -1.
       -3    1    3    3    0  502 -0.11494329454E+04  0.42128193091E+03 -0.30321409767E+02  0.12245790948E+04  0.10100000352E+00 0.  1.
</event>
<event>
 5   0  0.5940748E-06  0.2575668E+04  0.7818609E-02  0.8376513E-01
       -2   -1    0    0    0  501  0.00000000000E+00  0.00000000000E+00  0.69353279451E+03  0.69353279451E+03  0.25500000920E-02 0. -1.
        2   -1    0    0  501    0  0.00000000000E+00  0.00000000000E+00 -0.23914036682E+04  0.23914036682E+04  0.25500000920E-02 0.  1.
    10030    2    1    2    0    0  0.00000000000E+00  0.00000000000E+00 -0.16978708737E+04  0.30849364627E+04  0.25756683551E+04 0.  0.
        1    1    3    3  502    0  0.81403045992E+03 -0.62296348563E+03  0.84818103891E+02  0.10285539387E+04  0.50400001928E-02 0. -1.
       -1    1    3    3    0  502 -0.81403045992E+03  0.62296348563E+03 -0.17826889776E+04  0.20563825240E+04  0.50400001928E-02 0.  1.
</event>
<event>
 5   0  0.2503292E-06  0.2589540E+04  0.7818609E-02  0.8371763E-01
       -1   -1    0    0    0  501  0.00000000000E+00  0.00000000000E+00  0.11315340788E+04  0.11315340788E+04  0.50400001928E-02 0.  1.
        1   -1    0    0  501    0  0.00000000000E+00  0.00000000000E+00 -0.14815544502E+04  0.14815544502E+04  0.50400001928E-02 0. -1.
    10030    2    1    2    0    0  0.00000000000E+00  0.00000000000E+00 -0.35002037137E+03  0.26130885290E+04  0.25895399978E+04 0.  0.
        2    1    3    3  502    0 -0.54760695348E+03  0.10942964804E+04  0.25200601971E+03  0.12493459074E+04  0.25500000920E-02 0. -1.
       -2    1    3    3    0  502  0.54760695348E+03 -0.10942964804E+04 -0.60202639108E+03  0.13637426216E+04  0.25500000920E-02 0.  1.
</event>
<event>
 5   0  0.5942229E-06  0.2600310E+04  0.7818609E-02  0.8368096E-01
        2   -1    0    0  501    0  0.00000000000E+00  0.00000000000E+00  0.12094190034E+04  0.12094190034E+04  0.25500000920E-02 0. -1.
       -2   -1    0    0    0  501  0.00000000000E+00  0.00000000000E+00 -0.13976983147E+04  0.13976983147E+04  0.25500000920E-02 0.  1.
    10030    2    1    2    0    0  0.00000000000E+00  0.00000000000E+00 -0.18827931138E+03  0.26071173181E+04  0.26003099068E+04 0.  0.
        4    1    3    3  502    0  0.10399828634E+03  0.12815919193E+04 -0.28727780271E+03  0.13175065996E+04  0.12699999809E+01 0. -1.
       -4    1    3    3    0  502 -0.10399828634E+03 -0.12815919193E+04  0.98998491336E+02  0.12896107185E+04  0.12699999809E+01 0.  1.
</event>
<event>
 5   0  0.6158063E-06  0.2594457E+04  0.7818609E-02  0.8370087E-01
        2   -1    0    0  501    0  0.00000000000E+00  0.00000000000E+00  0.20988677557E+04  0.20988677557E+04  0.25500000920E-02 0.  1.
       -2   -1    0    0    0  501  0.00000000000E+00  0.00000000000E+00 -0.80176619887E+03  0.80176619887E+03  0.25500000920E-02 0. -1.
    10030    2    1    2    0    0  0.00000000000E+00  0.00000000000E+00  0.12971015568E+04  0.29006339546E+04  0.25944565692E+04 0.  0.
        2    1    3    3  502    0 -0.11795253325E+04  0.32420893431E+03  0.11312547448E+04  0.16661718821E+04  0.25500000920E-02 0.  1.
       -2    1    3    3    0  502  0.11795253325E+04 -0.32420893431E+03  0.16584681202E+03  0.12344620724E+04  0.25500000920E-02 0. -1.
</event>
<event>
 5   0  0.2333979E-06  0.2602642E+04  0.7818609E-02  0.8367304E-01
       -1   -1    0    0    0  501  0.00000000000E+00  0.00000000000E+00  0.10648225687E+04  0.10648225687E+04  0.50400001928E-02 0.  1.
        1   -1    0    0  501    0  0.00000000000E+00  0.00000000000E+00 -0.15903458519E+04  0.15903458519E+04  0.50400001928E-02 0. -1.
    10030    2    1    2    0    0  0.00000000000E+00  0.00000000000E+00 -0.52552328319E+03  0.26551684205E+04  0.26026418540E+04 0.  0.
        3    1    3    3  502    0  0.86955191613E+03  0.29954223512E+03 -0.12019886916E+04  0.15134803964E+04  0.10100000352E+00 0. -1.
       -3    1    3    3    0  502 -0.86955191613E+03 -0.29954223512E+03  0.67646540839E+03  0.11416880241E+04  0.10100000352E+00 0.  1.
</event>
<event>
 5   0  0.2471488E-06  0.2601949E+04  0.7818609E-02  0.8367539E-01
        1   -1    0    0  501    0  0.00000000000E+00  0.00000000000E+00  0.12022508494E+04  0.12022508494E+04  0.50400001928E-02 0.  1.
       -1   -1    0    0    0  501  0.00000000000E+00  0.00000000000E+00 -0.14078051198E+04  0.14078051198E+04  0.50400001928E-02 0. -1.
    10030    2    1    2    0    0  0.00000000000E+00  0.00000000000E+00 -0.20555427034E+03  0.26100559692E+04  0.26019491933E+04 0.  0.
        4    1    3    3  502    0 -0.29185356275E+03 -0.81960833841E+01  0.11689613285E+04  0.12048725569E+04  0.12699999809E+01 0.  1.
       -4    1    3    3    0  502  0.29185356275E+03  0.81960833841E+01 -0.13745155989E+04  0.14051834123E+04  0.12699999809E+01 0. -1.
</event>
<event>
 5   0  0.2456600E-06  0.2613172E+04  0.7818609E-02  0.8363741E-01
        1   -1    0    0  501    0  0.00000000000E+00  0.00000000000E+00  0.12576531781E+04  0.12576531781E+04  0.50400001928E-02 0. -1.
       -1   -1    0    0    0  501  0.00000000000E+00  0.00000000000E+00 -0.13574229007E+04  0.13574229007E+04  0.50400001928E-02 0.  1.
    10030    2    1    2    0    0  0.00000000000E+00  0.00000000000E+00 -0.99769722571E+02  0.26150760788E+04  0.26131721911E+04 0.  0.
        5    1    3    3  502    0  0.10185848829E+04  0.79769473004E+03  0.13276685310E+03  0.13005695573E+04  0.46999998093E+01 0.  1.
       -5    1    3    3    0  502 -0.10185848829E+04 -0.79769473004E+03 -0.23253657567E+03  0.13145065215E+04  0.46999998093E+01 0. -1.
</event>
<event>
 5   0  0.2471488E-06  0.2589813E+04  0.7818609E-02  0.8371670E-01
        1   -1    0    0  501    0  0.00000000000E+00  0.00000000000E+00  0.13077021653E+04  0.13077021653E+04  0.50400001928E-02 0.  1.
       -1   -1    0    0    0  501  0.00000000000E+00  0.00000000000E+00 -0.12822360622E+04  0.12822360622E+04  0.50400001928E-02 0. -1.
    10030    2    1    2    0    0  0.00000000000E+00  0.00000000000E+00  0.25466103122E+02  0.25899382276E+04  0.25898130242E+04 0.  0.
        4    1    3    3  502    0 -0.28767812420E+03 -0.80633473174E+03 -0.95883172822E+03  0.12854160022E+04  0.12699999809E+01 0. -1.
       -4    1    3    3    0  502  0.28767812420E+03  0.80633473174E+03  0.98429783134E+03  0.13045222254E+04  0.12699999809E+01 0.  1.
</event>
<event>
 5   0  0.2440590E-06  0.2587783E+04  0.7818609E-02  0.8372363E-01
        1   -1    0    0  501    0  0.00000000000E+00  0.00000000000E+00  0.21801540257E+04  0.21801540257E+04  0.50400001928E-02 0.  1.
       -1   -1    0    0    0  501  0.00000000000E+00  0.00000000000E+00 -0.76790686309E+03  0.76790686310E+03  0.50400001928E-02 0. -1.
    10030    2    1    2    0    0  0.00000000000E+00  0.00000000000E+00  0.14122471626E+04  0.29480608888E+04  0.25877830194E+04 0.  0.
        1    1    3    3  502    0  0.74154118300E+03  0.67380853665E+03 -0.22654701976E+03  0.10272413652E+04  0.50400001928E-02 0. -1.
       -1    1    3    3    0  502 -0.74154118300E+03 -0.67380853665E+03  0.16387941823E+04  0.19208195236E+04  0.50400001928E-02 0.  1.
</event>
<event>
 5   0  0.6161834E-06  0.2568722E+04  0.7818609E-02  0.8378904E-01
       -2   -1    0    0    0  501  0.00000000000E+00  0.00000000000E+00  0.77312874697E+03  0.77312874697E+03  0.25500000920E-02 0. -1.
        2   -1    0    0  501    0  0.00000000000E+00  0.00000000000E+00 -0.21336463930E+04  0.21336463930E+04  0.25500000920E-02 0.  1.
    10030    2    1    2    0    0  0.00000000000E+00  0.00000000000E+00 -0.13605176460E+04  0.29067751400E+04  0.25687221432E+04 0.  0.
        5    1    3    3  502    0 -0.90981574783E+03 -0.56480297497E+03 -0.14826560652E+04  0.18289500248E+04  0.46999998093E+01 0.  1.
       -5    1    3    3    0  502  0.90981574783E+03  0.56480297497E+03  0.12213841913E+03  0.10778251152E+04  0.46999998093E+01 0. -1.
</event>
<event>
 5   0  0.2471488E-06  0.2605707E+04  0.7818609E-02  0.8366265E-01
        1   -1    0    0  501    0  0.00000000000E+00  0.00000000000E+00  0.10768262865E+04  0.10768262865E+04  0.50400001928E-02 0.  1.
       -1   -1    0    0    0  501  0.00000000000E+00  0.00000000000E+00 -0.15763240382E+04  0.15763240383E+04  0.50400001928E-02 0. -1.
    10030    2    1    2    0    0  0.00000000000E+00  0.00000000000E+00 -0.49949775173E+03  0.26531503248E+04  0.26057069371E+04 0.  0.
        4    1    3    3  502    0  0.58683155360E+02  0.33174451302E+02  0.10750487490E+04  0.10771609362E+04  0.12699999809E+01 0.  1.
       -4    1    3    3    0  502 -0.58683155360E+02 -0.33174451302E+02 -0.15745465007E+04  0.15759893885E+04  0.12699999809E+01 0. -1.
</event>
<event>
 5   0  0.6161834E-06  0.2601175E+04  0.7818609E-02  0.8367802E-01
        2   -1    0    0  501    0  0.00000000000E+00  0.00000000000E+00  0.20836878405E+04  0.20836878405E+04  0.25500000920E-02 0. -1.
       -2   -1    0    0    0  501  0.00000000000E+00  0.00000000000E+00 -0.81179504241E+03  0.81179504242E+03  0.25500000920E-02 0.  1.
    10030    2    1    2    0    0  0.00000000000E+00  0.00000000000E+00  0.12718927981E+04  0.28954828829E+04  0.26011747030E+04 0.  0.
        5    1    3    3  502    0 -0.56519423949E+03  0.56256775057E+03 -0.50771304507E+03  0.94536851464E+03  0.46999998093E+01 0.  1.
       -5    1    3    3    0  502  0.56519423949E+03 -0.56256775057E+03  0.17796058431E+04  0.19501143682E+04  0.46999998093E+01 0. -1.
</event>
<event>
 5   0  0.6173140E-06  0.2600983E+04  0.7818609E-02  0.8367867E-01
        2   -1    0    0  501    0  0.00000000000E+00  0.00000000000E+00  0.10956433015E+04  0.10956433015E+04  0.25500000920E-02 0.  1.
       -2   -1    0    0    0  501  0.00000000000E+00  0.00000000000E+00 -0.15436393030E+04  0.15436393030E+04  0.25500000920E-02 0. -1.
    10030    2    1    2    0    0  0.00000000000E+00  0.00000000000E+00 -0.44799600146E+03  0.26392826045E+04  0.26009829390E+04 0.  0.
        3    1    3    3  502    0 -0.84648166112E+03  0.98988890795E+02 -0.12207803936E+04  0.14888367213E+04  0.10100000352E+00 0. -1.
       -3    1    3    3    0  502  0.84648166112E+03 -0.98988890795E+02  0.77278439219E+03  0.11504458832E+04  0.10100000352E+00 0.  1.
</event>
<event>
 5   0  0.6173140E-06  0.2620497E+04  0.7818609E-02  0.8361272E-01
       -2   -1    0    0    0  501  0.00000000000E+00  0.00000000000E+00  0.88094433108E+03  0.88094433108E+03  0.25500000920E-02 0. -1.
        2   -1    0    0  501    0  0.00000000000E+00  0.00000000000E+00 -0.19487616428E+04  0.19487616428E+04  0.25500000920E-02 0.  1.
    10030    2    1    2    0    0  0.00000000000E+00  0.00000000000E+00 -0.10678173117E+04  0.28297059738E+04  0.26204965345E+04 0.  0.
        3    1    3    3  502    0 -0.21711380247E+03  0.39868116023E+02 -0.19285376589E+04  0.19411299240E+04  0.10100000352E+00 0.  1.
       -3    1    3    3    0  502  0.21711380247E+03 -0.39868116023E+02  0.86072034725E+03  0.88857604980E+03  0.10100000352E+00 0. -1.
</event>
<event>
 5   0  0.2456600E-06  0.2592564E+04  0.7818609E-02  0.8370731E-01
       -1   -1    0    0    0  501  0.00000000000E+00  0.00000000000E+00  0.17970042920E+04  0.17970042920E+04  0.50400001928E-02 0. -1.
        1   -1    0    0  501    0  0.00000000000E+00  0.00000000000E+00 -0.93508270197E+03  0.93508270198E+03  0.50400001928E-02 0.  1.
    10030    2    1    2    0    0  0.00000000000E+00  0.00000000000E+00  0.86192159006E+03  0.27320869940E+04  0.25925644670E+04 0.  0.
        5    1    3    3  502    0  0.73158970283E+03 -0.29646416189E+03  0.15145029336E+04  0.17078804755E+04  0.46999998093E+01 0. -1.
       -5    1    3    3    0  502 -0.73158970283E+03  0.29646416189E+03 -0.65258134359E+03  0.10242065185E+04  0.46999998093E+01 0.  1.
</event>
<event>
 5   0  0.6161834E-06  0.2602571E+04  0.7818609E-02  0.8367328E-01
       -2   -1    0    0    0  501  0.00000000000E+00  0.00000000000E+00  0.98789700303E+03  0.98789700303E+03  0.25500000920E-02 0.  1.
        2   -1    0    0  501    0  0.00000000000E+00  0.00000000000E+00 -0.17140898450E+04  0.17140898450E+04  0.25500000920E-02 0. -1.
    10030    2    1    2    0    0  0.00000000000E+00  0.00000000000E+00 -0.72619284194E+03  0.27019868480E+04  0.26025712061E+04 0.  0.
        5    1    3    3  502    0  0.49482204082E+03 -0.91473584913E+03  0.44891300295E+03  0.11327557106E+04  0.46999998093E+01 0.  1.
       -5    1    3    3    0  502 -0.49482204082E+03  0.91473584913E+03 -0.11751058449E+04  0.15692311374E+04  0.46999998093E+01 0. -1.
</event>
<event>
 5   0  0.6173140E-06  0.2609869E+04  0.7818609E-02  0.8364857E-01
        2   -1    0    0  501    0  0.00000000000E+00  0.00000000000E+00  0.14336889600E+04  0.14336889600E+04  0.25500000920E-02 0.  1.
       -2   -1    0    0    0  501  0.00000000000E+00  0.00000000000E+00 -0.11877427086E+04  0.11877427086E+04  0.25500000920E-02 0. -1.
    10030    2    1    2    0    0  0.00000000000E+00  0.00000000000E+00  0.24594625146E+03  0.26214316686E+04  0.26098686623E+04 0.  0.
        3    1    3    3  502    0 -0.69736420570E+03 -0.40061683758E+02 -0.98414979788E+03  0.12068440698E+04  0.10100000352E+00 0. -1.
       -3    1    3    3    0  502  0.69736420570E+03  0.40061683758E+02  0.12300960493E+04  0.14145875988E+04  0.10100000352E+00 0.  1.
</event>
<event>
 5   0  0.2333979E-06  0.2599207E+04  0.7818609E-02  0.8368471E-01
        1   -1    0    0  501    0  0.00000000000E+00  0.00000000000E+00  0.17576475346E+04  0.17576475346E+04  0.50400001928E-02 0. -1.
       -1   -1    0    0    0  501  0.00000000000E+00  0.00000000000E+00 -0.96092574963E+03  0.96092574964E+03  0.50400001928E-02 0.  1.
    10030    2    1    2    0    0  0.00000000000E+00  0.00000000000E+00  0.79672178498E+03  0.27185732843E+04  0.25992066288E+04 0.  0.
        3    1    3    3  502    0 -0.10654074398E+04  0.31671195356E+03 -0.30604350722E+03  0.11528495621E+04  0.10100000352E+00 0.  1.
       -3    1    3    3    0  502  0.10654074398E+04 -0.31671195356E+03  0.11027652922E+04  0.15657237222E+04  0.10100000352E+00 0. -1.
</event>
<event>
 5   0  0.2333979E-06  0.2588103E+04  0.7818609E-02  0.8372253E-01
       -1   -1    0    0    0  501  0.00000000000E+00  0.00000000000E+00  0.11899992328E+04  0.11899992328E+04  0.50400001928E-02 0. -1.
        1   -1    0    0  501    0  0.00000000000E+00  0.00000000000E+00 -0.14072022770E+04  0.14072022770E+04  0.50400001928E-02 0.  1.
    10030    2    1    2    0    0  0.00000000000E+00  0.00000000000E+00 -0.21720304423E+03  0.25972015098E+04  0.25881032669E+04 0.  0.
        3    1    3    3  502    0  0.67291660688E+03  0.10229055706E+04  0.31169902144E+03  0.12634511690E+04  0.10100000352E+00 0. -1.
       -3    1    3    3    0  502 -0.67291660688E+03 -0.10229055706E+04 -0.52890206567E+03  0.13337503408E+04  0.10100000352E+00 0.  1.
</event>
<event>
 5   0  0.2471488E-06  0.2581993E+04  0.7818609E-02  0.8374343E-01
        1   -1    0    0  501    0  0.00000000000E+00  0.00000000000E+00  0.15310010036E+04  0.15310010036E+04  0.50400001928E-02 0.  1.
       -1   -1    0    0    0  501  0.00000000000E+00  0.00000000000E+00 -0.10886162406E+04  0.10886162406E+04  0.50400001928E-02 0. -1.
    10030    2    1    2    0    0  0.00000000000E+00  0.00000000000E+00  0.44238476299E+03  0.26196172442E+04  0.25819934601E+04 0.  0.
        4    1    3    3  502    0 -0.12878121393E+04 -0.37817872697E+02  0.30473695616E+03  0.13239171133E+04  0.12699999809E+01 0. -1.
       -4    1    3    3    0  502  0.12878121393E+04  0.37817872697E+02  0.13764780684E+03  0.12957001309E+04  0.12699999809E+01 0.  1.
</event>
<event>
 5   0  0.5940748E-06  0.2586259E+04  0.7818609E-02  0.8372884E-01
        2   -1    0    0  501    0  0.00000000000E+00  0.00000000000E+00  0.15296880597E+04  0.15296880597E+04  0.25500000920E-02 0. -1.
       -2   -1    0    0    0  501  0.00000000000E+00  0.00000000000E+00 -0.10931537037E+04  0.10931537037E+04  0.25500000920E-02 0.  1.
    10030    2    1    2    0    0  0.00000000000E+00  0.00000000000E+00  0.43653435596E+03  0.26228417635E+04  0.25862592044E+04 0.  0.
        1    1    3    3  502    0  0.39046167572E+03 -0.11892437405E+04  0.54754924841E+03  0.13662251549E+04  0.50400001928E-02 0.  1.
       -1    1    3    3    0  502 -0.39046167572E+03  0.11892437405E+04 -0.11101489245E+03  0.12566166085E+04  0.50400001928E-02 0. -1.
</event>
<event>
 5   0  0.6161834E-06  0.2587743E+04  0.7818609E-02  0.8372377E-01
        2   -1    0    0  501    0  0.00000000000E+00  0.00000000000E+00  0.15536567581E+04  0.15536567581E+04  0.25500000920E-02 0. -1.
       -2   -1    0    0    0  501  0.00000000000E+00  0.00000000000E+00 -0.10775243982E+04  0.10775243982E+04  0.25500000920E-02 0.  1.
    10030    2    1    2    0    0  0.00000000000E+00  0.00000000000E+00  0.47613235988E+03  0.26311811563E+04  0.25877426946E+04 0.  0.
        5    1    3    3  502    0  0.37183507090E+03 -0.60532712251E+03  0.13376060140E+04  0.15145607231E+04  0.46999998093E+01 0. -1.
       -5    1    3    3    0  502 -0.37183507090E+03  0.60532712251E+03 -0.86147365413E+03  0.11166204333E+04  0.46999998093E+01 0.  1.
</event>
<event>
 5   0  0.6158063E-06  0.2645442E+04  0.7818609E-02  0.8352927E-01
        2   -1    0    0  501    0  0.00000000000E+00  0.00000000000E+00  0.19071724658E+04  0.19071724658E+04  0.25500000920E-02 0.  1.
       -2   -1    0    0    0  501  0.00000000000E+00  0.00000000000E+00 -0.91737400048E+03  0.91737400049E+03  0.25500000920E-02 0. -1.
    10030    2    1    2    0    0  0.00000000000E+00  0.00000000000E+00  0.98979846527E+03  0.28245464662E+04  0.26454416905E+04 0.  0.
        2    1    3    3  502    0  0.95738143196E+03 -0.82877887870E+03  0.86739342351E+02  0.12692428253E+04  0.25500000920E-02 0. -1.
       -2    1    3    3    0  502 -0.95738143196E+03  0.82877887870E+03  0.90305912292E+03  0.15553036409E+04  0.25500000920E-02 0.  1.
</event>
<event>
 5   0  0.6173140E-06  0.2595619E+04  0.7818609E-02  0.8369691E-01
        2   -1    0    0  501    0  0.00000000000E+00  0.00000000000E+00  0.16941842474E+04  0.16941842474E+04  0.25500000920E-02 0. -1.
       -2   -1    0    0    0  501  0.00000000000E+00  0.00000000000E+00 -0.99417126672E+03  0.99417126672E+03  0.25500000920E-02 0.  1.
    10030    2    1    2    0    0  0.00000000000E+00  0.00000000000E+00  0.70001298068E+03  0.26883555141E+04  0.25956188467E+04 0.  0.
        3    1    3    3  502    0  0.21198203295E+03  0.60559456563E+03 -0.81840694035E+03  0.10399380224E+04  0.10100000352E+00 0.  1.
       -3    1    3    3    0  502 -0.21198203295E+03 -0.60559456563E+03  0.15184199210E+04  0.16484174917E+04  0.10100000352E+00 0. -1.
</event>
<event>
 5   0  0.2503292E-06  0.2588422E+04  0.7818609E-02  0.8372145E-01
       -1   -1    0    0    0  501  0.00000000000E+00  0.00000000000E+00  0.70199819636E+03  0.70199819638E+03  0.50400001928E-02 0. -1.
        1   -1    0    0  501    0  0.00000000000E+00  0.00000000000E+00 -0.23860196439E+04  0.23860196439E+04  0.50400001928E-02 0.  1.
    10030    2    1    2    0    0  0.00000000000E+00  0.00000000000E+00 -0.16840214476E+04  0.30880178403E+04  0.25884215163E+04 0.  0.
        2    1    3    3  502    0  0.10494122588E+04  0.68700945528E+03 -0.46149150916E+03  0.13364963500E+04  0.25500000920E-02 0.  1.
       -2    1    3    3    0  502 -0.10494122588E+04 -0.68700945528E+03 -0.12225299384E+04  0.17515214903E+04  0.25500000920E-02 0. -1.
</event>
<event>
 5   0  0.2440590E-06  0.2592242E+04  0.7818609E-02  0.8370841E-01
       -1   -1    0    0    0  501  0.00000000000E+00  0.00000000000E+00  0.12371502131E+04  0.12371502132E+04  0.50400001928E-02 0.  1.
        1   -1    0    0  501    0  0.00000000000E+00  0.00000000000E+00 -0.13579029322E+04  0.13579029322E+04  0.50400001928E-02 0. -1.
    10030    2    1    2    0    0  0.00000000000E+00  0.00000000000E+00 -0.12075271909E+03  0.25950531454E+04  0.25922421971E+04 0.  0.
        1    1    3    3  502    0  0.10608978711E+04  0.14128877475E+03 -0.79223893591E+03  0.13315815192E+04  0.50400001928E-02 0. -1.
       -1    1    3    3    0  502 -0.10608978711E+04 -0.14128877475E+03  0.67148621682E+03  0.12634716262E+04  0.50400001928E-02 0.  1.
</event>
<event>
 5   0  0.6173140E-06  0.2619552E+04  0.7818609E-02  0.8361590E-01
        2   -1    0    0  501    0  0.00000000000E+00  0.00000000000E+00  0.18668277700E+04  0.18668277700E+04  0.25500000920E-02 0.  1.
       -2   -1    0    0    0  501  0.00000000000E+00  0.00000000000E+00 -0.91894580909E+03  0.91894580910E+03  0.25500000920E-02 0. -1.
    10030    2    1    2    0    0  0.00000000000E+00  0.00000000000E+00  0.94788196095E+03  0.27857735791E+04  0.26195522943E+04 0.  0.
        3    1    3    3  502    0  0.96980874873E+03 -0.84687837404E+03  0.72957188593E+03  0.14798672699E+04  0.10100000352E+00 0. -1.
       -3    1    3    3    0  502 -0.96980874873E+03  0.84687837404E+03  0.21831007503E+03  0.13059063093E+04  0.10100000352E+00 0.  1.
</event>
<event>
 5   0  0.6161834E-06  0.2591903E+04  0.7818609E-02  0.8370957E-01
       -2   -1    0    0    0  501  0.00000000000E+00  0.00000000000E+00  0.90614007111E+03  0.90614007111E+03  0.25500000920E-02 0.  1.
        2   -1    0    0  501    0  0.00000000000E+00  0.00000000000E+00 -0.18534555087E+04  0.18534555087E+04  0.25500000920E-02 0. -1.
    10030    2    1    2    0    0  0.00000000000E+00  0.00000000000E+00 -0.94731543755E+03  0.27595955798E+04  0.25919030124E+04 0.  0.
        5    1    3    3  502    0 -0.26105716956E+03 -0.41413130600E+03  0.80389751045E+03  0.94123795168E+03  0.46999998093E+01 0.  1.
       -5    1    3    3    0  502  0.26105716956E+03  0.41413130600E+03 -0.17512129480E+04  0.18183576281E+04  0.46999998093E+01 0. -1.
</event>
<event>
 5   0  0.2333979E-06  0.2610270E+04  0.7818609E-02  0.8364721E-01
       -1   -1    0    0    0  501  0.00000000000E+00  0.00000000000E+00  0.14755562853E+04  0.14755562853E+04  0.50400001928E-02 0. -1.
        1   -1    0    0  501    0  0.00000000000E+00  0.00000000000E+00 -0.11543963551E+04  0.11543963551E+04  0.50400001928E-02 0.  1.
    10030    2    1    2    0    0  0.00000000000E+00  0.00000000000E+00  0.32115993017E+03  0.26299526404E+04  0.26102695627E+04 0.  0.
        3    1    3    3  502    0 -0.85620764509E+03 -0.78114279022E+03 -0.44402937395E+03  0.12411437005E+04  0.10100000352E+00 0.  1.
       -3    1    3    3    0  502  0.85620764509E+03  0.78114279022E+03  0.76518930413E+03  0.13888089399E+04  0.10100000352E+00 0. -1.
</event>
<event>
 5   0  0.2471488E-06  0.2611089E+04  0.7818609E-02  0.8364444E-01
       -1   -1    0    0    0  501  0.00000000000E+00  0.00000000000E+00  0.16704473753E+04  0.16704473753E+04  0.50400001928E-02 0.  1.
        1   -1    0    0  501    0  0.00000000000E+00  0.00000000000E+00 -0.10203529243E+04  0.10203529243E+04  0.50400001928E-02 0. -1.
    10030    2    1    2    0    0  0.00000000000E+00  0.00000000000E+00  0.65009445108E+03  0.26908002996E+04  0.26110885579E+04 0.  0.
        4    1    3    3  502    0  0.65775811509E+03 -0.49680519917E+03 -0.71827442486E+03  0.10933347640E+04  0.12699999809E+01 0. -1.
       -4    1    3    3    0  502 -0.65775811509E+03  0.49680519917E+03  0.13683688759E+04  0.15974655356E+04  0.12699999809E+01 0.  1.
</event>
<event>
 5   0  0.2503292E-06  0.2600660E+04  0.7818609E-02  0.8367977E-01
       -1   -1    0    0    0  501  0.00000000000E+00  0.00000000000E+00  0.82646475226E+03  0.82646475227E+03  0.50400001928E-02 0. -1.
        1   -1    0    0  501    0  0.00000000000E+00  0.00000000000E+00 -0.20458929848E+04  0.20458929848E+04  0.50400001928E-02 0.  1.
    10030    2    1    2    0    0  0.00000000000E+00  0.00000000000E+00 -0.12194282325E+04  0.28723577371E+04  0.26006602538E+04 0.  0.
        2    1    3    3  502    0  0.27690497394E+03  0.11209882085E+04 -0.12701549748E+04  0.17165618509E+04  0.25500000920E-02 0.  1.
       -2    1    3    3    0  502 -0.27690497394E+03 -0.11209882085E+04  0.50726742232E+02  0.11557958862E+04  0.25500000920E-02 0. -1.
</event>
<event>
 5   0  0.5942229E-06  0.2624983E+04  0.7818609E-02  0.8359764E-01
       -2   -1    0    0    0  501  0.00000000000E+00  0.00000000000E+00  0.17849806981E+04  0.17849806981E+04  0.25500000920E-02 0. -1.
        2   -1    0    0  501    0  0.00000000000E+00  0.00000000000E+00 -0.96507118093E+03  0.96507118093E+03  0.25500000920E-02 0.  1.
    10030    2    1    2    0    0  0.00000000000E+00  0.00000000000E+00  0.81990951718E+03  0.27500518790E+04  0.26249826135E+04 0.  0.
        4    1    3    3  502    0  0.43758258341E+03 -0.96637166812E+03  0.12196155605E+04  0.16164208755E+04  0.12699999809E+01 0.  1.
       -4    1    3    3    0  502 -0.43758258341E+03  0.96637166812E+03 -0.39970604337E+03  0.11336310036E+04  0.12699999809E+01 0. -1.
</event>
<event>
 5   0  0.2456600E-06  0.2584045E+04  0.7818609E-02  0.8373641E-01
        1   -1    0    0  501    0  0.00000000000E+00  0.00000000000E+00  0.17916337126E+04  0.17916337126E+04  0.50400001928E-02 0. -1.
       -1   -1    0    0    0  501  0.00000000000E+00  0.00000000000E+00 -0.93173160722E+03  0.93173160723E+03  0.50400001928E-02 0.  1.
    10030    2    1    2    0    0  0.00000000000E+00  0.00000000000E+00  0.85990210542E+03  0.27233653199E+04  0.25840447045E+04 0.  0.
        5    1    3    3  502    0 -0.67543788244E+03 -0.10983415985E+04  0.51640470742E+03  0.13889803857E+04  0.46999998093E+01 0. -1.
       -5    1    3    3    0  502  0.67543788244E+03  0.10983415985E+04  0.34349739800E+03  0.13343849342E+04  0.46999998093E+01 0.  1.
</event>
<event>
 5   0  0.6161834E-06  0.2589694E+04  0.7818609E-02  0.8371710E-01
        2   -1    0    0  501    0  0.00000000000E+00  0.00000000000E+00  0.12795487422E+04  0.12795487422E+04  0.25500000920E-02 0. -1.
       -2   -1    0    0    0  501  0.00000000000E+00  0.00000000000E+00 -0.13103279304E+04  0.13103279304E+04  0.25500000920E-02 0.  1.
    10030    2    1    2    0    0  0.00000000000E+00  0.00000000000E+00 -0.30779188202E+02  0.25898766725E+04  0.25896937697E+04 0.  0.
        5    1    3    3  502    0  0.20167359299E+03 -0.23208852921E+03 -0.12732816896E+04  0.13098876572E+04  0.46999998093E+01 0.  1.
       -5    1    3    3    0  502 -0.20167359299E+03  0.23208852921E+03  0.12425025014E+04  0.12799890153E+04  0.46999998093E+01 0. -1.
</event>
<event>
 5   0  0.2503292E-06  0.2598897E+04  0.7818609E-02  0.8368576E-01
       -1   -1    0    0    0  501  0.00000000000E+00  0.00000000000E+00  0.11433938670E+04  0.11433938670E+04  0.50400001928E-02 0.  1.
        1   -1    0    0  501    0  0.00000000000E+00  0.00000000000E+00 -0.14768024657E+04  0.14768024657E+04  0.50400001928E-02 0. -1.
    10030    2    1    2    0    0  0.00000000000E+00  0.00000000000E+00 -0.33340859873E+03  0.26201963327E+04  0.25988973678E+04 0.  0.
        2    1    3    3  502    0 -0.19724215321E+03  0.95837644641E+01 -0.14615861824E+04  0.14748662598E+04  0.25500000920E-02 0. -1.
       -2    1    3    3    0  502  0.19724215321E+03 -0.95837644641E+01  0.11281775837E+04  0.11453300729E+04  0.25500000920E-02 0.  1.
</event>
<event>
 5   0  0.5940748E-06  0.2617379E+04  0.7818609E-02  0.8362322E-01
        2   -1    0    0  501    0  0.00000000000E+00  0.00000000000E+00  0.13026677997E+04  0.13026677997E+04  0.25500000920E-02 0. -1.
       -2   -1    0    0    0  501  0.00000000000E+00  0.00000000000E+00 -0.13147385855E+04  0.13147385855E+04  0.25500000920E-02 0.  1.
    10030    2    1    2    0    0  0.00000000000E+00  0.00000000000E+00 -0.12070785855E+02  0.26174063852E+04  0.26173785514E+04 0.  0.
        1    1    3    3  502    0  0.75752906719E+03 -0.44503954073E+03 -0.97597206530E+03  0.13131762839E+04  0.50400001928E-02 0.  1.
       -1    1    3    3    0  502 -0.75752906719E+03  0.44503954073E+03  0.96390127944E+03  0.13042301012E+04  0.50400001928E-02 0. -1.
</event>
<event>
 5   0  0.2456600E-06  0.2600374E+04  0.7818609E-02  0.8368074E-01
       -1   -1    0    0    0  501  0.00000000000E+00  0.00000000000E+00  0.10265038447E+04  0.10265038448E+04  0.50400001928E-02 0. -1.
        1   -1    0    0  501    0  0.00000000000E+00  0.00000000000E+00 -0.16468383565E+04  0.16468383565E+04  0.50400001928E-02 0.  1.
    10030    2    1    2    0    0  0.00000000000E+00  0.00000000000E+00 -0.62033451172E+03  0.26733422012E+04  0.26003737459E+04 0.  0.
        5    1    3    3  502    0  0.17181842328E+03 -0.59423796711E+03  0.86552415945E+03  0.10638583048E+04  0.46999998093E+01 0. -1.
       -5    1    3    3    0  502 -0.17181842328E+03  0.59423796711E+03 -0.14858586712E+04  0.16094838964E+04  0.46999998093E+01 0.  1.
</event>
<event>
 5   0  0.2503292E-06  0.2606875E+04  0.7818609E-02  0.8365870E-01
        1   -1    0    0  501    0  0.00000000000E+00  0.00000000000E+00  0.12507292744E+04  0.12507292744E+04  0.50400001928E-02 0.  1.
       -1   -1    0    0    0  501  0.00000000000E+00  0.00000000000E+00 -0.13583671832E+04  0.13583671833E+04  0.50400001928E-02 0. -1.
    10030    2    1    2    0    0  0.00000000000E+00  0.00000000000E+00 -0.10763790885E+03  0.26090964577E+04  0.26068752187E+04 0.  0.
        2    1    3    3  502    0  0.33499800848E+02  0.71093438392E+03  0.10390820233E+04  0.12594607521E+04  0.25500000920E-02 0.  1.
       -2    1    3    3    0  502 -0.33499800848E+02 -0.71093438392E+03 -0.11467199322E+04  0.13496357056E+04  0.25500000920E-02 0. -1.
</event>
<event>
 5   0  0.6158063E-06  0.2603687E+04  0.7818609E-02  0.8366950E-01
       -2   -1    0    0    0  501  0.00000000000E+00  0.00000000000E+00  0.12581745902E+04  0.12581745902E+04  0.25500000920E-02 0. -1.
        2   -1    0    0  501    0  0.00000000000E+00  0.00000000000E+00 -0.13470283595E+04  0.13470283595E+04  0.25500000920E-02 0.  1.
    10030    2    1    2    0    0  0.00000000000E+00  0.00000000000E+00 -0.88853769304E+02  0.26052029497E+04  0.26036872732E+04 0.  0.
        2    1    3    3  502    0 -0.10639425985E+03  0.11285443567E+04  0.59615259988E+03  0.12807536945E+04  0.25500000920E-02 0. -1.
       -2    1    3    3    0  502  0.10639425985E+03 -0.11285443567E+04 -0.68500636918E+03  0.13244492552E+04  0.25500000920E-02 0.  1.
</event>
<event>
 5   0  0.6158063E-06  0.2474528E+04  0.7818609E-02  0.8412117E-01
       -2   -1    0    0    0  501  0.00000000000E+00  0.00000000000E+00  0.81246287203E+03  0.81246287203E+03  0.25500000920E-02 0.  1.
        2   -1    0    0  501    0  0.00000000000E+00  0.00000000000E+00 -0.18841743699E+04  0.18841743699E+04  0.25500000920E-02 0. -1.
    10030    2    1    2    0    0  0.00000000000E+00  0.00000000000E+00 -0.10717114979E+04  0.26966372420E+04  0.24745276074E+04 0.  0.
        2    1    3    3  502    0 -0.34776805536E+03 -0.60743545135E+03 -0.16476770601E+04  0.17901843878E+04  0.25500000920E-02 0. -1.
       -2    1    3    3    0  502  0.34776805536E+03  0.60743545135E+03  0.57596556224E+03  0.90645285414E+03  0.25500000920E-02 0.  1.
</event>
<event>
 5   0  0.5942229E-06  0.2594070E+04  0.7818609E-02  0.8370218E-01
        2   -1    0    0  501    0  0.00000000000E+00  0.00000000000E+00  0.13638198222E+04  0.13638198222E+04  0.25500000920E-02 0.  1.
       -2   -1    0    0    0  501  0.00000000000E+00  0.00000000000E+00 -0.12335206184E+04  0.12335206184E+04  0.25500000920E-02 0. -1.
    10030    2    1    2    0    0  0.00000000000E+00  0.00000000000E+00  0.13029920375E+03  0.25973404406E+04  0.25940700611E+04 0.  0.
        4    1    3    3  502    0 -0.19267258906E+03  0.10886287781E+04 -0.61398489213E+03  0.12646004917E+04  0.12699999809E+01 0. -1.
       -4    1    3    3    0  502  0.19267258906E+03 -0.10886287781E+04  0.74428409588E+03  0.13327399489E+04  0.12699999809E+01 0.  1.
</event>
<event>
 5   0  0.6158063E-06  0.2573066E+04  0.7818609E-02  0.8377408E-01
       -2   -1    0    0    0  501  0.00000000000E+00  0.00000000000E+00  0.98471217778E+03  0.98471217778E+03  0.25500000920E-02 0.  1.
        2   -1    0    0  501    0  0.00000000000E+00  0.00000000000E+00 -0.16808635056E+04  0.16808635056E+04  0.25500000920E-02 0. -1.
    10030    2    1    2    0    0  0.00000000000E+00  0.00000000000E+00 -0.69615132785E+03  0.26655756834E+04  0.25730656915E+04 0.  0.
        2    1    3    3  502    0  0.92412694609E+03 -0.89483477705E+03 -0.32667194612E+03  0.13271979698E+04  0.25500000920E-02 0. -1.
       -2    1    3    3    0  502 -0.92412694609E+03  0.89483477705E+03 -0.36947938173E+03  0.13383777136E+04  0.25500000920E-02 0.  1.
</event>
<event>
 5   0  0.6158063E-06  0.2590859E+04  0.7818609E-02  0.8371313E-01
        2   -1    0    0  501    0  0.00000000000E+00  0.00000000000E+00  0.13207788785E+04  0.13207788785E+04  0.25500000920E-02 0. -1.
       -2   -1    0    0    0  501  0.00000000000E+00  0.00000000000E+00 -0.12705668064E+04  0.12705668064E+04  0.25500000920E-02 0.  1.
    10030    2    1    2    0    0  0.00000000000E+00  0.00000000000E+00  0.50212072059E+02  0.25913456849E+04  0.25908591638E+04 0.  0.
        2    1    3    3  502    0  0.17859318125E+03  0.12673371500E+04  0.22539055022E+03  0.12995537220E+04  0.25500000920E-02 0.  1.
       -2    1    3    3    0  502 -0.17859318125E+03 -0.12673371500E+04 -0.17517847816E+03  0.12917919629E+04  0.25500000920E-02 0. -1.
</event>
<event>
 5   0  0.6173140E-06  0.2592258E+04  0.7818609E-02  0.8370836E-01
        2   -1    0    0  501    0  0.00000000000E+00  0.00000000000E+00  0.20735061440E+04  0.20735061440E+04  0.25500000920E-02 0.  1.
       -2   -1    0    0    0  501  0.00000000000E+00  0.00000000000E+00 -0.81019800957E+03  0.81019800957E+03  0.25500000920E-02 0. -1.
    10030    2    1    2    0    0  0.00000000000E+00  0.00000000000E+00  0.12633081345E+04  0.28837041536E+04  0.25922581282E+04 0.  0.
        3    1    3    3  502    0  0.41769470196E+03  0.10918782699E+04  0.12543001111E+04  0.17146240986E+04  0.10100000352E+00 0.  1.
       -3    1    3    3    0  502 -0.41769470196E+03 -0.10918782699E+04  0.90080233427E+01  0.11690800550E+04  0.10100000352E+00 0. -1.
</event>
<event>
 5   0  0.2471488E-06  0.2599604E+04  0.7818609E-02  0.8368336E-01
       -1   -1    0    0    0  501  0.00000000000E+00  0.00000000000E+00  0.23533501781E+04  0.23533501781E+04  0.50400001928E-02 0. -1.
        1   -1    0    0  501    0  0.00000000000E+00  0.00000000000E+00 -0.71790628947E+03  0.71790628949E+03  0.50400001928E-02 0.  1.
    10030    2    1    2    0    0  0.00000000000E+00  0.00000000000E+00  0.16354438886E+04  0.30712564676E+04  0.25996037346E+04 0.  0.
        4    1    3    3  502    0  0.10433326800E+04 -0.81608337275E+02 -0.93039403935E+02  0.10506478693E+04  0.12699999809E+01 0.  1.
       -4    1    3    3    0  502 -0.10433326800E+04  0.81608337275E+02  0.17284832925E+04  0.20206085982E+04  0.12699999809E+01 0. -1.
</event>
<event>
 5   0  0.2440590E-06  0.2605492E+04  0.7818609E-02  0.8366338E-01
       -1   -1    0    0    0  501  0.00000000000E+00  0.00000000000E+00  0.77027272117E+03  0.77027272119E+03  0.50400001928E-02 0.  1.
        1   -1    0    0  501    0  0.00000000000E+00  0.00000000000E+00 -0.22033071573E+04  0.22033071573E+04  0.50400001928E-02 0. -1.
    10030    2    1    2    0    0  0.00000000000E+00  0.00000000000E+00 -0.14330344361E+04  0.29735798785E+04  0.26054921989E+04 0.  0.
        1    1    3    3  502    0 -0.17699973890E+03  0.43093031018E+03 -0.21049918125E+04  0.21559268008E+04  0.50400001928E-02 0. -1.
       -1    1    3    3    0  502  0.17699973890E+03 -0.43093031018E+03  0.67195737635E+03  0.81765307769E+03  0.50400001928E-02 0.  1.
</event>
<event>
 5   0  0.2333979E-06  0.2588031E+04  0.7818609E-02  0.8372278E-01
       -1   -1    0    0    0  501  0.00000000000E+00  0.00000000000E+00  0.89651238445E+03  0.89651238446E+03  0.50400001928E-02 0. -1.
        1   -1    0    0  501    0  0.00000000000E+00  0.00000000000E+00 -0.18677663458E+04  0.18677663458E+04  0.50400001928E-02 0.  1.
    10030    2    1    2    0    0  0.00000000000E+00  0.00000000000E+00 -0.97125396139E+03  0.27642787303E+04  0.25880306492E+04 0.  0.
        3    1    3    3  502    0 -0.38685335285E+03 -0.11987375215E+04 -0.80220412875E+03  0.14933715668E+04  0.10100000352E+00 0.  1.
       -3    1    3    3    0  502  0.38685335285E+03  0.11987375215E+04 -0.16904983264E+03  0.12709071635E+04  0.10100000352E+00 0. -1.
</event>
<event>
 5   0  0.2503292E-06  0.2603382E+04  0.7818609E-02  0.8367053E-01
       -1   -1    0    0    0  501  0.00000000000E+00  0.00000000000E+00  0.11068159226E+04  0.11068159226E+04  0.50400001928E-02 0.  1.
        1   -1    0    0  501    0  0.00000000000E+00  0.00000000000E+00 -0.15308775467E+04  0.15308775467E+04  0.50400001928E-02 0. -1.
    10030    2    1    2    0    0  0.00000000000E+00  0.00000000000E+00 -0.42406162405E+03  0.26376934693E+04  0.26033821419E+04 0.  0.
        2    1    3    3  502    0  0.43141168486E+03 -0.35729720309E+03 -0.14025155889E+04  0.15102408120E+04  0.25500000920E-02 0. -1.
       -2    1    3    3    0  502 -0.43141168486E+03  0.35729720309E+03  0.97845396482E+03  0.11274526573E+04  0.25500000920E-02 0.  1.
</event>
<event>
 5   0  0.2440590E-06  0.2595603E+04  0.7818609E-02  0.8369696E-01
       -1   -1    0    0    0  501  0.00000000000E+00  0.00000000000E+00  0.28884642421E+04  0.28884642421E+04  0.50400001928E-02 0.  1.
        1   -1    0    0  501    0  0.00000000000E+00  0.00000000000E+00 -0.58310870388E+03  0.58310870390E+03  0.50400001928E-02 0. -1.
    10030    2    1    2    0    0  0.00000000000E+00  0.00000000000E+00  0.23053555382E+04  0.34715729460E+04  0.25956029284E+04 0.  0.
        1    1    3    3  502    0  0.39614965543E+02 -0.20589920733E+03  0.28656604293E+04  0.28733209923E+04  0.50400001928E-02 0.  1.
       -1    1    3    3    0  502 -0.39614965543E+02  0.20589920733E+03 -0.56030489106E+03  0.59825195366E+03  0.50400001928E-02 0. -1.
</event>
<event>
 5   0  0.5942229E-06  0.2600183E+04  0.7818609E-02  0.8368139E-01
       -2   -1    0    0    0  501  0.00000000000E+00  0.00000000000E+00  0.10411090991E+04  0.10411090991E+04  0.25500000920E-02 0.  1.
        2   -1    0    0  501    0  0.00000000000E+00  0.00000000000E+00 -0.16234976550E+04  0.16234976550E+04  0.25500000920E-02 0. -1.
    10030    2    1    2    0    0  0.00000000000E+00  0.00000000000E+00 -0.58238855589E+03  0.26646067541E+04  0.26001832097E+04 0.  0.
        4    1    3    3  502    0 -0.10560096066E+03 -0.14384635448E+03  0.10284987829E+04  0.10438652671E+04  0.12699999809E+01 0.  1.
       -4    1    3    3    0  502  0.10560096066E+03  0.14384635448E+03 -0.16108873388E+04  0.16207414870E+04  0.12699999809E+01 0. -1.
</event>
<event>
 5   0  0.5942229E-06  0.2610557E+04  0.7818609E-02  0.8364624E-01
        2   -1    0    0  501    0  0.00000000000E+00  0.00000000000E+00  0.11029580322E+04  0.11029580322E+04  0.25500000920E-02 0. -1.
       -2   -1    0    0    0  501  0.00000000000E+00  0.00000000000E+00 -0.15447118449E+04  0.15447118449E+04  0.25500000920E-02 0.  1.
    10030    2    1    2    0    0  0.00000000000E+00  0.00000000000E+00 -0.44175381279E+03  0.26476698771E+04  0.26105572867E+04 0.  0.
        4    1    3    3  502    0 -0.69322604590E+03  0.76444482780E+03 -0.10314968828E+04  0.14590838487E+04  0.12699999809E+01 0.  1.
       -4    1    3    3    0  502  0.69322604590E+03 -0.76444482780E+03  0.58974306999E+03  0.11885860284E+04  0.12699999809E+01 0. -1.
</event>
<event>
 5   0  0.6158063E-06  0.2596703E+04  0.7818609E-02  0.8369322E-01
       -2   -1    0    0    0  501  0.00000000000E+00  0.00000000000E+00  0.12124854156E+04  0.12124854156E+04  0.25500000920E-02 0. -1.
        2   -1    0    0  501    0  0.00000000000E+00  0.00000000000E+00 -0.13902987190E+04  0.13902987191E+04  0.25500000920E-02 0.  1.
    10030    2    1    2    0    0  0.00000000000E+00  0.00000000000E+00 -0.17781330349E+03  0.26027841346E+04  0.25967032330E+04 0.  0.
        2    1    3    3  502    0 -0.10529704976E+04 -0.55737500045E+03 -0.60616081187E+03  0.13367291011E+04  0.25500000920E-02 0.  1.
       -2    1    3    3    0  502  0.10529704976E+04  0.55737500045E+03  0.42834750838E+03  0.12660550335E+04  0.25500000920E-02 0. -1.
</event>
<event>
 5   0  0.2456600E-06  0.2700635E+04  0.7818609E-02  0.8334799E-01
        1   -1    0    0  501    0  0.00000000000E+00  0.00000000000E+00  0.81885892202E+03  0.81885892203E+03  0.50400001928E-02 0.  1.
       -1   -1    0    0    0  501  0.00000000000E+00  0.00000000000E+00 -0.22267049538E+04  0.22267049538E+04  0.50400001928E-02 0. -1.
    10030    2    1    2    0    0  0.00000000000E+00  0.00000000000E+00 -0.14078460318E+04  0.30455638758E+04  0.27006349017E+04 0.  0.
        5    1    3    3  502    0 -0.82156394186E+03 -0.10212663577E+04 -0.33783391918E+03  0.13535531504E+04  0.46999998093E+01 0. -1.
       -5    1    3    3    0  502  0.82156394186E+03  0.10212663577E+04 -0.10700121126E+04  0.16920107254E+04  0.46999998093E+01 0.  1.
</event>
<event>
 5   0  0.2471488E-06  0.2607242E+04  0.7818609E-02  0.8365745E-01
        1   -1    0    0  501    0  0.00000000000E+00  0.00000000000E+00  0.22458447712E+04  0.22458447712E+04  0.50400001928E-02 0.  1.
       -1   -1    0    0    0  501  0.00000000000E+00  0.00000000000E+00 -0.75669887671E+03  0.75669887673E+03  0.50400001928E-02 0. -1.
    10030    2    1    2    0    0  0.00000000000E+00  0.00000000000E+00  0.14891458945E+04  0.30025436480E+04  0.26072423866E+04 0.  0.
        4    1    3    3  502    0  0.22453118441E+02  0.37392281010E+03 -0.69338270141E+03  0.78810125870E+03  0.12699999809E+01 0. -1.
       -4    1    3    3    0  502 -0.22453118441E+02 -0.37392281010E+03  0.21825285959E+04  0.22144423893E+04  0.12699999809E+01 0.  1.
</event>
<event>
 5   0  0.2333979E-06  0.2603952E+04  0.7818609E-02  0.8366860E-01
        1   -1    0    0  501    0  0.00000000000E+00  0.00000000000E+00  0.16553310496E+04  0.16553310496E+04  0.50400001928E-02 0.  1.
       -1   -1    0    0    0  501  0.00000000000E+00  0.00000000000E+00 -0.10240499495E+04  0.10240499495E+04  0.50400001928E-02 0. -1.
    10030    2    1    2    0    0  0.00000000000E+00  0.00000000000E+00  0.63128110004E+03  0.26793809991E+04  0.26039521330E+04 0.  0.
        3    1    3    3  502    0 -0.12184145976E+04 -0.24567268606E+03  0.71449301709E+03  0.14336629597E+04  0.10100000352E+00 0.  1.
       -3    1    3    3    0  502  0.12184145976E+04  0.24567268606E+03 -0.83211917049E+02  0.12457180394E+04  0.10100000352E+00 0. -1.
</event>
<event>
 5   0  0.2471488E-06  0.2599794E+04  0.7818609E-02  0.8368271E-01
       -1   -1    0    0    0  501  0.00000000000E+00  0.00000000000E+00  0.11123526968E+04  0.11123526968E+04  0.50400001928E-02 0. -1.
        1   -1    0    0  501    0  0.00000000000E+00  0.00000000000E+00 -0.15190614377E+04  0.15190614377E+04  0.50400001928E-02 0.  1.
    10030    2    1    2    0    0  0.00000000000E+00  0.00000000000E+00 -0.40670874095E+03  0.26314141345E+04  0.25997939048E+04 0.  0.
        4    1    3    3  502    0  0.12844658797E+04  0.42519893880E+01 -0.12769307717E+01  0.12844741800E+04  0.12699999809E+01 0. -1.
       -4    1    3    3    0  502 -0.12844658797E+04 -0.42519893880E+01 -0.40543181018E+03  0.13469399545E+04  0.12699999809E+01 0.  1.
</event>
<event>
 5   0  0.2471488E-06  0.2700654E+04  0.7818609E-02  0.8334793E-01
       -1   -1    0    0    0  501  0.00000000000E+00  0.00000000000E+00  0.75986053458E+03  0.75986053460E+03  0.50400001928E-02 0.  1.
        1   -1    0    0  501    0  0.00000000000E+00  0.00000000000E+00 -0.23996285428E+04  0.23996285428E+04  0.50400001928E-02 0. -1.
    10030    2    1    2    0    0  0.00000000000E+00  0.00000000000E+00 -0.16397680082E+04  0.31594890774E+04  0.27006540151E+04 0.  0.
        4    1    3    3  502    0 -0.49910571035E+02 -0.14867499552E+03  0.74916919811E+03  0.76540931514E+03  0.12699999809E+01 0.  1.
       -4    1    3    3    0  502  0.49910571035E+02  0.14867499552E+03 -0.23889372063E+04  0.23940797622E+04  0.12699999809E+01 0. -1.
</event>
<event>
 5   0  0.5940748E-06  0.2594782E+04  0.7818609E-02  0.8369976E-01
       -2   -1    0    0    0  501  0.00000000000E+00  0.00000000000E+00  0.12644308052E+04  0.12644308052E+04  0.25500000920E-02 0. -1.
        2   -1    0    0  501    0  0.00000000000E+00  0.00000000000E+00 -0.13312104249E+04  0.13312104249E+04  0.25500000920E-02 0.  1.
    10030    2    1    2    0    0  0.00000000000E+00  0.00000000000E+00 -0.66779619774E+02  0.25956412301E+04  0.25947820482E+04 0.  0.
        1    1    3    3  502    0  0.99987050570E+03  0.35063529702E+03  0.71554850562E+03  0.12785522295E+04  0.50400001928E-02 0. -1.
       -1    1    3    3    0  502 -0.99987050570E+03 -0.35063529702E+03 -0.78232812539E+03  0.13170890006E+04  0.50400001928E-02 0.  1.
</event>
<event>
 5   0  0.6158063E-06  0.2647246E+04  0.7818609E-02  0.8352328E-01
        2   -1    0    0  501    0  0.00000000000E+00  0.00000000000E+00  0.10908640553E+04  0.10908640554E+04  0.25500000920E-02 0. -1.
       -2   -1    0    0    0  501  0.00000000000E+00  0.00000000000E+00 -0.16060462361E+04  0.16060462361E+04  0.25500000920E-02 0.  1.
    10030    2    1    2    0    0  0.00000000000E+00  0.00000000000E+00 -0.51518218074E+03  0.26969102914E+04  0.26472461995E+04 0.  0.
        2    1    3    3  502    0 -0.88001902923E+03  0.94744765560E+03  0.30355367649E+02  0.12934496512E+04  0.25500000920E-02 0. -1.
       -2    1    3    3    0  502  0.88001902923E+03 -0.94744765560E+03 -0.54553754839E+03  0.14034606402E+04  0.25500000920E-02 0.  1.
</event>
<event>
 5   0  0.6173140E-06  0.2599040E+04  0.7818609E-02  0.8368527E-01
        2   -1    0    0  501    0  0.00000000000E+00  0.00000000000E+00  0.28327536435E+04  0.28327536435E+04  0.25500000920E-02 0.  1.
       -2   -1    0    0    0  501  0.00000000000E+00  0.00000000000E+00 -0.59615206077E+03  0.59615206078E+03  0.25500000920E-02 0. -1.
    10030    2    1    2    0    0  0.00000000000E+00  0.00000000000E+00  0.22366015828E+04  0.34289057043E+04  0.25990397629E+04 0.  0.
        3    1    3    3  502    0 -0.61375964489E+03 -0.59919147727E+02 -0.39081638009E+03  0.73008811736E+03  0.10100000352E+00 0. -1.
       -3    1    3    3    0  502  0.61375964489E+03  0.59919147727E+02  0.26274179629E+04  0.26988175870E+04  0.10100000352E+00 0.  1.
</event>
<event>
 5   0  0.6161834E-06  0.2595396E+04  0.7818609E-02  0.8369767E-01
        2   -1    0    0  501    0  0.00000000000E+00  0.00000000000E+00  0.19384155117E+04  0.19384155117E+04  0.25500000920E-02 0.  1.
       -2   -1    0    0    0  501  0.00000000000E+00  0.00000000000E+00 -0.86876130792E+03  0.86876130792E+03  0.25500000920E-02 0. -1.
    10030    2    1    2    0    0  0.00000000000E+00  0.00000000000E+00  0.10696542038E+04  0.28071768196E+04  0.25953962281E+04 0.  0.
        5    1    3    3  502    0 -0.32228495409E+02  0.87023732953E+03 -0.50578461029E+03  0.10070709248E+04  0.46999998093E+01 0. -1.
       -5    1    3    3    0  502  0.32228495409E+02 -0.87023732953E+03  0.15754388141E+04  0.18001058948E+04  0.46999998093E+01 0.  1.
</event>
<event>
 5   0  0.2456600E-06  0.2602542E+04  0.7818609E-02  0.8367338E-01
       -1   -1    0    0    0  501  0.00000000000E+00  0.00000000000E+00  0.11409154148E+04  0.11409154148E+04  0.50400001928E-02 0.  1.
        1   -1    0    0  501    0  0.00000000000E+00  0.00000000000E+00 -0.14841645321E+04  0.14841645321E+04  0.50400001928E-02 0. -1.
    10030    2    1    2    0    0  0.00000000000E+00  0.00000000000E+00 -0.34324911730E+03  0.26250799469E+04  0.26025419826E+04 0.  0.
        5    1    3    3  502    0 -0.16023020621E+03 -0.23173053628E+03 -0.14530242861E+04  0.14800927087E+04  0.46999998093E+01 0. -1.
       -5    1    3    3    0  502  0.16023020621E+03  0.23173053628E+03  0.11097751688E+04  0.11449872382E+04  0.46999998093E+01 0.  1.
</event>
<event>
 5   0  0.2503292E-06  0.2595307E+04  0.7818609E-02  0.8369797E-01
        1   -1    0    0  501    0  0.00000000000E+00  0.00000000000E+00  0.21103797448E+04  0.21103797448E+04  0.50400001928E-02 0.  1.
       -1   -1    0    0    0  501  0.00000000000E+00  0.00000000000E+00 -0.79791567639E+03  0.79791567641E+03  0.50400001928E-02 0. -1.
    10030    2    1    2    0    0  0.00000000000E+00  0.00000000000E+00  0.13124640684E+04  0.29082954212E+04  0.25953073664E+04 0.  0.
        2    1    3    3  502    0  0.35046495051E+03  0.69037818899E+03  0.18231920065E+04  0.19807768218E+04  0.25500000920E-02 0.  1.
       -2    1    3    3    0  502 -0.35046495051E+03 -0.69037818899E+03 -0.51072793812E+03  0.92751859935E+03  0.25500000920E-02 0. -1.
</event>
<event>
 5   0  0.2456600E-06  0.2606798E+04  0.7818609E-02  0.8365896E-01
        1   -1    0    0  501    0  0.00000000000E+00  0.00000000000E+00  0.12250777695E+04  0.12250777695E+04  0.50400001928E-02 0. -1.
       -1   -1    0    0    0  501  0.00000000000E+00  0.00000000000E+00 -0.13867272788E+04  0.13867272788E+04  0.50400001928E-02 0.  1.
    10030    2    1    2    0    0  0.00000000000E+00  0.00000000000E+00 -0.16164950934E+03  0.26118050483E+04  0.26067978530E+04 0.  0.
        5    1    3    3  502    0 -0.36703952029E+02 -0.88699335755E+03 -0.10369755307E+04  0.13650804876E+04  0.46999998093E+01 0.  1.
       -5    1    3    3    0  502  0.36703952029E+02  0.88699335755E+03  0.87532602139E+03  0.12467245607E+04  0.46999998093E+01 0. -1.
</event>
<event>
 5   0  0.6158063E-06  0.2561553E+04  0.7818609E-02  0.8381379E-01
       -2   -1    0    0    0  501  0.00000000000E+00  0.00000000000E+00  0.15471549447E+04  0.15471549447E+04  0.25500000920E-02 0. -1.
        2   -1    0    0  501    0  0.00000000000E+00  0.00000000000E+00 -0.10602615212E+04  0.10602615212E+04  0.25500000920E-02 0.  1.
    10030    2    1    2    0    0  0.00000000000E+00  0.00000000000E+00  0.48689342353E+03  0.26074164659E+04  0.25615533219E+04 0.  0.
        2    1    3    3  502    0 -0.23117388831E+03 -0.11407971206E+04  0.78736346190E+03  0.14052760078E+04  0.25500000920E-02 0. -1.
       -2    1    3    3    0  502  0.23117388831E+03  0.11407971206E+04 -0.30047003837E+03  0.12021404581E+04  0.25500000920E-02 0.  1.
</event>
<event>
 5   0  0.5940748E-06  0.2635560E+04  0.7818609E-02  0.8356222E-01
       -2   -1    0    0    0  501  0.00000000000E+00  0.00000000000E+00  0.12890101883E+04  0.12890101883E+04  0.25500000920E-02 0.  1.
        2   -1    0    0  501    0  0.00000000000E+00  0.00000000000E+00 -0.13471922549E+04  0.13471922549E+04  0.25500000920E-02 0. -1.
    10030    2    1    2    0    0  0.00000000000E+00  0.00000000000E+00 -0.58182066663E+02  0.26362024432E+04  0.26355603140E+04 0.  0.
        1    1    3    3  502    0 -0.33952781009E+03  0.55757439213E+03 -0.11740865813E+04  0.13433717419E+04  0.50400001928E-02 0. -1.
       -1    1    3    3    0  502  0.33952781009E+03 -0.55757439213E+03  0.11159045146E+04  0.12928307013E+04  0.50400001928E-02 0.  1.
</event>
<event>
 5   0  0.5940748E-06  0.2604467E+04  0.7818609E-02  0.8366685E-01
        2   -1    0    0  501    0  0.00000000000E+00  0.00000000000E+00  0.12915547088E+04  0.12915547088E+04  0.25500000920E-02 0. -1.
       -2   -1    0    0    0  501  0.00000000000E+00  0.00000000000E+00 -0.13130007916E+04  0.13130007916E+04  0.25500000920E-02 0.  1.
    10030    2    1    2    0    0  0.00000000000E+00  0.00000000000E+00 -0.21446082827E+02  0.26045555003E+04  0.26044672046E+04 0.  0.
        1    1    3    3  502    0  0.87270153563E+03  0.28793190976E+03 -0.93341330467E+03  0.13098752430E+04  0.50400001928E-02 0.  1.
       -1    1    3    3    0  502 -0.87270153563E+03 -0.28793190976E+03  0.91196722184E+03  0.12946802573E+04  0.50400001928E-02 0. -1.
</event>
<event>
 5   0  0.6173140E-06  0.2603373E+04  0.7818609E-02  0.8367056E-01
       -2   -1    0    0    0  501  0.00000000000E+00  0.00000000000E+00  0.14626662968E+04  0.14626662968E+04  0.25500000920E-02 0.  1.
        2   -1    0    0  501    0  0.00000000000E+00  0.00000000000E+00 -0.11584238183E+04  0.11584238183E+04  0.25500000920E-02 0. -1.
    10030    2    1    2    0    0  0.00000000000E+00  0.00000000000E+00  0.30424247851E+03  0.26210901151E+04  0.26033727942E+04 0.  0.
        3    1    3    3  502    0 -0.10164330403E+04  0.32490467358E+03 -0.59839693696E+03  0.12234288196E+04  0.10100000352E+00 0. -1.
       -3    1    3    3    0  502  0.10164330403E+04 -0.32490467358E+03  0.90263941547E+03  0.13976612955E+04  0.10100000352E+00 0.  1.
</event>
<event>
 5   0  0.2471488E-06  0.2596554E+04  0.7818609E-02  0.8369373E-01
       -1   -1    0    0    0  501  0.00000000000E+00  0.00000000000E+00  0.22732728780E+04  0.22732728780E+04  0.50400001928E-02 0. -1.
        1   -1    0    0  501    0  0.00000000000E+00  0.00000000000E+00 -0.74145195327E+03  0.74145195329E+03  0.50400001928E-02 0.  1.
    10030    2    1    2    0    0  0.00000000000E+00  0.00000000000E+00  0.15318209248E+04  0.30147248313E+04  0.25965535741E+04 0.  0.
        4    1    3    3  502    0  0.19019672563E+03  0.98143295641E+03  0.17276453141E+04  0.19960324112E+04  0.12699999809E+01 0. -1.
       -4    1    3    3    0  502 -0.19019672563E+03 -0.98143295641E+03 -0.19582438938E+03  0.10186924201E+04  0.12699999809E+01 0.  1.
</event>
<event>
 5   0  0.5940748E-06  0.2588971E+04  0.7818609E-02  0.8371957E-01
        2   -1    0    0  501    0  0.00000000000E+00  0.00000000000E+00  0.18929408605E+04  0.18929408605E+04  0.25500000920E-02 0.  1.
       -2   -1    0    0    0  501  0.00000000000E+00  0.00000000000E+00 -0.88523241622E+03  0.88523241622E+03  0.25500000920E-02 0. -1.
    10030    2    1    2    0    0  0.00000000000E+00  0.00000000000E+00  0.10077084443E+04  0.27781732767E+04  0.25889709243E+04 0.  0.
        1    1    3    3  502    0  0.12784327306E+04 -0.15217712393E+03  0.64839970192E+03  0.14415166656E+04  0.50400001928E-02 0. -1.
       -1    1    3    3    0  502 -0.12784327306E+04  0.15217712393E+03  0.35930874235E+03  0.13366566111E+04  0.50400001928E-02 0.  1.
</event>
<event>
 5   0  0.2503292E-06  0.2600278E+04  0.7818609E-02  0.8368107E-01
        1   -1    0    0  501    0  0.00000000000E+00  0.00000000000E+00  0.17826548451E+04  0.17826548451E+04  0.50400001928E-02 0. -1.
       -1   -1    0    0    0  501  0.00000000000E+00  0.00000000000E+00 -0.94822696653E+03  0.94822696654E+03  0.50400001928E-02 0.  1.
    10030    2    1    2    0    0  0.00000000000E+00  0.00000000000E+00  0.83442787855E+03  0.27308818116E+04  0.26002779822E+04 0.  0.
        2    1    3    3  502    0 -0.11335994267E+04  0.33426717128E+03 -0.15182994905E+03  0.11915680994E+04  0.25500000920E-02 0.  1.
       -2    1    3    3    0  502  0.11335994267E+04 -0.33426717128E+03  0.98625782761E+03  0.15393137122E+04  0.25500000920E-02 0. -1.
</event>
<event>
 5   0  0.6161834E-06  0.2596304E+04  0.7818609E-02  0.8369458E-01
       -2   -1    0    0    0  501  0.00000000000E+00  0.00000000000E+00  0.11629871430E+04  0.11629871430E+04  0.25500000920E-02 0.  1.
        2   -1    0    0  501    0  0.00000000000E+00  0.00000000000E+00 -0.14490254503E+04  0.14490254503E+04  0.25500000920E-02 0. -1.
    10030    2    1    2    0    0  0.00000000000E+00  0.00000000000E+00 -0.28603830729E+03  0.26120125934E+04  0.25963035020E+04 0.  0.
        5    1    3    3  502    0 -0.27056985956E+02  0.12490341734E+04 -0.49779633560E+03  0.13448575124E+04  0.46999998093E+01 0. -1.
       -5    1    3    3    0  502  0.27056985956E+02 -0.12490341734E+04  0.21175802831E+03  0.12671550810E+04  0.46999998093E+01 0.  1.
</event>
<event>
 5   0  0.6173140E-06  0.2587619E+04  0.7818609E-02  0.8372419E-01
        2   -1    0    0  501    0  0.00000000000E+00  0.00000000000E+00  0.22407255591E+04  0.22407255591E+04  0.25500000920E-02 0. -1.
       -2   -1    0    0    0  501  0.00000000000E+00  0.00000000000E+00 -0.74705416572E+03  0.74705416572E+03  0.25500000920E-02 0.  1.
    10030    2    1    2    0    0  0.00000000000E+00  0.00000000000E+00  0.14936713933E+04  0.29877797248E+04  0.25876192635E+04 0.  0.
        3    1    3    3  502    0  0.86911519981E+03  0.10157117200E+03  0.18472458527E+04  0.20440144775E+04  0.10100000352E+00 0. -1.
       -3    1    3    3    0  502 -0.86911519981E+03 -0.10157117200E+03 -0.35357445937E+03  0.94376524732E+03  0.10100000352E+00 0.  1.
</event>
<event>
 5   0  0.2503292E-06  0.2607234E+04  0.7818609E-02  0.8365748E-01
       -1   -1    0    0    0  501  0.00000000000E+00  0.00000000000E+00  0.14202373000E+04  0.14202373000E+04  0.50400001928E-02 0. -1.
        1   -1    0    0  501    0  0.00000000000E+00  0.00000000000E+00 -0.11965730722E+04  0.11965730723E+04  0.50400001928E-02 0.  1.
    10030    2    1    2    0    0  0.00000000000E+00  0.00000000000E+00  0.22366422771E+03  0.26168103722E+04  0.26072343273E+04 0.  0.
        2    1    3    3  502    0  0.55060597138E+03 -0.59716288695E+03 -0.91154380588E+03  0.12209351168E+04  0.25500000920E-02 0.  1.
       -2    1    3    3    0  502 -0.55060597138E+03  0.59716288695E+03  0.11352080336E+04  0.13958752555E+04  0.25500000920E-02 0. -1.
</event>
<event>
 5   0  0.2503292E-06  0.2601612E+04  0.7818609E-02  0.8367654E-01
       -1   -1    0    0    0  501  0.00000000000E+00  0.00000000000E+00  0.10037578323E+04  0.10037578323E+04  0.50400001928E-02 0.  1.
        1   -1    0    0  501    0  0.00000000000E+00  0.00000000000E+00 -0.16857615071E+04  0.16857615071E+04  0.50400001928E-02 0. -1.
    10030    2    1    2    0    0  0.00000000000E+00  0.00000000000E+00 -0.68200367477E+03  0.26895193394E+04  0.26016120511E+04 0.  0.
        2    1    3    3  502    0  0.92001601331E+03  0.24772389368E+03 -0.12565330751E+04  0.15769185017E+04  0.25500000920E-02 0. -1.
       -2    1    3    3    0  502 -0.92001601331E+03 -0.24772389368E+03  0.57452940030E+03  0.11126008377E+04  0.25500000920E-02 0.  1.
</event>
<event>
 5   0  0.2456600E-06  0.2591623E+04  0.7818609E-02  0.8371052E-01
        1   -1    0    0  501    0  0.00000000000E+00  0.00000000000E+00  0.78567045016E+03  0.78567045018E+03  0.50400001928E-02 0. -1.
       -1   -1    0    0    0  501  0.00000000000E+00  0.00000000000E+00 -0.21371909695E+04  0.21371909695E+04  0.50400001928E-02 0.  1.
    10030    2    1    2    0    0  0.00000000000E+00  0.00000000000E+00 -0.13515205193E+04  0.29228614196E+04  0.25916232682E+04 0.  0.
        5    1    3    3  502    0  0.15942051135E+03 -0.65612084485E+02  0.77266966024E+03  0.79168196829E+03  0.46999998093E+01 0. -1.
       -5    1    3    3    0  502 -0.15942051135E+03  0.65612084485E+02 -0.21241901795E+04  0.21311794514E+04  0.46999998093E+01 0.  1.
</event>
<event>
 5   0  0.6158063E-06  0.2595959E+04  0.7818609E-02  0.8369575E-01
        2   -1    0    0  501    0  0.00000000000E+00  0.00000000000E+00  0.13984692159E+04  0.13984692159E+04  0.25500000920E-02 0.  1.
       -2   -1    0    0    0  501  0.00000000000E+00  0.00000000000E+00 -0.12047105266E+04  0.12047105266E+04  0.25500000920E-02 0. -1.
    10030    2    1    2    0    0  0.00000000000E+00  0.00000000000E+00  0.19375868930E+03  0.26031797425E+04  0.25959588483E+04 0.  0.
        2    1    3    3  502    0  0.61335306250E+03 -0.11276067938E+04  0.28990249312E+03  0.13159568824E+04  0.25500000920E-02 0.  1.
       -2    1    3    3    0  502 -0.61335306250E+03  0.11276067938E+04 -0.96143803827E+02  0.12872228602E+04  0.25500000920E-02 0. -1.
</event>
<event>
 5   0  0.6158063E-06  0.2608793E+04  0.7818609E-02  0.8365221E-01
       -2   -1    0    0    0  501  0.00000000000E+00  0.00000000000E+00  0.96397465164E+03  0.96397465165E+03  0.25500000920E-02 0.  1.
        2   -1    0    0  501    0  0.00000000000E+00  0.00000000000E+00 -0.17650363545E+04  0.17650363545E+04  0.25500000920E-02 0. -1.
    10030    2    1    2    0    0  0.00000000000E+00  0.00000000000E+00 -0.80106170284E+03  0.27290110061E+04  0.26087930581E+04 0.  0.
        2    1    3    3  502    0  0.34970443562E+03  0.24487997765E+02  0.91377321995E+03  0.97871055570E+03  0.25500000920E-02 0.  1.
       -2    1    3    3    0  502 -0.34970443562E+03 -0.24487997765E+02 -0.17148349228E+04  0.17503004504E+04  0.25500000920E-02 0. -1.
</event>
<event>
 5   0  0.2333979E-06  0.2599640E+04  0.7818609E-02  0.8368324E-01
       -1   -1    0    0    0  501  0.00000000000E+00  0.00000000000E+00  0.96002014937E+03  0.96002014938E+03  0.50400001928E-02 0. -1.
        1   -1    0    0  501    0  0.00000000000E+00  0.00000000000E+00 -0.17598915915E+04  0.17598915915E+04  0.50400001928E-02 0.  1.
    10030    2    1    2    0    0  0.00000000000E+00  0.00000000000E+00 -0.79987144213E+03  0.27199117409E+04  0.25996395047E+04 0.  0.
        3    1    3    3  502    0  0.10926026050E+04  0.11671035775E+03 -0.11264155991E+04  0.15735990189E+04  0.10100000352E+00 0.  1.
       -3    1    3    3    0  502 -0.10926026050E+04 -0.11671035775E+03  0.32654415695E+03  0.11463127220E+04  0.10100000352E+00 0. -1.
</event>
<event>
 5   0  0.5942229E-06  0.2605139E+04  0.7818609E-02  0.8366458E-01
       -2   -1    0    0    0  501  0.00000000000E+00  0.00000000000E+00  0.99982369288E+03  0.99982369288E+03  0.25500000920E-02 0.  1.
        2   -1    0    0  501    0  0.00000000000E+00  0.00000000000E+00 -0.16969867826E+04  0.16969867826E+04  0.25500000920E-02 0. -1.
    10030    2    1    2    0    0  0.00000000000E+00  0.00000000000E+00 -0.69716308973E+03  0.26968104755E+04  0.26051392222E+04 0.  0.
        4    1    3    3  502    0 -0.84353545164E+03 -0.84220034293E+03 -0.89226010770E+03  0.14889537228E+04  0.12699999809E+01 0. -1.
       -4    1    3    3    0  502  0.84353545164E+03  0.84220034293E+03  0.19509701797E+03  0.12078567527E+04  0.12699999809E+01 0.  1.
</event>
<event>
 5   0  0.2440590E-06  0.2737156E+04  0.7818609E-02  0.8323049E-01
       -1   -1    0    0    0  501  0.00000000000E+00  0.00000000000E+00  0.15058844112E+04  0.15058844113E+04  0.50400001928E-02 0. -1.
        1   -1    0    0  501    0  0.00000000000E+00  0.00000000000E+00 -0.12437914934E+04  0.12437914934E+04  0.50400001928E-02 0.  1.
    10030    2    1    2    0    0  0.00000000000E+00  0.00000000000E+00  0.26209291789E+03  0.27496759046E+04  0.27371563497E+04 0.  0.
        1    1    3    3  502    0 -0.58444082668E+03  0.12131352759E+04  0.37657785595E+03  0.13982414524E+04  0.50400001928E-02 0. -1.
       -1    1    3    3    0  502  0.58444082668E+03 -0.12131352759E+04 -0.11448493806E+03  0.13514344522E+04  0.50400001928E-02 0.  1.
</event>
<event>
 5   0  0.6158063E-06  0.2601749E+04  0.7818609E-02  0.8367608E-01
       -2   -1    0    0    0  501  0.00000000000E+00  0.00000000000E+00  0.12647476899E+04  0.12647476899E+04  0.25500000920E-02 0.  1.
        2   -1    0    0  501    0  0.00000000000E+00  0.00000000000E+00 -0.13380327745E+04  0.13380327745E+04  0.25500000920E-02 0. -1.
    10030    2    1    2    0    0  0.00000000000E+00  0.00000000000E+00 -0.73285084536E+02  0.26027804644E+04  0.26017485356E+04 0.  0.
        2    1    3    3  502    0 -0.11642499281E+04 -0.28042715852E+02  0.54325069508E+03  0.12850624914E+04  0.25500000920E-02 0.  1.
       -2    1    3    3    0  502  0.11642499281E+04  0.28042715852E+02 -0.61653577961E+03  0.13177179731E+04  0.25500000920E-02 0. -1.
</event>
<event>
 5   0  0.2333979E-06  0.2568673E+04  0.7818609E-02  0.8378921E-01
       -1   -1    0    0    0  501  0.00000000000E+00  0.00000000000E+00  0.17921168663E+04  0.17921168663E+04  0.50400001928E-02 0.  1.
        1   -1    0    0  501    0  0.00000000000E+00  0.00000000000E+00 -0.92043106263E+03  0.92043106264E+03  0.50400001928E-02 0. -1.
    10030    2    1    2    0    0  0.00000000000E+00  0.00000000000E+00  0.87168580365E+03  0.27125479289E+04  0.25686728337E+04 0.  0.
        3    1    3    3  502    0  0.30244559775E+03 -0.96169623474E+03 -0.40445762240E+03  0.10862407496E+04  0.10100000352E+00 0. -1.
       -3    1    3    3    0  502 -0.30244559775E+03  0.96169623474E+03  0.12761434261E+04  0.16263071793E+04  0.10100000352E+00 0.  1.
</event>
<event>
 5   0  0.5940748E-06  0.2602834E+04  0.7818609E-02  0.8367239E-01
       -2   -1    0    0    0  501  0.00000000000E+00  0.00000000000E+00  0.75631102703E+03  0.75631102704E+03  0.25500000920E-02 0.  1.
        2   -1    0    0  501    0  0.00000000000E+00  0.00000000000E+00 -0.22394041939E+04  0.22394041939E+04  0.25500000920E-02 0. -1.
    10030    2    1    2    0    0  0.00000000000E+00  0.00000000000E+00 -0.14830931668E+04  0.29957152209E+04  0.26028339062E+04 0.  0.
        1    1    3    3  502    0 -0.17685144226E+03  0.63517488704E+03  0.54985248982E+03  0.85852276053E+03  0.50400001928E-02 0.  1.
       -1    1    3    3    0  502  0.17685144226E+03 -0.63517488704E+03 -0.20329456567E+04  0.21371924604E+04  0.50400001928E-02 0. -1.
</event>
<event>
 5   0  0.6161834E-06  0.2602170E+04  0.7818609E-02  0.8367464E-01
       -2   -1    0    0    0  501  0.00000000000E+00  0.00000000000E+00  0.82362107784E+03  0.82362107785E+03  0.25500000920E-02 0. -1.
        2   -1    0    0  501    0  0.00000000000E+00  0.00000000000E+00 -0.20553409046E+04  0.20553409046E+04  0.25500000920E-02 0.  1.
    10030    2    1    2    0    0  0.00000000000E+00  0.00000000000E+00 -0.12317198267E+04  0.28789619824E+04  0.26021699338E+04 0.  0.
        5    1    3    3  502    0 -0.33137065974E+03 -0.91975717570E+03  0.33397006068E+03  0.10331107723E+04  0.46999998093E+01 0. -1.
       -5    1    3    3    0  502  0.33137065974E+03  0.91975717570E+03 -0.15656898874E+04  0.18458512101E+04  0.46999998093E+01 0.  1.
</event>
<event>
 5   0  0.2440590E-06  0.2600117E+04  0.7818609E-02  0.8368162E-01
        1   -1    0    0  501    0  0.00000000000E+00  0.00000000000E+00  0.20072188735E+04  0.20072188735E+04  0.50400001928E-02 0. -1.
       -1   -1    0    0    0  501  0.00000000000E+00  0.00000000000E+00 -0.84203666546E+03  0.84203666548E+03  0.50400001928E-02 0.  1.
    10030    2    1    2    0    0  0.00000000000E+00  0.00000000000E+00  0.11651822080E+04  0.28492555390E+04  0.26001168336E+04 0.  0.
        1    1    3    3  502    0 -0.10500070353E+04 -0.24172035514E+03  0.13797628464E+04  0.17506253216E+04  0.50400001928E-02 0. -1.
       -1    1    3    3    0  502  0.10500070353E+04  0.24172035514E+03 -0.21458063837E+03  0.10986302174E+04  0.50400001928E-02 0.  1.
</event>
<event>
 5   0  0.2471488E-06  0.2600160E+04  0.7818609E-02  0.8368147E-01
        1   -1    0    0  501    0  0.00000000000E+00  0.00000000000E+00  0.18980316712E+04  0.18980316712E+04  0.50400001928E-02 0. -1.
       -1   -1    0    0    0  501  0.00000000000E+00  0.00000000000E+00 -0.89050590200E+03  0.89050590202E+03  0.50400001928E-02 0.  1.
    10030    2    1    2    0    0  0.00000000000E+00  0.00000000000E+00  0.10075257692E+04  0.27885375733E+04  0.26001603069E+04 0.  0.
        4    1    3    3  502    0  0.70963356834E+03  0.64066389071E+03 -0.44107369085E+03  0.10528901347E+04  0.12699999809E+01 0.  1.
       -4    1    3    3    0  502 -0.70963356834E+03 -0.64066389071E+03  0.14485994601E+04  0.17356474385E+04  0.12699999809E+01 0. -1.
</event>
<event>
 5   0  0.2471488E-06  0.2604491E+04  0.7818609E-02  0.8366677E-01
       -1   -1    0    0    0  501  0.00000000000E+00  0.00000000000E+00  0.96376610444E+03  0.96376610445E+03  0.50400001928E-02 0.  1.
        1   -1    0    0  501    0  0.00000000000E+00  0.00000000000E+00 -0.17596001792E+04  0.17596001792E+04  0.50400001928E-02 0. -1.
    10030    2    1    2    0    0  0.00000000000E+00  0.00000000000E+00 -0.79583407474E+03  0.27233662836E+04  0.26044907449E+04 0.  0.
        4    1    3    3  502    0  0.22610920813E+03  0.12789262116E+04 -0.29836786845E+03  0.13325924458E+04  0.12699999809E+01 0.  1.
       -4    1    3    3    0  502 -0.22610920813E+03 -0.12789262116E+04 -0.49746620628E+03  0.13907738378E+04  0.12699999809E+01 0. -1.
</event>
<event>
 5   0  0.6158063E-06  0.2609722E+04  0.7818609E-02  0.8364906E-01
       -2   -1    0    0    0  501  0.00000000000E+00  0.00000000000E+00  0.86210770990E+03  0.86210770991E+03  0.25500000920E-02 0.  1.
        2   -1    0    0  501    0  0.00000000000E+00  0.00000000000E+00 -0.19749989792E+04  0.19749989792E+04  0.25500000920E-02 0. -1.
    10030    2    1    2    0    0  0.00000000000E+00  0.00000000000E+00 -0.11128912693E+04  0.28371066891E+04  0.26097217070E+04 0.  0.
        2    1    3    3  502    0 -0.10913046813E+04  0.53030793981E+03 -0.10783692833E+04  0.16232845498E+04  0.25500000920E-02 0. -1.
       -2    1    3    3    0  502  0.10913046813E+04 -0.53030793981E+03 -0.34521985958E+02  0.12138221393E+04  0.25500000920E-02 0.  1.
</event>
<event>
 5   0  0.6158063E-06  0.2596341E+04  0.7818609E-02  0.8369445E-01
        2   -1    0    0  501    0  0.00000000000E+00  0.00000000000E+00  0.20658353608E+04  0.20658353608E+04  0.25500000920E-02 0.  1.
       -2   -1    0    0    0  501  0.00000000000E+00  0.00000000000E+00 -0.81576999341E+03  0.81576999342E+03  0.25500000920E-02 0. -1.
    10030    2    1    2    0    0  0.00000000000E+00  0.00000000000E+00  0.12500653674E+04  0.28816053542E+04  0.25963408857E+04 0.  0.
        2    1    3    3  502    0  0.88793609248E+03  0.92408096929E+03  0.39517839136E+03  0.13410898938E+04  0.25500000920E-02 0.  1.
       -2    1    3    3    0  502 -0.88793609248E+03 -0.92408096929E+03  0.85488697601E+03  0.15405154604E+04  0.25500000920E-02 0. -1.
</event>
<event>
 5   0  0.5942229E-06  0.2638490E+04  0.7818609E-02  0.8355243E-01
       -2   -1    0    0    0  501  0.00000000000E+00  0.00000000000E+00  0.10744138002E+04  0.10744138003E+04  0.25500000920E-02 0. -1.
        2   -1    0    0  501    0  0.00000000000E+00  0.00000000000E+00 -0.16198666945E+04  0.16198666945E+04  0.25500000920E-02 0.  1.
    10030    2    1    2    0    0  0.00000000000E+00  0.00000000000E+00 -0.54545289429E+03  0.26942804948E+04  0.26384898190E+04 0.  0.
        4    1    3    3  502    0 -0.10914241634E+04  0.44871864189E+03 -0.87498591257E+03  0.14690667391E+04  0.12699999809E+01 0.  1.
       -4    1    3    3    0  502  0.10914241634E+04 -0.44871864189E+03  0.32953301828E+03  0.12252137556E+04  0.12699999809E+01 0. -1.
</event>
<event>
 5   0  0.6161834E-06  0.2603754E+04  0.7818609E-02  0.8366927E-01
        2   -1    0    0  501    0  0.00000000000E+00  0.00000000000E+00  0.16013883892E+04  0.16013883892E+04  0.25500000920E-02 0. -1.
       -2   -1    0    0    0  501  0.00000000000E+00  0.00000000000E+00 -0.10583840111E+04  0.10583840111E+04  0.25500000920E-02 0.  1.
    10030    2    1    2    0    0  0.00000000000E+00  0.00000000000E+00  0.54300437815E+03  0.26597724003E+04  0.26037541103E+04 0.  0.
        5    1    3    3  502    0  0.58224183583E+02  0.30584442626E+03 -0.10197869708E+04  0.10662637687E+04  0.46999998093E+01 0.  1.
       -5    1    3    3    0  502 -0.58224183583E+02 -0.30584442626E+03  0.15627913490E+04  0.15935086316E+04  0.46999998093E+01 0. -1.
</event>
<event>
 5   0  0.6158063E-06  0.2603955E+04  0.7818609E-02  0.8366859E-01
        2   -1    0    0  501    0  0.00000000000E+00  0.00000000000E+00  0.13722211465E+04  0.13722211465E+04  0.25500000920E-02 0. -1.
       -2   -1    0    0    0  501  0.00000000000E+00  0.00000000000E+00 -0.12353298156E+04  0.12353298156E+04  0.25500000920E-02 0.  1.
    10030    2    1    2    0    0  0.00000000000E+00  0.00000000000E+00  0.13689133094E+03  0.26075509620E+04  0.26039552191E+04 0.  0.
        2    1    3    3  502    0 -0.11948264495E+04 -0.45839484386E+03 -0.17148824058E+03  0.12911794197E+04  0.25500000920E-02 0.  1.
       -2    1    3    3    0  502  0.11948264495E+04  0.45839484386E+03  0.30837957152E+03  0.13163715423E+04  0.25500000920E-02 0. -1.
</event>
<event>
 5   0  0.5940748E-06  0.2469551E+04  0.7818609E-02  0.8413914E-01
        2   -1    0    0  501    0  0.00000000000E+00  0.00000000000E+00  0.22540227150E+04  0.22540227150E+04  0.25500000920E-02 0.  1.
       -2   -1    0    0    0  501  0.00000000000E+00  0.00000000000E+00 -0.67642181028E+03  0.67642181029E+03  0.25500000920E-02 0. -1.
    10030    2    1    2    0    0  0.00000000000E+00  0.00000000000E+00  0.15776009047E+04  0.29304445253E+04  0.24695506679E+04 0.  0.
        1    1    3    3  502    0 -0.51265153807E+03  0.26669542686E+03 -0.50605887528E+03  0.76813646930E+03  0.50400001928E-02 0. -1.
       -1    1    3    3    0  502  0.51265153807E+03 -0.26669542686E+03  0.20836597800E+04  0.21623080560E+04  0.50400001928E-02 0.  1.
</event>
<event>
 5   0  0.5942229E-06  0.2615927E+04  0.7818609E-02  0.8362811E-01
        2   -1    0    0  501    0  0.00000000000E+00  0.00000000000E+00  0.19214822691E+04  0.19214822691E+04  0.25500000920E-02 0.  1.
       -2   -1    0    0    0  501  0.00000000000E+00  0.00000000000E+00 -0.89033811005E+03  0.89033811006E+03  0.25500000920E-02 0. -1.
    10030    2    1    2    0    0  0.00000000000E+00  0.00000000000E+00  0.10311441590E+04  0.28118203791E+04  0.26159272864E+04 0.  0.
        4    1    3    3  502    0  0.40552118581E+03  0.12390977694E+04  0.62808414877E+03  0.14471703511E+04  0.12699999809E+01 0. -1.
       -4    1    3    3    0  502 -0.40552118581E+03 -0.12390977694E+04  0.40306001026E+03  0.13646500280E+04  0.12699999809E+01 0.  1.
</event>
<event>
 5   0  0.5942229E-06  0.2603808E+04  0.7818609E-02  0.8366909E-01
       -2   -1    0    0    0  501  0.00000000000E+00  0.00000000000E+00  0.59782720085E+03  0.59782720085E+03  0.25500000920E-02 0. -1.
        2   -1    0    0  501    0  0.00000000000E+00  0.00000000000E+00 -0.28351909804E+04  0.28351909804E+04  0.25500000920E-02 0.  1.
    10030    2    1    2    0    0  0.00000000000E+00  0.00000000000E+00 -0.22373637795E+04  0.34330181812E+04  0.26038082016E+04 0.  0.
        4    1    3    3  502    0 -0.69299373903E+03 -0.41947240830E+02  0.33339314979E+03  0.77016394266E+03  0.12699999809E+01 0. -1.
       -4    1    3    3    0  502  0.69299373903E+03  0.41947240830E+02 -0.25707569293E+04  0.26628542386E+04  0.12699999809E+01 0.  1.
</event>
<event>
 5   0  0.6161834E-06  0.2602555E+04  0.7818609E-02  0.8367334E-01
       -2   -1    0    0    0  501  0.00000000000E+00  0.00000000000E+00  0.11105475806E+04  0.11105475806E+04  0.25500000920E-02 0.  1.
        2   -1    0    0  501    0  0.00000000000E+00  0.00000000000E+00 -0.15247646342E+04  0.15247646342E+04  0.25500000920E-02 0. -1.
    10030    2    1    2    0    0  0.00000000000E+00  0.00000000000E+00 -0.41421705363E+03  0.26353122148E+04  0.26025554176E+04 0.  0.
        5    1    3    3  502    0  0.48211169229E+03  0.83039628185E+03 -0.10964061051E+04  0.14574354552E+04  0.46999998093E+01 0. -1.
       -5    1    3    3    0  502 -0.48211169229E+03 -0.83039628185E+03  0.68218905151E+03  0.11778767596E+04  0.46999998093E+01 0.  1.
</event>
<event>
 5   0  0.2471488E-06  0.2538480E+04  0.7818609E-02  0.8389404E-01
       -1   -1    0    0    0  501  0.00000000000E+00  0.00000000000E+00  0.10779880585E+04  0.10779880585E+04  0.50400001928E-02 0. -1.
        1   -1    0    0  501    0  0.00000000000E+00  0.00000000000E+00 -0.14944232261E+04  0.14944232261E+04  0.50400001928E-02 0.  1.
    10030    2    1    2    0    0  0.00000000000E+00  0.00000000000E+00 -0.41643516768E+03  0.25724112846E+04  0.25384801690E+04 0.  0.
        4    1    3    3  502    0 -0.67945785663E+03  0.29361893523E+03 -0.12530638803E+04  0.14553507340E+04  0.12699999809E+01 0.  1.
       -4    1    3    3    0  502  0.67945785663E+03 -0.29361893523E+03  0.83662871259E+03  0.11170605506E+04  0.12699999809E+01 0. -1.
</event>
<event>
 5   0  0.6161834E-06  0.2631889E+04  0.7818609E-02  0.8357449E-01
        2   -1    0    0  501    0  0.00000000000E+00  0.00000000000E+00  0.86748153084E+03  0.86748153085E+03  0.25500000920E-02 0.  1.
       -2   -1    0    0    0  501  0.00000000000E+00  0.00000000000E+00 -0.19962503069E+04  0.19962503069E+04  0.25500000920E-02 0. -1.
    10030    2    1    2    0    0  0.00000000000E+00  0.00000000000E+00 -0.11287687761E+04  0.28637318377E+04  0.26318892622E+04 0.  0.
        5    1    3    3  502    0 -0.61877232144E+03  0.34885083950E+03 -0.17697168491E+04  0.19069598606E+04  0.46999998093E+01 0. -1.
       -5    1    3    3    0  502  0.61877232144E+03 -0.34885083950E+03  0.64094807301E+03  0.95677197717E+03  0.46999998093E+01 0.  1.
</event>
<event>
 5   0  0.6173140E-06  0.2601818E+04  0.7818609E-02  0.8367584E-01
        2   -1    0    0  501    0  0.00000000000E+00  0.00000000000E+00  0.14102954118E+04  0.14102954118E+04  0.25500000920E-02 0. -1.
       -2   -1    0    0    0  501  0.00000000000E+00  0.00000000000E+00 -0.12000065966E+04  0.12000065966E+04  0.25500000920E-02 0.  1.
    10030    2    1    2    0    0  0.00000000000E+00  0.00000000000E+00  0.21028881524E+03  0.26103020084E+04  0.26018176703E+04 0.  0.
        3    1    3    3  502    0  0.84381387591E+03 -0.75717404102E+02  0.10955864429E+04  0.13849421094E+04  0.10100000352E+00 0. -1.
       -3    1    3    3    0  502 -0.84381387591E+03  0.75717404102E+02 -0.88529762761E+03  0.12253598990E+04  0.10100000352E+00 0.  1.
</event>
<event>
 5   0  0.2072125E-06  0.2603638E+04  0.7818609E-02  0.8366967E-01
        4   -1    0    0  501    0  0.00000000000E+00  0.00000000000E+00  0.13641303562E+04  0.13641309474E+04  0.12699999809E+01 0. -1.
       -4   -1    0    0    0  501  0.00000000000E+00  0.00000000000E+00 -0.12423524772E+04  0.12423531263E+04  0.12699999809E+01 0.  1.
    10030    2    1    2    0    0  0.00000000000E+00  0.00000000000E+00  0.12177787899E+03  0.26064840737E+04  0.26036377195E+04 0.  0.
        2    1    3    3  502    0  0.83783482805E+03  0.69111041779E+03  0.77940021769E+03  0.13368116950E+04  0.25500000920E-02 0. -1.
       -2    1    3    3    0  502 -0.83783482805E+03 -0.69111041779E+03 -0.65762233870E+03  0.12696723786E+04  0.25500000920E-02 0.  1.
</event>
<event>
 5   0  0.2440590E-06  0.2582087E+04  0.7818609E-02  0.8374312E-01
        1   -1    0    0  501    0  0.00000000000E+00  0.00000000000E+00  0.13215344662E+04  0.13215344663E+04  0.50400001928E-02 0.  1.
       -1   -1    0    0    0  501  0.00000000000E+00  0.00000000000E+00 -0.12612556964E+04  0.12612556964E+04  0.50400001928E-02 0. -1.
    10030    2    1    2    0    0  0.00000000000E+00  0.00000000000E+00  0.60278769851E+02  0.25827901627E+04  0.25820866551E+04 0.  0.
        1    1    3    3  502    0 -0.21313094428E+03 -0.22159640338E+03  0.12843801804E+04  0.13206673363E+04  0.50400001928E-02 0.  1.
       -1    1    3    3    0  502  0.21313094428E+03  0.22159640338E+03 -0.12241014106E+04  0.12621228263E+04  0.50400001928E-02 0. -1.
</event>
<event>
 5   0  0.2456600E-06  0.2592689E+04  0.7818609E-02  0.8370689E-01
       -1   -1    0    0    0  501  0.00000000000E+00  0.00000000000E+00  0.78251744026E+03  0.78251744028E+03  0.50400001928E-02 0. -1.
        1   -1    0    0  501    0  0.00000000000E+00  0.00000000000E+00 -0.21475673074E+04  0.21475673074E+04  0.50400001928E-02 0.  1.
    10030    2    1    2    0    0  0.00000000000E+00  0.00000000000E+00 -0.13650498672E+04  0.29300847477E+04  0.25926888531E+04 0.  0.
        5    1    3    3  502    0  0.11239586369E+04  0.62088573044E+03 -0.48129553411E+03  0.13712948585E+04  0.46999998093E+01 0.  1.
       -5    1    3    3    0  502 -0.11239586369E+04 -0.62088573044E+03 -0.88375433304E+03  0.15587898893E+04  0.46999998093E+01 0. -1.
</event>
<event>
 5   0  0.2456600E-06  0.2604138E+04  0.7818609E-02  0.8366797E-01
        1   -1    0    0  501    0  0.00000000000E+00  0.00000000000E+00  0.10259547187E+04  0.10259547187E+04  0.50400001928E-02 0. -1.
       -1   -1    0    0    0  501  0.00000000000E+00  0.00000000000E+00 -0.16524935972E+04  0.16524935972E+04  0.50400001928E-02 0.  1.
    10030    2    1    2    0    0  0.00000000000E+00  0.00000000000E+00 -0.62653887849E+03  0.26784483159E+04  0.26041379408E+04 0.  0.
        5    1    3    3  502    0  0.86479189473E+02 -0.10508891534E+04 -0.10989486146E+04  0.15230091302E+04  0.46999998093E+01 0.  1.
       -5    1    3    3    0  502 -0.86479189473E+02  0.10508891534E+04  0.47240973615E+03  0.11554391857E+04  0.46999998093E+01 0. -1.
</event>
<event>
 5   0  0.5940748E-06  0.2601543E+04  0.7818609E-02  0.8367677E-01
        2   -1    0    0  501    0  0.00000000000E+00  0.00000000000E+00  0.19947158805E+04  0.19947158805E+04  0.25500000920E-02 0.  1.
       -2   -1    0    0    0  501  0.00000000000E+00  0.00000000000E+00 -0.84824441885E+03  0.84824441885E+03  0.25500000920E-02 0. -1.
    10030    2    1    2    0    0  0.00000000000E+00  0.00000000000E+00  0.11464714616E+04  0.28429602993E+04  0.26015430904E+04 0.  0.
        1    1    3    3  502    0 -0.77222342671E+03  0.10255606190E+04  0.34426133939E+03  0.13291423828E+04  0.50400001928E-02 0. -1.
       -1    1    3    3    0  502  0.77222342671E+03 -0.10255606190E+04  0.80221012222E+03  0.15138179165E+04  0.50400001928E-02 0.  1.
</event>
<event>
 5   0  0.5940748E-06  0.2611494E+04  0.7818609E-02  0.8364307E-01
       -2   -1    0    0    0  501  0.00000000000E+00  0.00000000000E+00  0.63821846678E+03  0.63821846678E+03  0.25500000920E-02 0.  1.
        2   -1    0    0  501    0  0.00000000000E+00  0.00000000000E+00 -0.26714599017E+04  0.26714599017E+04  0.25500000920E-02 0. -1.
    10030    2    1    2    0    0  0.00000000000E+00  0.00000000000E+00 -0.20332414349E+04  0.33096783685E+04  0.26114938580E+04 0.  0.
        1    1    3    3  502    0 -0.80833160341E+03  0.73770114679E+03 -0.19193552687E+04  0.22094179348E+04  0.50400001928E-02 0. -1.
       -1    1    3    3    0  502  0.80833160341E+03 -0.73770114679E+03 -0.11388616621E+03  0.11002604337E+04  0.50400001928E-02 0.  1.
</event>
<event>
 5   0  0.2471488E-06  0.2607316E+04  0.7818609E-02  0.8365720E-01
       -1   -1    0    0    0  501  0.00000000000E+00  0.00000000000E+00  0.10532854126E+04  0.10532854126E+04  0.50400001928E-02 0.  1.
        1   -1    0    0  501    0  0.00000000000E+00  0.00000000000E+00 -0.16135463113E+04  0.16135463113E+04  0.50400001928E-02 0. -1.
    10030    2    1    2    0    0  0.00000000000E+00  0.00000000000E+00 -0.56026089872E+03  0.26668317240E+04  0.26073164689E+04 0.  0.
        4    1    3    3  502    0  0.94748834998E+03 -0.56629828920E+03  0.42931237609E+03  0.11843726841E+04  0.12699999809E+01 0.  1.
       -4    1    3    3    0  502 -0.94748834998E+03  0.56629828920E+03 -0.98957327481E+03  0.14824590398E+04  0.12699999809E+01 0. -1.
</event>
<event>
 5   0  0.6158063E-06  0.2565157E+04  0.7818609E-02  0.8380134E-01
        2   -1    0    0  501    0  0.00000000000E+00  0.00000000000E+00  0.13104912017E+04  0.13104912017E+04  0.25500000920E-02 0. -1.
       -2   -1    0    0    0  501  0.00000000000E+00  0.00000000000E+00 -0.12552607086E+04  0.12552607086E+04  0.25500000920E-02 0.  1.
    10030    2    1    2    0    0  0.00000000000E+00  0.00000000000E+00  0.55230493012E+02  0.25657519103E+04  0.25651573944E+04 0.  0.
        2    1    3    3  502    0  0.63054644473E+03  0.60822948609E+03 -0.90933884679E+03  0.12627070385E+04  0.25500000920E-02 0.  1.
       -2    1    3    3    0  502 -0.63054644473E+03 -0.60822948609E+03  0.96456933980E+03  0.13030448718E+04  0.25500000920E-02 0. -1.
</event>
<event>
 5   0  0.2072125E-06  0.2579751E+04  0.7818609E-02  0.8375112E-01
       -3   -1    0    0    0  501  0.00000000000E+00  0.00000000000E+00  0.71894777082E+03  0.71894777792E+03  0.10100000352E+00 0.  1.
        3   -1    0    0  501    0  0.00000000000E+00  0.00000000000E+00 -0.23141854545E+04  0.23141854567E+04  0.10100000352E+00 0. -1.
    10030    2    1    2    0    0  0.00000000000E+00  0.00000000000E+00 -0.15952376837E+04  0.30331332346E+04  0.25797507538E+04 0.  0.
        4    1    3    3  502    0 -0.12066992696E+04  0.29271306237E+03 -0.38699396577E+03  0.13006037085E+04  0.12699999809E+01 0. -1.
       -4    1    3    3    0  502  0.12066992696E+04 -0.29271306237E+03 -0.12082437179E+04  0.17325295261E+04  0.12699999809E+01 0.  1.
</event>
<event>
 5   0  0.6161834E-06  0.2602073E+04  0.7818609E-02  0.8367497E-01
        2   -1    0    0  501    0  0.00000000000E+00  0.00000000000E+00  0.88756059185E+03  0.88756059185E+03  0.25500000920E-02 0. -1.
       -2   -1    0    0    0  501  0.00000000000E+00  0.00000000000E+00 -0.19071334739E+04  0.19071334739E+04  0.25500000920E-02 0.  1.
    10030    2    1    2    0    0  0.00000000000E+00  0.00000000000E+00 -0.10195728820E+04  0.27946940657E+04  0.26020734154E+04 0.  0.
        5    1    3    3  502    0 -0.68481474613E+03 -0.63204719865E+02 -0.16959449424E+04  0.18300867222E+04  0.46999998093E+01 0.  1.
       -5    1    3    3    0  502  0.68481474613E+03  0.63204719865E+02  0.67637206037E+03  0.96460734353E+03  0.46999998093E+01 0. -1.
</event>
<event>
 5   0  0.6161834E-06  0.2599456E+04  0.7818609E-02  0.8368386E-01
       -2   -1    0    0    0  501  0.00000000000E+00  0.00000000000E+00  0.12846953175E+04  0.12846953175E+04  0.25500000920E-02 0.  1.
        2   -1    0    0  501    0  0.00000000000E+00  0.00000000000E+00 -0.13149361178E+04  0.13149361178E+04  0.25500000920E-02 0. -1.
    10030    2    1    2    0    0  0.00000000000E+00  0.00000000000E+00 -0.30240800309E+02  0.25996314354E+04  0.25994555379E+04 0.  0.
        5    1    3    3  502    0 -0.15193470715E+02 -0.34454404992E+03  0.12380919784E+04  0.12852374414E+04  0.46999998093E+01 0.  1.
       -5    1    3    3    0  502  0.15193470715E+02  0.34454404992E+03 -0.12683327787E+04  0.13143939940E+04  0.46999998093E+01 0. -1.
</event>
<event>
 5   0  0.2440590E-06  0.2604779E+04  0.7818609E-02  0.8366580E-01
       -1   -1    0    0    0  501  0.00000000000E+00  0.00000000000E+00  0.75928511108E+03  0.75928511110E+03  0.50400001928E-02 0. -1.
        1   -1    0    0  501    0  0.00000000000E+00  0.00000000000E+00 -0.22339672641E+04  0.22339672641E+04  0.50400001928E-02 0.  1.
    10030    2    1    2    0    0  0.00000000000E+00  0.00000000000E+00 -0.14746821530E+04  0.29932523752E+04  0.26047787486E+04 0.  0.
        1    1    3    3  502    0  0.26539511637E+03  0.40426386620E+03 -0.21269698254E+04  0.21812529609E+04  0.50400001928E-02 0.  1.
       -1    1    3    3    0  502 -0.26539511637E+03 -0.40426386620E+03  0.65228767236E+03  0.81199941431E+03  0.50400001928E-02 0. -1.
</event>
<event>
 5   0  0.2471488E-06  0.2598971E+04  0.7818609E-02  0.8368551E-01
        1   -1    0    0  501    0  0.00000000000E+00  0.00000000000E+00  0.58459707457E+03  0.58459707460E+03  0.50400001928E-02 0. -1.
       -1   -1    0    0    0  501  0.00000000000E+00  0.00000000000E+00 -0.28885920523E+04  0.28885920523E+04  0.50400001928E-02 0.  1.
    10030    2    1    2    0    0  0.00000000000E+00  0.00000000000E+00 -0.23039949777E+04  0.34731891269E+04  0.25989709221E+04 0.  0.
        4    1    3    3  502    0  0.47163621198E+03 -0.12480295632E+03  0.45756368947E+03  0.66886668117E+03  0.12699999809E+01 0. -1.
       -4    1    3    3    0  502 -0.47163621198E+03  0.12480295632E+03 -0.27615586672E+04  0.28043224457E+04  0.12699999809E+01 0.  1.
</event>
<event>
 5   0  0.6173140E-06  0.2593094E+04  0.7818609E-02  0.8370551E-01
       -2   -1    0    0    0  501  0.00000000000E+00  0.00000000000E+00  0.10593791176E+04  0.10593791176E+04  0.25500000920E-02 0.  1.
        2   -1    0    0  501    0  0.00000000000E+00  0.00000000000E+00 -0.15868101034E+04  0.15868101034E+04  0.25500000920E-02 0. -1.
    10030    2    1    2    0    0  0.00000000000E+00  0.00000000000E+00 -0.52743098573E+03  0.26461892210E+04  0.25930935094E+04 0.  0.
        3    1    3    3  502    0 -0.12000411022E+04 -0.24675923990E+03  0.16928949373E+03  0.12367892756E+04  0.10100000352E+00 0.  1.
       -3    1    3    3    0  502  0.12000411022E+04  0.24675923990E+03 -0.69672047946E+03  0.14093999454E+04  0.10100000352E+00 0. -1.
</event>
<event>
 5   0  0.5940748E-06  0.2590207E+04  0.7818609E-02  0.8371535E-01
       -2   -1    0    0    0  501  0.00000000000E+00  0.00000000000E+00  0.12616441336E+04  0.12616441336E+04  0.25500000920E-02 0. -1.
        2   -1    0    0  501    0  0.00000000000E+00  0.00000000000E+00 -0.13294499854E+04  0.13294499854E+04  0.25500000920E-02 0.  1.
    10030    2    1    2    0    0  0.00000000000E+00  0.00000000000E+00 -0.67805851800E+02  0.25910941190E+04  0.25902067678E+04 0.  0.
        1    1    3    3  502    0  0.89493865845E+03  0.85581201386E+03  0.34565210852E+03  0.12856145556E+04  0.50400001928E-02 0. -1.
       -1    1    3    3    0  502 -0.89493865845E+03 -0.85581201386E+03 -0.41345796032E+03  0.13054795634E+04  0.50400001928E-02 0.  1.
</event>
<event>
 5   0  0.6161834E-06  0.2613000E+04  0.7818609E-02  0.8363799E-01
       -2   -1    0    0    0  501  0.00000000000E+00  0.00000000000E+00  0.11045405586E+04  0.11045405586E+04  0.25500000920E-02 0. -1.
        2   -1    0    0  501    0  0.00000000000E+00  0.00000000000E+00 -0.15453872490E+04  0.15453872490E+04  0.25500000920E-02 0.  1.
    10030    2    1    2    0    0  0.00000000000E+00  0.00000000000E+00 -0.44084669039E+03  0.26499278075E+04  0.26130004938E+04 0.  0.
        5    1    3    3  502    0 -0.65350800868E+03 -0.10139671766E+04 -0.72922937560E+03  0.14096097775E+04  0.46999998093E+01 0. -1.
       -5    1    3    3    0  502  0.65350800868E+03  0.10139671766E+04  0.28838268520E+03  0.12403180300E+04  0.46999998093E+01 0.  1.
</event>
<event>
 5   0  0.2072125E-06  0.2612498E+04  0.7818609E-02  0.8363968E-01
       -4   -1    0    0    0  501  0.00000000000E+00  0.00000000000E+00  0.16708623442E+04  0.16708628268E+04  0.12699999809E+01 0.  1.
        4   -1    0    0  501    0  0.00000000000E+00  0.00000000000E+00 -0.10211999123E+04  0.10212007020E+04  0.12699999809E+01 0. -1.
    10030    2    1    2    0    0  0.00000000000E+00  0.00000000000E+00  0.64966243184E+03  0.26920635288E+04  0.26124978025E+04 0.  0.
        1    1    3    3  502    0  0.25596212729E+03 -0.76557420361E+03 -0.73341515000E+03  0.10906503813E+04  0.50400001928E-02 0. -1.
       -1    1    3    3    0  502 -0.25596212729E+03  0.76557420361E+03  0.13830775818E+04  0.16014131476E+04  0.50400001928E-02 0.  1.
</event>
<event>
 5   0  0.6173140E-06  0.2598001E+04  0.7818609E-02  0.8368881E-01
        2   -1    0    0  501    0  0.00000000000E+00  0.00000000000E+00  0.11635305972E+04  0.11635305972E+04  0.25500000920E-02 0. -1.
       -2   -1    0    0    0  501  0.00000000000E+00  0.00000000000E+00 -0.14502430147E+04  0.14502430147E+04  0.25500000920E-02 0.  1.
    10030    2    1    2    0    0  0.00000000000E+00  0.00000000000E+00 -0.28671241742E+03  0.26137736119E+04  0.25980008630E+04 0.  0.
        3    1    3    3  502    0 -0.85462660498E+03 -0.90541098755E+03 -0.51607319970E+03  0.13477712150E+04  0.10100000352E+00 0.  1.
       -3    1    3    3    0  502  0.85462660498E+03  0.90541098755E+03  0.22936078228E+03  0.12660023969E+04  0.10100000352E+00 0. -1.
</event>
<event>
 5   0  0.5942229E-06  0.2612490E+04  0.7818609E-02  0.8363971E-01
        2   -1    0    0  501    0  0.00000000000E+00  0.00000000000E+00  0.13480073358E+04  0.13480073358E+04  0.25500000920E-02 0. -1.
       -2   -1    0    0    0  501  0.00000000000E+00  0.00000000000E+00 -0.12657767355E+04  0.12657767355E+04  0.25500000920E-02 0.  1.
    10030    2    1    2    0    0  0.00000000000E+00  0.00000000000E+00  0.82230600339E+02  0.26137840714E+04  0.26124902488E+04 0.  0.
        4    1    3    3  502    0 -0.79426104083E+03 -0.12853992527E+03  0.10706543668E+04  0.13392817103E+04  0.12699999809E+01 0. -1.
       -4    1    3    3    0  502  0.79426104083E+03  0.12853992527E+03 -0.98842376648E+03  0.12745023611E+04  0.12699999809E+01 0.  1.
</event>
<event>
 5   0  0.2456600E-06  0.2593449E+04  0.7818609E-02  0.8370430E-01
        1   -1    0    0  501    0  0.00000000000E+00  0.00000000000E+00  0.14510453564E+04  0.14510453564E+04  0.50400001928E-02 0. -1.
       -1   -1    0    0    0  501  0.00000000000E+00  0.00000000000E+00 -0.11588157794E+04  0.11588157794E+04  0.50400001928E-02 0.  1.
    10030    2    1    2    0    0  0.00000000000E+00  0.00000000000E+00  0.29222957703E+03  0.26098611358E+04  0.25934488664E+04 0.  0.
        5    1    3    3  502    0  0.21070922744E+03 -0.42070720596E+03 -0.10698693856E+04  0.11687752239E+04  0.46999998093E+01 0.  1.
       -5    1    3    3    0  502 -0.21070922744E+03  0.42070720596E+03  0.13620989626E+04  0.14410859120E+04  0.46999998093E+01 0. -1.
</event>
<event>
 5   0  0.6173140E-06  0.2594942E+04  0.7818609E-02  0.8369921E-01
        2   -1    0    0  501    0  0.00000000000E+00  0.00000000000E+00  0.23270785942E+04  0.23270785942E+04  0.25500000920E-02 0.  1.
       -2   -1    0    0    0  501  0.00000000000E+00  0.00000000000E+00 -0.72340953994E+03  0.72340953994E+03  0.25500000920E-02 0. -1.
    10030    2    1    2    0    0  0.00000000000E+00  0.00000000000E+00  0.16036690543E+04  0.30504881342E+04  0.25949418916E+04 0.  0.
        3    1    3    3  502    0  0.90036979103E+03 -0.70851890518E+03  0.86034549877E+02  0.11489415797E+04  0.10100000352E+00 0. -1.
       -3    1    3    3    0  502 -0.90036979103E+03  0.70851890518E+03  0.15176345044E+04  0.19015465544E+04  0.10100000352E+00 0.  1.
</event>
<event>
 5   0  0.5942229E-06  0.2596581E+04  0.7818609E-02  0.8369364E-01
        2   -1    0    0  501    0  0.00000000000E+00  0.00000000000E+00  0.12737139155E+04  0.12737139155E+04  0.25500000920E-02 0. -1.
       -2   -1    0    0    0  501  0.00000000000E+00  0.00000000000E+00 -0.13233410373E+04  0.13233410373E+04  0.25500000920E-02 0.  1.
    10030    2    1    2    0    0  0.00000000000E+00  0.00000000000E+00 -0.49627121849E+02  0.25970549528E+04  0.25965807472E+04 0.  0.
        4    1    3    3  502    0  0.37766268886E+03 -0.49254806023E+03 -0.11653391304E+04  0.13203217790E+04  0.12699999809E+01 0.  1.
       -4    1    3    3    0  502 -0.37766268886E+03  0.49254806023E+03  0.11157120086E+04  0.12767331738E+04  0.12699999809E+01 0. -1.
</event>
<event>
 5   0  0.5940748E-06  0.2592925E+04  0.7818609E-02  0.8370609E-01
        2   -1    0    0  501    0  0.00000000000E+00  0.00000000000E+00  0.19515727129E+04  0.19515727129E+04  0.25500000920E-02 0. -1.
       -2   -1    0    0    0  501  0.00000000000E+00  0.00000000000E+00 -0.86126151535E+03  0.86126151535E+03  0.25500000920E-02 0.  1.
    10030    2    1    2    0    0  0.00000000000E+00  0.00000000000E+00  0.10903111975E+04  0.28128342282E+04  0.25929245820E+04 0.  0.
        1    1    3    3  502    0  0.84241570548E+03 -0.61645294557E+03 -0.28890568789E+03  0.10831181614E+04  0.50400001928E-02 0.  1.
       -1    1    3    3    0  502 -0.84241570548E+03  0.61645294557E+03  0.13792168854E+04  0.17297160669E+04  0.50400001928E-02 0. -1.
</event>
<event>
 5   0  0.2471488E-06  0.2599088E+04  0.7818609E-02  0.8368511E-01
        1   -1    0    0  501    0  0.00000000000E+00  0.00000000000E+00  0.17225700179E+04  0.17225700179E+04  0.50400001928E-02 0.  1.
       -1   -1    0    0    0  501  0.00000000000E+00  0.00000000000E+00 -0.98040437558E+03  0.98040437559E+03  0.50400001928E-02 0. -1.
    10030    2    1    2    0    0  0.00000000000E+00  0.00000000000E+00  0.74216564234E+03  0.27029743935E+04  0.25990884424E+04 0.  0.
        4    1    3    3  502    0 -0.59938751265E+03 -0.17897986259E+03  0.15556971042E+04  0.16767511069E+04  0.12699999809E+01 0.  1.
       -4    1    3    3    0  502  0.59938751265E+03  0.17897986259E+03 -0.81353146190E+03  0.10262232866E+04  0.12699999809E+01 0. -1.
</event>
<event>
 5   0  0.6173140E-06  0.2598884E+04  0.7818609E-02  0.8368580E-01
       -2   -1    0    0    0  501  0.00000000000E+00  0.00000000000E+00  0.13717163167E+04  0.13717163167E+04  0.25500000920E-02 0. -1.
        2   -1    0    0  501    0  0.00000000000E+00  0.00000000000E+00 -0.12309758342E+04  0.12309758342E+04  0.25500000920E-02 0.  1.
    10030    2    1    2    0    0  0.00000000000E+00  0.00000000000E+00  0.14074048249E+03  0.26026921510E+04  0.25988840969E+04 0.  0.
        3    1    3    3  502    0 -0.28999932058E+03 -0.12121477168E+04  0.43853362777E+03  0.13212544971E+04  0.10100000352E+00 0. -1.
       -3    1    3    3    0  502  0.28999932058E+03  0.12121477168E+04 -0.29779314527E+03  0.12814376539E+04  0.10100000352E+00 0.  1.
</event>
<event>
 5   0  0.6161834E-06  0.2602212E+04  0.7818609E-02  0.8367450E-01
        2   -1    0    0  501    0  0.00000000000E+00  0.00000000000E+00  0.22145732194E+04  0.22145732194E+04  0.25500000920E-02 0. -1.
       -2   -1    0    0    0  501  0.00000000000E+00  0.00000000000E+00 -0.76442589252E+03  0.76442589252E+03  0.25500000920E-02 0.  1.
    10030    2    1    2    0    0  0.00000000000E+00  0.00000000000E+00  0.14501473269E+04  0.29789991119E+04  0.26022122202E+04 0.  0.
        5    1    3    3  502    0 -0.10318514714E+04 -0.68471985593E+03  0.26816385813E+03  0.12670803783E+04  0.46999998093E+01 0.  1.
       -5    1    3    3    0  502  0.10318514714E+04  0.68471985593E+03  0.11819834688E+04  0.17119187337E+04  0.46999998093E+01 0. -1.
</event>
<event>
 5   0  0.2333979E-06  0.2597657E+04  0.7818609E-02  0.8368998E-01
        1   -1    0    0  501    0  0.00000000000E+00  0.00000000000E+00  0.29781309238E+04  0.29781309238E+04  0.50400001928E-02 0.  1.
       -1   -1    0    0    0  501  0.00000000000E+00  0.00000000000E+00 -0.56644758683E+03  0.56644758686E+03  0.50400001928E-02 0. -1.
    10030    2    1    2    0    0  0.00000000000E+00  0.00000000000E+00  0.24116833370E+04  0.35445785107E+04  0.25976566941E+04 0.  0.
        3    1    3    3  502    0 -0.16280866615E+03 -0.27404774314E+03  0.29239277086E+04  0.29412517884E+04  0.10100000352E+00 0.  1.
       -3    1    3    3    0  502  0.16280866615E+03  0.27404774314E+03 -0.51224437166E+03  0.60332672226E+03  0.10100000352E+00 0. -1.
</event>
<event>
 5   0  0.2471488E-06  0.2598211E+04  0.7818609E-02  0.8368809E-01
       -1   -1    0    0    0  501  0.00000000000E+00  0.00000000000E+00  0.11193633785E+04  0.11193633785E+04  0.50400001928E-02 0. -1.
        1   -1    0    0  501    0  0.00000000000E+00  0.00000000000E+00 -0.15077092148E+04  0.15077092148E+04  0.50400001928E-02 0.  1.
    10030    2    1    2    0    0  0.00000000000E+00  0.00000000000E+00 -0.38834583633E+03  0.26270725933E+04  0.25982105230E+04 0.  0.
        4    1    3    3  502    0 -0.90714378405E+03 -0.57336922997E+03  0.54608742758E+03  0.12041076407E+04  0.12699999809E+01 0. -1.
       -4    1    3    3    0  502  0.90714378405E+03  0.57336922997E+03 -0.93443326391E+03  0.14229649526E+04  0.12699999809E+01 0.  1.
</event>
<event>
 5   0  0.5942229E-06  0.2602998E+04  0.7818609E-02  0.8367183E-01
       -2   -1    0    0    0  501  0.00000000000E+00  0.00000000000E+00  0.89438445718E+03  0.89438445719E+03  0.25500000920E-02 0.  1.
        2   -1    0    0  501    0  0.00000000000E+00  0.00000000000E+00 -0.18939281893E+04  0.18939281893E+04  0.25500000920E-02 0. -1.
    10030    2    1    2    0    0  0.00000000000E+00  0.00000000000E+00 -0.99954373209E+03  0.27883126465E+04  0.26029982217E+04 0.  0.
        4    1    3    3  502    0 -0.24867185752E+03 -0.12223914075E+04 -0.89744250384E+03  0.15367117838E+04  0.12699999809E+01 0. -1.
       -4    1    3    3    0  502  0.24867185752E+03  0.12223914075E+04 -0.10210122825E+03  0.12516008627E+04  0.12699999809E+01 0.  1.
</event>
<event>
 5   0  0.2333979E-06  0.2603585E+04  0.7818609E-02  0.8366984E-01
       -1   -1    0    0    0  501  0.00000000000E+00  0.00000000000E+00  0.21567181301E+04  0.21567181301E+04  0.50400001928E-02 0.  1.
        1   -1    0    0  501    0  0.00000000000E+00  0.00000000000E+00 -0.78576040388E+03  0.78576040389E+03  0.50400001928E-02 0. -1.
    10030    2    1    2    0    0  0.00000000000E+00  0.00000000000E+00  0.13709577262E+04  0.29424785340E+04  0.26035849969E+04 0.  0.
        3    1    3    3  502    0 -0.23044191296E+03 -0.62767846077E+03 -0.57685938228E+03  0.88309143495E+03  0.10100000352E+00 0. -1.
       -3    1    3    3    0  502  0.23044191296E+03  0.62767846077E+03  0.19478171085E+04  0.20593870991E+04  0.10100000352E+00 0.  1.
</event>
<event>
 5   0  0.6161834E-06  0.2597953E+04  0.7818609E-02  0.8368897E-01
        2   -1    0    0  501    0  0.00000000000E+00  0.00000000000E+00  0.98501384178E+03  0.98501384178E+03  0.25500000920E-02 0. -1.
       -2   -1    0    0    0  501  0.00000000000E+00  0.00000000000E+00 -0.17130119660E+04  0.17130119660E+04  0.25500000920E-02 0.  1.
    10030    2    1    2    0    0  0.00000000000E+00  0.00000000000E+00 -0.72799812419E+03  0.26980258077E+04  0.25979534235E+04 0.  0.
        5    1    3    3  502    0 -0.22827002005E+03  0.73019994607E+03 -0.14542069706E+04  0.16431795905E+04  0.46999998093E+01 0.  1.
       -5    1    3    3    0  502  0.22827002005E+03 -0.73019994607E+03  0.72620884646E+03  0.10548462172E+04  0.46999998093E+01 0. -1.
</event>
<event>
 5   0  0.6158063E-06  0.2570048E+04  0.7818609E-02  0.8378447E-01
       -2   -1    0    0    0  501  0.00000000000E+00  0.00000000000E+00  0.27353302263E+04  0.27353302263E+04  0.25500000920E-02 0. -1.
        2   -1    0    0  501    0  0.00000000000E+00  0.00000000000E+00 -0.60368806859E+03  0.60368806860E+03  0.25500000920E-02 0.  1.
    10030    2    1    2    0    0  0.00000000000E+00  0.00000000000E+00  0.21316421577E+04  0.33390182949E+04  0.25700476426E+04 0.  0.
        2    1    3    3  502    0  0.98020827348E+03  0.62726185038E+03  0.35775977427E+03  0.12174800797E+04  0.25500000920E-02 0.  1.
       -2    1    3    3    0  502 -0.98020827348E+03 -0.62726185038E+03  0.17738823835E+04  0.21215382152E+04  0.25500000920E-02 0. -1.
</event>
<event>
 5   0  0.6161834E-06  0.2592721E+04  0.7818609E-02  0.8370678E-01
       -2   -1    0    0    0  501  0.00000000000E+00  0.00000000000E+00  0.72049928819E+03  0.72049928819E+03  0.25500000920E-02 0.  1.
        2   -1    0    0  501    0  0.00000000000E+00  0.00000000000E+00 -0.23324806369E+04  0.23324806369E+04  0.25500000920E-02 0. -1.
    10030    2    1    2    0    0  0.00000000000E+00  0.00000000000E+00 -0.16119813487E+04  0.30529799251E+04  0.25927210715E+04 0.  0.
        5    1    3    3  502    0  0.63608505470E+02 -0.10795414122E+04 -0.16477919020E+04  0.19709632023E+04  0.46999998093E+01 0. -1.
       -5    1    3    3    0  502 -0.63608505470E+02  0.10795414122E+04  0.35810553321E+02  0.10820167227E+04  0.46999998093E+01 0.  1.
</event>
<event>
 5   0  0.2456600E-06  0.2578987E+04  0.7818609E-02  0.8375374E-01
        1   -1    0    0  501    0  0.00000000000E+00  0.00000000000E+00  0.11220390226E+04  0.11220390226E+04  0.50400001928E-02 0. -1.
       -1   -1    0    0    0  501  0.00000000000E+00  0.00000000000E+00 -0.14819391908E+04  0.14819391908E+04  0.50400001928E-02 0.  1.
    10030    2    1    2    0    0  0.00000000000E+00  0.00000000000E+00 -0.35990016824E+03  0.26039782134E+04  0.25789870889E+04 0.  0.
        5    1    3    3  502    0  0.94839112533E+03  0.18968539560E+03 -0.10410597763E+04  0.14210045122E+04  0.46999998093E+01 0.  1.
       -5    1    3    3    0  502 -0.94839112533E+03 -0.18968539560E+03  0.68115960809E+03  0.11829737011E+04  0.46999998093E+01 0. -1.
</event>
<event>
 5   0  0.2471488E-06  0.2577181E+04  0.7818609E-02  0.8375994E-01
       -1   -1    0    0    0  501  0.00000000000E+00  0.00000000000E+00  0.91042604160E+03  0.91042604162E+03  0.50400001928E-02 0. -1.
        1   -1    0    0  501    0  0.00000000000E+00  0.00000000000E+00 -0.18238339683E+04  0.18238339683E+04  0.50400001928E-02 0.  1.
    10030    2    1    2    0    0  0.00000000000E+00  0.00000000000E+00 -0.91340792672E+03  0.27342600099E+04  0.25771813598E+04 0.  0.
        4    1    3    3  502    0 -0.84777820019E+03  0.78168684672E+03 -0.10668212379E+04  0.15709460111E+04  0.12699999809E+01 0.  1.
       -4    1    3    3    0  502  0.84777820019E+03 -0.78168684672E+03  0.15341331123E+03  0.11633139989E+04  0.12699999809E+01 0. -1.
</event>
<event>
 5   0  0.6173140E-06  0.2530757E+04  0.7818609E-02  0.8392109E-01
        2   -1    0    0  501    0  0.00000000000E+00  0.00000000000E+00  0.16681623847E+04  0.16681623847E+04  0.25500000920E-02 0.  1.
       -2   -1    0    0    0  501  0.00000000000E+00  0.00000000000E+00 -0.95984813017E+03  0.95984813018E+03  0.25500000920E-02 0. -1.
    10030    2    1    2    0    0  0.00000000000E+00  0.00000000000E+00  0.70831425453E+03  0.26280105149E+04  0.25307568400E+04 0.  0.
        3    1    3    3  502    0 -0.77687032896E+03  0.61794996399E+03  0.11690377808E+04  0.15336358789E+04  0.10100000352E+00 0.  1.
       -3    1    3    3    0  502  0.77687032896E+03 -0.61794996399E+03 -0.46072352625E+03  0.10943746360E+04  0.10100000352E+00 0. -1.
</event>
<event>
 5   0  0.2503292E-06  0.2688834E+04  0.7818609E-02  0.8338637E-01
       -1   -1    0    0    0  501  0.00000000000E+00  0.00000000000E+00  0.97606449794E+03  0.97606449795E+03  0.50400001928E-02 0.  1.
        1   -1    0    0  501    0  0.00000000000E+00  0.00000000000E+00 -0.18517801853E+04  0.18517801853E+04  0.50400001928E-02 0. -1.
    10030    2    1    2    0    0  0.00000000000E+00  0.00000000000E+00 -0.87571568734E+03  0.28278446832E+04  0.26888338713E+04 0.  0.
        2    1    3    3  502    0  0.66604042148E+03 -0.35510302030E+03 -0.16079170997E+04  0.17762616355E+04  0.25500000920E-02 0. -1.
       -2    1    3    3    0  502 -0.66604042148E+03  0.35510302030E+03  0.73220141237E+03  0.10515830478E+04  0.25500000920E-02 0.  1.
</event>
<event>
 5   0  0.5942229E-06  0.2502837E+04  0.7818609E-02  0.8401976E-01
        2   -1    0    0  501    0  0.00000000000E+00  0.00000000000E+00  0.13916436827E+04  0.13916436827E+04  0.25500000920E-02 0.  1.
       -2   -1    0    0    0  501  0.00000000000E+00  0.00000000000E+00 -0.11253226906E+04  0.11253226906E+04  0.25500000920E-02 0. -1.
    10030    2    1    2    0    0  0.00000000000E+00  0.00000000000E+00  0.26632099211E+03  0.25169663734E+04  0.25028369611E+04 0.  0.
        4    1    3    3  502    0  0.59418341400E+02 -0.29751831114E+03  0.13540980036E+04  0.13876709628E+04  0.12699999809E+01 0.  1.
       -4    1    3    3    0  502 -0.59418341400E+02  0.29751831114E+03 -0.10877770115E+04  0.11292954106E+04  0.12699999809E+01 0. -1.
</event>
<event>
 5   0  0.2471488E-06  0.2598751E+04  0.7818609E-02  0.8368626E-01
        1   -1    0    0  501    0  0.00000000000E+00  0.00000000000E+00  0.78095604705E+03  0.78095604707E+03  0.50400001928E-02 0. -1.
       -1   -1    0    0    0  501  0.00000000000E+00  0.00000000000E+00 -0.21619358671E+04  0.21619358671E+04  0.50400001928E-02 0.  1.
    10030    2    1    2    0    0  0.00000000000E+00  0.00000000000E+00 -0.13809798200E+04  0.29428919142E+04  0.25987511530E+04 0.  0.
        4    1    3    3  502    0 -0.23846952776E+03  0.32902426840E+03  0.70715000257E+03  0.81559023038E+03  0.12699999809E+01 0. -1.
       -4    1    3    3    0  502  0.23846952776E+03 -0.32902426840E+03 -0.20881298226E+04  0.21273016838E+04  0.12699999809E+01 0.  1.
</event>
<event>
 5   0  0.2440590E-06  0.2654530E+04  0.7818609E-02  0.8349911E-01
       -1   -1    0    0    0  501  0.00000000000E+00  0.00000000000E+00  0.10703072412E+04  0.10703072412E+04  0.50400001928E-02 0.  1.
        1   -1    0    0  501    0  0.00000000000E+00  0.00000000000E+00 -0.16459130885E+04  0.16459130885E+04  0.50400001928E-02 0. -1.
    10030    2    1    2    0    0  0.00000000000E+00  0.00000000000E+00 -0.57560584728E+03  0.27162203297E+04  0.26545302386E+04 0.  0.
        1    1    3    3  502    0 -0.13991375106E+03 -0.13172266509E+04 -0.20237137146E+03  0.13400059998E+04  0.50400001928E-02 0.  1.
       -1    1    3    3    0  502  0.13991375106E+03  0.13172266509E+04 -0.37323447583E+03  0.13762143298E+04  0.50400001928E-02 0. -1.
</event>
<event>
 5   0  0.2456600E-06  0.2608615E+04  0.7818609E-02  0.8365281E-01
        1   -1    0    0  501    0  0.00000000000E+00  0.00000000000E+00  0.16055210630E+04  0.16055210630E+04  0.50400001928E-02 0.  1.
       -1   -1    0    0    0  501  0.00000000000E+00  0.00000000000E+00 -0.10596052686E+04  0.10596052686E+04  0.50400001928E-02 0. -1.
    10030    2    1    2    0    0  0.00000000000E+00  0.00000000000E+00  0.54591579442E+03  0.26651263317E+04  0.26086154008E+04 0.  0.
        5    1    3    3  502    0  0.10907601887E+04  0.50972507637E+03  0.78544094101E+03  0.14375385228E+04  0.46999998093E+01 0.  1.
       -5    1    3    3    0  502 -0.10907601887E+04 -0.50972507637E+03 -0.23952514659E+03  0.12275878089E+04  0.46999998093E+01 0. -1.
</event>
<event>
 5   0  0.2333979E-06  0.2604420E+04  0.7818609E-02  0.8366701E-01
       -1   -1    0    0    0  501  0.00000000000E+00  0.00000000000E+00  0.10212113889E+04  0.10212113889E+04  0.50400001928E-02 0. -1.
        1   -1    0    0  501    0  0.00000000000E+00  0.00000000000E+00 -0.16605286399E+04  0.16605286399E+04  0.50400001928E-02 0.  1.
    10030    2    1    2    0    0  0.00000000000E+00  0.00000000000E+00 -0.63931725101E+03  0.26817400288E+04  0.26044199036E+04 0.  0.
        3    1    3    3  502    0 -0.10074216626E+04  0.13655609345E+03 -0.11575772101E+04  0.15406268142E+04  0.10100000352E+00 0.  1.
       -3    1    3    3    0  502  0.10074216626E+04 -0.13655609345E+03  0.51825995912E+03  0.11411132146E+04  0.10100000352E+00 0. -1.
</event>
<event>
 5   0  0.6158063E-06  0.2601460E+04  0.7818609E-02  0.8367705E-01
       -2   -1    0    0    0  501  0.00000000000E+00  0.00000000000E+00  0.10999926046E+04  0.10999926046E+04  0.25500000920E-02 0.  1.
        2   -1    0    0  501    0  0.00000000000E+00  0.00000000000E+00 -0.15381002585E+04  0.15381002585E+04  0.25500000920E-02 0. -1.
    10030    2    1    2    0    0  0.00000000000E+00  0.00000000000E+00 -0.43810765387E+03  0.26380928631E+04  0.26014602895E+04 0.  0.
        2    1    3    3  502    0  0.93236216610E+03 -0.28068813461E+03  0.65553719505E+03  0.11738032424E+04  0.25500000920E-02 0.  1.
       -2    1    3    3    0  502 -0.93236216610E+03  0.28068813461E+03 -0.10936448489E+04  0.14642896207E+04  0.25500000920E-02 0. -1.
</event>
<event>
 5   0  0.2471488E-06  0.2522363E+04  0.7818609E-02  0.8395062E-01
       -1   -1    0    0    0  501  0.00000000000E+00  0.00000000000E+00  0.27375427992E+04  0.27375427992E+04  0.50400001928E-02 0.  1.
        1   -1    0    0  501    0  0.00000000000E+00  0.00000000000E+00 -0.58102417788E+03  0.58102417790E+03  0.50400001928E-02 0. -1.
    10030    2    1    2    0    0  0.00000000000E+00  0.00000000000E+00  0.21565186214E+04  0.33185669771E+04  0.25223628243E+04 0.  0.
        4    1    3    3  502    0 -0.10008200229E+03  0.11592104644E+04  0.17184748441E+04  0.20753174963E+04  0.12699999809E+01 0.  1.
       -4    1    3    3    0  502  0.10008200229E+03 -0.11592104644E+04  0.43804377730E+03  0.12432494808E+04  0.12699999809E+01 0. -1.
</event>
<event>
 5   0  0.6173140E-06  0.2594984E+04  0.7818609E-02  0.8369907E-01
        2   -1    0    0  501    0  0.00000000000E+00  0.00000000000E+00  0.74449236226E+03  0.74449236227E+03  0.25500000920E-02 0.  1.
       -2   -1    0    0    0  501  0.00000000000E+00  0.00000000000E+00 -0.22612531484E+04  0.22612531484E+04  0.25500000920E-02 0. -1.
    10030    2    1    2    0    0  0.00000000000E+00  0.00000000000E+00 -0.15167607861E+04  0.30057455106E+04  0.25949841603E+04 0.  0.
        3    1    3    3  502    0  0.83132173169E+03  0.59305143484E+03  0.16874405295E+03  0.10350267589E+04  0.10100000352E+00 0.  1.
       -3    1    3    3    0  502 -0.83132173169E+03 -0.59305143484E+03 -0.16855048391E+04  0.19707187518E+04  0.10100000352E+00 0. -1.
</event>
<event>
 5   0  0.5942229E-06  0.2621043E+04  0.7818609E-02  0.8361088E-01
       -2   -1    0    0    0  501  0.00000000000E+00  0.00000000000E+00  0.11177212830E+04  0.11177212830E+04  0.25500000920E-02 0. -1.
        2   -1    0    0  501    0  0.00000000000E+00  0.00000000000E+00 -0.15365783505E+04  0.15365783505E+04  0.25500000920E-02 0.  1.
    10030    2    1    2    0    0  0.00000000000E+00  0.00000000000E+00 -0.41885706745E+03  0.26542996335E+04  0.26210427889E+04 0.  0.
        4    1    3    3  502    0  0.10078398510E+03 -0.94394937661E+03 -0.11243670754E+04  0.14715300780E+04  0.12699999809E+01 0.  1.
       -4    1    3    3    0  502 -0.10078398510E+03  0.94394937661E+03  0.70551000795E+03  0.11827695555E+04  0.12699999809E+01 0. -1.
</event>
<event>
 5   0  0.2440590E-06  0.2593085E+04  0.7818609E-02  0.8370554E-01
        1   -1    0    0  501    0  0.00000000000E+00  0.00000000000E+00  0.19538606774E+04  0.19538606774E+04  0.50400001928E-02 0. -1.
       -1   -1    0    0    0  501  0.00000000000E+00  0.00000000000E+00 -0.86035944908E+03  0.86035944910E+03  0.50400001928E-02 0.  1.
    10030    2    1    2    0    0  0.00000000000E+00  0.00000000000E+00  0.10935012283E+04  0.28142201265E+04  0.25930850322E+04 0.  0.
        1    1    3    3  502    0 -0.22769401025E+03  0.64602697657E+03  0.17414582317E+04  0.18713289902E+04  0.50400001928E-02 0. -1.
       -1    1    3    3    0  502  0.22769401025E+03 -0.64602697657E+03 -0.64795700335E+03  0.94289113634E+03  0.50400001928E-02 0.  1.
</event>
<event>
 5   0  0.6161834E-06  0.2598706E+04  0.7818609E-02  0.8368641E-01
        2   -1    0    0  501    0  0.00000000000E+00  0.00000000000E+00  0.16273623675E+04  0.16273623675E+04  0.25500000920E-02 0.  1.
       -2   -1    0    0    0  501  0.00000000000E+00  0.00000000000E+00 -0.10374565835E+04  0.10374565835E+04  0.25500000920E-02 0. -1.
    10030    2    1    2    0    0  0.00000000000E+00  0.00000000000E+00  0.58990578398E+03  0.26648189510E+04  0.25987056793E+04 0.  0.
        5    1    3    3  502    0  0.53235473250E+03  0.13798618603E+03  0.15021254289E+04  0.15996389102E+04  0.46999998093E+01 0.  1.
       -5    1    3    3    0  502 -0.53235473250E+03 -0.13798618603E+03 -0.91221964493E+03  0.10651800408E+04  0.46999998093E+01 0. -1.
</event>
<event>
 5   0  0.2072125E-06  0.2597064E+04  0.7818609E-02  0.8369199E-01
       -3   -1    0    0    0  501  0.00000000000E+00  0.00000000000E+00  0.63171329483E+03  0.63171330291E+03  0.10100000352E+00 0.  1.
        3   -1    0    0  501    0  0.00000000000E+00  0.00000000000E+00 -0.26692258027E+04  0.26692258046E+04  0.10100000352E+00 0. -1.
    10030    2    1    2    0    0  0.00000000000E+00  0.00000000000E+00 -0.20375125079E+04  0.33009391075E+04  0.25970640677E+04 0.  0.
        5    1    3    3  502    0  0.77938777874E+03 -0.76983539946E+03 -0.19049015343E+04  0.21974448338E+04  0.46999998093E+01 0. -1.
       -5    1    3    3    0  502 -0.77938777874E+03  0.76983539946E+03 -0.13261097353E+03  0.11034942738E+04  0.46999998093E+01 0.  1.
</event>
<event>
 5   0  0.5940748E-06  0.2521251E+04  0.7818609E-02  0.8395454E-01
        2   -1    0    0  501    0  0.00000000000E+00  0.00000000000E+00  0.25266676753E+04  0.25266676753E+04  0.25500000920E-02 0.  1.
       -2   -1    0    0    0  501  0.00000000000E+00  0.00000000000E+00 -0.62896166528E+03  0.62896166528E+03  0.25500000920E-02 0. -1.
    10030    2    1    2    0    0  0.00000000000E+00  0.00000000000E+00  0.18977060101E+04  0.31556293406E+04  0.25212513629E+04 0.  0.
        1    1    3    3  502    0 -0.73215885752E+03 -0.71715010092E+03  0.18675878357E+04  0.21303157474E+04  0.50400001928E-02 0.  1.
       -1    1    3    3    0  502  0.73215885752E+03  0.71715010092E+03  0.30118174398E+02  0.10253135932E+04  0.50400001928E-02 0. -1.
</event>
<event>
 5   0  0.6173140E-06  0.2596144E+04  0.7818609E-02  0.8369512E-01
       -2   -1    0    0    0  501  0.00000000000E+00  0.00000000000E+00  0.19599905712E+04  0.19599905712E+04  0.25500000920E-02 0.  1.
        2   -1    0    0  501    0  0.00000000000E+00  0.00000000000E+00 -0.85969357508E+03  0.85969357509E+03  0.25500000920E-02 0. -1.
    10030    2    1    2    0    0  0.00000000000E+00  0.00000000000E+00  0.11002969961E+04  0.28196841463E+04  0.25961442959E+04 0.  0.
        3    1    3    3  502    0  0.69358031132E+02  0.77263871114E+03 -0.58024070583E+03  0.96874165871E+03  0.10100000352E+00 0. -1.
       -3    1    3    3    0  502 -0.69358031132E+02 -0.77263871114E+03  0.16805377019E+04  0.18509424875E+04  0.10100000352E+00 0.  1.
</event>
<event>
 5   0  0.2440590E-06  0.2599588E+04  0.7818609E-02  0.8368341E-01
        1   -1    0    0  501    0  0.00000000000E+00  0.00000000000E+00  0.18485356773E+04  0.18485356773E+04  0.50400001928E-02 0. -1.
       -1   -1    0    0    0  501  0.00000000000E+00  0.00000000000E+00 -0.91394762895E+03  0.91394762896E+03  0.50400001928E-02 0.  1.
    10030    2    1    2    0    0  0.00000000000E+00  0.00000000000E+00  0.93458804831E+03  0.27624833062E+04  0.25995882745E+04 0.  0.
        1    1    3    3  502    0  0.48926849392E+03  0.11933463444E+04  0.63866169162E+03  0.14392178130E+04  0.50400001928E-02 0.  1.
       -1    1    3    3    0  502 -0.48926849392E+03 -0.11933463444E+04  0.29592635669E+03  0.13232654932E+04  0.50400001928E-02 0. -1.
</event>
<event>
 5   0  0.2503292E-06  0.2600459E+04  0.7818609E-02  0.8368045E-01
       -1   -1    0    0    0  501  0.00000000000E+00  0.00000000000E+00  0.89055465678E+03  0.89055465679E+03  0.50400001928E-02 0.  1.
        1   -1    0    0  501    0  0.00000000000E+00  0.00000000000E+00 -0.18983642534E+04  0.18983642534E+04  0.50400001928E-02 0. -1.
    10030    2    1    2    0    0  0.00000000000E+00  0.00000000000E+00 -0.10078095966E+04  0.27889189102E+04  0.26004592872E+04 0.  0.
        2    1    3    3  502    0  0.27878281576E+03 -0.35707626095E+03 -0.18109894334E+04  0.18667903049E+04  0.25500000920E-02 0. -1.
       -2    1    3    3    0  502 -0.27878281576E+03  0.35707626095E+03  0.80317983679E+03  0.92212860531E+03  0.25500000920E-02 0.  1.
</event>
<event>
 5   0  0.5940748E-06  0.2608731E+04  0.7818609E-02  0.8365241E-01
       -2   -1    0    0    0  501  0.00000000000E+00  0.00000000000E+00  0.68318142598E+03  0.68318142599E+03  0.25500000920E-02 0.  1.
        2   -1    0    0  501    0  0.00000000000E+00  0.00000000000E+00 -0.24903633071E+04  0.24903633071E+04  0.25500000920E-02 0. -1.
    10030    2    1    2    0    0  0.00000000000E+00  0.00000000000E+00 -0.18071818811E+04  0.31735447331E+04  0.26087314583E+04 0.  0.
        1    1    3    3  502    0 -0.33688558803E+03 -0.28140092161E+03 -0.23978141637E+04  0.24376609982E+04  0.50400001928E-02 0. -1.
       -1    1    3    3    0  502  0.33688558803E+03  0.28140092161E+03  0.59063228259E+03  0.73588373495E+03  0.50400001928E-02 0.  1.
</event>
<event>
 5   0  0.6173140E-06  0.2615043E+04  0.7818609E-02  0.8363109E-01
        2   -1    0    0  501    0  0.00000000000E+00  0.00000000000E+00  0.14462310476E+04  0.14462310476E+04  0.25500000920E-02 0.  1.
       -2   -1    0    0    0  501  0.00000000000E+00  0.00000000000E+00 -0.11821157339E+04  0.11821157339E+04  0.25500000920E-02 0. -1.
    10030    2    1    2    0    0  0.00000000000E+00  0.00000000000E+00  0.26411531373E+03  0.26283467815E+04  0.26150430025E+04 0.  0.
        3    1    3    3  502    0 -0.90186444701E+03 -0.90179453863E+03 -0.15753939497E+03  0.12850725823E+04  0.10100000352E+00 0. -1.
       -3    1    3    3    0  502  0.90186444701E+03  0.90179453863E+03  0.42165470870E+03  0.13432741992E+04  0.10100000352E+00 0.  1.
</event>
<event>
 5   0  0.2456600E-06  0.2597794E+04  0.7818609E-02  0.8368951E-01
       -1   -1    0    0    0  501  0.00000000000E+00  0.00000000000E+00  0.87993314693E+03  0.87993314695E+03  0.50400001928E-02 0.  1.
        1   -1    0    0  501    0  0.00000000000E+00  0.00000000000E+00 -0.19173430756E+04  0.19173430756E+04  0.50400001928E-02 0. -1.
    10030    2    1    2    0    0  0.00000000000E+00  0.00000000000E+00 -0.10374099287E+04  0.27972762226E+04  0.25977942384E+04 0.  0.
        5    1    3    3  502    0 -0.12723747856E+04 -0.24882157288E+03 -0.43349654806E+03  0.13670373504E+04  0.46999998093E+01 0. -1.
       -5    1    3    3    0  502  0.12723747856E+04  0.24882157288E+03 -0.60391338064E+03  0.14302388722E+04  0.46999998093E+01 0.  1.
</event>
<event>
 5   0  0.6173140E-06  0.2605231E+04  0.7818609E-02  0.8366426E-01
        2   -1    0    0  501    0  0.00000000000E+00  0.00000000000E+00  0.16234569271E+04  0.16234569271E+04  0.25500000920E-02 0.  1.
       -2   -1    0    0    0  501  0.00000000000E+00  0.00000000000E+00 -0.10451817958E+04  0.10451817959E+04  0.25500000920E-02 0. -1.
    10030    2    1    2    0    0  0.00000000000E+00  0.00000000000E+00  0.57827513124E+03  0.26686387229E+04  0.26052313729E+04 0.  0.
        3    1    3    3  502    0  0.67961492350E+03 -0.85525294987E+03  0.10159658509E+04  0.14918179087E+04  0.10100000352E+00 0.  1.
       -3    1    3    3    0  502 -0.67961492350E+03  0.85525294987E+03 -0.43769071962E+03  0.11768208142E+04  0.10100000352E+00 0. -1.
</event>
<event>
 5   0  0.2471488E-06  0.2609992E+04  0.7818609E-02  0.8364815E-01
       -1   -1    0    0    0  501  0.00000000000E+00  0.00000000000E+00  0.18279337125E+04  0.18279337125E+04  0.50400001928E-02 0. -1.
        1   -1    0    0  501    0  0.00000000000E+00  0.00000000000E+00 -0.93166131388E+03  0.93166131390E+03  0.50400001928E-02 0.  1.
    10030    2    1    2    0    0  0.00000000000E+00  0.00000000000E+00  0.89627239857E+03  0.27595950264E+04  0.26099924324E+04 0.  0.
        4    1    3    3  502    0  0.97393879882E+03  0.81727945927E+03  0.13714950774E+03  0.12787940017E+04  0.12699999809E+01 0.  1.
       -4    1    3    3    0  502 -0.97393879882E+03 -0.81727945927E+03  0.75912289084E+03  0.14808010247E+04  0.12699999809E+01 0. -1.
</event>
<event>
 5   0  0.2471488E-06  0.2595789E+04  0.7818609E-02  0.8369633E-01
        1   -1    0    0  501    0  0.00000000000E+00  0.00000000000E+00  0.20905810100E+04  0.20905810100E+04  0.50400001928E-02 0. -1.
       -1   -1    0    0    0  501  0.00000000000E+00  0.00000000000E+00 -0.80577136686E+03  0.80577136687E+03  0.50400001928E-02 0.  1.
    10030    2    1    2    0    0  0.00000000000E+00  0.00000000000E+00  0.12848096432E+04  0.28963523769E+04  0.25957891424E+04 0.  0.
        4    1    3    3  502    0  0.71353549848E+03  0.55690911583E+03  0.16802971386E+04  0.19085808229E+04  0.12699999809E+01 0. -1.
       -4    1    3    3    0  502 -0.71353549848E+03 -0.55690911583E+03 -0.39548749542E+03  0.98777155396E+03  0.12699999809E+01 0.  1.
</event>
<event>
 5   0  0.6173140E-06  0.2599920E+04  0.7818609E-02  0.8368229E-01
        2   -1    0    0  501    0  0.00000000000E+00  0.00000000000E+00  0.15719893583E+04  0.15719893583E+04  0.25500000920E-02 0. -1.
       -2   -1    0    0    0  501  0.00000000000E+00  0.00000000000E+00 -0.10750043319E+04  0.10750043319E+04  0.25500000920E-02 0.  1.
    10030    2    1    2    0    0  0.00000000000E+00  0.00000000000E+00  0.49698502634E+03  0.26469936902E+04  0.25999195140E+04 0.  0.
        3    1    3    3  502    0 -0.11502661699E+03  0.15866759618E+02 -0.10697139765E+04  0.10759976201E+04  0.10100000352E+00 0.  1.
       -3    1    3    3    0  502  0.11502661699E+03 -0.15866759618E+02  0.15666990028E+04  0.15709960701E+04  0.10100000352E+00 0. -1.
</event>
<event>
 5   0  0.2333979E-06  0.2589385E+04  0.7818609E-02  0.8371816E-01
        1   -1    0    0  501    0  0.00000000000E+00  0.00000000000E+00  0.10860179420E+04  0.10860179420E+04  0.50400001928E-02 0.  1.
       -1   -1    0    0    0  501  0.00000000000E+00  0.00000000000E+00 -0.15434632043E+04  0.15434632044E+04  0.50400001928E-02 0. -1.
    10030    2    1    2    0    0  0.00000000000E+00  0.00000000000E+00 -0.45744526234E+03  0.26294811464E+04  0.25893850488E+04 0.  0.
        3    1    3    3  502    0  0.41094191633E+03 -0.89785054386E+03 -0.10790781420E+04  0.14626751192E+04  0.10100000352E+00 0.  1.
       -3    1    3    3    0  502 -0.41094191633E+03  0.89785054386E+03  0.62163287964E+03  0.11668060271E+04  0.10100000352E+00 0. -1.
</event>
<event>
 5   0  0.2440590E-06  0.2585232E+04  0.7818609E-02  0.8373235E-01
        1   -1    0    0  501    0  0.00000000000E+00  0.00000000000E+00  0.13976101658E+04  0.13976101658E+04  0.50400001928E-02 0.  1.
       -1   -1    0    0    0  501  0.00000000000E+00  0.00000000000E+00 -0.11955096749E+04  0.11955096750E+04  0.50400001928E-02 0. -1.
    10030    2    1    2    0    0  0.00000000000E+00  0.00000000000E+00  0.20210049086E+03  0.25931198408E+04  0.25852322720E+04 0.  0.
        1    1    3    3  502    0 -0.54696554950E+03 -0.11696796162E+04  0.41415020032E+02  0.12919121181E+04  0.50400001928E-02 0.  1.
       -1    1    3    3    0  502  0.54696554950E+03  0.11696796162E+04  0.16068547082E+03  0.13012077227E+04  0.50400001928E-02 0. -1.
</event>
<event>
 5   0  0.2471488E-06  0.2600835E+04  0.7818609E-02  0.8367918E-01
        1   -1    0    0  501    0  0.00000000000E+00  0.00000000000E+00  0.11218068633E+04  0.11218068633E+04  0.50400001928E-02 0. -1.
       -1   -1    0    0    0  501  0.00000000000E+00  0.00000000000E+00 -0.15074663810E+04  0.15074663810E+04  0.50400001928E-02 0.  1.
    10030    2    1    2    0    0  0.00000000000E+00  0.00000000000E+00 -0.38565951774E+03  0.26292732443E+04  0.26008353522E+04 0.  0.
        4    1    3    3  502    0 -0.23463659771E+03 -0.50624982436E+03 -0.13802971564E+04  0.14888133095E+04  0.12699999809E+01 0.  1.
       -4    1    3    3    0  502  0.23463659771E+03  0.50624982436E+03  0.99463763867E+03  0.11404599348E+04  0.12699999809E+01 0. -1.
</event>
<event>
 5   0  0.6158063E-06  0.2685945E+04  0.7818609E-02  0.8339580E-01
        2   -1    0    0  501    0  0.00000000000E+00  0.00000000000E+00  0.30388495383E+04  0.30388495383E+04  0.25500000920E-02 0.  1.
       -2   -1    0    0    0  501  0.00000000000E+00  0.00000000000E+00 -0.59350594886E+03  0.59350594887E+03  0.25500000920E-02 0. -1.
    10030    2    1    2    0    0  0.00000000000E+00  0.00000000000E+00  0.24453435895E+04  0.36323554872E+04  0.26859451064E+04 0.  0.
        2    1    3    3  502    0 -0.29083582807E+03 -0.48599680526E+03 -0.42409479703E+03  0.70755548934E+03  0.25500000920E-02 0. -1.
       -2    1    3    3    0  502  0.29083582807E+03  0.48599680526E+03  0.28694383865E+04  0.29247999979E+04  0.25500000920E-02 0.  1.
</event>
<event>
 5   0  0.6158063E-06  0.2498962E+04  0.7818609E-02  0.8403356E-01
       -2   -1    0    0    0  501  0.00000000000E+00  0.00000000000E+00  0.90463222791E+03  0.90463222791E+03  0.25500000920E-02 0. -1.
        2   -1    0    0  501    0  0.00000000000E+00  0.00000000000E+00 -0.17257868274E+04  0.17257868274E+04  0.25500000920E-02 0.  1.
    10030    2    1    2    0    0  0.00000000000E+00  0.00000000000E+00 -0.82115459953E+03  0.26304190554E+04  0.24989616905E+04 0.  0.
        2    1    3    3  502    0 -0.45211936195E+03  0.85577533554E+03 -0.12423609268E+04  0.15748726980E+04  0.25500000920E-02 0.  1.
       -2    1    3    3    0  502  0.45211936195E+03 -0.85577533554E+03  0.42120632729E+03  0.10555463574E+04  0.25500000920E-02 0. -1.
</event>
<event>
 5   0  0.6158063E-06  0.2597846E+04  0.7818609E-02  0.8368933E-01
       -2   -1    0    0    0  501  0.00000000000E+00  0.00000000000E+00  0.57431137958E+03  0.57431137958E+03  0.25500000920E-02 0.  1.
        2   -1    0    0  501    0  0.00000000000E+00  0.00000000000E+00 -0.29377808468E+04  0.29377808468E+04  0.25500000920E-02 0. -1.
    10030    2    1    2    0    0  0.00000000000E+00  0.00000000000E+00 -0.23634694672E+04  0.35120922264E+04  0.25978460085E+04 0.  0.
        2    1    3    3  502    0 -0.12891698584E+04 -0.13455466615E+03 -0.10675223847E+04  0.16791866853E+04  0.25500000920E-02 0.  1.
       -2    1    3    3    0  502  0.12891698584E+04  0.13455466615E+03 -0.12959470825E+04  0.18329055411E+04  0.25500000920E-02 0. -1.
</event>
<event>
 5   0  0.2503292E-06  0.2615065E+04  0.7818609E-02  0.8363102E-01
        1   -1    0    0  501    0  0.00000000000E+00  0.00000000000E+00  0.18607886822E+04  0.18607886822E+04  0.50400001928E-02 0. -1.
       -1   -1    0    0    0  501  0.00000000000E+00  0.00000000000E+00 -0.91877235538E+03  0.91877235539E+03  0.50400001928E-02 0.  1.
    10030    2    1    2    0    0  0.00000000000E+00  0.00000000000E+00  0.94201632684E+03  0.27795610376E+04  0.26150649709E+04 0.  0.
        2    1    3    3  502    0  0.10275157012E+04 -0.39453616092E+03  0.12212355879E+04  0.16440388255E+04  0.25500000920E-02 0. -1.
       -2    1    3    3    0  502 -0.10275157012E+04  0.39453616092E+03 -0.27921926104E+03  0.11355222121E+04  0.25500000920E-02 0.  1.
</event>
<event>
 5   0  0.2471488E-06  0.2608357E+04  0.7818609E-02  0.8365368E-01
        1   -1    0    0  501    0  0.00000000000E+00  0.00000000000E+00  0.12111385369E+04  0.12111385370E+04  0.50400001928E-02 0. -1.
       -1   -1    0    0    0  501  0.00000000000E+00  0.00000000000E+00 -0.14043653682E+04  0.14043653682E+04  0.50400001928E-02 0.  1.
    10030    2    1    2    0    0  0.00000000000E+00  0.00000000000E+00 -0.19322683124E+03  0.26155039052E+04  0.26083565841E+04 0.  0.
        4    1    3    3  502    0 -0.14040937552E+03 -0.11362441439E+04  0.52968901701E+03  0.12614823086E+04  0.12699999809E+01 0.  1.
       -4    1    3    3    0  502  0.14040937552E+03  0.11362441439E+04 -0.72291584825E+03  0.13540215965E+04  0.12699999809E+01 0. -1.
</event>
<event>
 5   0  0.2333979E-06  0.2585850E+04  0.7818609E-02  0.8373024E-01
        1   -1    0    0  501    0  0.00000000000E+00  0.00000000000E+00  0.23265076194E+04  0.23265076194E+04  0.50400001928E-02 0. -1.
       -1   -1    0    0    0  501  0.00000000000E+00  0.00000000000E+00 -0.71852531741E+03  0.71852531742E+03  0.50400001928E-02 0.  1.
    10030    2    1    2    0    0  0.00000000000E+00  0.00000000000E+00  0.16079823020E+04  0.30450329368E+04  0.25858496675E+04 0.  0.
        3    1    3    3  502    0 -0.19957421929E+02  0.84471596602E+03 -0.34841619233E+03  0.91396784145E+03  0.10100000352E+00 0.  1.
       -3    1    3    3    0  502  0.19957421929E+02 -0.84471596602E+03  0.19563984943E+04  0.21310650954E+04  0.10100000352E+00 0. -1.
</event>
<event>
 5   0  0.6161834E-06  0.2603938E+04  0.7818609E-02  0.8366865E-01
       -2   -1    0    0    0  501  0.00000000000E+00  0.00000000000E+00  0.14369055230E+04  0.14369055230E+04  0.25500000920E-02 0.  1.
        2   -1    0    0  501    0  0.00000000000E+00  0.00000000000E+00 -0.11797039356E+04  0.11797039356E+04  0.25500000920E-02 0. -1.
    10030    2    1    2    0    0  0.00000000000E+00  0.00000000000E+00  0.25720158745E+03  0.26166094586E+04  0.26039378645E+04 0.  0.
        5    1    3    3  502    0  0.28259154747E+03 -0.18314614504E+03 -0.11351761227E+04  0.11840808303E+04  0.46999998093E+01 0. -1.
       -5    1    3    3    0  502 -0.28259154747E+03  0.18314614504E+03  0.13923777102E+04  0.14325286283E+04  0.46999998093E+01 0.  1.
</event>
<event>
 5   0  0.2471488E-06  0.2612161E+04  0.7818609E-02  0.8364082E-01
        1   -1    0    0  501    0  0.00000000000E+00  0.00000000000E+00  0.14835626561E+04  0.14835626561E+04  0.50400001928E-02 0. -1.
       -1   -1    0    0    0  501  0.00000000000E+00  0.00000000000E+00 -0.11498313938E+04  0.11498313938E+04  0.50400001928E-02 0.  1.
    10030    2    1    2    0    0  0.00000000000E+00  0.00000000000E+00  0.33373126232E+03  0.26333940499E+04  0.26121614932E+04 0.  0.
        4    1    3    3  502    0  0.21653748652E+03  0.12495185728E+04  0.48191204156E+03  0.13566230042E+04  0.12699999809E+01 0.  1.
       -4    1    3    3    0  502 -0.21653748652E+03 -0.12495185728E+04 -0.14818077923E+03  0.12767710457E+04  0.12699999809E+01 0. -1.
</event>
<event>
 5   0  0.6161834E-06  0.2669950E+04  0.7818609E-02  0.8344822E-01
        2   -1    0    0  501    0  0.00000000000E+00  0.00000000000E+00  0.70632434006E+03  0.70632434006E+03  0.25500000920E-02 0. -1.
       -2   -1    0    0    0  501  0.00000000000E+00  0.00000000000E+00 -0.25231435652E+04  0.25231435652E+04  0.25500000920E-02 0.  1.
    10030    2    1    2    0    0  0.00000000000E+00  0.00000000000E+00 -0.18168192251E+04  0.32294679052E+04  0.26699495977E+04 0.  0.
        5    1    3    3  502    0  0.11571125844E+03 -0.67655837817E+03 -0.22933522572E+04  0.23938686263E+04  0.46999998093E+01 0.  1.
       -5    1    3    3    0  502 -0.11571125844E+03  0.67655837817E+03  0.47653303204E+03  0.83559927898E+03  0.46999998093E+01 0. -1.
</event>
<event>
 5   0  0.2471488E-06  0.2615070E+04  0.7818609E-02  0.8363100E-01
       -1   -1    0    0    0  501  0.00000000000E+00  0.00000000000E+00  0.14488315254E+04  0.14488315254E+04  0.50400001928E-02 0. -1.
        1   -1    0    0  501    0  0.00000000000E+00  0.00000000000E+00 -0.11800185980E+04  0.11800185980E+04  0.50400001928E-02 0.  1.
    10030    2    1    2    0    0  0.00000000000E+00  0.00000000000E+00  0.26881292741E+03  0.26288501235E+04  0.26150702823E+04 0.  0.
        4    1    3    3  502    0  0.17424516521E+02  0.64029714520E+03  0.12803088481E+04  0.14315992482E+04  0.12699999809E+01 0. -1.
       -4    1    3    3    0  502 -0.17424516521E+02 -0.64029714520E+03 -0.10114959207E+04  0.11972508753E+04  0.12699999809E+01 0.  1.
</event>
<event>
 5   0  0.2456600E-06  0.2605817E+04  0.7818609E-02  0.8366228E-01
       -1   -1    0    0    0  501  0.00000000000E+00  0.00000000000E+00  0.71075329008E+03  0.71075329010E+03  0.50400001928E-02 0. -1.
        1   -1    0    0  501    0  0.00000000000E+00  0.00000000000E+00 -0.23884104467E+04  0.23884104467E+04  0.50400001928E-02 0.  1.
    10030    2    1    2    0    0  0.00000000000E+00  0.00000000000E+00 -0.16776571566E+04  0.30991637368E+04  0.26058170182E+04 0.  0.
        5    1    3    3  502    0  0.11998948031E+04 -0.11574289706E+03 -0.25085848460E+03  0.12312985122E+04  0.46999998093E+01 0. -1.
       -5    1    3    3    0  502 -0.11998948031E+04  0.11574289706E+03 -0.14267986720E+04  0.18678652246E+04  0.46999998093E+01 0.  1.
</event>
<event>
 5   0  0.2333979E-06  0.2601250E+04  0.7818609E-02  0.8367777E-01
       -1   -1    0    0    0  501  0.00000000000E+00  0.00000000000E+00  0.12918237492E+04  0.12918237492E+04  0.50400001928E-02 0. -1.
        1   -1    0    0  501    0  0.00000000000E+00  0.00000000000E+00 -0.13094865536E+04  0.13094865536E+04  0.50400001928E-02 0.  1.
    10030    2    1    2    0    0  0.00000000000E+00  0.00000000000E+00 -0.17662804418E+02  0.26013103028E+04  0.26012503372E+04 0.  0.
        3    1    3    3  502    0 -0.12868824479E+04  0.18824477458E+03  0.22724128677E+01  0.13005797569E+04  0.10100000352E+00 0.  1.
       -3    1    3    3    0  502  0.12868824479E+04 -0.18824477458E+03 -0.19935217286E+02  0.13007305459E+04  0.10100000352E+00 0. -1.
</event>
<event>
 5   0  0.2333979E-06  0.2609561E+04  0.7818609E-02  0.8364961E-01
        1   -1    0    0  501    0  0.00000000000E+00  0.00000000000E+00  0.19652778674E+04  0.19652778674E+04  0.50400001928E-02 0.  1.
       -1   -1    0    0    0  501  0.00000000000E+00  0.00000000000E+00 -0.86626540828E+03  0.86626540830E+03  0.50400001928E-02 0. -1.
    10030    2    1    2    0    0  0.00000000000E+00  0.00000000000E+00  0.10990124591E+04  0.28315432757E+04  0.26095610621E+04 0.  0.
        3    1    3    3  502    0 -0.10951369242E+04  0.69028204502E+03  0.72660146216E+03  0.14845079587E+04  0.10100000352E+00 0. -1.
       -3    1    3    3    0  502  0.10951369242E+04 -0.69028204502E+03  0.37241099695E+03  0.13470353170E+04  0.10100000352E+00 0.  1.
</event>
<event>
 5   0  0.5942229E-06  0.2610047E+04  0.7818609E-02  0.8364796E-01
       -2   -1    0    0    0  501  0.00000000000E+00  0.00000000000E+00  0.11778468404E+04  0.11778468404E+04  0.25500000920E-02 0.  1.
        2   -1    0    0  501    0  0.00000000000E+00  0.00000000000E+00 -0.14459322023E+04  0.14459322023E+04  0.25500000920E-02 0. -1.
    10030    2    1    2    0    0  0.00000000000E+00  0.00000000000E+00 -0.26808536194E+03  0.26237790427E+04  0.26100472608E+04 0.  0.
        4    1    3    3  502    0  0.10133432749E+04  0.78355363101E+03 -0.38488338754E+03  0.13375192411E+04  0.12699999809E+01 0. -1.
       -4    1    3    3    0  502 -0.10133432749E+04 -0.78355363101E+03  0.11679802559E+03  0.12862598016E+04  0.12699999809E+01 0.  1.
</event>
<event>
 5   0  0.6158063E-06  0.2600353E+04  0.7818609E-02  0.8368081E-01
       -2   -1    0    0    0  501  0.00000000000E+00  0.00000000000E+00  0.15237059062E+04  0.15237059062E+04  0.25500000920E-02 0.  1.
        2   -1    0    0  501    0  0.00000000000E+00  0.00000000000E+00 -0.11094392280E+04  0.11094392280E+04  0.25500000920E-02 0. -1.
    10030    2    1    2    0    0  0.00000000000E+00  0.00000000000E+00  0.41426667814E+03  0.26331451342E+04  0.26003531331E+04 0.  0.
        2    1    3    3  502    0 -0.37755174019E+02 -0.11110776369E+04  0.88983126904E+03  0.14239798649E+04  0.25500000920E-02 0.  1.
       -2    1    3    3    0  502  0.37755174019E+02  0.11110776369E+04 -0.47556459090E+03  0.12091652693E+04  0.25500000920E-02 0. -1.
</event>
<event>
 5   0  0.2333979E-06  0.2610448E+04  0.7818609E-02  0.8364661E-01
       -1   -1    0    0    0  501  0.00000000000E+00  0.00000000000E+00  0.16589084573E+04  0.16589084573E+04  0.50400001928E-02 0. -1.
        1   -1    0    0  501    0  0.00000000000E+00  0.00000000000E+00 -0.10269457882E+04  0.10269457883E+04  0.50400001928E-02 0.  1.
    10030    2    1    2    0    0  0.00000000000E+00  0.00000000000E+00  0.63196266904E+03  0.26858542455E+04  0.26104475121E+04 0.  0.
        3    1    3    3  502    0 -0.17429265844E+03 -0.93374953148E+03 -0.60505482125E+03  0.11262137742E+04  0.10100000352E+00 0.  1.
       -3    1    3    3    0  502  0.17429265844E+03  0.93374953148E+03  0.12370174903E+04  0.15596404713E+04  0.10100000352E+00 0. -1.
</event>
<event>
 5   0  0.6173140E-06  0.2588211E+04  0.7818609E-02  0.8372217E-01
        2   -1    0    0  501    0  0.00000000000E+00  0.00000000000E+00  0.13749260303E+04  0.13749260303E+04  0.25500000920E-02 0.  1.
       -2   -1    0    0    0  501  0.00000000000E+00  0.00000000000E+00 -0.12180352854E+04  0.12180352854E+04  0.25500000920E-02 0. -1.
    10030    2    1    2    0    0  0.00000000000E+00  0.00000000000E+00  0.15689074487E+03  0.25929613157E+04  0.25882105168E+04 0.  0.
        3    1    3    3  502    0 -0.44693739188E+03 -0.11705943504E+04  0.40255774568E+03  0.13160915296E+04  0.10100000352E+00 0.  1.
       -3    1    3    3    0  502  0.44693739188E+03  0.11705943504E+04 -0.24566700080E+03  0.12768697862E+04  0.10100000352E+00 0. -1.
</event>
<event>
 5   0  0.2440590E-06  0.2582902E+04  0.7818609E-02  0.8374032E-01
        1   -1    0    0  501    0  0.00000000000E+00  0.00000000000E+00  0.24986040921E+04  0.24986040921E+04  0.50400001928E-02 0. -1.
       -1   -1    0    0    0  501  0.00000000000E+00  0.00000000000E+00 -0.66751076836E+03  0.66751076838E+03  0.50400001928E-02 0.  1.
    10030    2    1    2    0    0  0.00000000000E+00  0.00000000000E+00  0.18310933238E+04  0.31661148605E+04  0.25829015757E+04 0.  0.
        1    1    3    3  502    0 -0.10693772858E+04  0.25482718061E+03  0.84766414337E+02  0.11025833376E+04  0.50400001928E-02 0.  1.
       -1    1    3    3    0  502  0.10693772858E+04 -0.25482718061E+03  0.17463269094E+04  0.20635315229E+04  0.50400001928E-02 0. -1.
</event>
<event>
 5   0  0.2471488E-06  0.2640477E+04  0.7818609E-02  0.8354581E-01
        1   -1    0    0  501    0  0.00000000000E+00  0.00000000000E+00  0.21006690344E+04  0.21006690344E+04  0.50400001928E-02 0. -1.
       -1   -1    0    0    0  501  0.00000000000E+00  0.00000000000E+00 -0.82974961619E+03  0.82974961621E+03  0.50400001928E-02 0.  1.
    10030    2    1    2    0    0  0.00000000000E+00  0.00000000000E+00  0.12709194182E+04  0.29304186506E+04  0.26404767184E+04 0.  0.
        4    1    3    3  502    0 -0.12184421734E+04 -0.43077670690E+03  0.93502078860E+03  0.15951286434E+04  0.12699999809E+01 0. -1.
       -4    1    3    3    0  502  0.12184421734E+04  0.43077670690E+03  0.33589862962E+03  0.13352900072E+04  0.12699999809E+01 0.  1.
</event>
<event>
 5   0  0.2456600E-06  0.2599713E+04  0.7818609E-02  0.8368299E-01
       -1   -1    0    0    0  501  0.00000000000E+00  0.00000000000E+00  0.10038760536E+04  0.10038760536E+04  0.50400001928E-02 0. -1.
        1   -1    0    0  501    0  0.00000000000E+00  0.00000000000E+00 -0.16831030504E+04  0.16831030504E+04  0.50400001928E-02 0.  1.
    10030    2    1    2    0    0  0.00000000000E+00  0.00000000000E+00 -0.67922699683E+03  0.26869791040E+04  0.25997129442E+04 0.  0.
        5    1    3    3  502    0 -0.48232582622E+02  0.63862314674E+03  0.82947842391E+03  0.10479610925E+04  0.46999998093E+01 0. -1.
       -5    1    3    3    0  502  0.48232582622E+02 -0.63862314674E+03 -0.15087054207E+04  0.16390180115E+04  0.46999998093E+01 0.  1.
</event>
<event>
 5   0  0.6173140E-06  0.2548155E+04  0.7818609E-02  0.8386028E-01
        2   -1    0    0  501    0  0.00000000000E+00  0.00000000000E+00  0.11015965131E+04  0.11015965131E+04  0.25500000920E-02 0. -1.
       -2   -1    0    0    0  501  0.00000000000E+00  0.00000000000E+00 -0.14735645289E+04  0.14735645289E+04  0.25500000920E-02 0.  1.
    10030    2    1    2    0    0  0.00000000000E+00  0.00000000000E+00 -0.37196801579E+03  0.25751610421E+04  0.25481550557E+04 0.  0.
        3    1    3    3  502    0 -0.13241757614E+03 -0.11186840096E+04  0.41554289127E+03  0.12006932299E+04  0.10100000352E+00 0.  1.
       -3    1    3    3    0  502  0.13241757614E+03  0.11186840096E+04 -0.78751090706E+03  0.13744678122E+04  0.10100000352E+00 0. -1.
</event>
<event>
 5   0  0.2440590E-06  0.2598598E+04  0.7818609E-02  0.8368677E-01
        1   -1    0    0  501    0  0.00000000000E+00  0.00000000000E+00  0.17080370825E+04  0.17080370825E+04  0.50400001928E-02 0. -1.
       -1   -1    0    0    0  501  0.00000000000E+00  0.00000000000E+00 -0.98837333366E+03  0.98837333367E+03  0.50400001928E-02 0.  1.
    10030    2    1    2    0    0  0.00000000000E+00  0.00000000000E+00  0.71966374884E+03  0.26964104162E+04  0.25985983185E+04 0.  0.
        1    1    3    3  502    0  0.92647300560E+03 -0.81161759567E+03 -0.69383822434E+02  0.12336488425E+04  0.50400001928E-02 0.  1.
       -1    1    3    3    0  502 -0.92647300560E+03  0.81161759567E+03  0.78904757127E+03  0.14627615737E+04  0.50400001928E-02 0. -1.
</event>
<event>
 5   0  0.5940748E-06  0.2607212E+04  0.7818609E-02  0.8365756E-01
       -2   -1    0    0    0  501  0.00000000000E+00  0.00000000000E+00  0.87488754326E+03  0.87488754326E+03  0.25500000920E-02 0. -1.
        2   -1    0    0  501    0  0.00000000000E+00  0.00000000000E+00 -0.19424080720E+04  0.19424080720E+04  0.25500000920E-02 0.  1.
    10030    2    1    2    0    0  0.00000000000E+00  0.00000000000E+00 -0.10675205287E+04  0.28172956153E+04  0.26072120176E+04 0.  0.
        1    1    3    3  502    0 -0.70660315135E+03  0.77570684148E+03  0.30212068343E+03  0.10919185065E+04  0.50400001928E-02 0. -1.
       -1    1    3    3    0  502  0.70660315135E+03 -0.77570684148E+03 -0.13696412122E+04  0.17253771088E+04  0.50400001928E-02 0.  1.
</event>
<event>
 5   0  0.2471488E-06  0.2596701E+04  0.7818609E-02  0.8369323E-01
       -1   -1    0    0    0  501  0.00000000000E+00  0.00000000000E+00  0.89589884235E+03  0.89589884236E+03  0.50400001928E-02 0.  1.
        1   -1    0    0  501    0  0.00000000000E+00  0.00000000000E+00 -0.18815890625E+04  0.18815890625E+04  0.50400001928E-02 0. -1.
    10030    2    1    2    0    0  0.00000000000E+00  0.00000000000E+00 -0.98569022016E+03  0.27774879049E+04  0.25967005703E+04 0.  0.
        4    1    3    3  502    0 -0.16565299897E+03  0.46152296392E+02  0.88366353823E+03  0.90024097454E+03  0.12699999809E+01 0.  1.
       -4    1    3    3    0  502  0.16565299897E+03 -0.46152296392E+02 -0.18693537584E+04  0.18772469303E+04  0.12699999809E+01 0. -1.
</event>
<event>
 5   0  0.2456600E-06  0.2604049E+04  0.7818609E-02  0.8366827E-01
       -1   -1    0    0    0  501  0.00000000000E+00  0.00000000000E+00  0.14205190061E+04  0.14205190061E+04  0.50400001928E-02 0. -1.
        1   -1    0    0  501    0  0.00000000000E+00  0.00000000000E+00 -0.11934146231E+04  0.11934146231E+04  0.50400001928E-02 0.  1.
    10030    2    1    2    0    0  0.00000000000E+00  0.00000000000E+00  0.22710438299E+03  0.26139336291E+04  0.26040492731E+04 0.  0.
        5    1    3    3  502    0 -0.12482402645E+04  0.36484870603E+03  0.17725747140E+03  0.13125016714E+04  0.46999998093E+01 0. -1.
       -5    1    3    3    0  502  0.12482402645E+04 -0.36484870603E+03  0.49846911589E+02  0.13014319578E+04  0.46999998093E+01 0.  1.
</event>
<event>
 5   0  0.2503292E-06  0.2602613E+04  0.7818609E-02  0.8367314E-01
        1   -1    0    0  501    0  0.00000000000E+00  0.00000000000E+00  0.20709654923E+04  0.20709654923E+04  0.50400001928E-02 0. -1.
       -1   -1    0    0    0  501  0.00000000000E+00  0.00000000000E+00 -0.81768535653E+03  0.81768535654E+03  0.50400001928E-02 0.  1.
    10030    2    1    2    0    0  0.00000000000E+00  0.00000000000E+00  0.12532801358E+04  0.28886508488E+04  0.26026126542E+04 0.  0.
        2    1    3    3  502    0  0.12779396846E+04  0.15123411381E+03  0.84127546951E+03  0.15374478886E+04  0.25500000920E-02 0. -1.
       -2    1    3    3    0  502 -0.12779396846E+04 -0.15123411381E+03  0.41200466626E+03  0.13512029602E+04  0.25500000920E-02 0.  1.
</event>
<event>
 5   0  0.2471488E-06  0.2593225E+04  0.7818609E-02  0.8370506E-01
        1   -1    0    0  501    0  0.00000000000E+00  0.00000000000E+00  0.15852390103E+04  0.15852390103E+04  0.50400001928E-02 0.  1.
       -1   -1    0    0    0  501  0.00000000000E+00  0.00000000000E+00 -0.10605367978E+04  0.10605367978E+04  0.50400001928E-02 0. -1.
    10030    2    1    2    0    0  0.00000000000E+00  0.00000000000E+00  0.52470221251E+03  0.26457758081E+04  0.25932252534E+04 0.  0.
        4    1    3    3  502    0 -0.60526689936E+02 -0.23128279255E+03  0.15625570887E+04  0.15807408006E+04  0.12699999809E+01 0.  1.
       -4    1    3    3    0  502  0.60526689936E+02  0.23128279255E+03 -0.10378548762E+04  0.10650350075E+04  0.12699999809E+01 0. -1.
</event>
<event>
 5   0  0.2456600E-06  0.2587165E+04  0.7818609E-02  0.8372574E-01
       -1   -1    0    0    0  501  0.00000000000E+00  0.00000000000E+00  0.19338959657E+04  0.19338959657E+04  0.50400001928E-02 0.  1.
        1   -1    0    0  501    0  0.00000000000E+00  0.00000000000E+00 -0.86527681486E+03  0.86527681488E+03  0.50400001928E-02 0. -1.
    10030    2    1    2    0    0  0.00000000000E+00  0.00000000000E+00  0.10686191509E+04  0.27991727806E+04  0.25871647350E+04 0.  0.
        5    1    3    3  502    0  0.11851327817E+04 -0.50043123575E+03  0.38769841570E+03  0.13436157499E+04  0.46999998093E+01 0. -1.
       -5    1    3    3    0  502 -0.11851327817E+04  0.50043123575E+03  0.68092073516E+03  0.14555570307E+04  0.46999998093E+01 0.  1.
</event>
<event>
 5   0  0.6158063E-06  0.2550163E+04  0.7818609E-02  0.8385330E-01
        2   -1    0    0  501    0  0.00000000000E+00  0.00000000000E+00  0.12298783103E+04  0.12298783103E+04  0.25500000920E-02 0. -1.
       -2   -1    0    0    0  501  0.00000000000E+00  0.00000000000E+00 -0.13219458077E+04  0.13219458077E+04  0.25500000920E-02 0.  1.
    10030    2    1    2    0    0  0.00000000000E+00  0.00000000000E+00 -0.92067497474E+02  0.25518241180E+04  0.25501627213E+04 0.  0.
        2    1    3    3  502    0 -0.11228000625E+04  0.49562129129E+02  0.55660115599E+03  0.12541695388E+04  0.25500000920E-02 0. -1.
       -2    1    3    3    0  502  0.11228000625E+04 -0.49562129129E+02 -0.64866865346E+03  0.12976545793E+04  0.25500000920E-02 0.  1.
</event>
<event>
 5   0  0.2440590E-06  0.2629029E+04  0.7818609E-02  0.8358407E-01
       -1   -1    0    0    0  501  0.00000000000E+00  0.00000000000E+00  0.11029839687E+04  0.11029839687E+04  0.50400001928E-02 0.  1.
        1   -1    0    0  501    0  0.00000000000E+00  0.00000000000E+00 -0.15666118615E+04  0.15666118615E+04  0.50400001928E-02 0. -1.
    10030    2    1    2    0    0  0.00000000000E+00  0.00000000000E+00 -0.46362789284E+03  0.26695958302E+04  0.26290285418E+04 0.  0.
        1    1    3    3  502    0 -0.24094141762E+03 -0.10641949066E+04  0.51256256712E+03  0.12055222732E+04  0.50400001928E-02 0.  1.
       -1    1    3    3    0  502  0.24094141762E+03  0.10641949066E+04 -0.97619045996E+03  0.14640735570E+04  0.50400001928E-02 0. -1.
</event>
<event>
 5   0  0.2440590E-06  0.2609097E+04  0.7818609E-02  0.8365118E-01
        1   -1    0    0  501    0  0.00000000000E+00  0.00000000000E+00  0.14337791764E+04  0.14337791764E+04  0.50400001928E-02 0.  1.
       -1   -1    0    0    0  501  0.00000000000E+00  0.00000000000E+00 -0.11869659739E+04  0.11869659739E+04  0.50400001928E-02 0. -1.
    10030    2    1    2    0    0  0.00000000000E+00  0.00000000000E+00  0.24681320256E+03  0.26207451503E+04  0.26090972358E+04 0.  0.
        1    1    3    3  502    0  0.11003294880E+04  0.39577127550E+03 -0.45752404167E+03  0.12556624281E+04  0.50400001928E-02 0. -1.
       -1    1    3    3    0  502 -0.11003294880E+04 -0.39577127550E+03  0.70433724423E+03  0.13650827222E+04  0.50400001928E-02 0.  1.
</event>
<event>
 5   0  0.2440590E-06  0.2589496E+04  0.7818609E-02  0.8371778E-01
       -1   -1    0    0    0  501  0.00000000000E+00  0.00000000000E+00  0.90743719290E+03  0.90743719291E+03  0.50400001928E-02 0.  1.
        1   -1    0    0  501    0  0.00000000000E+00  0.00000000000E+00 -0.18473701299E+04  0.18473701299E+04  0.50400001928E-02 0. -1.
    10030    2    1    2    0    0  0.00000000000E+00  0.00000000000E+00 -0.93993293695E+03  0.27548073228E+04  0.25894959856E+04 0.  0.
        1    1    3    3  502    0 -0.69511547462E+02  0.11179715728E+04  0.22085770392E+03  0.11416962898E+04  0.50400001928E-02 0. -1.
       -1    1    3    3    0  502  0.69511547462E+02 -0.11179715728E+04 -0.11607906409E+04  0.16131110330E+04  0.50400001928E-02 0.  1.
</event>
<event>
 5   0  0.5942229E-06  0.2605188E+04  0.7818609E-02  0.8366441E-01
        2   -1    0    0  501    0  0.00000000000E+00  0.00000000000E+00  0.15771490248E+04  0.15771490248E+04  0.25500000920E-02 0.  1.
       -2   -1    0    0    0  501  0.00000000000E+00  0.00000000000E+00 -0.10758342420E+04  0.10758342420E+04  0.25500000920E-02 0. -1.
    10030    2    1    2    0    0  0.00000000000E+00  0.00000000000E+00  0.50131478286E+03  0.26529832668E+04  0.26051878440E+04 0.  0.
        4    1    3    3  502    0 -0.11619528129E+04  0.57043214471E+03  0.39900825268E+03  0.13545244072E+04  0.12699999809E+01 0.  1.
       -4    1    3    3    0  502  0.11619528129E+04 -0.57043214471E+03  0.10230653017E+03  0.12984588596E+04  0.12699999809E+01 0. -1.
</event>
<event>
 5   0  0.2333979E-06  0.2609357E+04  0.7818609E-02  0.8365030E-01
       -1   -1    0    0    0  501  0.00000000000E+00  0.00000000000E+00  0.78492324789E+03  0.78492324790E+03  0.50400001928E-02 0.  1.
        1   -1    0    0  501    0  0.00000000000E+00  0.00000000000E+00 -0.21686012252E+04  0.21686012252E+04  0.50400001928E-02 0. -1.
    10030    2    1    2    0    0  0.00000000000E+00  0.00000000000E+00 -0.13836779773E+04  0.29535244731E+04  0.26093566388E+04 0.  0.
        3    1    3    3  502    0  0.23592242326E+02 -0.58240932990E+03 -0.20130249744E+04  0.20957162926E+04  0.10100000352E+00 0. -1.
       -3    1    3    3    0  502 -0.23592242326E+02  0.58240932990E+03  0.62934699712E+03  0.85780818044E+03  0.10100000352E+00 0.  1.
</event>
<event>
 5   0  0.5942229E-06  0.2692749E+04  0.7818609E-02  0.8337362E-01
       -2   -1    0    0    0  501  0.00000000000E+00  0.00000000000E+00  0.14222778786E+04  0.14222778786E+04  0.25500000920E-02 0.  1.
        2   -1    0    0  501    0  0.00000000000E+00  0.00000000000E+00 -0.12745216981E+04  0.12745216981E+04  0.25500000920E-02 0. -1.
    10030    2    1    2    0    0  0.00000000000E+00  0.00000000000E+00  0.14775618052E+03  0.26967995767E+04  0.26927487941E+04 0.  0.
        4    1    3    3  502    0  0.61262697656E+03  0.11653628624E+04  0.35597537368E+03  0.13638557449E+04  0.12699999809E+01 0.  1.
       -4    1    3    3    0  502 -0.61262697656E+03 -0.11653628624E+04 -0.20821919316E+03  0.13329438318E+04  0.12699999809E+01 0. -1.
</event>
<event>
 5   0  0.6173140E-06  0.2600494E+04  0.7818609E-02  0.8368033E-01
        2   -1    0    0  501    0  0.00000000000E+00  0.00000000000E+00  0.14808475410E+04  0.14808475410E+04  0.25500000920E-02 0. -1.
       -2   -1    0    0    0  501  0.00000000000E+00  0.00000000000E+00 -0.11416723423E+04  0.11416723423E+04  0.25500000920E-02 0.  1.
    10030    2    1    2    0    0  0.00000000000E+00  0.00000000000E+00  0.33917519867E+03  0.26225198833E+04  0.26004943228E+04 0.  0.
        3    1    3    3  502    0 -0.12412917171E+04  0.18549357688E+03  0.51221462716E+03  0.13555725095E+04  0.10100000352E+00 0.  1.
       -3    1    3    3    0  502  0.12412917171E+04 -0.18549357688E+03 -0.17303942849E+03  0.12669473738E+04  0.10100000352E+00 0. -1.
</event>
<event>
 5   0  0.5940748E-06  0.2585045E+04  0.7818609E-02  0.8373299E-01
        2   -1    0    0  501    0  0.00000000000E+00  0.00000000000E+00  0.20867383580E+04  0.20867383580E+04  0.25500000920E-02 0.  1.
       -2   -1    0    0    0  501  0.00000000000E+00  0.00000000000E+00 -0.80058664072E+03  0.80058664073E+03  0.25500000920E-02 0. -1.
    10030    2    1    2    0    0  0.00000000000E+00  0.00000000000E+00  0.12861517173E+04  0.28873249987E+04  0.25850453397E+04 0.  0.
        1    1    3    3  502    0  0.18950406898E+02 -0.90827680527E+03 -0.38382876600E+03  0.98623039628E+03  0.50400001928E-02 0. -1.
       -1    1    3    3    0  502 -0.18950406898E+02  0.90827680527E+03  0.16699804833E+04  0.19010946024E+04  0.50400001928E-02 0.  1.
</event>
<event>
 5   0  0.5942229E-06  0.2589077E+04  0.7818609E-02  0.8371921E-01
       -2   -1    0    0    0  501  0.00000000000E+00  0.00000000000E+00  0.14987531506E+04  0.14987531506E+04  0.25500000920E-02 0.  1.
        2   -1    0    0  501    0  0.00000000000E+00  0.00000000000E+00 -0.11181490334E+04  0.11181490334E+04  0.25500000920E-02 0. -1.
    10030    2    1    2    0    0  0.00000000000E+00  0.00000000000E+00  0.38060411716E+03  0.26169021840E+04  0.25890765818E+04 0.  0.
        4    1    3    3  502    0  0.51523626161E+03 -0.35811371261E+01 -0.10100413512E+04  0.11338722917E+04  0.12699999809E+01 0. -1.
       -4    1    3    3    0  502 -0.51523626161E+03  0.35811371261E+01  0.13906454684E+04  0.14830298923E+04  0.12699999809E+01 0.  1.
</event>
<event>
 5   0  0.2333979E-06  0.2612042E+04  0.7818609E-02  0.8364122E-01
        1   -1    0    0  501    0  0.00000000000E+00  0.00000000000E+00  0.94633273022E+03  0.94633273024E+03  0.50400001928E-02 0.  1.
       -1   -1    0    0    0  501  0.00000000000E+00  0.00000000000E+00 -0.18024221171E+04  0.18024221171E+04  0.50400001928E-02 0. -1.
    10030    2    1    2    0    0  0.00000000000E+00  0.00000000000E+00 -0.85608938690E+03  0.27487548474E+04  0.26120421460E+04 0.  0.
        3    1    3    3  502    0 -0.26326858211E+03  0.10803677261E+04 -0.11488674222E+04  0.15988749588E+04  0.10100000352E+00 0. -1.
       -3    1    3    3    0  502  0.26326858211E+03 -0.10803677261E+04  0.29277803535E+03  0.11498798885E+04  0.10100000352E+00 0.  1.
</event>
<event>
 5   0  0.6173140E-06  0.2598394E+04  0.7818609E-02  0.8368747E-01
       -2   -1    0    0    0  501  0.00000000000E+00  0.00000000000E+00  0.66891293922E+03  0.66891293922E+03  0.25500000920E-02 0. -1.
        2   -1    0    0  501    0  0.00000000000E+00  0.00000000000E+00 -0.25233676750E+04  0.25233676750E+04  0.25500000920E-02 0.  1.
    10030    2    1    2    0    0  0.00000000000E+00  0.00000000000E+00 -0.18544547357E+04  0.31922806142E+04  0.25983943413E+04 0.  0.
        3    1    3    3  502    0  0.35902348448E+03  0.12439900549E+04 -0.10589994575E+04  0.16726891464E+04  0.10100000352E+00 0.  1.
       -3    1    3    3    0  502 -0.35902348448E+03 -0.12439900549E+04 -0.79545527818E+03  0.15195914678E+04  0.10100000352E+00 0. -1.
</event>
<event>
 5   0  0.2333979E-06  0.2554823E+04  0.7818609E-02  0.8383711E-01
       -1   -1    0    0    0  501  0.00000000000E+00  0.00000000000E+00  0.90235408109E+03  0.90235408111E+03  0.50400001928E-02 0. -1.
        1   -1    0    0  501    0  0.00000000000E+00  0.00000000000E+00 -0.18083583243E+04  0.18083583243E+04  0.50400001928E-02 0.  1.
    10030    2    1    2    0    0  0.00000000000E+00  0.00000000000E+00 -0.90600424318E+03  0.27107124054E+04  0.25548225097E+04 0.  0.
        3    1    3    3  502    0 -0.43359874087E+03 -0.83234282484E+03  0.46646466089E+03  0.10480418580E+04  0.10100000352E+00 0. -1.
       -3    1    3    3    0  502  0.43359874087E+03  0.83234282484E+03 -0.13724689041E+04  0.16626705473E+04  0.10100000352E+00 0.  1.
</event>
<event>
 5   0  0.5942229E-06  0.2603445E+04  0.7818609E-02  0.8367032E-01
        2   -1    0    0  501    0  0.00000000000E+00  0.00000000000E+00  0.10098224659E+04  0.10098224659E+04  0.25500000920E-02 0. -1.
       -2   -1    0    0    0  501  0.00000000000E+00  0.00000000000E+00 -0.16779992257E+04  0.16779992257E+04  0.25500000920E-02 0.  1.
    10030    2    1    2    0    0  0.00000000000E+00  0.00000000000E+00 -0.66817675976E+03  0.26878216916E+04  0.26034448839E+04 0.  0.
        4    1    3    3  502    0 -0.40411320233E+03 -0.52146891783E+03 -0.14926169124E+04  0.16319142663E+04  0.12699999809E+01 0.  1.
       -4    1    3    3    0  502  0.40411320233E+03  0.52146891783E+03  0.82444015265E+03  0.10559074253E+04  0.12699999809E+01 0. -1.
</event>
<event>
 5   0  0.6158063E-06  0.2608886E+04  0.7818609E-02  0.8365189E-01
        2   -1    0    0  501    0  0.00000000000E+00  0.00000000000E+00  0.18553687801E+04  0.18553687801E+04  0.25500000920E-02 0. -1.
       -2   -1    0    0    0  501  0.00000000000E+00  0.00000000000E+00 -0.91710697207E+03  0.91710697208E+03  0.25500000920E-02 0.  1.
    10030    2    1    2    0    0  0.00000000000E+00  0.00000000000E+00  0.93826180805E+03  0.27724757522E+04  0.26088860796E+04 0.  0.
        2    1    3    3  502    0  0.49867080507E+03  0.11996312196E+04  0.34436370690E+03  0.13440141359E+04  0.25500000920E-02 0. -1.
       -2    1    3    3    0  502 -0.49867080507E+03 -0.11996312196E+04  0.59389810115E+03  0.14284616163E+04  0.25500000920E-02 0.  1.
</event>
<event>
 5   0  0.5940748E-06  0.2595197E+04  0.7818609E-02  0.8369835E-01
        2   -1    0    0  501    0  0.00000000000E+00  0.00000000000E+00  0.18736039643E+04  0.18736039643E+04  0.25500000920E-02 0.  1.
       -2   -1    0    0    0  501  0.00000000000E+00  0.00000000000E+00 -0.89867522682E+03  0.89867522682E+03  0.25500000920E-02 0. -1.
    10030    2    1    2    0    0  0.00000000000E+00  0.00000000000E+00  0.97492873747E+03  0.27722791911E+04  0.25951966920E+04 0.  0.
        1    1    3    3  502    0  0.56665453251E+03  0.72375653896E+03  0.14658417465E+04  0.17302060318E+04  0.50400001928E-02 0.  1.
       -1    1    3    3    0  502 -0.56665453251E+03 -0.72375653896E+03 -0.49091300898E+03  0.10420731593E+04  0.50400001928E-02 0. -1.
</event>
<event>
 5   0  0.5940748E-06  0.2601281E+04  0.7818609E-02  0.8367766E-01
       -2   -1    0    0    0  501  0.00000000000E+00  0.00000000000E+00  0.10750771307E+04  0.10750771307E+04  0.25500000920E-02 0.  1.
        2   -1    0    0  501    0  0.00000000000E+00  0.00000000000E+00 -0.15735302121E+04  0.15735302121E+04  0.25500000920E-02 0. -1.
    10030    2    1    2    0    0  0.00000000000E+00  0.00000000000E+00 -0.49845308140E+03  0.26486073427E+04  0.26012814883E+04 0.  0.
        1    1    3    3  502    0 -0.66377789894E+03  0.96234447084E+02 -0.13838631357E+04  0.15378359296E+04  0.50400001928E-02 0. -1.
       -1    1    3    3    0  502  0.66377789894E+03 -0.96234447084E+02  0.88541005431E+03  0.11107714131E+04  0.50400001928E-02 0.  1.
</event>
<event>
 5   0  0.6158063E-06  0.2616162E+04  0.7818609E-02  0.8362732E-01
        2   -1    0    0  501    0  0.00000000000E+00  0.00000000000E+00  0.21912520927E+04  0.21912520927E+04  0.25500000920E-02 0. -1.
       -2   -1    0    0    0  501  0.00000000000E+00  0.00000000000E+00 -0.78086652148E+03  0.78086652149E+03  0.25500000920E-02 0.  1.
    10030    2    1    2    0    0  0.00000000000E+00  0.00000000000E+00  0.14103855712E+04  0.29721186142E+04  0.26161616153E+04 0.  0.
        2    1    3    3  502    0  0.56675132646E+03  0.62305076233E+03 -0.43181966405E+03  0.94650279490E+03  0.25500000920E-02 0.  1.
       -2    1    3    3    0  502 -0.56675132646E+03 -0.62305076233E+03  0.18422052352E+04  0.20256158193E+04  0.25500000920E-02 0. -1.
</event>
<event>
 5   0  0.2503292E-06  0.2603602E+04  0.7818609E-02  0.8366979E-01
       -1   -1    0    0    0  501  0.00000000000E+00  0.00000000000E+00  0.98977301314E+03  0.98977301316E+03  0.50400001928E-02 0. -1.
        1   -1    0    0  501    0  0.00000000000E+00  0.00000000000E+00 -0.17121970827E+04  0.17121970827E+04  0.50400001928E-02 0.  1.
    10030    2    1    2    0    0  0.00000000000E+00  0.00000000000E+00 -0.72242406957E+03  0.27019700959E+04  0.26036024779E+04 0.  0.
        2    1    3    3  502    0  0.23358936163E+03  0.14663328316E+02  0.96775905370E+03  0.99565887185E+03  0.25500000920E-02 0. -1.
       -2    1    3    3    0  502 -0.23358936163E+03 -0.14663328316E+02 -0.16901831233E+04  0.17063112240E+04  0.25500000920E-02 0.  1.
</event>
<event>
 5   0  0.2503292E-06  0.2585816E+04  0.7818609E-02  0.8373035E-01
        1   -1    0    0  501    0  0.00000000000E+00  0.00000000000E+00  0.15147025857E+04  0.15147025857E+04  0.50400001928E-02 0. -1.
       -1   -1    0    0    0  501  0.00000000000E+00  0.00000000000E+00 -0.11035903611E+04  0.11035903611E+04  0.50400001928E-02 0.  1.
    10030    2    1    2    0    0  0.00000000000E+00  0.00000000000E+00  0.41111222462E+03  0.26182929468E+04  0.25858160596E+04 0.  0.
        2    1    3    3  502    0 -0.10507536875E+04 -0.39917321149E+03 -0.44136458789E+03  0.12075699831E+04  0.25500000920E-02 0.  1.
       -2    1    3    3    0  502  0.10507536875E+04  0.39917321149E+03  0.85247681251E+03  0.14107229637E+04  0.25500000920E-02 0. -1.
</event>
<event>
 5   0  0.2471488E-06  0.2600253E+04  0.7818609E-02  0.8368115E-01
        1   -1    0    0  501    0  0.00000000000E+00  0.00000000000E+00  0.20876269280E+04  0.20876269280E+04  0.50400001928E-02 0. -1.
       -1   -1    0    0    0  501  0.00000000000E+00  0.00000000000E+00 -0.80968921351E+03  0.80968921353E+03  0.50400001928E-02 0.  1.
    10030    2    1    2    0    0  0.00000000000E+00  0.00000000000E+00  0.12779377145E+04  0.28973161415E+04  0.26002530688E+04 0.  0.
        4    1    3    3  502    0 -0.37728748982E+03 -0.10622745422E+04 -0.82760510010E+02  0.11303202943E+04  0.12699999809E+01 0. -1.
       -4    1    3    3    0  502  0.37728748982E+03  0.10622745422E+04  0.13606982245E+04  0.17669958472E+04  0.12699999809E+01 0.  1.
</event>
<event>
 5   0  0.2456600E-06  0.2601611E+04  0.7818609E-02  0.8367654E-01
       -1   -1    0    0    0  501  0.00000000000E+00  0.00000000000E+00  0.11968046745E+04  0.11968046745E+04  0.50400001928E-02 0.  1.
        1   -1    0    0  501    0  0.00000000000E+00  0.00000000000E+00 -0.14138434337E+04  0.14138434337E+04  0.50400001928E-02 0. -1.
    10030    2    1    2    0    0  0.00000000000E+00  0.00000000000E+00 -0.21703875920E+03  0.26106481082E+04  0.26016106015E+04 0.  0.
        5    1    3    3  502    0 -0.82846884289E+03 -0.95113688625E+03  0.21046905229E+03  0.12788046418E+04  0.46999998093E+01 0. -1.
       -5    1    3    3    0  502  0.82846884289E+03  0.95113688625E+03 -0.42750781148E+03  0.13318434664E+04  0.46999998093E+01 0.  1.
</event>
<event>
 5   0  0.2456600E-06  0.2595719E+04  0.7818609E-02  0.8369657E-01
       -1   -1    0    0    0  501  0.00000000000E+00  0.00000000000E+00  0.13213208328E+04  0.13213208328E+04  0.50400001928E-02 0. -1.
        1   -1    0    0  501    0  0.00000000000E+00  0.00000000000E+00 -0.12748145986E+04  0.12748145986E+04  0.50400001928E-02 0.  1.
    10030    2    1    2    0    0  0.00000000000E+00  0.00000000000E+00  0.46506234226E+02  0.25961354314E+04  0.25957188500E+04 0.  0.
        5    1    3    3  502    0  0.86047545081E+02  0.81456414978E+03  0.10301410937E+04  0.13161047439E+04  0.46999998093E+01 0. -1.
       -5    1    3    3    0  502 -0.86047545081E+02 -0.81456414978E+03 -0.98363485946E+03  0.12800306875E+04  0.46999998093E+01 0.  1.
</event>
<event>
 5   0  0.6173140E-06  0.2631269E+04  0.7818609E-02  0.8357657E-01
       -2   -1    0    0    0  501  0.00000000000E+00  0.00000000000E+00  0.17307822398E+04  0.17307822398E+04  0.25500000920E-02 0. -1.
        2   -1    0    0  501    0  0.00000000000E+00  0.00000000000E+00 -0.10000646771E+04  0.10000646771E+04  0.25500000920E-02 0.  1.
    10030    2    1    2    0    0  0.00000000000E+00  0.00000000000E+00  0.73071756272E+03  0.27308469169E+04  0.26312690336E+04 0.  0.
        3    1    3    3  502    0  0.94315807841E+03 -0.60399215323E+03 -0.35108481317E+03  0.11737181256E+04  0.10100000352E+00 0.  1.
       -3    1    3    3    0  502 -0.94315807841E+03  0.60399215323E+03  0.10818023759E+04  0.15571287913E+04  0.10100000352E+00 0. -1.
</event>
<event>
 5   0  0.6173140E-06  0.2570180E+04  0.7818609E-02  0.8378401E-01
        2   -1    0    0  501    0  0.00000000000E+00  0.00000000000E+00  0.25672246814E+04  0.25672246814E+04  0.25500000920E-02 0.  1.
       -2   -1    0    0    0  501  0.00000000000E+00  0.00000000000E+00 -0.64328477840E+03  0.64328477841E+03  0.25500000920E-02 0. -1.
    10030    2    1    2    0    0  0.00000000000E+00  0.00000000000E+00  0.19239399030E+04  0.32105094599E+04  0.25701801963E+04 0.  0.
        3    1    3    3  502    0  0.27385698961E+03  0.87751924916E+02  0.25265162766E+04  0.25428296359E+04  0.10100000352E+00 0.  1.
       -3    1    3    3    0  502 -0.27385698961E+03 -0.87751924916E+02 -0.60257637358E+03  0.66767982393E+03  0.10100000352E+00 0. -1.
</event>
<event>
 5   0  0.2456600E-06  0.2581135E+04  0.7818609E-02  0.8374638E-01
        1   -1    0    0  501    0  0.00000000000E+00  0.00000000000E+00  0.14551901558E+04  0.14551901558E+04  0.50400001928E-02 0. -1.
       -1   -1    0    0    0  501  0.00000000000E+00  0.00000000000E+00 -0.11445678703E+04  0.11445678703E+04  0.50400001928E-02 0.  1.
    10030    2    1    2    0    0  0.00000000000E+00  0.00000000000E+00  0.31062228551E+03  0.25997580262E+04  0.25811345549E+04 0.  0.
        5    1    3    3  502    0 -0.64153255587E+03 -0.52380976897E+03 -0.84157811856E+03  0.11807694584E+04  0.46999998093E+01 0.  1.
       -5    1    3    3    0  502  0.64153255587E+03  0.52380976897E+03  0.11522004041E+04  0.14189885678E+04  0.46999998093E+01 0. -1.
</event>
<event>
 5   0  0.5940748E-06  0.2606167E+04  0.7818609E-02  0.8366109E-01
        2   -1    0    0  501    0  0.00000000000E+00  0.00000000000E+00  0.86777307404E+03  0.86777307404E+03  0.25500000920E-02 0.  1.
       -2   -1    0    0    0  501  0.00000000000E+00  0.00000000000E+00 -0.19567638137E+04  0.19567638137E+04  0.25500000920E-02 0. -1.
    10030    2    1    2    0    0  0.00000000000E+00  0.00000000000E+00 -0.10889907397E+04  0.28245368878E+04  0.26061672623E+04 0.  0.
        1    1    3    3  502    0 -0.10556845178E+04 -0.67021768568E+03 -0.14722269509E+03  0.12591012943E+04  0.50400001928E-02 0.  1.
       -1    1    3    3    0  502  0.10556845178E+04  0.67021768568E+03 -0.94176804458E+03  0.15654355934E+04  0.50400001928E-02 0. -1.
</event>
<event>
 5   0  0.2503292E-06  0.2597519E+04  0.7818609E-02  0.8369045E-01
        1   -1    0    0  501    0  0.00000000000E+00  0.00000000000E+00  0.15017360780E+04  0.15017360780E+04  0.50400001928E-02 0. -1.
       -1   -1    0    0    0  501  0.00000000000E+00  0.00000000000E+00 -0.11232172548E+04  0.11232172548E+04  0.50400001928E-02 0.  1.
    10030    2    1    2    0    0  0.00000000000E+00  0.00000000000E+00  0.37851882313E+03  0.26249533328E+04  0.25975187199E+04 0.  0.
        2    1    3    3  502    0  0.12533496797E+04  0.81887430654E+02  0.52318077051E+03  0.13606281967E+04  0.25500000920E-02 0. -1.
       -2    1    3    3    0  502 -0.12533496797E+04 -0.81887430654E+02 -0.14466194738E+03  0.12643251362E+04  0.25500000920E-02 0.  1.
</event>
<event>
 5   0  0.6173140E-06  0.2589838E+04  0.7818609E-02  0.8371661E-01
        2   -1    0    0  501    0  0.00000000000E+00  0.00000000000E+00  0.12668036712E+04  0.12668036712E+04  0.25500000920E-02 0. -1.
       -2   -1    0    0    0  501  0.00000000000E+00  0.00000000000E+00 -0.13236580484E+04  0.13236580484E+04  0.25500000920E-02 0.  1.
    10030    2    1    2    0    0  0.00000000000E+00  0.00000000000E+00 -0.56854377201E+02  0.25904617195E+04  0.25898377363E+04 0.  0.
        3    1    3    3  502    0 -0.10311272894E+04 -0.53836822272E+03  0.54070114452E+03  0.12827398676E+04  0.10100000352E+00 0. -1.
       -3    1    3    3    0  502  0.10311272894E+04  0.53836822272E+03 -0.59755552172E+03  0.13077218519E+04  0.10100000352E+00 0.  1.
</event>
<event>
 5   0  0.5942229E-06  0.2564417E+04  0.7818609E-02  0.8380389E-01
        2   -1    0    0  501    0  0.00000000000E+00  0.00000000000E+00  0.99120473874E+03  0.99120473874E+03  0.25500000920E-02 0. -1.
       -2   -1    0    0    0  501  0.00000000000E+00  0.00000000000E+00 -0.16586465331E+04  0.16586465331E+04  0.25500000920E-02 0.  1.
    10030    2    1    2    0    0  0.00000000000E+00  0.00000000000E+00 -0.66744179434E+03  0.26498512718E+04  0.25644167395E+04 0.  0.
        4    1    3    3  502    0 -0.49360929586E+03  0.11372092596E+04 -0.67198241927E+03  0.14101265978E+04  0.12699999809E+01 0.  1.
       -4    1    3    3    0  502  0.49360929586E+03 -0.11372092596E+04  0.45406249286E+01  0.12397246740E+04  0.12699999809E+01 0. -1.
</event>
<event>
 5   0  0.6161834E-06  0.2586623E+04  0.7818609E-02  0.8372759E-01
        2   -1    0    0  501    0  0.00000000000E+00  0.00000000000E+00  0.12315456633E+04  0.12315456633E+04  0.25500000920E-02 0.  1.
       -2   -1    0    0    0  501  0.00000000000E+00  0.00000000000E+00 -0.13581749950E+04  0.13581749950E+04  0.25500000920E-02 0. -1.
    10030    2    1    2    0    0  0.00000000000E+00  0.00000000000E+00 -0.12662933171E+03  0.25897206583E+04  0.25866229143E+04 0.  0.
        5    1    3    3  502    0 -0.10093579706E+03  0.56094989516E+03 -0.12256441177E+04  0.13516946450E+04  0.46999998093E+01 0. -1.
       -5    1    3    3    0  502  0.10093579706E+03 -0.56094989516E+03  0.10990147860E+04  0.12380260134E+04  0.46999998093E+01 0.  1.
</event>
<event>
 5   0  0.2440590E-06  0.2596849E+04  0.7818609E-02  0.8369272E-01
       -1   -1    0    0    0  501  0.00000000000E+00  0.00000000000E+00  0.10201255862E+04  0.10201255862E+04  0.50400001928E-02 0.  1.
        1   -1    0    0  501    0  0.00000000000E+00  0.00000000000E+00 -0.16526455453E+04  0.16526455453E+04  0.50400001928E-02 0. -1.
    10030    2    1    2    0    0  0.00000000000E+00  0.00000000000E+00 -0.63251995915E+03  0.26727711315E+04  0.25968488641E+04 0.  0.
        1    1    3    3  502    0  0.74941262526E+03  0.96189697696E+03 -0.77544349833E+03  0.14450528351E+04  0.50400001928E-02 0. -1.
       -1    1    3    3    0  502 -0.74941262526E+03 -0.96189697696E+03  0.14292353918E+03  0.12277182964E+04  0.50400001928E-02 0.  1.
</event>
<event>
 5   0  0.2333979E-06  0.2606746E+04  0.7818609E-02  0.8365913E-01
        1   -1    0    0  501    0  0.00000000000E+00  0.00000000000E+00  0.15806644013E+04  0.15806644013E+04  0.50400001928E-02 0. -1.
       -1   -1    0    0    0  501  0.00000000000E+00  0.00000000000E+00 -0.10747257901E+04  0.10747257901E+04  0.50400001928E-02 0.  1.
    10030    2    1    2    0    0  0.00000000000E+00  0.00000000000E+00  0.50593861114E+03  0.26553901914E+04  0.26067457088E+04 0.  0.
        3    1    3    3  502    0  0.99403020479E+03  0.66135953594E+03 -0.27955594063E+03  0.12262316331E+04  0.10100000352E+00 0.  1.
       -3    1    3    3    0  502 -0.99403020479E+03 -0.66135953594E+03  0.78549455177E+03  0.14291585583E+04  0.10100000352E+00 0. -1.
</event>
<event>
 5   0  0.2471488E-06  0.2657118E+04  0.7818609E-02  0.8349054E-01
       -1   -1    0    0    0  501  0.00000000000E+00  0.00000000000E+00  0.16314078384E+04  0.16314078384E+04  0.50400001928E-02 0. -1.
        1   -1    0    0  501    0  0.00000000000E+00  0.00000000000E+00 -0.10819301669E+04  0.10819301669E+04  0.50400001928E-02 0.  1.
    10030    2    1    2    0    0  0.00000000000E+00  0.00000000000E+00  0.54947767150E+03  0.27133380053E+04  0.26571182547E+04 0.  0.
        4    1    3    3  502    0 -0.12756685674E+03 -0.64381045769E+03  0.14542991982E+04  0.15955415943E+04  0.12699999809E+01 0. -1.
       -4    1    3    3    0  502  0.12756685674E+03  0.64381045769E+03 -0.90482152667E+03  0.11177964110E+04  0.12699999809E+01 0.  1.
</event>
<event>
 5   0  0.2456600E-06  0.2593083E+04  0.7818609E-02  0.8370555E-01
       -1   -1    0    0    0  501  0.00000000000E+00  0.00000000000E+00  0.78750380662E+03  0.78750380663E+03  0.50400001928E-02 0.  1.
        1   -1    0    0  501    0  0.00000000000E+00  0.00000000000E+00 -0.21346179057E+04  0.21346179057E+04  0.50400001928E-02 0. -1.
    10030    2    1    2    0    0  0.00000000000E+00  0.00000000000E+00 -0.13471140990E+04  0.29221217123E+04  0.25930828960E+04 0.  0.
        5    1    3    3  502    0 -0.12700752880E+04  0.21739445917E+03 -0.83547700264E+03  0.15357068406E+04  0.46999998093E+01 0. -1.
       -5    1    3    3    0  502  0.12700752880E+04 -0.21739445917E+03 -0.51163709640E+03  0.13864148717E+04  0.46999998093E+01 0.  1.
</event>
<event>
 5   0  0.6173140E-06  0.2593003E+04  0.7818609E-02  0.8370582E-01
       -2   -1    0    0    0  501  0.00000000000E+00  0.00000000000E+00  0.80105578509E+03  0.80105578509E+03  0.25500000920E-02 0.  1.
        2   -1    0    0  501    0  0.00000000000E+00  0.00000000000E+00 -0.20983759321E+04  0.20983759321E+04  0.25500000920E-02 0. -1.
    10030    2    1    2    0    0  0.00000000000E+00  0.00000000000E+00 -0.12973201471E+04  0.28994317172E+04  0.25930030310E+04 0.  0.
        3    1    3    3  502    0 -0.15150270151E+03  0.58588313243E+03  0.63344571915E+03  0.87605114163E+03  0.10100000352E+00 0.  1.
       -3    1    3    3    0  502  0.15150270151E+03 -0.58588313243E+03 -0.19307658662E+04  0.20233805756E+04  0.10100000352E+00 0. -1.
</event>
<event>
 5   0  0.2503292E-06  0.2602796E+04  0.7818609E-02  0.8367252E-01
       -1   -1    0    0    0  501  0.00000000000E+00  0.00000000000E+00  0.10940821397E+04  0.10940821397E+04  0.50400001928E-02 0. -1.
        1   -1    0    0  501    0  0.00000000000E+00  0.00000000000E+00 -0.15479981320E+04  0.15479981320E+04  0.50400001928E-02 0.  1.
    10030    2    1    2    0    0  0.00000000000E+00  0.00000000000E+00 -0.45391599233E+03  0.26420802717E+04  0.26027962721E+04 0.  0.
        2    1    3    3  502    0 -0.60070810463E+03 -0.31880572552E+03  0.89936066587E+03  0.11275357754E+04  0.25500000920E-02 0. -1.
       -2    1    3    3    0  502  0.60070810463E+03  0.31880572552E+03 -0.13532766582E+04  0.15145444963E+04  0.25500000920E-02 0.  1.
</event>
<event>
 5   0  0.2471488E-06  0.2605076E+04  0.7818609E-02  0.8366479E-01
       -1   -1    0    0    0  501  0.00000000000E+00  0.00000000000E+00  0.12492425675E+04  0.12492425675E+04  0.50400001928E-02 0.  1.
        1   -1    0    0  501    0  0.00000000000E+00  0.00000000000E+00 -0.13581074686E+04  0.13581074686E+04  0.50400001928E-02 0. -1.
    10030    2    1    2    0    0  0.00000000000E+00  0.00000000000E+00 -0.10886490105E+03  0.26073500361E+04  0.26050763222E+04 0.  0.
        4    1    3    3  502    0  0.45649957804E+03 -0.10304050778E+04  0.59919002791E+03  0.12763842648E+04  0.12699999809E+01 0.  1.
       -4    1    3    3    0  502 -0.45649957804E+03  0.10304050778E+04 -0.70805492896E+03  0.13309657713E+04  0.12699999809E+01 0. -1.
</event>
<event>
 5   0  0.2333979E-06  0.2574178E+04  0.7818609E-02  0.8377026E-01
        1   -1    0    0  501    0  0.00000000000E+00  0.00000000000E+00  0.97828456936E+03  0.97828456937E+03  0.50400001928E-02 0.  1.
       -1   -1    0    0    0  501  0.00000000000E+00  0.00000000000E+00 -0.16933705332E+04  0.16933705333E+04  0.50400001928E-02 0. -1.
    10030    2    1    2    0    0  0.00000000000E+00  0.00000000000E+00 -0.71508596389E+03  0.26716551026E+04  0.25741781313E+04 0.  0.
        3    1    3    3  502    0 -0.82266189280E+03 -0.28709167244E+03 -0.13407292507E+04  0.15989837873E+04  0.10100000352E+00 0. -1.
       -3    1    3    3    0  502  0.82266189280E+03  0.28709167244E+03  0.62564328677E+03  0.10726713153E+04  0.10100000352E+00 0.  1.
</event>
<event>
 5   0  0.2471488E-06  0.2590551E+04  0.7818609E-02  0.8371418E-01
        1   -1    0    0  501    0  0.00000000000E+00  0.00000000000E+00  0.93631933860E+03  0.93631933861E+03  0.50400001928E-02 0. -1.
       -1   -1    0    0    0  501  0.00000000000E+00  0.00000000000E+00 -0.17918448362E+04  0.17918448362E+04  0.50400001928E-02 0.  1.
    10030    2    1    2    0    0  0.00000000000E+00  0.00000000000E+00 -0.85552549757E+03  0.27281641748E+04  0.25905512710E+04 0.  0.
        4    1    3    3  502    0  0.13950730099E+03 -0.83560756720E+03 -0.14596253154E+04  0.16876640565E+04  0.12699999809E+01 0.  1.
       -4    1    3    3    0  502 -0.13950730099E+03  0.83560756720E+03  0.60409981781E+03  0.10405001183E+04  0.12699999809E+01 0. -1.
</event>
<event>
 5   0  0.6158063E-06  0.2607423E+04  0.7818609E-02  0.8365684E-01
       -2   -1    0    0    0  501  0.00000000000E+00  0.00000000000E+00  0.71216468997E+03  0.71216468997E+03  0.25500000920E-02 0. -1.
        2   -1    0    0  501    0  0.00000000000E+00  0.00000000000E+00 -0.23866160846E+04  0.23866160846E+04  0.25500000920E-02 0.  1.
    10030    2    1    2    0    0  0.00000000000E+00  0.00000000000E+00 -0.16744513946E+04  0.30987807746E+04  0.26074230220E+04 0.  0.
        2    1    3    3  502    0 -0.31687017649E+03  0.12166951340E+04 -0.42741013327E+03  0.13279432141E+04  0.25500000920E-02 0. -1.
       -2    1    3    3    0  502  0.31687017649E+03 -0.12166951340E+04 -0.12470412613E+04  0.17708375604E+04  0.25500000920E-02 0.  1.
</event>
<event>
 5   0  0.6161834E-06  0.2611648E+04  0.7818609E-02  0.8364255E-01
        2   -1    0    0  501    0  0.00000000000E+00  0.00000000000E+00  0.17816302286E+04  0.17816302286E+04  0.25500000920E-02 0.  1.
       -2   -1    0    0    0  501  0.00000000000E+00  0.00000000000E+00 -0.95708796220E+03  0.95708796220E+03  0.25500000920E-02 0. -1.
    10030    2    1    2    0    0  0.00000000000E+00  0.00000000000E+00  0.82454226641E+03  0.27387181908E+04  0.26116484028E+04 0.  0.
        5    1    3    3  502    0  0.12410848729E+04  0.27512031670E+03  0.72541698194E+03  0.14636375023E+04  0.46999998093E+01 0.  1.
       -5    1    3    3    0  502 -0.12410848729E+04 -0.27512031670E+03  0.99125284472E+02  0.12750806886E+04  0.46999998093E+01 0. -1.
</event>
<event>
 5   0  0.6173140E-06  0.2589403E+04  0.7818609E-02  0.8371810E-01
        2   -1    0    0  501    0  0.00000000000E+00  0.00000000000E+00  0.16124114486E+04  0.16124114486E+04  0.25500000920E-02 0.  1.
       -2   -1    0    0    0  501  0.00000000000E+00  0.00000000000E+00 -0.10395931956E+04  0.10395931956E+04  0.25500000920E-02 0. -1.
    10030    2    1    2    0    0  0.00000000000E+00  0.00000000000E+00  0.57281825297E+03  0.26520046442E+04  0.25894029972E+04 0.  0.
        3    1    3    3  502    0  0.89061646734E+03 -0.20096573950E+03  0.12265710050E+04  0.15290720588E+04  0.10100000352E+00 0.  1.
       -3    1    3    3    0  502 -0.89061646734E+03  0.20096573950E+03 -0.65375275206E+03  0.11229325854E+04  0.10100000352E+00 0. -1.
</event>
<event>
 5   0  0.6161834E-06  0.2598493E+04  0.7818609E-02  0.8368713E-01
        2   -1    0    0  501    0  0.00000000000E+00  0.00000000000E+00  0.27433538555E+04  0.27433538555E+04  0.25500000920E-02 0.  1.
       -2   -1    0    0    0  501  0.00000000000E+00  0.00000000000E+00 -0.61532034230E+03  0.61532034230E+03  0.25500000920E-02 0. -1.
    10030    2    1    2    0    0  0.00000000000E+00  0.00000000000E+00  0.21280335132E+04  0.33586741978E+04  0.25984929736E+04 0.  0.
        5    1    3    3  502    0  0.12589200099E+04 -0.28545226783E+03  0.87380251842E+03  0.15588186295E+04  0.46999998093E+01 0. -1.
       -5    1    3    3    0  502 -0.12589200099E+04  0.28545226783E+03  0.12542309948E+04  0.17998555683E+04  0.46999998093E+01 0.  1.
</event>
<event>
 5   0  0.2471488E-06  0.2616654E+04  0.7818609E-02  0.8362566E-01
        1   -1    0    0  501    0  0.00000000000E+00  0.00000000000E+00  0.14403384809E+04  0.14403384809E+04  0.50400001928E-02 0. -1.
       -1   -1    0    0    0  501  0.00000000000E+00  0.00000000000E+00 -0.11884145301E+04  0.11884145302E+04  0.50400001928E-02 0.  1.
    10030    2    1    2    0    0  0.00000000000E+00  0.00000000000E+00  0.25192395074E+03  0.26287530110E+04  0.26166537249E+04 0.  0.
        4    1    3    3  502    0 -0.50907327494E+03 -0.42456983130E+03  0.12591414685E+04  0.14229736440E+04  0.12699999809E+01 0. -1.
       -4    1    3    3    0  502  0.50907327494E+03  0.42456983130E+03 -0.10072175178E+04  0.12057793670E+04  0.12699999809E+01 0.  1.
</event>
<event>
 5   0  0.2333979E-06  0.2610675E+04  0.7818609E-02  0.8364584E-01
       -1   -1    0    0    0  501  0.00000000000E+00  0.00000000000E+00  0.10551812418E+04  0.10551812419E+04  0.50400001928E-02 0.  1.
        1   -1    0    0  501    0  0.00000000000E+00  0.00000000000E+00 -0.16147993301E+04  0.16147993301E+04  0.50400001928E-02 0. -1.
    10030    2    1    2    0    0  0.00000000000E+00  0.00000000000E+00 -0.55961808825E+03  0.26699805719E+04  0.26106749797E+04 0.  0.
        3    1    3    3  502    0 -0.63507553009E+03  0.11403879853E+04 -0.26956827094E+03  0.13328438577E+04  0.10100000352E+00 0. -1.
       -3    1    3    3    0  502  0.63507553009E+03 -0.11403879853E+04 -0.29004981731E+03  0.13371367143E+04  0.10100000352E+00 0.  1.
</event>
<event>
 5   0  0.2333979E-06  0.2601527E+04  0.7818609E-02  0.8367683E-01
       -1   -1    0    0    0  501  0.00000000000E+00  0.00000000000E+00  0.10861774103E+04  0.10861774103E+04  0.50400001928E-02 0. -1.
        1   -1    0    0  501    0  0.00000000000E+00  0.00000000000E+00 -0.15577431471E+04  0.15577431471E+04  0.50400001928E-02 0.  1.
    10030    2    1    2    0    0  0.00000000000E+00  0.00000000000E+00 -0.47156573685E+03  0.26439205574E+04  0.26015267959E+04 0.  0.
        3    1    3    3  502    0  0.19523913584E+03 -0.11930952183E+04  0.25202943170E+03  0.12349548027E+04  0.10100000352E+00 0.  1.
       -3    1    3    3    0  502 -0.19523913584E+03  0.11930952183E+04 -0.72359516855E+03  0.14089657548E+04  0.10100000352E+00 0. -1.
</event>
<event>
 5   0  0.2456600E-06  0.2598157E+04  0.7818609E-02  0.8368828E-01
       -1   -1    0    0    0  501  0.00000000000E+00  0.00000000000E+00  0.78695714438E+03  0.78695714439E+03  0.50400001928E-02 0. -1.
        1   -1    0    0  501    0  0.00000000000E+00  0.00000000000E+00 -0.21444681213E+04  0.21444681213E+04  0.50400001928E-02 0.  1.
    10030    2    1    2    0    0  0.00000000000E+00  0.00000000000E+00 -0.13575109769E+04  0.29314252657E+04  0.25981566611E+04 0.  0.
        5    1    3    3  502    0 -0.78179635828E+03  0.10365091687E+04 -0.62797555866E+03  0.14421970028E+04  0.46999998093E+01 0.  1.
       -5    1    3    3    0  502  0.78179635828E+03 -0.10365091687E+04 -0.72953541823E+03  0.14892282629E+04  0.46999998093E+01 0. -1.
</event>
<event>
 5   0  0.6158063E-06  0.2540601E+04  0.7818609E-02  0.8388662E-01
        2   -1    0    0  501    0  0.00000000000E+00  0.00000000000E+00  0.13177331957E+04  0.13177331957E+04  0.25500000920E-02 0.  1.
       -2   -1    0    0    0  501  0.00000000000E+00  0.00000000000E+00 -0.12245751610E+04  0.12245751610E+04  0.25500000920E-02 0. -1.
    10030    2    1    2    0    0  0.00000000000E+00  0.00000000000E+00  0.93158034676E+02  0.25423083567E+04  0.25406009843E+04 0.  0.
        2    1    3    3  502    0  0.95276131679E+03 -0.75188631442E+03  0.42176589269E+03  0.12849021849E+04  0.25500000920E-02 0. -1.
       -2    1    3    3    0  502 -0.95276131679E+03  0.75188631442E+03 -0.32860785802E+03  0.12574061718E+04  0.25500000920E-02 0.  1.
</event>
<event>
 5   0  0.6173140E-06  0.2595149E+04  0.7818609E-02  0.8369851E-01
        2   -1    0    0  501    0  0.00000000000E+00  0.00000000000E+00  0.25789206185E+04  0.25789206185E+04  0.25500000920E-02 0.  1.
       -2   -1    0    0    0  501  0.00000000000E+00  0.00000000000E+00 -0.65286993686E+03  0.65286993686E+03  0.25500000920E-02 0. -1.
    10030    2    1    2    0    0  0.00000000000E+00  0.00000000000E+00  0.19260506816E+04  0.32317905553E+04  0.25951491220E+04 0.  0.
        3    1    3    3  502    0 -0.49000136310E+03 -0.51640194996E+03  0.23140265259E+04  0.24210516481E+04  0.10100000352E+00 0.  1.
       -3    1    3    3    0  502  0.49000136310E+03  0.51640194996E+03 -0.38797584432E+03  0.81073890725E+03  0.10100000352E+00 0. -1.
</event>
<event>
 5   0  0.6173140E-06  0.2590630E+04  0.7818609E-02  0.8371391E-01
       -2   -1    0    0    0  501  0.00000000000E+00  0.00000000000E+00  0.15832041752E+04  0.15832041752E+04  0.25500000920E-02 0.  1.
        2   -1    0    0  501    0  0.00000000000E+00  0.00000000000E+00 -0.10597752738E+04  0.10597752738E+04  0.25500000920E-02 0. -1.
    10030    2    1    2    0    0  0.00000000000E+00  0.00000000000E+00  0.52342890143E+03  0.26429794490E+04  0.25906297599E+04 0.  0.
        3    1    3    3  502    0 -0.16661413429E+03  0.85716167517E+03 -0.71436019160E+03  0.11281830085E+04  0.10100000352E+00 0. -1.
       -3    1    3    3    0  502  0.16661413429E+03 -0.85716167517E+03  0.12377890930E+04  0.15147964405E+04  0.10100000352E+00 0.  1.
</event>
<event>
 5   0  0.2503292E-06  0.2600863E+04  0.7818609E-02  0.8367908E-01
        1   -1    0    0  501    0  0.00000000000E+00  0.00000000000E+00  0.14232331178E+04  0.14232331178E+04  0.50400001928E-02 0.  1.
       -1   -1    0    0    0  501  0.00000000000E+00  0.00000000000E+00 -0.11882256681E+04  0.11882256681E+04  0.50400001928E-02 0. -1.
    10030    2    1    2    0    0  0.00000000000E+00  0.00000000000E+00  0.23500744972E+03  0.26114587859E+04  0.26008630277E+04 0.  0.
        2    1    3    3  502    0 -0.74415263834E+03 -0.44647014750E+03  0.10899654719E+04  0.13932420722E+04  0.25500000920E-02 0.  1.
       -2    1    3    3    0  502  0.74415263834E+03  0.44647014750E+03 -0.85495802221E+03  0.12182167137E+04  0.25500000920E-02 0. -1.
</event>
<event>
 5   0  0.5942229E-06  0.2594064E+04  0.7818609E-02  0.8370220E-01
       -2   -1    0    0    0  501  0.00000000000E+00  0.00000000000E+00  0.79918153714E+03  0.79918153714E+03  0.25500000920E-02 0. -1.
        2   -1    0    0  501    0  0.00000000000E+00  0.00000000000E+00 -0.21050178186E+04  0.21050178186E+04  0.25500000920E-02 0.  1.
    10030    2    1    2    0    0  0.00000000000E+00  0.00000000000E+00 -0.13058362815E+04  0.29041993558E+04  0.25940635119E+04 0.  0.
        4    1    3    3  502    0  0.95207876850E+03 -0.41099633445E+03  0.21927116105E+03  0.10599308578E+04  0.12699999809E+01 0.  1.
       -4    1    3    3    0  502 -0.95207876850E+03  0.41099633445E+03 -0.15251074425E+04  0.18442684980E+04  0.12699999809E+01 0. -1.
</event>
<event>
 5   0  0.6173140E-06  0.2598344E+04  0.7818609E-02  0.8368764E-01
       -2   -1    0    0    0  501  0.00000000000E+00  0.00000000000E+00  0.12117353054E+04  0.12117353054E+04  0.25500000920E-02 0.  1.
        2   -1    0    0  501    0  0.00000000000E+00  0.00000000000E+00 -0.13929184834E+04  0.13929184834E+04  0.25500000920E-02 0. -1.
    10030    2    1    2    0    0  0.00000000000E+00  0.00000000000E+00 -0.18118317801E+03  0.26046537888E+04  0.25983444759E+04 0.  0.
        3    1    3    3  502    0 -0.10767792136E+04  0.26367502750E+03 -0.76963626172E+03  0.13495621440E+04  0.10100000352E+00 0. -1.
       -3    1    3    3    0  502  0.10767792136E+04 -0.26367502750E+03  0.58845308371E+03  0.12550916448E+04  0.10100000352E+00 0.  1.
</event>
<event>
 5   0  0.6173140E-06  0.2593043E+04  0.7818609E-02  0.8370568E-01
        2   -1    0    0  501    0  0.00000000000E+00  0.00000000000E+00  0.30200556333E+04  0.30200556333E+04  0.25500000920E-02 0. -1.
       -2   -1    0    0    0  501  0.00000000000E+00  0.00000000000E+00 -0.55660153147E+03  0.55660153148E+03  0.25500000920E-02 0.  1.
    10030    2    1    2    0    0  0.00000000000E+00  0.00000000000E+00  0.24634541018E+04  0.35766571648E+04  0.25930426843E+04 0.  0.
        3    1    3    3  502    0  0.12904688475E+04 -0.10831435115E+03  0.11453042855E+04  0.17288041421E+04  0.10100000352E+00 0. -1.
       -3    1    3    3    0  502 -0.12904688475E+04  0.10831435115E+03  0.13181498163E+04  0.18478530227E+04  0.10100000352E+00 0.  1.
</event>
<event>
 5   0  0.6173140E-06  0.2536659E+04  0.7818609E-02  0.8390041E-01
       -2   -1    0    0    0  501  0.00000000000E+00  0.00000000000E+00  0.22487979423E+04  0.22487979423E+04  0.25500000920E-02 0. -1.
        2   -1    0    0  501    0  0.00000000000E+00  0.00000000000E+00 -0.71534188694E+03  0.71534188695E+03  0.25500000920E-02 0.  1.
    10030    2    1    2    0    0  0.00000000000E+00  0.00000000000E+00  0.15334560553E+04  0.29641398292E+04  0.25366587184E+04 0.  0.
        3    1    3    3  502    0 -0.46152074856E+03 -0.78943834569E+03 -0.26027197109E+03  0.95076590817E+03  0.10100000352E+00 0.  1.
       -3    1    3    3    0  502  0.46152074856E+03  0.78943834569E+03  0.17937280264E+04  0.20133739211E+04  0.10100000352E+00 0. -1.
</event>
<event>
 5   0  0.6161834E-06  0.2594351E+04  0.7818609E-02  0.8370122E-01
       -2   -1    0    0    0  501  0.00000000000E+00  0.00000000000E+00  0.69405888493E+03  0.69405888494E+03  0.25500000920E-02 0.  1.
        2   -1    0    0  501    0  0.00000000000E+00  0.00000000000E+00 -0.24243831197E+04  0.24243831197E+04  0.25500000920E-02 0. -1.
    10030    2    1    2    0    0  0.00000000000E+00  0.00000000000E+00 -0.17303242348E+04  0.31184420047E+04  0.25943512829E+04 0.  0.
        5    1    3    3  502    0 -0.12831261867E+04  0.18654710792E+03 -0.81970888341E+03  0.15340004492E+04  0.46999998093E+01 0.  1.
       -5    1    3    3    0  502  0.12831261867E+04 -0.18654710792E+03 -0.91061535139E+03  0.15844415555E+04  0.46999998093E+01 0. -1.
</event>
<event>
 5   0  0.2333979E-06  0.2599116E+04  0.7818609E-02  0.8368501E-01
       -1   -1    0    0    0  501  0.00000000000E+00  0.00000000000E+00  0.95265712749E+03  0.95265712751E+03  0.50400001928E-02 0.  1.
        1   -1    0    0  501    0  0.00000000000E+00  0.00000000000E+00 -0.17727798958E+04  0.17727798958E+04  0.50400001928E-02 0. -1.
    10030    2    1    2    0    0  0.00000000000E+00  0.00000000000E+00 -0.82012276829E+03  0.27254370233E+04  0.25991163138E+04 0.  0.
        3    1    3    3  502    0  0.35235006659E+02 -0.12977747923E+04 -0.47111912946E+03  0.13810916557E+04  0.10100000352E+00 0. -1.
       -3    1    3    3    0  502 -0.35235006659E+02  0.12977747923E+04 -0.34900363883E+03  0.13443453676E+04  0.10100000352E+00 0.  1.
</event>
<event>
 5   0  0.2503292E-06  0.2586189E+04  0.7818609E-02  0.8372908E-01
        1   -1    0    0  501    0  0.00000000000E+00  0.00000000000E+00  0.14276246576E+04  0.14276246576E+04  0.50400001928E-02 0.  1.
       -1   -1    0    0    0  501  0.00000000000E+00  0.00000000000E+00 -0.11712412509E+04  0.11712412509E+04  0.50400001928E-02 0. -1.
    10030    2    1    2    0    0  0.00000000000E+00  0.00000000000E+00  0.25638340672E+03  0.25988659085E+04  0.25861886163E+04 0.  0.
        2    1    3    3  502    0 -0.11010015645E+04  0.46880222088E+03  0.62060689526E+03  0.13480107143E+04  0.25500000920E-02 0.  1.
       -2    1    3    3    0  502  0.11010015645E+04 -0.46880222088E+03 -0.36422348854E+03  0.12508551942E+04  0.25500000920E-02 0. -1.
</event>
<event>
 5   0  0.2471488E-06  0.2570312E+04  0.7818609E-02  0.8378356E-01
        1   -1    0    0  501    0  0.00000000000E+00  0.00000000000E+00  0.14003649595E+04  0.14003649595E+04  0.50400001928E-02 0. -1.
       -1   -1    0    0    0  501  0.00000000000E+00  0.00000000000E+00 -0.11794251432E+04  0.11794251433E+04  0.50400001928E-02 0.  1.
    10030    2    1    2    0    0  0.00000000000E+00  0.00000000000E+00  0.22093981625E+03  0.25797901028E+04  0.25703117655E+04 0.  0.
        4    1    3    3  502    0 -0.66180822874E+03  0.10775640814E+04 -0.11948092569E+03  0.12702014744E+04  0.12699999809E+01 0. -1.
       -4    1    3    3    0  502  0.66180822874E+03 -0.10775640814E+04  0.34042074194E+03  0.13095886284E+04  0.12699999809E+01 0.  1.
</event>
<event>
 5   0  0.6173140E-06  0.2609583E+04  0.7818609E-02  0.8364953E-01
        2   -1    0    0  501    0  0.00000000000E+00  0.00000000000E+00  0.13719052508E+04  0.13719052508E+04  0.25500000920E-02 0.  1.
       -2   -1    0    0    0  501  0.00000000000E+00  0.00000000000E+00 -0.12409608602E+04  0.12409608602E+04  0.25500000920E-02 0. -1.
    10030    2    1    2    0    0  0.00000000000E+00  0.00000000000E+00  0.13094439058E+03  0.26128661110E+04  0.26095828940E+04 0.  0.
        3    1    3    3  502    0 -0.84319622346E+03  0.92235720461E+03 -0.31017715567E+03  0.12876073013E+04  0.10100000352E+00 0. -1.
       -3    1    3    3    0  502  0.84319622346E+03 -0.92235720461E+03  0.44112154625E+03  0.13252588098E+04  0.10100000352E+00 0.  1.
</event>
<event>
 5   0  0.6173140E-06  0.2609622E+04  0.7818609E-02  0.8364940E-01
       -2   -1    0    0    0  501  0.00000000000E+00  0.00000000000E+00  0.94854931250E+03  0.94854931251E+03  0.25500000920E-02 0. -1.
        2   -1    0    0  501    0  0.00000000000E+00  0.00000000000E+00 -0.17948792328E+04  0.17948792328E+04  0.25500000920E-02 0.  1.
    10030    2    1    2    0    0  0.00000000000E+00  0.00000000000E+00 -0.84632992029E+03  0.27434285453E+04  0.26096217828E+04 0.  0.
        3    1    3    3  502    0 -0.56066789561E+03  0.32634876103E+03  0.76699625854E+03  0.10045572526E+04  0.10100000352E+00 0. -1.
       -3    1    3    3    0  502  0.56066789561E+03 -0.32634876103E+03 -0.16133261788E+04  0.17388712927E+04  0.10100000352E+00 0.  1.
</event>
<event>
 5   0  0.5940748E-06  0.2629001E+04  0.7818609E-02  0.8358416E-01
        2   -1    0    0  501    0  0.00000000000E+00  0.00000000000E+00  0.88528698433E+03  0.88528698433E+03  0.25500000920E-02 0.  1.
       -2   -1    0    0    0  501  0.00000000000E+00  0.00000000000E+00 -0.19518099454E+04  0.19518099454E+04  0.25500000920E-02 0. -1.
    10030    2    1    2    0    0  0.00000000000E+00  0.00000000000E+00 -0.10665229611E+04  0.28370969298E+04  0.26290012861E+04 0.  0.
        1    1    3    3  502    0  0.89448612498E+03  0.57481643725E+03  0.30082923287E+03  0.11049966478E+04  0.50400001928E-02 0.  1.
       -1    1    3    3    0  502 -0.89448612498E+03 -0.57481643725E+03 -0.13673521940E+04  0.17321002819E+04  0.50400001928E-02 0. -1.
</event>
<event>
 5   0  0.2440590E-06  0.2590186E+04  0.7818609E-02  0.8371542E-01
        1   -1    0    0  501    0  0.00000000000E+00  0.00000000000E+00  0.83808021596E+03  0.83808021598E+03  0.50400001928E-02 0. -1.
       -1   -1    0    0    0  501  0.00000000000E+00  0.00000000000E+00 -0.20013192660E+04  0.20013192660E+04  0.50400001928E-02 0.  1.
    10030    2    1    2    0    0  0.00000000000E+00  0.00000000000E+00 -0.11632390500E+04  0.28393994820E+04  0.25901861575E+04 0.  0.
        1    1    3    3  502    0 -0.29552157510E+03  0.80365878487E+02  0.79781485200E+03  0.85457604336E+03  0.50400001928E-02 0. -1.
       -1    1    3    3    0  502  0.29552157510E+03 -0.80365878487E+02 -0.19610539020E+04  0.19848234386E+04  0.50400001928E-02 0.  1.
</event>
<event>
 5   0  0.6158063E-06  0.2577568E+04  0.7818609E-02  0.8375861E-01
        2   -1    0    0  501    0  0.00000000000E+00  0.00000000000E+00  0.10027993055E+04  0.10027993055E+04  0.25500000920E-02 0. -1.
       -2   -1    0    0    0  501  0.00000000000E+00  0.00000000000E+00 -0.16563282296E+04  0.16563282296E+04  0.25500000920E-02 0.  1.
    10030    2    1    2    0    0  0.00000000000E+00  0.00000000000E+00 -0.65352892409E+03  0.26591275352E+04  0.25775684654E+04 0.  0.
        2    1    3    3  502    0  0.36100711145E+03 -0.10300390152E+04  0.38023641744E+03  0.11558054510E+04  0.25500000920E-02 0. -1.
       -2    1    3    3    0  502 -0.36100711145E+03  0.10300390152E+04 -0.10337653415E+04  0.15033220842E+04  0.25500000920E-02 0.  1.
</event>
<event>
 5   0  0.6173140E-06  0.2596164E+04  0.7818609E-02  0.8369505E-01
       -2   -1    0    0    0  501  0.00000000000E+00  0.00000000000E+00  0.69192849615E+03  0.69192849615E+03  0.25500000920E-02 0.  1.
        2   -1    0    0  501    0  0.00000000000E+00  0.00000000000E+00 -0.24352470728E+04  0.24352470728E+04  0.25500000920E-02 0. -1.
    10030    2    1    2    0    0  0.00000000000E+00  0.00000000000E+00 -0.17433185767E+04  0.31271755690E+04  0.25961639739E+04 0.  0.
        3    1    3    3  502    0 -0.57582126236E+03 -0.91750296599E+03 -0.17332485454E+04  0.20439012572E+04  0.10100000352E+00 0.  1.
       -3    1    3    3    0  502  0.57582126236E+03  0.91750296599E+03 -0.10070031233E+02  0.10832743118E+04  0.10100000352E+00 0. -1.
</event>
<event>
 5   0  0.2440590E-06  0.2604930E+04  0.7818609E-02  0.8366528E-01
       -1   -1    0    0    0  501  0.00000000000E+00  0.00000000000E+00  0.65240779341E+03  0.65240779343E+03  0.50400001928E-02 0. -1.
        1   -1    0    0  501    0  0.00000000000E+00  0.00000000000E+00 -0.26002374916E+04  0.26002374916E+04  0.50400001928E-02 0.  1.
    10030    2    1    2    0    0  0.00000000000E+00  0.00000000000E+00 -0.19478296982E+04  0.32526452850E+04  0.26049300983E+04 0.  0.
        1    1    3    3  502    0 -0.11538581237E+04 -0.20516273003E+03 -0.16834895356E+04  0.20512477500E+04  0.50400001928E-02 0.  1.
       -1    1    3    3    0  502  0.11538581237E+04  0.20516273003E+03 -0.26434016259E+03  0.12013975350E+04  0.50400001928E-02 0. -1.
</event>
<event>
 5   0  0.5942229E-06  0.2590745E+04  0.7818609E-02  0.8371352E-01
       -2   -1    0    0    0  501  0.00000000000E+00  0.00000000000E+00  0.94654852633E+03  0.94654852633E+03  0.25500000920E-02 0. -1.
        2   -1    0    0  501    0  0.00000000000E+00  0.00000000000E+00 -0.17727462217E+04  0.17727462217E+04  0.25500000920E-02 0.  1.
    10030    2    1    2    0    0  0.00000000000E+00  0.00000000000E+00 -0.82619769535E+03  0.27192947480E+04  0.25907453165E+04 0.  0.
        4    1    3    3  502    0 -0.48429054933E+03 -0.11435528187E+04 -0.26391160122E+02  0.12421547776E+04  0.12699999809E+01 0. -1.
       -4    1    3    3    0  502  0.48429054933E+03  0.11435528187E+04 -0.79980653522E+03  0.14771399704E+04  0.12699999809E+01 0.  1.
</event>
<event>
 5   0  0.2456600E-06  0.2610895E+04  0.7818609E-02  0.8364510E-01
       -1   -1    0    0    0  501  0.00000000000E+00  0.00000000000E+00  0.95096994054E+03  0.95096994056E+03  0.50400001928E-02 0. -1.
        1   -1    0    0  501    0  0.00000000000E+00  0.00000000000E+00 -0.17920584129E+04  0.17920584129E+04  0.50400001928E-02 0.  1.
    10030    2    1    2    0    0  0.00000000000E+00  0.00000000000E+00 -0.84108847240E+03  0.27430283535E+04  0.26108953885E+04 0.  0.
        5    1    3    3  502    0 -0.12476357071E+04 -0.19506116250E+03 -0.72845460381E+02  0.12649001012E+04  0.46999998093E+01 0. -1.
       -5    1    3    3    0  502  0.12476357071E+04  0.19506116250E+03 -0.76824301202E+03  0.14781282523E+04  0.46999998093E+01 0.  1.
</event>
<event>
 5   0  0.6161834E-06  0.2588228E+04  0.7818609E-02  0.8372211E-01
        2   -1    0    0  501    0  0.00000000000E+00  0.00000000000E+00  0.14142769195E+04  0.14142769195E+04  0.25500000920E-02 0.  1.
       -2   -1    0    0    0  501  0.00000000000E+00  0.00000000000E+00 -0.11841604986E+04  0.11841604986E+04  0.25500000920E-02 0. -1.
    10030    2    1    2    0    0  0.00000000000E+00  0.00000000000E+00  0.23011642090E+03  0.25984374181E+04  0.25882278587E+04 0.  0.
        5    1    3    3  502    0 -0.61928551846E+03 -0.11196673432E+04  0.30957298924E+03  0.13164448483E+04  0.46999998093E+01 0. -1.
       -5    1    3    3    0  502  0.61928551846E+03  0.11196673432E+04 -0.79456568345E+02  0.12819925698E+04  0.46999998093E+01 0.  1.
</event>
<event>
 5   0  0.5942229E-06  0.2586148E+04  0.7818609E-02  0.8372922E-01
        2   -1    0    0  501    0  0.00000000000E+00  0.00000000000E+00  0.16351826607E+04  0.16351826607E+04  0.25500000920E-02 0. -1.
       -2   -1    0    0    0  501  0.00000000000E+00  0.00000000000E+00 -0.10225400800E+04  0.10225400800E+04  0.25500000920E-02 0.  1.
    10030    2    1    2    0    0  0.00000000000E+00  0.00000000000E+00  0.61264258075E+03  0.26577227407E+04  0.25861475663E+04 0.  0.
        4    1    3    3  502    0 -0.82228476476E+02 -0.95320610973E+03 -0.58762412511E+03  0.11227943424E+04  0.12699999809E+01 0.  1.
       -4    1    3    3    0  502  0.82228476476E+02  0.95320610973E+03  0.12002667059E+04  0.15349283984E+04  0.12699999809E+01 0. -1.
</event>
<event>
 5   0  0.6173140E-06  0.2603356E+04  0.7818609E-02  0.8367062E-01
        2   -1    0    0  501    0  0.00000000000E+00  0.00000000000E+00  0.19368726946E+04  0.19368726946E+04  0.25500000920E-02 0.  1.
       -2   -1    0    0    0  501  0.00000000000E+00  0.00000000000E+00 -0.87479426366E+03  0.87479426367E+03  0.25500000920E-02 0. -1.
    10030    2    1    2    0    0  0.00000000000E+00  0.00000000000E+00  0.10620784309E+04  0.28116669583E+04  0.26033556213E+04 0.  0.
        3    1    3    3  502    0  0.11682286392E+04 -0.48624304158E+03  0.86070911578E+03  0.15303629115E+04  0.10100000352E+00 0. -1.
       -3    1    3    3    0  502 -0.11682286392E+04  0.48624304158E+03  0.20136931514E+03  0.12813040467E+04  0.10100000352E+00 0.  1.
</event>
<event>
 5   0  0.6173140E-06  0.2600557E+04  0.7818609E-02  0.8368012E-01
        2   -1    0    0  501    0  0.00000000000E+00  0.00000000000E+00  0.18913855898E+04  0.18913855898E+04  0.25500000920E-02 0. -1.
       -2   -1    0    0    0  501  0.00000000000E+00  0.00000000000E+00 -0.89390775070E+03  0.89390775070E+03  0.25500000920E-02 0.  1.
    10030    2    1    2    0    0  0.00000000000E+00  0.00000000000E+00  0.99747783912E+03  0.27852933405E+04  0.26005570467E+04 0.  0.
        3    1    3    3  502    0  0.40130165240E+03  0.12258622435E+04  0.67454233389E+03  0.14556059311E+04  0.10100000352E+00 0. -1.
       -3    1    3    3    0  502 -0.40130165240E+03 -0.12258622435E+04  0.32293550523E+03  0.13296874095E+04  0.10100000352E+00 0.  1.
</event>
<event>
 5   0  0.5942229E-06  0.2620490E+04  0.7818609E-02  0.8361274E-01
        2   -1    0    0  501    0  0.00000000000E+00  0.00000000000E+00  0.22081631731E+04  0.22081631731E+04  0.25500000920E-02 0.  1.
       -2   -1    0    0    0  501  0.00000000000E+00  0.00000000000E+00 -0.77745231827E+03  0.77745231828E+03  0.25500000920E-02 0. -1.
    10030    2    1    2    0    0  0.00000000000E+00  0.00000000000E+00  0.14307108548E+04  0.29856154913E+04  0.26204897085E+04 0.  0.
        4    1    3    3  502    0 -0.50963029686E+03  0.25481888765E+02 -0.65959462274E+03  0.83392988037E+03  0.12699999809E+01 0. -1.
       -4    1    3    3    0  502  0.50963029686E+03 -0.25481888765E+02  0.20903054775E+04  0.21516856110E+04  0.12699999809E+01 0.  1.
</event>
<event>
 5   0  0.6173140E-06  0.2598991E+04  0.7818609E-02  0.8368544E-01
        2   -1    0    0  501    0  0.00000000000E+00  0.00000000000E+00  0.12150109128E+04  0.12150109128E+04  0.25500000920E-02 0.  1.
       -2   -1    0    0    0  501  0.00000000000E+00  0.00000000000E+00 -0.13898543760E+04  0.13898543760E+04  0.25500000920E-02 0. -1.
    10030    2    1    2    0    0  0.00000000000E+00  0.00000000000E+00 -0.17484346322E+03  0.26048652888E+04  0.25989907534E+04 0.  0.
        3    1    3    3  502    0 -0.77206333965E+03 -0.71728295171E+03 -0.84947682921E+03  0.13535832175E+04  0.10100000352E+00 0. -1.
       -3    1    3    3    0  502  0.77206333965E+03  0.71728295171E+03  0.67463336600E+03  0.12512820713E+04  0.10100000352E+00 0.  1.
</event>
<event>
 5   0  0.2456600E-06  0.2602518E+04  0.7818609E-02  0.8367346E-01
        1   -1    0    0  501    0  0.00000000000E+00  0.00000000000E+00  0.19537720885E+04  0.19537720885E+04  0.50400001928E-02 0. -1.
       -1   -1    0    0    0  501  0.00000000000E+00  0.00000000000E+00 -0.86666963912E+03  0.86666963913E+03  0.50400001928E-02 0.  1.
    10030    2    1    2    0    0  0.00000000000E+00  0.00000000000E+00  0.10871024493E+04  0.28204417276E+04  0.26025179737E+04 0.  0.
        5    1    3    3  502    0  0.95620080508E+03  0.75452952683E+03  0.10397295138E+04  0.16014663088E+04  0.46999998093E+01 0. -1.
       -5    1    3    3    0  502 -0.95620080508E+03 -0.75452952683E+03  0.47372935538E+02  0.12189754188E+04  0.46999998093E+01 0.  1.
</event>
<event>
 5   0  0.5940748E-06  0.2598945E+04  0.7818609E-02  0.8368560E-01
       -2   -1    0    0    0  501  0.00000000000E+00  0.00000000000E+00  0.78549925271E+03  0.78549925271E+03  0.25500000920E-02 0.  1.
        2   -1    0    0  501    0  0.00000000000E+00  0.00000000000E+00 -0.21497521814E+04  0.21497521814E+04  0.25500000920E-02 0. -1.
    10030    2    1    2    0    0  0.00000000000E+00  0.00000000000E+00 -0.13642529287E+04  0.29352514341E+04  0.25989449644E+04 0.  0.
        1    1    3    3  502    0  0.26664255196E+02  0.13997026329E+03 -0.21409027504E+04  0.21456391224E+04  0.50400001928E-02 0. -1.
       -1    1    3    3    0  502 -0.26664255196E+02 -0.13997026329E+03  0.77664982172E+03  0.78961231165E+03  0.50400001928E-02 0.  1.
</event>
<event>
 5   0  0.2333979E-06  0.2596743E+04  0.7818609E-02  0.8369308E-01
        1   -1    0    0  501    0  0.00000000000E+00  0.00000000000E+00  0.13737146645E+04  0.13737146645E+04  0.50400001928E-02 0.  1.
       -1   -1    0    0    0  501  0.00000000000E+00  0.00000000000E+00 -0.12271609339E+04  0.12271609339E+04  0.50400001928E-02 0. -1.
    10030    2    1    2    0    0  0.00000000000E+00  0.00000000000E+00  0.14655373057E+03  0.26008755984E+04  0.25967433224E+04 0.  0.
        3    1    3    3  502    0  0.83944309544E+03 -0.66313601310E+03  0.81021593853E+03  0.13419627266E+04  0.10100000352E+00 0.  1.
       -3    1    3    3    0  502 -0.83944309544E+03  0.66313601310E+03 -0.66366220796E+03  0.12589128718E+04  0.10100000352E+00 0. -1.
</event>
<event>
 5   0  0.5942229E-06  0.2607835E+04  0.7818609E-02  0.8365545E-01
       -2   -1    0    0    0  501  0.00000000000E+00  0.00000000000E+00  0.10010072179E+04  0.10010072179E+04  0.25500000920E-02 0. -1.
        2   -1    0    0  501    0  0.00000000000E+00  0.00000000000E+00 -0.16984902839E+04  0.16984902839E+04  0.25500000920E-02 0.  1.
    10030    2    1    2    0    0  0.00000000000E+00  0.00000000000E+00 -0.69748306603E+03  0.26994975019E+04  0.26078351434E+04 0.  0.
        4    1    3    3  502    0  0.27399053236E+02  0.19383288051E+03 -0.16831915263E+04  0.16945374652E+04  0.12699999809E+01 0.  1.
       -4    1    3    3    0  502 -0.27399053236E+02 -0.19383288051E+03  0.98570846032E+03  0.10049600367E+04  0.12699999809E+01 0. -1.
</event>
<event>
 5   0  0.5942229E-06  0.2592635E+04  0.7818609E-02  0.8370707E-01
       -2   -1    0    0    0  501  0.00000000000E+00  0.00000000000E+00  0.12948870263E+04  0.12948870263E+04  0.25500000920E-02 0. -1.
        2   -1    0    0  501    0  0.00000000000E+00  0.00000000000E+00 -0.12977491968E+04  0.12977491969E+04  0.25500000920E-02 0.  1.
    10030    2    1    2    0    0  0.00000000000E+00  0.00000000000E+00 -0.28621705500E+01  0.25926362232E+04  0.25926346433E+04 0.  0.
        4    1    3    3  502    0 -0.75203359852E+03  0.44655960837E+03 -0.95823204894E+03  0.12973743830E+04  0.12699999809E+01 0.  1.
       -4    1    3    3    0  502  0.75203359852E+03 -0.44655960837E+03  0.95536987839E+03  0.12952618402E+04  0.12699999809E+01 0. -1.
</event>
<event>
 5   0  0.2072125E-06  0.2596902E+04  0.7818609E-02  0.8369254E-01
       -3   -1    0    0    0  501  0.00000000000E+00  0.00000000000E+00  0.13162645301E+04  0.13162645339E+04  0.10100000352E+00 0.  1.
        3   -1    0    0  501    0  0.00000000000E+00  0.00000000000E+00 -0.12808789226E+04  0.12808789266E+04  0.10100000352E+00 0. -1.
    10030    2    1    2    0    0  0.00000000000E+00  0.00000000000E+00  0.35385607497E+02  0.25971434605E+04  0.25969023881E+04 0.  0.
        1    1    3    3  502    0  0.10671003683E+04  0.46413101671E+03  0.59381459832E+03  0.13064212850E+04  0.50400001928E-02 0.  1.
       -1    1    3    3    0  502 -0.10671003683E+04 -0.46413101671E+03 -0.55842899082E+03  0.12907221755E+04  0.50400001928E-02 0. -1.
</event>
<event>
 5   0  0.5942229E-06  0.2609248E+04  0.7818609E-02  0.8365067E-01
       -2   -1    0    0    0  501  0.00000000000E+00  0.00000000000E+00  0.14364174188E+04  0.14364174188E+04  0.25500000920E-02 0. -1.
        2   -1    0    0  501    0  0.00000000000E+00  0.00000000000E+00 -0.11849224330E+04  0.11849224330E+04  0.25500000920E-02 0.  1.
    10030    2    1    2    0    0  0.00000000000E+00  0.00000000000E+00  0.25149498582E+03  0.26213398519E+04  0.26092475718E+04 0.  0.
        4    1    3    3  502    0  0.10197773573E+03  0.53203740086E+03 -0.10665882069E+04  0.11962755830E+04  0.12699999809E+01 0.  1.
       -4    1    3    3    0  502 -0.10197773573E+03 -0.53203740086E+03  0.13180831927E+04  0.14250642689E+04  0.12699999809E+01 0. -1.
</event>
<event>
 5   0  0.5940748E-06  0.2615656E+04  0.7818609E-02  0.8362903E-01
       -2   -1    0    0    0  501  0.00000000000E+00  0.00000000000E+00  0.12275595666E+04  0.12275595666E+04  0.25500000920E-02 0. -1.
        2   -1    0    0  501    0  0.00000000000E+00  0.00000000000E+00 -0.13933450411E+04  0.13933450411E+04  0.25500000920E-02 0.  1.
    10030    2    1    2    0    0  0.00000000000E+00  0.00000000000E+00 -0.16578547450E+03  0.26209046076E+04  0.26156559672E+04 0.  0.
        1    1    3    3  502    0 -0.37836340328E+03  0.14334333852E+03 -0.13290554112E+04  0.13892783968E+04  0.50400001928E-02 0.  1.
       -1    1    3    3    0  502  0.37836340328E+03 -0.14334333852E+03  0.11632699367E+04  0.12316262109E+04  0.50400001928E-02 0. -1.
</event>
<event>
 5   0  0.2471488E-06  0.2608066E+04  0.7818609E-02  0.8365467E-01
       -1   -1    0    0    0  501  0.00000000000E+00  0.00000000000E+00  0.77438333325E+03  0.77438333326E+03  0.50400001928E-02 0. -1.
        1   -1    0    0  501    0  0.00000000000E+00  0.00000000000E+00 -0.21959429842E+04  0.21959429842E+04  0.50400001928E-02 0.  1.
    10030    2    1    2    0    0  0.00000000000E+00  0.00000000000E+00 -0.14215596509E+04  0.29703263175E+04  0.26080656800E+04 0.  0.
        4    1    3    3  502    0 -0.36143152841E+03 -0.17194450877E+03  0.70269679972E+03  0.80869157845E+03  0.12699999809E+01 0. -1.
       -4    1    3    3    0  502  0.36143152841E+03  0.17194450877E+03 -0.21242564507E+04  0.21616347390E+04  0.12699999809E+01 0.  1.
</event>
<event>
 5   0  0.2072125E-06  0.2578775E+04  0.7818609E-02  0.8375447E-01
        3   -1    0    0  501    0  0.00000000000E+00  0.00000000000E+00  0.11684648501E+04  0.11684648545E+04  0.10100000352E+00 0.  1.
       -3   -1    0    0    0  501  0.00000000000E+00  0.00000000000E+00 -0.14228237349E+04  0.14228237385E+04  0.10100000352E+00 0. -1.
    10030    2    1    2    0    0  0.00000000000E+00  0.00000000000E+00 -0.25435888473E+03  0.25912885930E+04  0.25787745403E+04 0.  0.
        3    1    3    3  502    0 -0.59068340121E+03  0.11379848852E+04  0.98754056471E+01  0.12821910986E+04  0.10100000352E+00 0.  1.
       -3    1    3    3    0  502  0.59068340121E+03 -0.11379848852E+04 -0.26423429038E+03  0.13090974944E+04  0.10100000352E+00 0. -1.
</event>
<event>
 5   0  0.2456600E-06  0.2600028E+04  0.7818609E-02  0.8368192E-01
       -1   -1    0    0    0  501  0.00000000000E+00  0.00000000000E+00  0.81024786827E+03  0.81024786829E+03  0.50400001928E-02 0.  1.
        1   -1    0    0  501    0  0.00000000000E+00  0.00000000000E+00 -0.20858264954E+04  0.20858264954E+04  0.50400001928E-02 0. -1.
    10030    2    1    2    0    0  0.00000000000E+00  0.00000000000E+00 -0.12755786271E+04  0.28960743637E+04  0.26000280548E+04 0.  0.
        5    1    3    3  502    0 -0.83252872241E+03 -0.53957692829E+03 -0.15735447595E+04  0.18601915319E+04  0.46999998093E+01 0. -1.
       -5    1    3    3    0  502  0.83252872241E+03  0.53957692829E+03  0.29796613236E+03  0.10358828318E+04  0.46999998093E+01 0.  1.
</event>
<event>
 5   0  0.5942229E-06  0.2600690E+04  0.7818609E-02  0.8367967E-01
        2   -1    0    0  501    0  0.00000000000E+00  0.00000000000E+00  0.19249972013E+04  0.19249972013E+04  0.25500000920E-02 0. -1.
       -2   -1    0    0    0  501  0.00000000000E+00  0.00000000000E+00 -0.87838964630E+03  0.87838964630E+03  0.25500000920E-02 0.  1.
    10030    2    1    2    0    0  0.00000000000E+00  0.00000000000E+00  0.10466075550E+04  0.28033868476E+04  0.26006903782E+04 0.  0.
        4    1    3    3  502    0 -0.16200904300E+02 -0.35354806496E+03  0.18720801812E+04  0.19052413288E+04  0.12699999809E+01 0. -1.
       -4    1    3    3    0  502  0.16200904300E+02  0.35354806496E+03 -0.82547262613E+03  0.89814551879E+03  0.12699999809E+01 0.  1.
</event>
<event>
 5   0  0.5940748E-06  0.2581915E+04  0.7818609E-02  0.8374370E-01
       -2   -1    0    0    0  501  0.00000000000E+00  0.00000000000E+00  0.18593385874E+04  0.18593385874E+04  0.25500000920E-02 0.  1.
        2   -1    0    0  501    0  0.00000000000E+00  0.00000000000E+00 -0.89632452400E+03  0.89632452400E+03  0.25500000920E-02 0. -1.
    10030    2    1    2    0    0  0.00000000000E+00  0.00000000000E+00  0.96301406339E+03  0.27556631114E+04  0.25819146185E+04 0.  0.
        1    1    3    3  502    0 -0.30039095791E+03 -0.92069766989E+03 -0.42954730824E+03  0.10594478831E+04  0.50400001928E-02 0. -1.
       -1    1    3    3    0  502  0.30039095791E+03  0.92069766989E+03  0.13925613716E+04  0.16962152283E+04  0.50400001928E-02 0.  1.
</event>
<event>
 5   0  0.6158063E-06  0.2601595E+04  0.7818609E-02  0.8367660E-01
       -2   -1    0    0    0  501  0.00000000000E+00  0.00000000000E+00  0.11962918380E+04  0.11962918380E+04  0.25500000920E-02 0. -1.
        2   -1    0    0  501    0  0.00000000000E+00  0.00000000000E+00 -0.14144327769E+04  0.14144327769E+04  0.25500000920E-02 0.  1.
    10030    2    1    2    0    0  0.00000000000E+00  0.00000000000E+00 -0.21814093887E+03  0.26107246149E+04  0.26015951925E+04 0.  0.
        2    1    3    3  502    0  0.11299719246E+03 -0.71889013313E+03  0.97290741318E+03  0.12149568814E+04  0.25500000920E-02 0. -1.
       -2    1    3    3    0  502 -0.11299719246E+03  0.71889013313E+03 -0.11910483520E+04  0.13957677335E+04  0.25500000920E-02 0.  1.
</event>
<event>
 5   0  0.6161834E-06  0.2601264E+04  0.7818609E-02  0.8367772E-01
        2   -1    0    0  501    0  0.00000000000E+00  0.00000000000E+00  0.23137282974E+04  0.23137282974E+04  0.25500000920E-02 0. -1.
       -2   -1    0    0    0  501  0.00000000000E+00  0.00000000000E+00 -0.73113344772E+03  0.73113344772E+03  0.25500000920E-02 0.  1.
    10030    2    1    2    0    0  0.00000000000E+00  0.00000000000E+00  0.15825948497E+04  0.30448617451E+04  0.26012644211E+04 0.  0.
        5    1    3    3  502    0 -0.47708844244E+03 -0.19329571007E+03 -0.60681180830E+03  0.79575076132E+03  0.46999998093E+01 0.  1.
       -5    1    3    3    0  502  0.47708844244E+03  0.19329571007E+03  0.21894066580E+04  0.22491109838E+04  0.46999998093E+01 0. -1.
</event>
<event>
 5   0  0.6158063E-06  0.2627849E+04  0.7818609E-02  0.8358803E-01
       -2   -1    0    0    0  501  0.00000000000E+00  0.00000000000E+00  0.19204226540E+04  0.19204226541E+04  0.25500000920E-02 0.  1.
        2   -1    0    0  501    0  0.00000000000E+00  0.00000000000E+00 -0.89896738049E+03  0.89896738050E+03  0.25500000920E-02 0. -1.
    10030    2    1    2    0    0  0.00000000000E+00  0.00000000000E+00  0.10214552736E+04  0.28193900345E+04  0.26278487953E+04 0.  0.
        2    1    3    3  502    0 -0.66034126282E+02  0.12322164503E+04  0.26523628583E+02  0.12342695772E+04  0.25500000920E-02 0. -1.
       -2    1    3    3    0  502  0.66034126282E+02 -0.12322164503E+04  0.99493164497E+03  0.15851204574E+04  0.25500000920E-02 0.  1.
</event>
<event>
 5   0  0.2333979E-06  0.2598703E+04  0.7818609E-02  0.8368642E-01
        1   -1    0    0  501    0  0.00000000000E+00  0.00000000000E+00  0.19590242362E+04  0.19590242362E+04  0.50400001928E-02 0. -1.
       -1   -1    0    0    0  501  0.00000000000E+00  0.00000000000E+00 -0.86181399121E+03  0.86181399123E+03  0.50400001928E-02 0.  1.
    10030    2    1    2    0    0  0.00000000000E+00  0.00000000000E+00  0.10972102450E+04  0.28208382274E+04  0.25987031350E+04 0.  0.
        3    1    3    3  502    0  0.44445668337E+03 -0.11801433238E+04  0.20873661078E+03  0.12782218082E+04  0.10100000352E+00 0.  1.
       -3    1    3    3    0  502 -0.44445668337E+03  0.11801433238E+04  0.88847363421E+03  0.15426164192E+04  0.10100000352E+00 0. -1.
</event>
<event>
 5   0  0.5940748E-06  0.2611312E+04  0.7818609E-02  0.8364369E-01
       -2   -1    0    0    0  501  0.00000000000E+00  0.00000000000E+00  0.11164564014E+04  0.11164564014E+04  0.25500000920E-02 0. -1.
        2   -1    0    0  501    0  0.00000000000E+00  0.00000000000E+00 -0.15269181427E+04  0.15269181427E+04  0.25500000920E-02 0.  1.
    10030    2    1    2    0    0  0.00000000000E+00  0.00000000000E+00 -0.41046174124E+03  0.26433745441E+04  0.26113119575E+04 0.  0.
        1    1    3    3  502    0  0.11606370093E+03 -0.61275011846E+03  0.95593845449E+03  0.11413815397E+04  0.50400001928E-02 0. -1.
       -1    1    3    3    0  502 -0.11606370093E+03  0.61275011846E+03 -0.13664001957E+04  0.15019930044E+04  0.50400001928E-02 0.  1.
</event>
<event>
 5   0  0.2503292E-06  0.2590717E+04  0.7818609E-02  0.8371361E-01
        1   -1    0    0  501    0  0.00000000000E+00  0.00000000000E+00  0.28098870127E+04  0.28098870127E+04  0.50400001928E-02 0. -1.
       -1   -1    0    0    0  501  0.00000000000E+00  0.00000000000E+00 -0.59716062899E+03  0.59716062901E+03  0.50400001928E-02 0.  1.
    10030    2    1    2    0    0  0.00000000000E+00  0.00000000000E+00  0.22127263837E+04  0.34070476417E+04  0.25907171948E+04 0.  0.
        2    1    3    3  502    0 -0.11021594522E+04  0.49587660851E+03  0.49331744255E+03  0.13053777875E+04  0.25500000920E-02 0. -1.
       -2    1    3    3    0  502  0.11021594522E+04 -0.49587660851E+03  0.17194089412E+04  0.21016698542E+04  0.25500000920E-02 0.  1.
</event>
<event>
 5   0  0.2471488E-06  0.2594042E+04  0.7818609E-02  0.8370228E-01
       -1   -1    0    0    0  501  0.00000000000E+00  0.00000000000E+00  0.12316635075E+04  0.12316635076E+04  0.50400001928E-02 0. -1.
        1   -1    0    0  501    0  0.00000000000E+00  0.00000000000E+00 -0.13658466212E+04  0.13658466212E+04  0.50400001928E-02 0.  1.
    10030    2    1    2    0    0  0.00000000000E+00  0.00000000000E+00 -0.13418311363E+03  0.25975101287E+04  0.25940419736E+04 0.  0.
        4    1    3    3  502    0  0.38477517998E+03  0.31175671292E+03 -0.12674509640E+04  0.13607636629E+04  0.12699999809E+01 0.  1.
       -4    1    3    3    0  502 -0.38477517998E+03 -0.31175671292E+03  0.11332678504E+04  0.12367464659E+04  0.12699999809E+01 0. -1.
</event>
<event>
 5   0  0.6173140E-06  0.2645346E+04  0.7818609E-02  0.8352959E-01
        2   -1    0    0  501    0  0.00000000000E+00  0.00000000000E+00  0.31775518583E+04  0.31775518584E+04  0.25500000920E-02 0.  1.
       -2   -1    0    0    0  501  0.00000000000E+00  0.00000000000E+00 -0.55056988907E+03  0.55056988908E+03  0.25500000920E-02 0. -1.
    10030    2    1    2    0    0  0.00000000000E+00  0.00000000000E+00  0.26269819693E+04  0.37281217474E+04  0.26453463850E+04 0.  0.
        3    1    3    3  502    0 -0.44579150581E+02  0.15231262915E+03 -0.53710311673E+03  0.56005910926E+03  0.10100000352E+00 0. -1.
       -3    1    3    3    0  502  0.44579150581E+02 -0.15231262915E+03  0.31640850860E+04  0.31680626382E+04  0.10100000352E+00 0.  1.
</event>
<event>
 5   0  0.6161834E-06  0.2590363E+04  0.7818609E-02  0.8371482E-01
        2   -1    0    0  501    0  0.00000000000E+00  0.00000000000E+00  0.17331414055E+04  0.17331414055E+04  0.25500000920E-02 0. -1.
       -2   -1    0    0    0  501  0.00000000000E+00  0.00000000000E+00 -0.96789313548E+03  0.96789313548E+03  0.25500000920E-02 0.  1.
    10030    2    1    2    0    0  0.00000000000E+00  0.00000000000E+00  0.76524827000E+03  0.27010345410E+04  0.25903634256E+04 0.  0.
        5    1    3    3  502    0 -0.64672006628E+03 -0.91505216032E+02  0.15488231435E+04  0.16809209585E+04  0.46999998093E+01 0. -1.
       -5    1    3    3    0  502  0.64672006628E+03  0.91505216032E+02 -0.78357487355E+03  0.10201135825E+04  0.46999998093E+01 0.  1.
</event>
<event>
 5   0  0.2072125E-06  0.2595331E+04  0.7818609E-02  0.8369789E-01
        3   -1    0    0  501    0  0.00000000000E+00  0.00000000000E+00  0.16850857104E+04  0.16850857134E+04  0.10100000352E+00 0.  1.
       -3   -1    0    0    0  501  0.00000000000E+00  0.00000000000E+00 -0.99931778838E+03  0.99931779348E+03  0.10100000352E+00 0. -1.
    10030    2    1    2    0    0  0.00000000000E+00  0.00000000000E+00  0.68576792197E+03  0.26844035069E+04  0.25953312977E+04 0.  0.
        1    1    3    3  502    0 -0.89650364022E+03 -0.18094413461E+03  0.12950635024E+04  0.15854491579E+04  0.50400001928E-02 0.  1.
       -1    1    3    3    0  502  0.89650364022E+03  0.18094413461E+03 -0.60929558047E+03  0.10989543490E+04  0.50400001928E-02 0. -1.
</event>
<event>
 5   0  0.6161834E-06  0.2594507E+04  0.7818609E-02  0.8370070E-01
       -2   -1    0    0    0  501  0.00000000000E+00  0.00000000000E+00  0.76112901806E+03  0.76112901806E+03  0.25500000920E-02 0.  1.
        2   -1    0    0  501    0  0.00000000000E+00  0.00000000000E+00 -0.22110128577E+04  0.22110128577E+04  0.25500000920E-02 0. -1.
    10030    2    1    2    0    0  0.00000000000E+00  0.00000000000E+00 -0.14498838397E+04  0.29721418758E+04  0.25945065391E+04 0.  0.
        5    1    3    3  502    0  0.54577066369E+03 -0.60305396143E+03  0.43274823047E+03  0.92132123535E+03  0.46999998093E+01 0.  1.
       -5    1    3    3    0  502 -0.54577066369E+03  0.60305396143E+03 -0.18826320701E+04  0.20508206404E+04  0.46999998093E+01 0. -1.
</event>
<event>
 5   0  0.5940748E-06  0.2596524E+04  0.7818609E-02  0.8369383E-01
        2   -1    0    0  501    0  0.00000000000E+00  0.00000000000E+00  0.76209810743E+03  0.76209810743E+03  0.25500000920E-02 0. -1.
       -2   -1    0    0    0  501  0.00000000000E+00  0.00000000000E+00 -0.22116375115E+04  0.22116375115E+04  0.25500000920E-02 0.  1.
    10030    2    1    2    0    0  0.00000000000E+00  0.00000000000E+00 -0.14495394041E+04  0.29737356189E+04  0.25965244168E+04 0.  0.
        1    1    3    3  502    0 -0.67658767307E+03 -0.63483390226E+03  0.31528908668E+03  0.97989395907E+03  0.50400001928E-02 0. -1.
       -1    1    3    3    0  502  0.67658767307E+03  0.63483390226E+03 -0.17648284907E+04  0.19938416598E+04  0.50400001928E-02 0.  1.
</event>
<event>
 5   0  0.2471488E-06  0.2598473E+04  0.7818609E-02  0.8368720E-01
       -1   -1    0    0    0  501  0.00000000000E+00  0.00000000000E+00  0.10555022367E+04  0.10555022367E+04  0.50400001928E-02 0.  1.
        1   -1    0    0  501    0  0.00000000000E+00  0.00000000000E+00 -0.15992529661E+04  0.15992529661E+04  0.50400001928E-02 0. -1.
    10030    2    1    2    0    0  0.00000000000E+00  0.00000000000E+00 -0.54375072937E+03  0.26547552028E+04  0.25984726920E+04 0.  0.
        4    1    3    3  502    0  0.21884029685E+03  0.74840290916E+03  0.78987229817E+03  0.11099089378E+04  0.12699999809E+01 0.  1.
       -4    1    3    3    0  502 -0.21884029685E+03 -0.74840290916E+03 -0.13336230275E+04  0.15448462650E+04  0.12699999809E+01 0. -1.
</event>
<event>
 5   0  0.2456600E-06  0.2504074E+04  0.7818609E-02  0.8401536E-01
       -1   -1    0    0    0  501  0.00000000000E+00  0.00000000000E+00  0.73919712928E+03  0.73919712929E+03  0.50400001928E-02 0.  1.
        1   -1    0    0  501    0  0.00000000000E+00  0.00000000000E+00 -0.21206748220E+04  0.21206748220E+04  0.50400001928E-02 0. -1.
    10030    2    1    2    0    0  0.00000000000E+00  0.00000000000E+00 -0.13814776927E+04  0.28598719513E+04  0.25040740728E+04 0.  0.
        5    1    3    3  502    0  0.17506483406E+03 -0.51113814660E+03 -0.19806734528E+04  0.20530463506E+04  0.46999998093E+01 0. -1.
       -5    1    3    3    0  502 -0.17506483406E+03  0.51113814660E+03  0.59919576009E+03  0.80682560070E+03  0.46999998093E+01 0.  1.
</event>
<event>
 5   0  0.6161834E-06  0.2570907E+04  0.7818609E-02  0.8378151E-01
        2   -1    0    0  501    0  0.00000000000E+00  0.00000000000E+00  0.10316257827E+04  0.10316257827E+04  0.25500000920E-02 0. -1.
       -2   -1    0    0    0  501  0.00000000000E+00  0.00000000000E+00 -0.16017345332E+04  0.16017345332E+04  0.25500000920E-02 0.  1.
    10030    2    1    2    0    0  0.00000000000E+00  0.00000000000E+00 -0.57010875053E+03  0.26333603158E+04  0.25709069539E+04 0.  0.
        5    1    3    3  502    0  0.44894697269E+03  0.40508200373E+03 -0.14469485759E+04  0.15682241821E+04  0.46999998093E+01 0.  1.
       -5    1    3    3    0  502 -0.44894697269E+03 -0.40508200373E+03  0.87683982538E+03  0.10651361337E+04  0.46999998093E+01 0. -1.
</event>
<event>
 5   0  0.6158063E-06  0.2592461E+04  0.7818609E-02  0.8370767E-01
        2   -1    0    0  501    0  0.00000000000E+00  0.00000000000E+00  0.26182100728E+04  0.26182100728E+04  0.25500000920E-02 0.  1.
       -2   -1    0    0    0  501  0.00000000000E+00  0.00000000000E+00 -0.64174109062E+03  0.64174109063E+03  0.25500000920E-02 0. -1.
    10030    2    1    2    0    0  0.00000000000E+00  0.00000000000E+00  0.19764689822E+04  0.32599511634E+04  0.25924605977E+04 0.  0.
        2    1    3    3  502    0 -0.25699891334E+02 -0.55656252969E+03  0.24599573283E+04  0.25222633469E+04  0.25500000920E-02 0.  1.
       -2    1    3    3    0  502  0.25699891334E+02  0.55656252969E+03 -0.48348834613E+03  0.73768781657E+03  0.25500000920E-02 0. -1.
</event>
<event>
 5   0  0.6173140E-06  0.2576473E+04  0.7818609E-02  0.8376237E-01
        2   -1    0    0  501    0  0.00000000000E+00  0.00000000000E+00  0.27164340898E+04  0.27164340898E+04  0.25500000920E-02 0. -1.
       -2   -1    0    0    0  501  0.00000000000E+00  0.00000000000E+00 -0.61093081427E+03  0.61093081428E+03  0.25500000920E-02 0.  1.
    10030    2    1    2    0    0  0.00000000000E+00  0.00000000000E+00  0.21055032755E+04  0.33273649041E+04  0.25764730081E+04 0.  0.
        3    1    3    3  502    0 -0.37463383482E+03  0.81777879790E+03  0.22437106881E+04  0.24173022845E+04  0.10100000352E+00 0. -1.
       -3    1    3    3    0  502  0.37463383482E+03 -0.81777879790E+03 -0.13820741257E+03  0.91006261959E+03  0.10100000352E+00 0.  1.
</event>
<event>
 5   0  0.2440590E-06  0.2602522E+04  0.7818609E-02  0.8367345E-01
       -1   -1    0    0    0  501  0.00000000000E+00  0.00000000000E+00  0.13530068954E+04  0.13530068954E+04  0.50400001928E-02 0.  1.
        1   -1    0    0  501    0  0.00000000000E+00  0.00000000000E+00 -0.12514937116E+04  0.12514937116E+04  0.50400001928E-02 0. -1.
    10030    2    1    2    0    0  0.00000000000E+00  0.00000000000E+00  0.10151318380E+03  0.26045006071E+04  0.26025215630E+04 0.  0.
        1    1    3    3  502    0  0.19170104923E+03  0.39772561846E+03  0.12757563104E+04  0.13499959716E+04  0.50400001928E-02 0.  1.
       -1    1    3    3    0  502 -0.19170104923E+03 -0.39772561846E+03 -0.11742431266E+04  0.12545046354E+04  0.50400001928E-02 0. -1.
</event>
<event>
 5   0  0.6173140E-06  0.2608092E+04  0.7818609E-02  0.8365458E-01
        2   -1    0    0  501    0  0.00000000000E+00  0.00000000000E+00  0.14309568290E+04  0.14309568290E+04  0.25500000920E-02 0. -1.
       -2   -1    0    0    0  501  0.00000000000E+00  0.00000000000E+00 -0.11883909889E+04  0.11883909889E+04  0.25500000920E-02 0.  1.
    10030    2    1    2    0    0  0.00000000000E+00  0.00000000000E+00  0.24256584012E+03  0.26193478179E+04  0.26080921771E+04 0.  0.
        3    1    3    3  502    0 -0.94154738014E+03 -0.72046849686E+02 -0.78195035194E+03  0.12260296003E+04  0.10100000352E+00 0. -1.
       -3    1    3    3    0  502  0.94154738014E+03  0.72046849686E+02  0.10245161921E+04  0.13933182176E+04  0.10100000352E+00 0.  1.
</event>
<event>
 5   0  0.6161834E-06  0.2644219E+04  0.7818609E-02  0.8353334E-01
       -2   -1    0    0    0  501  0.00000000000E+00  0.00000000000E+00  0.10667170900E+04  0.10667170900E+04  0.25500000920E-02 0.  1.
        2   -1    0    0  501    0  0.00000000000E+00  0.00000000000E+00 -0.16386473613E+04  0.16386473613E+04  0.25500000920E-02 0. -1.
    10030    2    1    2    0    0  0.00000000000E+00  0.00000000000E+00 -0.57193027133E+03  0.27053644514E+04  0.26442187087E+04 0.  0.
        5    1    3    3  502    0  0.12294733120E+03 -0.30910881172E+03 -0.15951192627E+04  0.16294452602E+04  0.46999998093E+01 0. -1.
       -5    1    3    3    0  502 -0.12294733120E+03  0.30910881172E+03  0.10231889914E+04  0.10759191911E+04  0.46999998093E+01 0.  1.
</event>
<event>
 5   0  0.2440590E-06  0.2578161E+04  0.7818609E-02  0.8375657E-01
        1   -1    0    0  501    0  0.00000000000E+00  0.00000000000E+00  0.20560377008E+04  0.20560377008E+04  0.50400001928E-02 0. -1.
       -1   -1    0    0    0  501  0.00000000000E+00  0.00000000000E+00 -0.80821904092E+03  0.80821904093E+03  0.50400001928E-02 0.  1.
    10030    2    1    2    0    0  0.00000000000E+00  0.00000000000E+00  0.12478186599E+04  0.28642567417E+04  0.25781612197E+04 0.  0.
        1    1    3    3  502    0 -0.11058313732E+04 -0.65006088042E+03  0.76569021354E+03  0.14938954707E+04  0.50400001928E-02 0. -1.
       -1    1    3    3    0  502  0.11058313732E+04  0.65006088042E+03  0.48212844632E+03  0.13703612710E+04  0.50400001928E-02 0.  1.
</event>
<event>
 5   0  0.2503292E-06  0.2566952E+04  0.7818609E-02  0.8379514E-01
        1   -1    0    0  501    0  0.00000000000E+00  0.00000000000E+00  0.20367052592E+04  0.20367052592E+04  0.50400001928E-02 0. -1.
       -1   -1    0    0    0  501  0.00000000000E+00  0.00000000000E+00 -0.80881141808E+03  0.80881141809E+03  0.50400001928E-02 0.  1.
    10030    2    1    2    0    0  0.00000000000E+00  0.00000000000E+00  0.12278938411E+04  0.28455166773E+04  0.25669518647E+04 0.  0.
        2    1    3    3  502    0  0.52604803936E+03  0.10539933607E+04  0.49056420384E+02  0.11789974879E+04  0.25500000920E-02 0.  1.
       -2    1    3    3    0  502 -0.52604803936E+03 -0.10539933607E+04  0.11788374207E+04  0.16665191894E+04  0.25500000920E-02 0. -1.
</event>
<event>
 5   0  0.5942229E-06  0.2604066E+04  0.7818609E-02  0.8366822E-01
       -2   -1    0    0    0  501  0.00000000000E+00  0.00000000000E+00  0.77039776125E+03  0.77039776126E+03  0.25500000920E-02 0.  1.
        2   -1    0    0  501    0  0.00000000000E+00  0.00000000000E+00 -0.22005376691E+04  0.22005376691E+04  0.25500000920E-02 0. -1.
    10030    2    1    2    0    0  0.00000000000E+00  0.00000000000E+00 -0.14301399079E+04  0.29709354304E+04  0.26040655090E+04 0.  0.
        4    1    3    3  502    0  0.45748936512E+03 -0.15097169462E+03 -0.20951140465E+04  0.21497891646E+04  0.12699999809E+01 0. -1.
       -4    1    3    3    0  502 -0.45748936512E+03  0.15097169462E+03  0.66497413862E+03  0.82114626572E+03  0.12699999809E+01 0.  1.
</event>
<event>
 5   0  0.5942229E-06  0.2597872E+04  0.7818609E-02  0.8368925E-01
       -2   -1    0    0    0  501  0.00000000000E+00  0.00000000000E+00  0.11191748806E+04  0.11191748806E+04  0.25500000920E-02 0. -1.
        2   -1    0    0  501    0  0.00000000000E+00  0.00000000000E+00 -0.15075698339E+04  0.15075698339E+04  0.25500000920E-02 0.  1.
    10030    2    1    2    0    0  0.00000000000E+00  0.00000000000E+00 -0.38839495330E+03  0.26267447146E+04  0.25978716589E+04 0.  0.
        4    1    3    3  502    0 -0.46806853511E+02 -0.12255568543E+04 -0.62679859839E+03  0.13773374969E+04  0.12699999809E+01 0.  1.
       -4    1    3    3    0  502  0.46806853511E+02  0.12255568543E+04  0.23840364509E+03  0.12494072177E+04  0.12699999809E+01 0. -1.
</event>
<event>
 5   0  0.6158063E-06  0.2614547E+04  0.7818609E-02  0.8363277E-01
        2   -1    0    0  501    0  0.00000000000E+00  0.00000000000E+00  0.14673210488E+04  0.14673210488E+04  0.25500000920E-02 0. -1.
       -2   -1    0    0    0  501  0.00000000000E+00  0.00000000000E+00 -0.11646827128E+04  0.11646827128E+04  0.25500000920E-02 0.  1.
    10030    2    1    2    0    0  0.00000000000E+00  0.00000000000E+00  0.30263833600E+03  0.26320037617E+04  0.26145465839E+04 0.  0.
        2    1    3    3  502    0  0.23472427141E+03 -0.68113942069E+03 -0.94679746077E+03  0.11897360320E+04  0.25500000920E-02 0.  1.
       -2    1    3    3    0  502 -0.23472427141E+03  0.68113942069E+03  0.12494357968E+04  0.14422677297E+04  0.25500000920E-02 0. -1.
</event>
<event>
 5   0  0.5940748E-06  0.2548937E+04  0.7818609E-02  0.8385756E-01
       -2   -1    0    0    0  501  0.00000000000E+00  0.00000000000E+00  0.75168354575E+03  0.75168354576E+03  0.25500000920E-02 0. -1.
        2   -1    0    0  501    0  0.00000000000E+00  0.00000000000E+00 -0.21608426235E+04  0.21608426235E+04  0.25500000920E-02 0.  1.
    10030    2    1    2    0    0  0.00000000000E+00  0.00000000000E+00 -0.14091590778E+04  0.29125261693E+04  0.25489369118E+04 0.  0.
        1    1    3    3  502    0  0.82393275724E+03 -0.92146047631E+03 -0.34996358394E+03  0.12846902771E+04  0.50400001928E-02 0. -1.
       -1    1    3    3    0  502 -0.82393275724E+03  0.92146047631E+03 -0.10591954938E+04  0.16278358922E+04  0.50400001928E-02 0.  1.
</event>
<event>
 5   0  0.5942229E-06  0.2589680E+04  0.7818609E-02  0.8371715E-01
       -2   -1    0    0    0  501  0.00000000000E+00  0.00000000000E+00  0.17799181287E+04  0.17799181287E+04  0.25500000920E-02 0. -1.
        2   -1    0    0  501    0  0.00000000000E+00  0.00000000000E+00 -0.94195962968E+03  0.94195962968E+03  0.25500000920E-02 0.  1.
    10030    2    1    2    0    0  0.00000000000E+00  0.00000000000E+00  0.83795849899E+03  0.27218777584E+04  0.25896803056E+04 0.  0.
        4    1    3    3  502    0  0.39400706194E+03 -0.12203216399E+04  0.23042543955E+03  0.13028906193E+04  0.12699999809E+01 0. -1.
       -4    1    3    3    0  502 -0.39400706194E+03  0.12203216399E+04  0.60753305944E+03  0.14189871391E+04  0.12699999809E+01 0.  1.
</event>
<event>
 5   0  0.6173140E-06  0.2614797E+04  0.7818609E-02  0.8363192E-01
       -2   -1    0    0    0  501  0.00000000000E+00  0.00000000000E+00  0.95928198367E+03  0.95928198368E+03  0.25500000920E-02 0. -1.
        2   -1    0    0  501    0  0.00000000000E+00  0.00000000000E+00 -0.17818436808E+04  0.17818436808E+04  0.25500000920E-02 0.  1.
    10030    2    1    2    0    0  0.00000000000E+00  0.00000000000E+00 -0.82256169713E+03  0.27411256645E+04  0.26147967728E+04 0.  0.
        3    1    3    3  502    0  0.98935491611E+03 -0.57345771013E+03 -0.10756282339E+04  0.15699213366E+04  0.10100000352E+00 0.  1.
       -3    1    3    3    0  502 -0.98935491611E+03  0.57345771013E+03  0.25306653681E+03  0.11712043279E+04  0.10100000352E+00 0. -1.
</event>
<event>
 5   0  0.2333979E-06  0.2602063E+04  0.7818609E-02  0.8367501E-01
        1   -1    0    0  501    0  0.00000000000E+00  0.00000000000E+00  0.16346350049E+04  0.16346350049E+04  0.50400001928E-02 0.  1.
       -1   -1    0    0    0  501  0.00000000000E+00  0.00000000000E+00 -0.10355114722E+04  0.10355114722E+04  0.50400001928E-02 0. -1.
    10030    2    1    2    0    0  0.00000000000E+00  0.00000000000E+00  0.59912353265E+03  0.26701464771E+04  0.26020632586E+04 0.  0.
        3    1    3    3  502    0  0.95273455919E+03  0.13467244352E+03 -0.59904689716E+03  0.11334447505E+04  0.10100000352E+00 0. -1.
       -3    1    3    3    0  502 -0.95273455919E+03 -0.13467244352E+03  0.11981704298E+04  0.15367017265E+04  0.10100000352E+00 0.  1.
</event>
<event>
 5   0  0.2333979E-06  0.2598295E+04  0.7818609E-02  0.8368781E-01
        1   -1    0    0  501    0  0.00000000000E+00  0.00000000000E+00  0.18595312342E+04  0.18595312342E+04  0.50400001928E-02 0. -1.
       -1   -1    0    0    0  501  0.00000000000E+00  0.00000000000E+00 -0.90763942255E+03  0.90763942257E+03  0.50400001928E-02 0.  1.
    10030    2    1    2    0    0  0.00000000000E+00  0.00000000000E+00  0.95189181168E+03  0.27671706568E+04  0.25982947144E+04 0.  0.
        3    1    3    3  502    0 -0.97009421734E+03 -0.24859169910E+03 -0.40543195748E+03  0.10803960874E+04  0.10100000352E+00 0.  1.
       -3    1    3    3    0  502  0.97009421734E+03  0.24859169910E+03  0.13573237692E+04  0.16867745694E+04  0.10100000352E+00 0. -1.
</event>
<event>
 5   0  0.2471488E-06  0.2618959E+04  0.7818609E-02  0.8361790E-01
        1   -1    0    0  501    0  0.00000000000E+00  0.00000000000E+00  0.14411749278E+04  0.14411749278E+04  0.50400001928E-02 0. -1.
       -1   -1    0    0    0  501  0.00000000000E+00  0.00000000000E+00 -0.11898180561E+04  0.11898180562E+04  0.50400001928E-02 0.  1.
    10030    2    1    2    0    0  0.00000000000E+00  0.00000000000E+00  0.25135687162E+03  0.26309929839E+04  0.26189585343E+04 0.  0.
        4    1    3    3  502    0 -0.11963204990E+04 -0.22948372677E+03 -0.35703848307E+03  0.12693792217E+04  0.12699999809E+01 0.  1.
       -4    1    3    3    0  502  0.11963204990E+04  0.22948372677E+03  0.60839535469E+03  0.13616137623E+04  0.12699999809E+01 0. -1.
</event>
<event>
 5   0  0.2440590E-06  0.2595160E+04  0.7818609E-02  0.8369847E-01
       -1   -1    0    0    0  501  0.00000000000E+00  0.00000000000E+00  0.14261435651E+04  0.14261435651E+04  0.50400001928E-02 0. -1.
        1   -1    0    0  501    0  0.00000000000E+00  0.00000000000E+00 -0.11806057662E+04  0.11806057662E+04  0.50400001928E-02 0.  1.
    10030    2    1    2    0    0  0.00000000000E+00  0.00000000000E+00  0.24553779889E+03  0.26067493313E+04  0.25951595839E+04 0.  0.
        1    1    3    3  502    0  0.55543931920E+03  0.66655977691E+03  0.10919085829E+04  0.13946609362E+04  0.50400001928E-02 0. -1.
       -1    1    3    3    0  502 -0.55543931920E+03 -0.66655977691E+03 -0.84637078403E+03  0.12120883951E+04  0.50400001928E-02 0.  1.
</event>
<event>
 5   0  0.5940748E-06  0.2597253E+04  0.7818609E-02  0.8369135E-01
       -2   -1    0    0    0  501  0.00000000000E+00  0.00000000000E+00  0.62488003498E+03  0.62488003499E+03  0.25500000920E-02 0. -1.
        2   -1    0    0  501    0  0.00000000000E+00  0.00000000000E+00 -0.26988079681E+04  0.26988079681E+04  0.25500000920E-02 0.  1.
    10030    2    1    2    0    0  0.00000000000E+00  0.00000000000E+00 -0.20739279331E+04  0.33236880031E+04  0.25972533319E+04 0.  0.
        1    1    3    3  502    0  0.19760991415E+03  0.12180480081E+04 -0.51913765712E+03  0.13387287011E+04  0.50400001928E-02 0. -1.
       -1    1    3    3    0  502 -0.19760991415E+03 -0.12180480081E+04 -0.15547902760E+04  0.19849593019E+04  0.50400001928E-02 0.  1.
</event>
<event>
 5   0  0.5942229E-06  0.2577891E+04  0.7818609E-02  0.8375750E-01
        2   -1    0    0  501    0  0.00000000000E+00  0.00000000000E+00  0.29932559858E+04  0.29932559858E+04  0.25500000920E-02 0.  1.
       -2   -1    0    0    0  501  0.00000000000E+00  0.00000000000E+00 -0.55504108695E+03  0.55504108695E+03  0.25500000920E-02 0. -1.
    10030    2    1    2    0    0  0.00000000000E+00  0.00000000000E+00  0.24382148989E+04  0.35482970728E+04  0.25778906539E+04 0.  0.
        4    1    3    3  502    0  0.78094241167E+03  0.64576529897E+03  0.12270641583E+03  0.10207557735E+04  0.12699999809E+01 0.  1.
       -4    1    3    3    0  502 -0.78094241167E+03 -0.64576529897E+03  0.23155084831E+04  0.25275412993E+04  0.12699999809E+01 0. -1.
</event>
<event>
 5   0  0.6158063E-06  0.2597435E+04  0.7818609E-02  0.8369073E-01
       -2   -1    0    0    0  501  0.00000000000E+00  0.00000000000E+00  0.12627457431E+04  0.12627457432E+04  0.25500000920E-02 0.  1.
        2   -1    0    0  501    0  0.00000000000E+00  0.00000000000E+00 -0.13357140580E+04  0.13357140580E+04  0.25500000920E-02 0. -1.
    10030    2    1    2    0    0  0.00000000000E+00  0.00000000000E+00 -0.72968314851E+02  0.25984598012E+04  0.25974350739E+04 0.  0.
        2    1    3    3  502    0  0.93196363043E+03 -0.42709928938E+03  0.76113662500E+03  0.12768316151E+04  0.25500000920E-02 0.  1.
       -2    1    3    3    0  502 -0.93196363043E+03  0.42709928938E+03 -0.83410493985E+03  0.13216281860E+04  0.25500000920E-02 0. -1.
</event>
<event>
 5   0  0.2456600E-06  0.2594877E+04  0.7818609E-02  0.8369943E-01
       -1   -1    0    0    0  501  0.00000000000E+00  0.00000000000E+00  0.96981864085E+03  0.96981864086E+03  0.50400001928E-02 0. -1.
        1   -1    0    0  501    0  0.00000000000E+00  0.00000000000E+00 -0.17357333272E+04  0.17357333272E+04  0.50400001928E-02 0.  1.
    10030    2    1    2    0    0  0.00000000000E+00  0.00000000000E+00 -0.76591468636E+03  0.27055519681E+04  0.25948769037E+04 0.  0.
        5    1    3    3  502    0 -0.72107843983E+03 -0.10741355754E+04 -0.28078231955E+03  0.13238512574E+04  0.46999998093E+01 0.  1.
       -5    1    3    3    0  502  0.72107843983E+03  0.10741355754E+04 -0.48513236681E+03  0.13817007107E+04  0.46999998093E+01 0. -1.
</event>
<event>
 5   0  0.2333979E-06  0.2591758E+04  0.7818609E-02  0.8371006E-01
       -1   -1    0    0    0  501  0.00000000000E+00  0.00000000000E+00  0.11594604011E+04  0.11594604011E+04  0.50400001928E-02 0. -1.
        1   -1    0    0  501    0  0.00000000000E+00  0.00000000000E+00 -0.14483483263E+04  0.14483483263E+04  0.50400001928E-02 0.  1.
    10030    2    1    2    0    0  0.00000000000E+00  0.00000000000E+00 -0.28888792517E+03  0.26078087274E+04  0.25917581147E+04 0.  0.
        3    1    3    3  502    0 -0.12632026278E+04 -0.24787874232E+03 -0.29428825908E+03  0.13205038203E+04  0.10100000352E+00 0. -1.
       -3    1    3    3    0  502  0.12632026278E+04  0.24787874232E+03  0.54003339079E+01  0.12873049070E+04  0.10100000352E+00 0.  1.
</event>
<event>
 5   0  0.5940748E-06  0.2610817E+04  0.7818609E-02  0.8364536E-01
       -2   -1    0    0    0  501  0.00000000000E+00  0.00000000000E+00  0.12801894061E+04  0.12801894062E+04  0.25500000920E-02 0. -1.
        2   -1    0    0  501    0  0.00000000000E+00  0.00000000000E+00 -0.13311243054E+04  0.13311243054E+04  0.25500000920E-02 0.  1.
    10030    2    1    2    0    0  0.00000000000E+00  0.00000000000E+00 -0.50934899222E+02  0.26113137115E+04  0.26108169097E+04 0.  0.
        1    1    3    3  502    0 -0.86750393532E+03 -0.27631299271E+03  0.91022073916E+03  0.12874058186E+04  0.50400001928E-02 0. -1.
       -1    1    3    3    0  502  0.86750393532E+03  0.27631299271E+03 -0.96115563838E+03  0.13239078929E+04  0.50400001928E-02 0.  1.
</event>
<event>
 5   0  0.2471488E-06  0.2600268E+04  0.7818609E-02  0.8368110E-01
       -1   -1    0    0    0  501  0.00000000000E+00  0.00000000000E+00  0.11617476966E+04  0.11617476966E+04  0.50400001928E-02 0.  1.
        1   -1    0    0  501    0  0.00000000000E+00  0.00000000000E+00 -0.14550049228E+04  0.14550049229E+04  0.50400001928E-02 0. -1.
    10030    2    1    2    0    0  0.00000000000E+00  0.00000000000E+00 -0.29325722626E+03  0.26167526194E+04  0.26002681536E+04 0.  0.
        4    1    3    3  502    0 -0.52347205115E+03 -0.28081943774E+03 -0.13104481832E+04  0.14388045728E+04  0.12699999809E+01 0. -1.
       -4    1    3    3    0  502  0.52347205115E+03  0.28081943774E+03  0.10171909569E+04  0.11779480467E+04  0.12699999809E+01 0.  1.
</event>
<event>
 5   0  0.2333979E-06  0.2599085E+04  0.7818609E-02  0.8368512E-01
        1   -1    0    0  501    0  0.00000000000E+00  0.00000000000E+00  0.97746107407E+03  0.97746107408E+03  0.50400001928E-02 0. -1.
       -1   -1    0    0    0  501  0.00000000000E+00  0.00000000000E+00 -0.17277521924E+04  0.17277521925E+04  0.50400001928E-02 0.  1.
    10030    2    1    2    0    0  0.00000000000E+00  0.00000000000E+00 -0.75029111838E+03  0.27052132665E+04  0.25990848495E+04 0.  0.
        3    1    3    3  502    0  0.11677967177E+04 -0.26857588096E+03 -0.89860108120E+03  0.14977870647E+04  0.10100000352E+00 0. -1.
       -3    1    3    3    0  502 -0.11677967177E+04  0.26857588096E+03  0.14830996282E+03  0.12074262019E+04  0.10100000352E+00 0.  1.
</event>
<event>
 5   0  0.2440590E-06  0.2644554E+04  0.7818609E-02  0.8353223E-01
       -1   -1    0    0    0  501  0.00000000000E+00  0.00000000000E+00  0.75352322080E+03  0.75352322081E+03  0.50400001928E-02 0.  1.
        1   -1    0    0  501    0  0.00000000000E+00  0.00000000000E+00 -0.23203220435E+04  0.23203220435E+04  0.50400001928E-02 0. -1.
    10030    2    1    2    0    0  0.00000000000E+00  0.00000000000E+00 -0.15667988227E+04  0.30738452643E+04  0.26445540566E+04 0.  0.
        1    1    3    3  502    0 -0.74095918492E+03 -0.23198886383E+02 -0.20560623473E+04  0.21856237274E+04  0.50400001928E-02 0. -1.
       -1    1    3    3    0  502  0.74095918492E+03  0.23198886383E+02  0.48926352458E+03  0.88822153687E+03  0.50400001928E-02 0.  1.
</event>
<event>
 5   0  0.2456600E-06  0.2632820E+04  0.7818609E-02  0.8357138E-01
       -1   -1    0    0    0  501  0.00000000000E+00  0.00000000000E+00  0.11402260204E+04  0.11402260205E+04  0.50400001928E-02 0. -1.
        1   -1    0    0  501    0  0.00000000000E+00  0.00000000000E+00 -0.15198170730E+04  0.15198170731E+04  0.50400001928E-02 0.  1.
    10030    2    1    2    0    0  0.00000000000E+00  0.00000000000E+00 -0.37959105260E+03  0.26600430935E+04  0.26328197607E+04 0.  0.
        5    1    3    3  502    0  0.46151028064E+02  0.55494928634E+03 -0.13949470311E+04  0.15019979818E+04  0.46999998093E+01 0.  1.
       -5    1    3    3    0  502 -0.46151028064E+02 -0.55494928634E+03  0.10153559785E+04  0.11580451117E+04  0.46999998093E+01 0. -1.
</event>
<event>
 5   0  0.2333979E-06  0.2592489E+04  0.7818609E-02  0.8370757E-01
       -1   -1    0    0    0  501  0.00000000000E+00  0.00000000000E+00  0.83680224656E+03  0.83680224657E+03  0.50400001928E-02 0. -1.
        1   -1    0    0  501    0  0.00000000000E+00  0.00000000000E+00 -0.20079408032E+04  0.20079408032E+04  0.50400001928E-02 0.  1.
    10030    2    1    2    0    0  0.00000000000E+00  0.00000000000E+00 -0.11711385566E+04  0.28447430498E+04  0.25924886693E+04 0.  0.
        3    1    3    3  502    0  0.94343464763E+03  0.75025664142E+03 -0.62424971015E+02  0.12070007662E+04  0.10100000352E+00 0. -1.
       -3    1    3    3    0  502 -0.94343464763E+03 -0.75025664142E+03 -0.11087135856E+04  0.16377422836E+04  0.10100000352E+00 0.  1.
</event>
<event>
 5   0  0.5942229E-06  0.2599014E+04  0.7818609E-02  0.8368536E-01
        2   -1    0    0  501    0  0.00000000000E+00  0.00000000000E+00  0.14274438242E+04  0.14274438242E+04  0.25500000920E-02 0.  1.
       -2   -1    0    0    0  501  0.00000000000E+00  0.00000000000E+00 -0.11830370262E+04  0.11830370262E+04  0.25500000920E-02 0. -1.
    10030    2    1    2    0    0  0.00000000000E+00  0.00000000000E+00  0.24440679802E+03  0.26104808504E+04  0.25990143492E+04 0.  0.
        4    1    3    3  502    0 -0.59381537584E+03  0.27286731276E+03 -0.10059814162E+04  0.11996138935E+04  0.12699999809E+01 0. -1.
       -4    1    3    3    0  502  0.59381537584E+03 -0.27286731276E+03  0.12503882142E+04  0.14108669569E+04  0.12699999809E+01 0.  1.
</event>
<event>
 5   0  0.5940748E-06  0.2594618E+04  0.7818609E-02  0.8370032E-01
       -2   -1    0    0    0  501  0.00000000000E+00  0.00000000000E+00  0.71984300267E+03  0.71984300267E+03  0.25500000920E-02 0.  1.
        2   -1    0    0  501    0  0.00000000000E+00  0.00000000000E+00 -0.23380238517E+04  0.23380238517E+04  0.25500000920E-02 0. -1.
    10030    2    1    2    0    0  0.00000000000E+00  0.00000000000E+00 -0.16181808490E+04  0.30578668544E+04  0.25946175901E+04 0.  0.
        1    1    3    3  502    0  0.57188126061E+03 -0.64017883228E+03 -0.19554511740E+04  0.21355716816E+04  0.50400001928E-02 0. -1.
       -1    1    3    3    0  502 -0.57188126061E+03  0.64017883228E+03  0.33727032495E+03  0.92229517274E+03  0.50400001928E-02 0.  1.
</event>
<event>
 5   0  0.2471488E-06  0.2634097E+04  0.7818609E-02  0.8356711E-01
        1   -1    0    0  501    0  0.00000000000E+00  0.00000000000E+00  0.95966881495E+03  0.95966881496E+03  0.50400001928E-02 0.  1.
       -1   -1    0    0    0  501  0.00000000000E+00  0.00000000000E+00 -0.18075159965E+04  0.18075159965E+04  0.50400001928E-02 0. -1.
    10030    2    1    2    0    0  0.00000000000E+00  0.00000000000E+00 -0.84784718150E+03  0.27671848114E+04  0.26340969871E+04 0.  0.
        4    1    3    3  502    0 -0.23731571472E+03 -0.12243573831E+04  0.20841178586E+02  0.12473194128E+04  0.12699999809E+01 0. -1.
       -4    1    3    3    0  502  0.23731571472E+03  0.12243573831E+04 -0.86868836009E+03  0.15198653986E+04  0.12699999809E+01 0.  1.
</event>
<event>
 5   0  0.6161834E-06  0.2614297E+04  0.7818609E-02  0.8363361E-01
        2   -1    0    0  501    0  0.00000000000E+00  0.00000000000E+00  0.96038289391E+03  0.96038289391E+03  0.25500000920E-02 0.  1.
       -2   -1    0    0    0  501  0.00000000000E+00  0.00000000000E+00 -0.17791206405E+04  0.17791206405E+04  0.25500000920E-02 0. -1.
    10030    2    1    2    0    0  0.00000000000E+00  0.00000000000E+00 -0.81873774662E+03  0.27395035344E+04  0.26142968687E+04 0.  0.
        5    1    3    3  502    0  0.72401996495E+03  0.57444822259E+03  0.55924900207E+03  0.10802671921E+04  0.46999998093E+01 0.  1.
       -5    1    3    3    0  502 -0.72401996495E+03 -0.57444822259E+03 -0.13779867487E+04  0.16592363423E+04  0.46999998093E+01 0. -1.
</event>
<event>
 5   0  0.2471488E-06  0.2594606E+04  0.7818609E-02  0.8370036E-01
       -1   -1    0    0    0  501  0.00000000000E+00  0.00000000000E+00  0.13036363728E+04  0.13036363728E+04  0.50400001928E-02 0.  1.
        1   -1    0    0  501    0  0.00000000000E+00  0.00000000000E+00 -0.12910001493E+04  0.12910001493E+04  0.50400001928E-02 0. -1.
    10030    2    1    2    0    0  0.00000000000E+00  0.00000000000E+00  0.12636223535E+02  0.25946365221E+04  0.25946057518E+04 0.  0.
        4    1    3    3  502    0  0.81983370609E+03  0.67659289537E+03 -0.73738949598E+03  0.12936963065E+04  0.12699999809E+01 0. -1.
       -4    1    3    3    0  502 -0.81983370609E+03 -0.67659289537E+03  0.75002571952E+03  0.13009402156E+04  0.12699999809E+01 0.  1.
</event>
<event>
 5   0  0.2440590E-06  0.2615338E+04  0.7818609E-02  0.8363010E-01
        1   -1    0    0  501    0  0.00000000000E+00  0.00000000000E+00  0.16668773282E+04  0.16668773283E+04  0.50400001928E-02 0. -1.
       -1   -1    0    0    0  501  0.00000000000E+00  0.00000000000E+00 -0.10258692109E+04  0.10258692109E+04  0.50400001928E-02 0.  1.
    10030    2    1    2    0    0  0.00000000000E+00  0.00000000000E+00  0.64100811737E+03  0.26927465391E+04  0.26153379356E+04 0.  0.
        1    1    3    3  502    0 -0.10714234796E+04 -0.73991960051E+03  0.19623008906E+03  0.13167898602E+04  0.50400001928E-02 0. -1.
       -1    1    3    3    0  502  0.10714234796E+04  0.73991960051E+03  0.44477802831E+03  0.13759566790E+04  0.50400001928E-02 0.  1.
</event>
<event>
 5   0  0.2440590E-06  0.2610234E+04  0.7818609E-02  0.8364733E-01
        1   -1    0    0  501    0  0.00000000000E+00  0.00000000000E+00  0.13124589401E+04  0.13124589401E+04  0.50400001928E-02 0. -1.
       -1   -1    0    0    0  501  0.00000000000E+00  0.00000000000E+00 -0.12978158625E+04  0.12978158625E+04  0.50400001928E-02 0.  1.
    10030    2    1    2    0    0  0.00000000000E+00  0.00000000000E+00  0.14643077531E+02  0.26102748026E+04  0.26102337300E+04 0.  0.
        1    1    3    3  502    0 -0.11077275949E+04  0.58816231881E+03  0.36834618504E+03  0.13071626715E+04  0.50400001928E-02 0. -1.
       -1    1    3    3    0  502  0.11077275949E+04 -0.58816231881E+03 -0.35370310751E+03  0.13031121311E+04  0.50400001928E-02 0.  1.
</event>
<event>
 5   0  0.2333979E-06  0.2608323E+04  0.7818609E-02  0.8365379E-01
        1   -1    0    0  501    0  0.00000000000E+00  0.00000000000E+00  0.14253975135E+04  0.14253975135E+04  0.50400001928E-02 0. -1.
       -1   -1    0    0    0  501  0.00000000000E+00  0.00000000000E+00 -0.11932374185E+04  0.11932374185E+04  0.50400001928E-02 0.  1.
    10030    2    1    2    0    0  0.00000000000E+00  0.00000000000E+00  0.23216009503E+03  0.26186349320E+04  0.26083233307E+04 0.  0.
        3    1    3    3  502    0  0.19438260645E+03 -0.10031966185E+04  0.92962277728E+03  0.13814436548E+04  0.10100000352E+00 0. -1.
       -3    1    3    3    0  502 -0.19438260645E+03  0.10031966185E+04 -0.69746268225E+03  0.12371912772E+04  0.10100000352E+00 0.  1.
</event>
<event>
 5   0  0.6161834E-06  0.2592677E+04  0.7818609E-02  0.8370693E-01
        2   -1    0    0  501    0  0.00000000000E+00  0.00000000000E+00  0.14056385303E+04  0.14056385303E+04  0.25500000920E-02 0.  1.
       -2   -1    0    0    0  501  0.00000000000E+00  0.00000000000E+00 -0.11955377772E+04  0.11955377772E+04  0.25500000920E-02 0. -1.
    10030    2    1    2    0    0  0.00000000000E+00  0.00000000000E+00  0.21010075306E+03  0.26011763075E+04  0.25926773529E+04 0.  0.
        5    1    3    3  502    0 -0.28297539779E+03  0.12324995645E+04  0.39118982056E+03  0.13237000483E+04  0.46999998093E+01 0.  1.
       -5    1    3    3    0  502  0.28297539779E+03 -0.12324995645E+04 -0.18108906750E+03  0.12774762591E+04  0.46999998093E+01 0. -1.
</event>
<event>
 5   0  0.5940748E-06  0.2593643E+04  0.7818609E-02  0.8370364E-01
        2   -1    0    0  501    0  0.00000000000E+00  0.00000000000E+00  0.14015345424E+04  0.14015345424E+04  0.25500000920E-02 0.  1.
       -2   -1    0    0    0  501  0.00000000000E+00  0.00000000000E+00 -0.11999322321E+04  0.11999322321E+04  0.25500000920E-02 0. -1.
    10030    2    1    2    0    0  0.00000000000E+00  0.00000000000E+00  0.20160231029E+03  0.26014667746E+04  0.25936433617E+04 0.  0.
        1    1    3    3  502    0 -0.55396472718E+03 -0.99849748231E+03 -0.51576626339E+03  0.12529521059E+04  0.50400001928E-02 0. -1.
       -1    1    3    3    0  502  0.55396472718E+03  0.99849748231E+03  0.71736857368E+03  0.13485146687E+04  0.50400001928E-02 0.  1.
</event>
<event>
 5   0  0.2471488E-06  0.2598948E+04  0.7818609E-02  0.8368559E-01
       -1   -1    0    0    0  501  0.00000000000E+00  0.00000000000E+00  0.66166724816E+03  0.66166724818E+03  0.50400001928E-02 0. -1.
        1   -1    0    0  501    0  0.00000000000E+00  0.00000000000E+00 -0.25520881004E+04  0.25520881004E+04  0.50400001928E-02 0.  1.
    10030    2    1    2    0    0  0.00000000000E+00  0.00000000000E+00 -0.18904208523E+04  0.32137553486E+04  0.25989483339E+04 0.  0.
        4    1    3    3  502    0  0.98530544500E+03  0.25540532240E+01 -0.19928607104E+04  0.22231348963E+04  0.12699999809E+01 0.  1.
       -4    1    3    3    0  502 -0.98530544500E+03 -0.25540532240E+01  0.10243985814E+03  0.99062045233E+03  0.12699999809E+01 0. -1.
</event>
<event>
 5   0  0.2333979E-06  0.2567876E+04  0.7818609E-02  0.8379196E-01
       -1   -1    0    0    0  501  0.00000000000E+00  0.00000000000E+00  0.87443352389E+03  0.87443352391E+03  0.50400001928E-02 0. -1.
        1   -1    0    0  501    0  0.00000000000E+00  0.00000000000E+00 -0.18852166062E+04  0.18852166062E+04  0.50400001928E-02 0.  1.
    10030    2    1    2    0    0  0.00000000000E+00  0.00000000000E+00 -0.10107830823E+04  0.27596501301E+04  0.25678758539E+04 0.  0.
        3    1    3    3  502    0 -0.20299172038E+03 -0.12616504579E+04 -0.37146927863E+03  0.13307730654E+04  0.10100000352E+00 0. -1.
       -3    1    3    3    0  502  0.20299172038E+03  0.12616504579E+04 -0.63931380371E+03  0.14288770648E+04  0.10100000352E+00 0.  1.
</event>
<event>
 5   0  0.6161834E-06  0.2605101E+04  0.7818609E-02  0.8366470E-01
        2   -1    0    0  501    0  0.00000000000E+00  0.00000000000E+00  0.12286254682E+04  0.12286254682E+04  0.25500000920E-02 0. -1.
       -2   -1    0    0    0  501  0.00000000000E+00  0.00000000000E+00 -0.13809238720E+04  0.13809238720E+04  0.25500000920E-02 0.  1.
    10030    2    1    2    0    0  0.00000000000E+00  0.00000000000E+00 -0.15229840384E+03  0.26095493402E+04  0.26051013330E+04 0.  0.
        5    1    3    3  502    0  0.56827296406E+03 -0.11156908179E+04  0.28351256931E+03  0.12837841056E+04  0.46999998093E+01 0. -1.
       -5    1    3    3    0  502 -0.56827296406E+03  0.11156908179E+04 -0.43581097315E+03  0.13257652346E+04  0.46999998093E+01 0.  1.
</event>
<event>
 5   0  0.2333979E-06  0.2586218E+04  0.7818609E-02  0.8372898E-01
        1   -1    0    0  501    0  0.00000000000E+00  0.00000000000E+00  0.29000129968E+04  0.29000129968E+04  0.50400001928E-02 0. -1.
       -1   -1    0    0    0  501  0.00000000000E+00  0.00000000000E+00 -0.57659414311E+03  0.57659414313E+03  0.50400001928E-02 0.  1.
    10030    2    1    2    0    0  0.00000000000E+00  0.00000000000E+00  0.23234188536E+04  0.34766071399E+04  0.25862177085E+04 0.  0.
        3    1    3    3  502    0 -0.41449226188E+03  0.11866885119E+04  0.75375338335E+03  0.14656662760E+04  0.10100000352E+00 0. -1.
       -3    1    3    3    0  502  0.41449226188E+03 -0.11866885119E+04  0.15696654703E+04  0.20109408639E+04  0.10100000352E+00 0.  1.
</event>
<event>
 5   0  0.2333979E-06  0.2551351E+04  0.7818609E-02  0.8384917E-01
       -1   -1    0    0    0  501  0.00000000000E+00  0.00000000000E+00  0.24637144744E+04  0.24637144744E+04  0.50400001928E-02 0.  1.
        1   -1    0    0  501    0  0.00000000000E+00  0.00000000000E+00 -0.66052616630E+03  0.66052616632E+03  0.50400001928E-02 0. -1.
    10030    2    1    2    0    0  0.00000000000E+00  0.00000000000E+00  0.18031883081E+04  0.31242406407E+04  0.25513509180E+04 0.  0.
        3    1    3    3  502    0  0.16460363624E+03  0.50254925262E+03 -0.51998332277E+03  0.74164194497E+03  0.10100000352E+00 0. -1.
       -3    1    3    3    0  502 -0.16460363624E+03 -0.50254925262E+03  0.23231716308E+04  0.23825986957E+04  0.10100000352E+00 0.  1.
</event>
<event>
 5   0  0.5942229E-06  0.2589253E+04  0.7818609E-02  0.8371861E-01
       -2   -1    0    0    0  501  0.00000000000E+00  0.00000000000E+00  0.10631241154E+04  0.10631241154E+04  0.25500000920E-02 0. -1.
        2   -1    0    0  501    0  0.00000000000E+00  0.00000000000E+00 -0.15765400640E+04  0.15765400640E+04  0.25500000920E-02 0.  1.
    10030    2    1    2    0    0  0.00000000000E+00  0.00000000000E+00 -0.51341594858E+03  0.26396641794E+04  0.25892529895E+04 0.  0.
        4    1    3    3  502    0  0.43594429141E+03 -0.71769067751E+03  0.74783353586E+03  0.11244482843E+04  0.12699999809E+01 0. -1.
       -4    1    3    3    0  502 -0.43594429141E+03  0.71769067751E+03 -0.12612494844E+04  0.15152158951E+04  0.12699999809E+01 0.  1.
</event>
<event>
 5   0  0.6158063E-06  0.2615674E+04  0.7818609E-02  0.8362896E-01
        2   -1    0    0  501    0  0.00000000000E+00  0.00000000000E+00  0.21402522434E+04  0.21402522434E+04  0.25500000920E-02 0.  1.
       -2   -1    0    0    0  501  0.00000000000E+00  0.00000000000E+00 -0.79917600920E+03  0.79917600920E+03  0.25500000920E-02 0. -1.
    10030    2    1    2    0    0  0.00000000000E+00  0.00000000000E+00  0.13410762342E+04  0.29394282526E+04  0.26156744802E+04 0.  0.
        2    1    3    3  502    0 -0.31760264359E+03  0.81677806928E+03  0.17614913026E+04  0.19674474485E+04  0.25500000920E-02 0.  1.
       -2    1    3    3    0  502  0.31760264359E+03 -0.81677806928E+03 -0.42041506841E+03  0.97198080404E+03  0.25500000920E-02 0. -1.
</event>
<event>
 5   0  0.2503292E-06  0.2593471E+04  0.7818609E-02  0.8370422E-01
        1   -1    0    0  501    0  0.00000000000E+00  0.00000000000E+00  0.20190748015E+04  0.20190748015E+04  0.50400001928E-02 0. -1.
       -1   -1    0    0    0  501  0.00000000000E+00  0.00000000000E+00 -0.83281833689E+03  0.83281833690E+03  0.50400001928E-02 0.  1.
    10030    2    1    2    0    0  0.00000000000E+00  0.00000000000E+00  0.11862564646E+04  0.28518931384E+04  0.25934706617E+04 0.  0.
        2    1    3    3  502    0  0.84588475240E+03  0.57144570993E+02 -0.48583219182E+03  0.97714862480E+03  0.25500000920E-02 0.  1.
       -2    1    3    3    0  502 -0.84588475240E+03 -0.57144570993E+02  0.16720886564E+04  0.18747445136E+04  0.25500000920E-02 0. -1.
</event>
<event>
 5   0  0.6158063E-06  0.2590245E+04  0.7818609E-02  0.8371522E-01
       -2   -1    0    0    0  501  0.00000000000E+00  0.00000000000E+00  0.86347413277E+03  0.86347413277E+03  0.25500000920E-02 0.  1.
        2   -1    0    0  501    0  0.00000000000E+00  0.00000000000E+00 -0.19425512635E+04  0.19425512635E+04  0.25500000920E-02 0. -1.
    10030    2    1    2    0    0  0.00000000000E+00  0.00000000000E+00 -0.10790771307E+04  0.28060253963E+04  0.25902453688E+04 0.  0.
        2    1    3    3  502    0 -0.11259280667E+03 -0.91035889553E+02 -0.19337557475E+04  0.19391688849E+04  0.25500000920E-02 0. -1.
       -2    1    3    3    0  502  0.11259280667E+03  0.91035889553E+02  0.85467861677E+03  0.86685651135E+03  0.25500000920E-02 0.  1.
</event>
<event>
 5   0  0.2503292E-06  0.2597812E+04  0.7818609E-02  0.8368945E-01
        1   -1    0    0  501    0  0.00000000000E+00  0.00000000000E+00  0.26333211822E+04  0.26333211822E+04  0.50400001928E-02 0.  1.
       -1   -1    0    0    0  501  0.00000000000E+00  0.00000000000E+00 -0.64069564953E+03  0.64069564955E+03  0.50400001928E-02 0. -1.
    10030    2    1    2    0    0  0.00000000000E+00  0.00000000000E+00  0.19926255327E+04  0.32740168318E+04  0.25978124838E+04 0.  0.
        2    1    3    3  502    0  0.64554399907E+03  0.71461997141E+03 -0.10220752068E+03  0.96842921040E+03  0.25500000920E-02 0. -1.
       -2    1    3    3    0  502 -0.64554399907E+03 -0.71461997141E+03  0.20948330534E+04  0.23055876214E+04  0.25500000920E-02 0.  1.
</event>
<event>
 5   0  0.2072125E-06  0.2584265E+04  0.7818609E-02  0.8373566E-01
        3   -1    0    0  501    0  0.00000000000E+00  0.00000000000E+00  0.75347794333E+03  0.75347795010E+03  0.10100000352E+00 0.  1.
       -3   -1    0    0    0  501  0.00000000000E+00  0.00000000000E+00 -0.22158663434E+04  0.22158663457E+04  0.10100000352E+00 0. -1.
    10030    2    1    2    0    0  0.00000000000E+00  0.00000000000E+00 -0.14623884000E+04  0.29693442958E+04  0.25842650240E+04 0.  0.
        4    1    3    3  502    0 -0.38052609051E+02 -0.71254396837E+03 -0.19689485489E+04  0.20942604683E+04  0.12699999809E+01 0. -1.
       -4    1    3    3    0  502  0.38052609051E+02  0.71254396837E+03  0.50656014882E+03  0.87508382752E+03  0.12699999809E+01 0.  1.
</event>
<event>
 5   0  0.2440590E-06  0.2598977E+04  0.7818609E-02  0.8368549E-01
        1   -1    0    0  501    0  0.00000000000E+00  0.00000000000E+00  0.18138539437E+04  0.18138539437E+04  0.50400001928E-02 0.  1.
       -1   -1    0    0    0  501  0.00000000000E+00  0.00000000000E+00 -0.93098495692E+03  0.93098495693E+03  0.50400001928E-02 0. -1.
    10030    2    1    2    0    0  0.00000000000E+00  0.00000000000E+00  0.88286898681E+03  0.27448389007E+04  0.25989772878E+04 0.  0.
        1    1    3    3  502    0 -0.63213212124E+03  0.48066643528E+03 -0.64490436746E+03  0.10230018983E+04  0.50400001928E-02 0. -1.
       -1    1    3    3    0  502  0.63213212124E+03 -0.48066643528E+03  0.15277733543E+04  0.17218370024E+04  0.50400001928E-02 0.  1.
</event>
<event>
 5   0  0.6158063E-06  0.2589722E+04  0.7818609E-02  0.8371701E-01
       -2   -1    0    0    0  501  0.00000000000E+00  0.00000000000E+00  0.69173293273E+03  0.69173293273E+03  0.25500000920E-02 0.  1.
        2   -1    0    0  501    0  0.00000000000E+00  0.00000000000E+00 -0.24238609253E+04  0.24238609253E+04  0.25500000920E-02 0. -1.
    10030    2    1    2    0    0  0.00000000000E+00  0.00000000000E+00 -0.17321279926E+04  0.31155938580E+04  0.25897215498E+04 0.  0.
        2    1    3    3  502    0 -0.10067132080E+04 -0.89097614858E+02 -0.18399156222E+04  0.20992139875E+04  0.25500000920E-02 0. -1.
       -2    1    3    3    0  502  0.10067132080E+04  0.89097614858E+02  0.10778762966E+03  0.10163798706E+04  0.25500000920E-02 0.  1.
</event>
<event>
 5   0  0.5942229E-06  0.2580034E+04  0.7818609E-02  0.8375015E-01
       -2   -1    0    0    0  501  0.00000000000E+00  0.00000000000E+00  0.63332967442E+03  0.63332967442E+03  0.25500000920E-02 0.  1.
        2   -1    0    0  501    0  0.00000000000E+00  0.00000000000E+00 -0.26276098128E+04  0.26276098128E+04  0.25500000920E-02 0. -1.
    10030    2    1    2    0    0  0.00000000000E+00  0.00000000000E+00 -0.19942801383E+04  0.32609394872E+04  0.25800335403E+04 0.  0.
        4    1    3    3  502    0 -0.48990659759E+03 -0.12472709286E+03  0.50291630713E+03  0.71308607260E+03  0.12699999809E+01 0.  1.
       -4    1    3    3    0  502  0.48990659759E+03  0.12472709286E+03 -0.24971964455E+04  0.25478534146E+04  0.12699999809E+01 0. -1.
</event>
<event>
 5   0  0.5940748E-06  0.2591633E+04  0.7818609E-02  0.8371049E-01
       -2   -1    0    0    0  501  0.00000000000E+00  0.00000000000E+00  0.12574657043E+04  0.12574657043E+04  0.25500000920E-02 0. -1.
        2   -1    0    0  501    0  0.00000000000E+00  0.00000000000E+00 -0.13353366355E+04  0.13353366355E+04  0.25500000920E-02 0.  1.
    10030    2    1    2    0    0  0.00000000000E+00  0.00000000000E+00 -0.77870931245E+02  0.25928023398E+04  0.25916327077E+04 0.  0.
        1    1    3    3  502    0  0.87976391039E+03 -0.94278862720E+03 -0.16668447697E+03  0.13002379200E+04  0.50400001928E-02 0. -1.
       -1    1    3    3    0  502 -0.87976391039E+03  0.94278862720E+03  0.88813545728E+02  0.12925644199E+04  0.50400001928E-02 0.  1.
</event>
<event>
 5   0  0.5940748E-06  0.2546196E+04  0.7818609E-02  0.8386710E-01
       -2   -1    0    0    0  501  0.00000000000E+00  0.00000000000E+00  0.11082113749E+04  0.11082113749E+04  0.25500000920E-02 0.  1.
        2   -1    0    0  501    0  0.00000000000E+00  0.00000000000E+00 -0.14625173653E+04  0.14625173653E+04  0.25500000920E-02 0. -1.
    10030    2    1    2    0    0  0.00000000000E+00  0.00000000000E+00 -0.35430599042E+03  0.25707287403E+04  0.25461958921E+04 0.  0.
        1    1    3    3  502    0 -0.98074065465E+03  0.46517615904E+03 -0.84879736046E+03  0.13779325273E+04  0.50400001928E-02 0. -1.
       -1    1    3    3    0  502  0.98074065465E+03 -0.46517615904E+03  0.49449137004E+03  0.11927962130E+04  0.50400001928E-02 0.  1.
</event>
<event>
 5   0  0.2503292E-06  0.2604037E+04  0.7818609E-02  0.8366831E-01
        1   -1    0    0  501    0  0.00000000000E+00  0.00000000000E+00  0.29418427996E+04  0.29418427996E+04  0.50400001928E-02 0.  1.
       -1   -1    0    0    0  501  0.00000000000E+00  0.00000000000E+00 -0.57625520755E+03  0.57625520758E+03  0.50400001928E-02 0. -1.
    10030    2    1    2    0    0  0.00000000000E+00  0.00000000000E+00  0.23655875920E+04  0.35180980071E+04  0.26040370451E+04 0.  0.
        2    1    3    3  502    0  0.69887317047E+01 -0.32057296138E+03  0.28876659572E+04  0.29054140060E+04  0.25500000920E-02 0.  1.
       -2    1    3    3    0  502 -0.69887317047E+01  0.32057296138E+03 -0.52207836515E+03  0.61268400118E+03  0.25500000920E-02 0. -1.
</event>
<event>
 5   0  0.2072125E-06  0.2556200E+04  0.7818609E-02  0.8383233E-01
       -4   -1    0    0    0  501  0.00000000000E+00  0.00000000000E+00  0.18057947044E+04  0.18057951510E+04  0.12699999809E+01 0.  1.
        4   -1    0    0  501    0  0.00000000000E+00  0.00000000000E+00 -0.90460908527E+03  0.90460997676E+03  0.12699999809E+01 0. -1.
    10030    2    1    2    0    0  0.00000000000E+00  0.00000000000E+00  0.90118561916E+03  0.27104051278E+04  0.25562003905E+04 0.  0.
        1    1    3    3  502    0 -0.12159812314E+04  0.20735716369E+03  0.95846471582E+02  0.12372525589E+04  0.50400001928E-02 0. -1.
       -1    1    3    3    0  502  0.12159812314E+04 -0.20735716369E+03  0.80533914758E+03  0.14731525688E+04  0.50400001928E-02 0.  1.
</event>
<event>
 5   0  0.5940748E-06  0.2595066E+04  0.7818609E-02  0.8369879E-01
        2   -1    0    0  501    0  0.00000000000E+00  0.00000000000E+00  0.14885438901E+04  0.14885438901E+04  0.25500000920E-02 0. -1.
       -2   -1    0    0    0  501  0.00000000000E+00  0.00000000000E+00 -0.11310328029E+04  0.11310328029E+04  0.25500000920E-02 0.  1.
    10030    2    1    2    0    0  0.00000000000E+00  0.00000000000E+00  0.35751108728E+03  0.26195766930E+04  0.25950660633E+04 0.  0.
        1    1    3    3  502    0 -0.10379758867E+04 -0.73114898053E+03 -0.91389757316E+02  0.12729198171E+04  0.50400001928E-02 0.  1.
       -1    1    3    3    0  502  0.10379758867E+04  0.73114898053E+03  0.44890084460E+03  0.13466568759E+04  0.50400001928E-02 0. -1.
</event>
<event>
 5   0  0.6161834E-06  0.2574853E+04  0.7818609E-02  0.8376793E-01
        2   -1    0    0  501    0  0.00000000000E+00  0.00000000000E+00  0.11442831443E+04  0.11442831443E+04  0.25500000920E-02 0. -1.
       -2   -1    0    0    0  501  0.00000000000E+00  0.00000000000E+00 -0.14484765317E+04  0.14484765317E+04  0.25500000920E-02 0.  1.
    10030    2    1    2    0    0  0.00000000000E+00  0.00000000000E+00 -0.30419338733E+03  0.25927596760E+04  0.25748532231E+04 0.  0.
        5    1    3    3  502    0 -0.46372562486E+03 -0.10906860921E+04 -0.65839308840E+03  0.13557806443E+04  0.46999998093E+01 0. -1.
       -5    1    3    3    0  502  0.46372562486E+03  0.10906860921E+04  0.35419970107E+03  0.12369790317E+04  0.46999998093E+01 0.  1.
</event>
<event>
 5   0  0.5942229E-06  0.2597177E+04  0.7818609E-02  0.8369161E-01
        2   -1    0    0  501    0  0.00000000000E+00  0.00000000000E+00  0.11668079445E+04  0.11668079445E+04  0.25500000920E-02 0. -1.
       -2   -1    0    0    0  501  0.00000000000E+00  0.00000000000E+00 -0.14452519696E+04  0.14452519696E+04  0.25500000920E-02 0.  1.
    10030    2    1    2    0    0  0.00000000000E+00  0.00000000000E+00 -0.27844402504E+03  0.26120599141E+04  0.25971765284E+04 0.  0.
        4    1    3    3  502    0  0.44904049713E+03  0.16559382604E+02  0.10861270216E+04  0.11754084827E+04  0.12699999809E+01 0. -1.
       -4    1    3    3    0  502 -0.44904049713E+03 -0.16559382604E+02 -0.13645710466E+04  0.14366514314E+04  0.12699999809E+01 0.  1.
</event>
<event>
 5   0  0.2440590E-06  0.2602796E+04  0.7818609E-02  0.8367252E-01
        1   -1    0    0  501    0  0.00000000000E+00  0.00000000000E+00  0.15472131674E+04  0.15472131674E+04  0.50400001928E-02 0.  1.
       -1   -1    0    0    0  501  0.00000000000E+00  0.00000000000E+00 -0.10946372264E+04  0.10946372264E+04  0.50400001928E-02 0. -1.
    10030    2    1    2    0    0  0.00000000000E+00  0.00000000000E+00  0.45257594096E+03  0.26418503938E+04  0.26027962888E+04 0.  0.
        1    1    3    3  502    0  0.11357700523E+04 -0.11087348223E+03 -0.40869508238E+03  0.12121461179E+04  0.50400001928E-02 0. -1.
       -1    1    3    3    0  502 -0.11357700523E+04  0.11087348223E+03  0.86127102334E+03  0.14297042759E+04  0.50400001928E-02 0.  1.
</event>
<event>
 5   0  0.6173140E-06  0.2592664E+04  0.7818609E-02  0.8370697E-01
        2   -1    0    0  501    0  0.00000000000E+00  0.00000000000E+00  0.17317230155E+04  0.17317230155E+04  0.25500000920E-02 0. -1.
       -2   -1    0    0    0  501  0.00000000000E+00  0.00000000000E+00 -0.97040703721E+03  0.97040703721E+03  0.25500000920E-02 0.  1.
    10030    2    1    2    0    0  0.00000000000E+00  0.00000000000E+00  0.76131597829E+03  0.27021300527E+04  0.25926636502E+04 0.  0.
        3    1    3    3  502    0 -0.74989144272E+03  0.53132407283E+03 -0.57218209569E+03  0.10826055639E+04  0.10100000352E+00 0.  1.
       -3    1    3    3    0  502  0.74989144272E+03 -0.53132407283E+03  0.13334980740E+04  0.16195244888E+04  0.10100000352E+00 0. -1.
</event>
<event>
 5   0  0.5940748E-06  0.2599850E+04  0.7818609E-02  0.8368252E-01
        2   -1    0    0  501    0  0.00000000000E+00  0.00000000000E+00  0.11281109714E+04  0.11281109714E+04  0.25500000920E-02 0.  1.
       -2   -1    0    0    0  501  0.00000000000E+00  0.00000000000E+00 -0.14979062044E+04  0.14979062044E+04  0.25500000920E-02 0. -1.
    10030    2    1    2    0    0  0.00000000000E+00  0.00000000000E+00 -0.36979523301E+03  0.26260171758E+04  0.25998495520E+04 0.  0.
        1    1    3    3  502    0  0.21794985263E+03  0.12622631033E+04  0.38676451402E+02  0.12815249307E+04  0.50400001928E-02 0.  1.
       -1    1    3    3    0  502 -0.21794985263E+03 -0.12622631033E+04 -0.40847168441E+03  0.13444922451E+04  0.50400001928E-02 0. -1.
</event>
<event>
 5   0  0.2471488E-06  0.2586952E+04  0.7818609E-02  0.8372647E-01
        1   -1    0    0  501    0  0.00000000000E+00  0.00000000000E+00  0.10589577418E+04  0.10589577418E+04  0.50400001928E-02 0. -1.
       -1   -1    0    0    0  501  0.00000000000E+00  0.00000000000E+00 -0.15799305204E+04  0.15799305205E+04  0.50400001928E-02 0.  1.
    10030    2    1    2    0    0  0.00000000000E+00  0.00000000000E+00 -0.52097277867E+03  0.26388882622E+04  0.25869516085E+04 0.  0.
        4    1    3    3  502    0  0.86324479973E+03 -0.73477083218E+03  0.37491417828E+03  0.11940025185E+04  0.12699999809E+01 0. -1.
       -4    1    3    3    0  502 -0.86324479973E+03  0.73477083218E+03 -0.89588695695E+03  0.14448857438E+04  0.12699999809E+01 0.  1.
</event>
<event>
 5   0  0.6173140E-06  0.2508459E+04  0.7818609E-02  0.8399978E-01
       -2   -1    0    0    0  501  0.00000000000E+00  0.00000000000E+00  0.10296135259E+04  0.10296135259E+04  0.25500000920E-02 0. -1.
        2   -1    0    0  501    0  0.00000000000E+00  0.00000000000E+00 -0.15278461273E+04  0.15278461273E+04  0.25500000920E-02 0.  1.
    10030    2    1    2    0    0  0.00000000000E+00  0.00000000000E+00 -0.49823260134E+03  0.25574596532E+04  0.25084585212E+04 0.  0.
        3    1    3    3  502    0  0.52865454265E+02 -0.20322542106E+03 -0.15097966949E+04  0.15243298193E+04  0.10100000352E+00 0.  1.
       -3    1    3    3    0  502 -0.52865454265E+02  0.20322542106E+03  0.10115640936E+04  0.10331298339E+04  0.10100000352E+00 0. -1.
</event>
<event>
 5   0  0.5940748E-06  0.2596875E+04  0.7818609E-02  0.8369263E-01
        2   -1    0    0  501    0  0.00000000000E+00  0.00000000000E+00  0.13372533320E+04  0.13372533320E+04  0.25500000920E-02 0.  1.
       -2   -1    0    0    0  501  0.00000000000E+00  0.00000000000E+00 -0.12607486962E+04  0.12607486962E+04  0.25500000920E-02 0. -1.
    10030    2    1    2    0    0  0.00000000000E+00  0.00000000000E+00  0.76504635889E+02  0.25980020282E+04  0.25968753492E+04 0.  0.
        1    1    3    3  502    0 -0.10697770157E+04  0.62216802816E+03  0.43139160907E+03  0.13105779790E+04  0.50400001928E-02 0. -1.
       -1    1    3    3    0  502  0.10697770157E+04 -0.62216802816E+03 -0.35488697318E+03  0.12874240492E+04  0.50400001928E-02 0.  1.
</event>
<event>
 5   0  0.2503292E-06  0.2634088E+04  0.7818609E-02  0.8356714E-01
        1   -1    0    0  501    0  0.00000000000E+00  0.00000000000E+00  0.10268581625E+04  0.10268581625E+04  0.50400001928E-02 0.  1.
       -1   -1    0    0    0  501  0.00000000000E+00  0.00000000000E+00 -0.16892353209E+04  0.16892353209E+04  0.50400001928E-02 0. -1.
    10030    2    1    2    0    0  0.00000000000E+00  0.00000000000E+00 -0.66237715833E+03  0.27160934834E+04  0.26340881365E+04 0.  0.
        2    1    3    3  502    0  0.55252783274E+03 -0.78993904787E+03  0.59414247254E+03  0.11323850860E+04  0.25500000920E-02 0.  1.
       -2    1    3    3    0  502 -0.55252783274E+03  0.78993904787E+03 -0.12565196309E+04  0.15837083974E+04  0.25500000920E-02 0. -1.
</event>
<event>
 5   0  0.6161834E-06  0.2595339E+04  0.7818609E-02  0.8369786E-01
       -2   -1    0    0    0  501  0.00000000000E+00  0.00000000000E+00  0.10993371064E+04  0.10993371064E+04  0.25500000920E-02 0. -1.
        2   -1    0    0  501    0  0.00000000000E+00  0.00000000000E+00 -0.15317834192E+04  0.15317834192E+04  0.25500000920E-02 0.  1.
    10030    2    1    2    0    0  0.00000000000E+00  0.00000000000E+00 -0.43244631285E+03  0.26311205256E+04  0.25953391699E+04 0.  0.
        5    1    3    3  502    0  0.89947641928E+03  0.18446277664E+03  0.71339218350E+03  0.11627703308E+04  0.46999998093E+01 0. -1.
       -5    1    3    3    0  502 -0.89947641928E+03 -0.18446277664E+03 -0.11458384963E+04  0.14683501948E+04  0.46999998093E+01 0.  1.
</event>
<event>
 5   0  0.2440590E-06  0.2612896E+04  0.7818609E-02  0.8363834E-01
        1   -1    0    0  501    0  0.00000000000E+00  0.00000000000E+00  0.14503989753E+04  0.14503989754E+04  0.50400001928E-02 0.  1.
       -1   -1    0    0    0  501  0.00000000000E+00  0.00000000000E+00 -0.11767836468E+04  0.11767836468E+04  0.50400001928E-02 0. -1.
    10030    2    1    2    0    0  0.00000000000E+00  0.00000000000E+00  0.27361532851E+03  0.26271826222E+04  0.26128955552E+04 0.  0.
        1    1    3    3  502    0  0.28119179031E+03  0.83098762319E+03 -0.83657487515E+03  0.12122156469E+04  0.50400001928E-02 0. -1.
       -1    1    3    3    0  502 -0.28119179031E+03 -0.83098762319E+03  0.11101902037E+04  0.14149669753E+04  0.50400001928E-02 0.  1.
</event>
<event>
 5   0  0.5940748E-06  0.2624035E+04  0.7818609E-02  0.8360083E-01
       -2   -1    0    0    0  501  0.00000000000E+00  0.00000000000E+00  0.10445015489E+04  0.10445015489E+04  0.25500000920E-02 0.  1.
        2   -1    0    0  501    0  0.00000000000E+00  0.00000000000E+00 -0.16480492331E+04  0.16480492331E+04  0.25500000920E-02 0. -1.
    10030    2    1    2    0    0  0.00000000000E+00  0.00000000000E+00 -0.60354768414E+03  0.26925507820E+04  0.26240350430E+04 0.  0.
        1    1    3    3  502    0 -0.74435981272E+03 -0.18385369815E+03 -0.13942403969E+04  0.15911568111E+04  0.50400001928E-02 0. -1.
       -1    1    3    3    0  502  0.74435981272E+03  0.18385369815E+03  0.79069271278E+03  0.11013939709E+04  0.50400001928E-02 0.  1.
</event>
<event>
 5   0  0.6158063E-06  0.2601519E+04  0.7818609E-02  0.8367685E-01
        2   -1    0    0  501    0  0.00000000000E+00  0.00000000000E+00  0.13652201085E+04  0.13652201085E+04  0.25500000920E-02 0. -1.
       -2   -1    0    0    0  501  0.00000000000E+00  0.00000000000E+00 -0.12393428368E+04  0.12393428368E+04  0.25500000920E-02 0.  1.
    10030    2    1    2    0    0  0.00000000000E+00  0.00000000000E+00  0.12587727172E+03  0.26045629453E+04  0.26015193731E+04 0.  0.
        2    1    3    3  502    0 -0.10463764408E+04 -0.65085203990E+03  0.47991566579E+03  0.13224337715E+04  0.25500000920E-02 0. -1.
       -2    1    3    3    0  502  0.10463764408E+04  0.65085203990E+03 -0.35403839407E+03  0.12821291738E+04  0.25500000920E-02 0.  1.
</event>
<event>
 5   0  0.2456600E-06  0.2614522E+04  0.7818609E-02  0.8363285E-01
       -1   -1    0    0    0  501  0.00000000000E+00  0.00000000000E+00  0.83526829906E+03  0.83526829907E+03  0.50400001928E-02 0.  1.
        1   -1    0    0  501    0  0.00000000000E+00  0.00000000000E+00 -0.20459667435E+04  0.20459667435E+04  0.50400001928E-02 0. -1.
    10030    2    1    2    0    0  0.00000000000E+00  0.00000000000E+00 -0.12106984444E+04  0.28812350426E+04  0.26145218774E+04 0.  0.
        5    1    3    3  502    0 -0.93208899665E+03 -0.89577064979E+03 -0.81936134779E+03  0.15305456749E+04  0.46999998093E+01 0. -1.
       -5    1    3    3    0  502  0.93208899665E+03  0.89577064979E+03 -0.39133709664E+03  0.13506893677E+04  0.46999998093E+01 0.  1.
</event>
<event>
 5   0  0.2333979E-06  0.2594321E+04  0.7818609E-02  0.8370133E-01
        1   -1    0    0  501    0  0.00000000000E+00  0.00000000000E+00  0.16148398246E+04  0.16148398246E+04  0.50400001928E-02 0. -1.
       -1   -1    0    0    0  501  0.00000000000E+00  0.00000000000E+00 -0.10419762421E+04  0.10419762421E+04  0.50400001928E-02 0.  1.
    10030    2    1    2    0    0  0.00000000000E+00  0.00000000000E+00  0.57286358251E+03  0.26568160667E+04  0.25943205137E+04 0.  0.
        3    1    3    3  502    0  0.13400365863E+03  0.87355395311E+03  0.12588159655E+04  0.15380738392E+04  0.10100000352E+00 0. -1.
       -3    1    3    3    0  502 -0.13400365863E+03 -0.87355395311E+03 -0.68595238304E+03  0.11187422275E+04  0.10100000352E+00 0.  1.
</event>
<event>
 5   0  0.5940748E-06  0.2589132E+04  0.7818609E-02  0.8371902E-01
        2   -1    0    0  501    0  0.00000000000E+00  0.00000000000E+00  0.12426787672E+04  0.12426787672E+04  0.25500000920E-02 0.  1.
       -2   -1    0    0    0  501  0.00000000000E+00  0.00000000000E+00 -0.13486194958E+04  0.13486194958E+04  0.25500000920E-02 0. -1.
    10030    2    1    2    0    0  0.00000000000E+00  0.00000000000E+00 -0.10594072855E+03  0.25912982630E+04  0.25891317560E+04 0.  0.
        1    1    3    3  502    0 -0.11762047260E+04  0.47734244456E+03  0.20138289493E+03  0.12852503403E+04  0.50400001928E-02 0.  1.
       -1    1    3    3    0  502  0.11762047260E+04 -0.47734244456E+03 -0.30732362348E+03  0.13060479227E+04  0.50400001928E-02 0. -1.
</event>
<event>
 5   0  0.6161834E-06  0.2597993E+04  0.7818609E-02  0.8368883E-01
        2   -1    0    0  501    0  0.00000000000E+00  0.00000000000E+00  0.12417074534E+04  0.12417074534E+04  0.25500000920E-02 0.  1.
       -2   -1    0    0    0  501  0.00000000000E+00  0.00000000000E+00 -0.13589286941E+04  0.13589286941E+04  0.25500000920E-02 0. -1.
    10030    2    1    2    0    0  0.00000000000E+00  0.00000000000E+00 -0.11722124067E+03  0.26006361475E+04  0.25979929855E+04 0.  0.
        5    1    3    3  502    0 -0.37658553472E+03  0.66428357784E+03 -0.11105272347E+04  0.13477322308E+04  0.46999998093E+01 0. -1.
       -5    1    3    3    0  502  0.37658553472E+03 -0.66428357784E+03  0.99330599407E+03  0.12529039167E+04  0.46999998093E+01 0.  1.
</event>
<event>
 5   0  0.2456600E-06  0.2602605E+04  0.7818609E-02  0.8367317E-01
       -1   -1    0    0    0  501  0.00000000000E+00  0.00000000000E+00  0.13028236773E+04  0.13028236773E+04  0.50400001928E-02 0. -1.
        1   -1    0    0  501    0  0.00000000000E+00  0.00000000000E+00 -0.12997832771E+04  0.12997832772E+04  0.50400001928E-02 0.  1.
    10030    2    1    2    0    0  0.00000000000E+00  0.00000000000E+00  0.30404001545E+01  0.26026069545E+04  0.26026051785E+04 0.  0.
        5    1    3    3  502    0  0.63564873481E+03  0.83193302031E+03  0.77431078588E+03  0.13022062615E+04  0.46999998093E+01 0. -1.
       -5    1    3    3    0  502 -0.63564873481E+03 -0.83193302031E+03 -0.77127038573E+03  0.13004006930E+04  0.46999998093E+01 0.  1.
</event>
<event>
 5   0  0.5940748E-06  0.2594673E+04  0.7818609E-02  0.8370013E-01
       -2   -1    0    0    0  501  0.00000000000E+00  0.00000000000E+00  0.18022213344E+04  0.18022213344E+04  0.25500000920E-02 0.  1.
        2   -1    0    0  501    0  0.00000000000E+00  0.00000000000E+00 -0.93389301027E+03  0.93389301027E+03  0.25500000920E-02 0. -1.
    10030    2    1    2    0    0  0.00000000000E+00  0.00000000000E+00  0.86832832418E+03  0.27361143447E+04  0.25946729329E+04 0.  0.
        1    1    3    3  502    0 -0.47642455781E+01  0.21813821328E+03 -0.91440606424E+03  0.94007735239E+03  0.50400001928E-02 0. -1.
       -1    1    3    3    0  502  0.47642455781E+01 -0.21813821328E+03  0.17827343884E+04  0.17960369923E+04  0.50400001928E-02 0.  1.
</event>
<event>
 5   0  0.2440590E-06  0.2721545E+04  0.7818609E-02  0.8328048E-01
       -1   -1    0    0    0  501  0.00000000000E+00  0.00000000000E+00  0.14125242175E+04  0.14125242175E+04  0.50400001928E-02 0. -1.
        1   -1    0    0  501    0  0.00000000000E+00  0.00000000000E+00 -0.13109167825E+04  0.13109167825E+04  0.50400001928E-02 0.  1.
    10030    2    1    2    0    0  0.00000000000E+00  0.00000000000E+00  0.10160743507E+03  0.27234410000E+04  0.27215449307E+04 0.  0.
        1    1    3    3  502    0  0.95276206057E+03  0.96954162322E+03  0.11357858762E+03  0.13640625348E+04  0.50400001928E-02 0. -1.
       -1    1    3    3    0  502 -0.95276206057E+03 -0.96954162322E+03 -0.11971152555E+02  0.13593784652E+04  0.50400001928E-02 0.  1.
</event>
<event>
 5   0  0.6173140E-06  0.2603448E+04  0.7818609E-02  0.8367031E-01
       -2   -1    0    0    0  501  0.00000000000E+00  0.00000000000E+00  0.12282834756E+04  0.12282834756E+04  0.25500000920E-02 0. -1.
        2   -1    0    0  501    0  0.00000000000E+00  0.00000000000E+00 -0.13795551134E+04  0.13795551134E+04  0.25500000920E-02 0.  1.
    10030    2    1    2    0    0  0.00000000000E+00  0.00000000000E+00 -0.15127163783E+03  0.26078385890E+04  0.26034475217E+04 0.  0.
        3    1    3    3  502    0 -0.33161097161E+03 -0.38983696800E+03 -0.12745446907E+04  0.13734638244E+04  0.10100000352E+00 0.  1.
       -3    1    3    3    0  502  0.33161097161E+03  0.38983696800E+03  0.11232730529E+04  0.12343747646E+04  0.10100000352E+00 0. -1.
</event>
<event>
 5   0  0.5942229E-06  0.2615647E+04  0.7818609E-02  0.8362906E-01
       -2   -1    0    0    0  501  0.00000000000E+00  0.00000000000E+00  0.11381650082E+04  0.11381650082E+04  0.25500000920E-02 0.  1.
        2   -1    0    0  501    0  0.00000000000E+00  0.00000000000E+00 -0.15027719353E+04  0.15027719353E+04  0.25500000920E-02 0. -1.
    10030    2    1    2    0    0  0.00000000000E+00  0.00000000000E+00 -0.36460692701E+03  0.26409369435E+04  0.26156470955E+04 0.  0.
        4    1    3    3  502    0  0.78157712046E+01  0.41745108796E+03  0.10690644015E+04  0.11477050164E+04  0.12699999809E+01 0.  1.
       -4    1    3    3    0  502 -0.78157712046E+01 -0.41745108796E+03 -0.14336713285E+04  0.14932319271E+04  0.12699999809E+01 0. -1.
</event>
<event>
 5   0  0.6158063E-06  0.2599046E+04  0.7818609E-02  0.8368525E-01
       -2   -1    0    0    0  501  0.00000000000E+00  0.00000000000E+00  0.93099327469E+03  0.93099327469E+03  0.25500000920E-02 0. -1.
        2   -1    0    0  501    0  0.00000000000E+00  0.00000000000E+00 -0.18139338545E+04  0.18139338545E+04  0.25500000920E-02 0.  1.
    10030    2    1    2    0    0  0.00000000000E+00  0.00000000000E+00 -0.88294057985E+03  0.27449271292E+04  0.25990461476E+04 0.  0.
        2    1    3    3  502    0  0.12487255597E+04  0.19009208110E+03 -0.76408206703E+03  0.14762357291E+04  0.25500000920E-02 0.  1.
       -2    1    3    3    0  502 -0.12487255597E+04 -0.19009208110E+03 -0.11885851282E+03  0.12686914001E+04  0.25500000920E-02 0. -1.
</event>
<event>
 5   0  0.6158063E-06  0.2593915E+04  0.7818609E-02  0.8370271E-01
       -2   -1    0    0    0  501  0.00000000000E+00  0.00000000000E+00  0.15184491383E+04  0.15184491383E+04  0.25500000920E-02 0.  1.
        2   -1    0    0  501    0  0.00000000000E+00  0.00000000000E+00 -0.11077739060E+04  0.11077739060E+04  0.25500000920E-02 0. -1.
    10030    2    1    2    0    0  0.00000000000E+00  0.00000000000E+00  0.41067523229E+03  0.26262230442E+04  0.25939146732E+04 0.  0.
        2    1    3    3  502    0  0.81854994431E+03 -0.67187678270E+02  0.12216130098E+04  0.14720314335E+04  0.25500000920E-02 0.  1.
       -2    1    3    3    0  502 -0.81854994431E+03  0.67187678270E+02 -0.81093777749E+03  0.11541916108E+04  0.25500000920E-02 0. -1.
</event>
<event>
 5   0  0.5940748E-06  0.2615472E+04  0.7818609E-02  0.8362965E-01
       -2   -1    0    0    0  501  0.00000000000E+00  0.00000000000E+00  0.16509707462E+04  0.16509707462E+04  0.25500000920E-02 0. -1.
        2   -1    0    0  501    0  0.00000000000E+00  0.00000000000E+00 -0.10358589661E+04  0.10358589661E+04  0.25500000920E-02 0.  1.
    10030    2    1    2    0    0  0.00000000000E+00  0.00000000000E+00  0.61511178005E+03  0.26868297123E+04  0.26154715447E+04 0.  0.
        1    1    3    3  502    0  0.12176489697E+04 -0.36822896266E+03 -0.38842039154E+01  0.12721150378E+04  0.50400001928E-02 0.  1.
       -1    1    3    3    0  502 -0.12176489697E+04  0.36822896266E+03  0.61899598397E+03  0.14147146746E+04  0.50400001928E-02 0. -1.
</event>
<event>
 5   0  0.2456600E-06  0.2600256E+04  0.7818609E-02  0.8368114E-01
        1   -1    0    0  501    0  0.00000000000E+00  0.00000000000E+00  0.93727393471E+03  0.93727393472E+03  0.50400001928E-02 0. -1.
       -1   -1    0    0    0  501  0.00000000000E+00  0.00000000000E+00 -0.18034562945E+04  0.18034562945E+04  0.50400001928E-02 0.  1.
    10030    2    1    2    0    0  0.00000000000E+00  0.00000000000E+00 -0.86618235983E+03  0.27407302293E+04  0.26002558161E+04 0.  0.
        5    1    3    3  502    0  0.11986910057E+04  0.44516899579E+03 -0.68089859379E+03  0.14486823486E+04  0.46999998093E+01 0. -1.
       -5    1    3    3    0  502 -0.11986910057E+04 -0.44516899579E+03 -0.18528376604E+03  0.12920478807E+04  0.46999998093E+01 0.  1.
</event>
<event>
 5   0  0.2440590E-06  0.2602222E+04  0.7818609E-02  0.8367447E-01
       -1   -1    0    0    0  501  0.00000000000E+00  0.00000000000E+00  0.10828499018E+04  0.10828499018E+04  0.50400001928E-02 0. -1.
        1   -1    0    0  501    0  0.00000000000E+00  0.00000000000E+00 -0.15633655560E+04  0.15633655560E+04  0.50400001928E-02 0.  1.
    10030    2    1    2    0    0  0.00000000000E+00  0.00000000000E+00 -0.48051565416E+03  0.26462154578E+04  0.26022223109E+04 0.  0.
        1    1    3    3  502    0 -0.34482138958E+03 -0.12535229111E+04 -0.18772442523E+03  0.13135683991E+04  0.50400001928E-02 0. -1.
       -1    1    3    3    0  502  0.34482138958E+03  0.12535229111E+04 -0.29279122893E+03  0.13326470587E+04  0.50400001928E-02 0.  1.
</event>
<event>
 5   0  0.5940748E-06  0.2607216E+04  0.7818609E-02  0.8365754E-01
       -2   -1    0    0    0  501  0.00000000000E+00  0.00000000000E+00  0.71156564615E+03  0.71156564615E+03  0.25500000920E-02 0.  1.
        2   -1    0    0  501    0  0.00000000000E+00  0.00000000000E+00 -0.23882460136E+04  0.23882460136E+04  0.25500000920E-02 0. -1.
    10030    2    1    2    0    0  0.00000000000E+00  0.00000000000E+00 -0.16766803674E+04  0.30998116597E+04  0.26072160001E+04 0.  0.
        1    1    3    3  502    0  0.40133469249E+03 -0.74634958368E+03 -0.20160986230E+04  0.21869524215E+04  0.50400001928E-02 0. -1.
       -1    1    3    3    0  502 -0.40133469249E+03  0.74634958368E+03  0.33941825558E+03  0.91285923817E+03  0.50400001928E-02 0.  1.
</event>
<event>
 5   0  0.2503292E-06  0.2617587E+04  0.7818609E-02  0.8362252E-01
       -1   -1    0    0    0  501  0.00000000000E+00  0.00000000000E+00  0.78380735453E+03  0.78380735454E+03  0.50400001928E-02 0. -1.
        1   -1    0    0  501    0  0.00000000000E+00  0.00000000000E+00 -0.21854092773E+04  0.21854092773E+04  0.50400001928E-02 0.  1.
    10030    2    1    2    0    0  0.00000000000E+00  0.00000000000E+00 -0.14016019228E+04  0.29692166319E+04  0.26175865711E+04 0.  0.
        2    1    3    3  502    0 -0.95078564433E+02  0.12962422671E+04 -0.87526692528E+03  0.15669639877E+04  0.25500000920E-02 0.  1.
       -2    1    3    3    0  502  0.95078564433E+02 -0.12962422671E+04 -0.52633499752E+03  0.14022526441E+04  0.25500000920E-02 0. -1.
</event>
<event>
 5   0  0.2333979E-06  0.2604351E+04  0.7818609E-02  0.8366725E-01
       -1   -1    0    0    0  501  0.00000000000E+00  0.00000000000E+00  0.10169472808E+04  0.10169472808E+04  0.50400001928E-02 0. -1.
        1   -1    0    0  501    0  0.00000000000E+00  0.00000000000E+00 -0.16674025178E+04  0.16674025178E+04  0.50400001928E-02 0.  1.
    10030    2    1    2    0    0  0.00000000000E+00  0.00000000000E+00 -0.65045523695E+03  0.26843497986E+04  0.26043505574E+04 0.  0.
        3    1    3    3  502    0 -0.77913726892E+03 -0.96830736737E+03  0.75277977331E+02  0.12451268311E+04  0.10100000352E+00 0. -1.
       -3    1    3    3    0  502  0.77913726892E+03  0.96830736737E+03 -0.72573321428E+03  0.14392229674E+04  0.10100000352E+00 0.  1.
</event>
<event>
 5   0  0.2471488E-06  0.2627873E+04  0.7818609E-02  0.8358795E-01
       -1   -1    0    0    0  501  0.00000000000E+00  0.00000000000E+00  0.10721429418E+04  0.10721429418E+04  0.50400001928E-02 0. -1.
        1   -1    0    0  501    0  0.00000000000E+00  0.00000000000E+00 -0.16102598738E+04  0.16102598738E+04  0.50400001928E-02 0.  1.
    10030    2    1    2    0    0  0.00000000000E+00  0.00000000000E+00 -0.53811693202E+03  0.26824028156E+04  0.26278727200E+04 0.  0.
        4    1    3    3  502    0 -0.10168869627E+04 -0.58599659525E+02  0.57818556924E+03  0.11712357493E+04  0.12699999809E+01 0. -1.
       -4    1    3    3    0  502  0.10168869627E+04  0.58599659525E+02 -0.11163025013E+04  0.15111670663E+04  0.12699999809E+01 0.  1.
</event>
<event>
 5   0  0.5940748E-06  0.2599738E+04  0.7818609E-02  0.8368290E-01
       -2   -1    0    0    0  501  0.00000000000E+00  0.00000000000E+00  0.12705080215E+04  0.12705080215E+04  0.25500000920E-02 0.  1.
        2   -1    0    0  501    0  0.00000000000E+00  0.00000000000E+00 -0.13299080652E+04  0.13299080652E+04  0.25500000920E-02 0. -1.
    10030    2    1    2    0    0  0.00000000000E+00  0.00000000000E+00 -0.59400043641E+02  0.26004160867E+04  0.25997375750E+04 0.  0.
        1    1    3    3  502    0  0.82004539855E+03  0.89876009655E+03 -0.48743796361E+03  0.13106639292E+04  0.50400001928E-02 0. -1.
       -1    1    3    3    0  502 -0.82004539855E+03 -0.89876009655E+03  0.42803791997E+03  0.12897521575E+04  0.50400001928E-02 0.  1.
</event>
<event>
 5   0  0.2503292E-06  0.2578916E+04  0.7818609E-02  0.8375398E-01
        1   -1    0    0  501    0  0.00000000000E+00  0.00000000000E+00  0.12488429578E+04  0.12488429578E+04  0.50400001928E-02 0. -1.
       -1   -1    0    0    0  501  0.00000000000E+00  0.00000000000E+00 -0.13313938171E+04  0.13313938171E+04  0.50400001928E-02 0.  1.
    10030    2    1    2    0    0  0.00000000000E+00  0.00000000000E+00 -0.82550859302E+02  0.25802367750E+04  0.25789158905E+04 0.  0.
        2    1    3    3  502    0  0.80472547928E+03 -0.27653920086E+03 -0.10106084651E+04  0.13211307643E+04  0.25500000920E-02 0.  1.
       -2    1    3    3    0  502 -0.80472547928E+03  0.27653920086E+03  0.92805760575E+03  0.12591060107E+04  0.25500000920E-02 0. -1.
</event>
<event>
 5   0  0.2333979E-06  0.2595192E+04  0.7818609E-02  0.8369836E-01
        1   -1    0    0  501    0  0.00000000000E+00  0.00000000000E+00  0.17357225004E+04  0.17357225005E+04  0.50400001928E-02 0. -1.
       -1   -1    0    0    0  501  0.00000000000E+00  0.00000000000E+00 -0.97006042115E+03  0.97006042116E+03  0.50400001928E-02 0.  1.
    10030    2    1    2    0    0  0.00000000000E+00  0.00000000000E+00  0.76566207930E+03  0.27057829216E+04  0.25951922471E+04 0.  0.
        3    1    3    3  502    0 -0.25452155317E+03  0.58010061293E+03 -0.79788360228E+03  0.10187817210E+04  0.10100000352E+00 0.  1.
       -3    1    3    3    0  502  0.25452155317E+03 -0.58010061293E+03  0.15635456816E+04  0.16870012006E+04  0.10100000352E+00 0. -1.
</event>
<event>
 5   0  0.2456600E-06  0.2589863E+04  0.7818609E-02  0.8371653E-01
        1   -1    0    0  501    0  0.00000000000E+00  0.00000000000E+00  0.16499371228E+04  0.16499371228E+04  0.50400001928E-02 0. -1.
       -1   -1    0    0    0  501  0.00000000000E+00  0.00000000000E+00 -0.10163102074E+04  0.10163102074E+04  0.50400001928E-02 0.  1.
    10030    2    1    2    0    0  0.00000000000E+00  0.00000000000E+00  0.63362691533E+03  0.26662473302E+04  0.25898632701E+04 0.  0.
        5    1    3    3  502    0 -0.11447329516E+03 -0.30330436384E+03  0.16074748426E+04  0.16398460696E+04  0.46999998093E+01 0. -1.
       -5    1    3    3    0  502  0.11447329516E+03  0.30330436384E+03 -0.97384792723E+03  0.10264012606E+04  0.46999998093E+01 0.  1.
</event>
<event>
 5   0  0.5940748E-06  0.2584224E+04  0.7818609E-02  0.8373580E-01
        2   -1    0    0  501    0  0.00000000000E+00  0.00000000000E+00  0.17464889650E+04  0.17464889650E+04  0.25500000920E-02 0. -1.
       -2   -1    0    0    0  501  0.00000000000E+00  0.00000000000E+00 -0.95594835303E+03  0.95594835303E+03  0.25500000920E-02 0.  1.
    10030    2    1    2    0    0  0.00000000000E+00  0.00000000000E+00  0.79054061197E+03  0.27024373180E+04  0.25842238678E+04 0.  0.
        1    1    3    3  502    0  0.86386576792E+03 -0.88669895965E+03  0.81271599158E+01  0.12379681582E+04  0.50400001928E-02 0. -1.
       -1    1    3    3    0  502 -0.86386576792E+03  0.88669895965E+03  0.78241345206E+03  0.14644691598E+04  0.50400001928E-02 0.  1.
</event>
<event>
 5   0  0.2456600E-06  0.2594267E+04  0.7818609E-02  0.8370151E-01
        1   -1    0    0  501    0  0.00000000000E+00  0.00000000000E+00  0.19039761281E+04  0.19039761281E+04  0.50400001928E-02 0.  1.
       -1   -1    0    0    0  501  0.00000000000E+00  0.00000000000E+00 -0.88370621531E+03  0.88370621533E+03  0.50400001928E-02 0. -1.
    10030    2    1    2    0    0  0.00000000000E+00  0.00000000000E+00  0.10202699128E+04  0.27876823434E+04  0.25942671707E+04 0.  0.
        5    1    3    3  502    0 -0.57120441143E+03  0.10623701284E+04  0.10228098777E+04  0.15814761791E+04  0.46999998093E+01 0.  1.
       -5    1    3    3    0  502  0.57120441143E+03 -0.10623701284E+04 -0.25399649200E+01  0.12062061643E+04  0.46999998093E+01 0. -1.
</event>
<event>
 5   0  0.6158063E-06  0.2601855E+04  0.7818609E-02  0.8367571E-01
        2   -1    0    0  501    0  0.00000000000E+00  0.00000000000E+00  0.94879317939E+03  0.94879317939E+03  0.25500000920E-02 0. -1.
       -2   -1    0    0    0  501  0.00000000000E+00  0.00000000000E+00 -0.17837525867E+04  0.17837525867E+04  0.25500000920E-02 0.  1.
    10030    2    1    2    0    0  0.00000000000E+00  0.00000000000E+00 -0.83495940730E+03  0.27325457661E+04  0.26018549444E+04 0.  0.
        2    1    3    3  502    0  0.10183782645E+04  0.37131337746E+03 -0.11729479215E+04  0.15971145045E+04  0.25500000920E-02 0.  1.
       -2    1    3    3    0  502 -0.10183782645E+04 -0.37131337746E+03  0.33798851421E+03  0.11354312616E+04  0.25500000920E-02 0. -1.
</event>
<event>
 5   0  0.2503292E-06  0.2704902E+04  0.7818609E-02  0.8333416E-01
       -1   -1    0    0    0  501  0.00000000000E+00  0.00000000000E+00  0.95040487690E+03  0.95040487692E+03  0.50400001928E-02 0. -1.
        1   -1    0    0  501    0  0.00000000000E+00  0.00000000000E+00 -0.19245728656E+04  0.19245728656E+04  0.50400001928E-02 0.  1.
    10030    2    1    2    0    0  0.00000000000E+00  0.00000000000E+00 -0.97416798871E+03  0.28749777425E+04  0.27049018004E+04 0.  0.
        2    1    3    3  502    0 -0.45871222891E+01  0.28153404449E+03 -0.18930741346E+04  0.19138997202E+04  0.25500000920E-02 0.  1.
       -2    1    3    3    0  502  0.45871222891E+01 -0.28153404449E+03  0.91890614593E+03  0.96107802229E+03  0.25500000920E-02 0. -1.
</event>
<event>
 5   0  0.6161834E-06  0.2599950E+04  0.7818609E-02  0.8368218E-01
       -2   -1    0    0    0  501  0.00000000000E+00  0.00000000000E+00  0.84500164441E+03  0.84500164441E+03  0.25500000920E-02 0.  1.
        2   -1    0    0  501    0  0.00000000000E+00  0.00000000000E+00 -0.19999193524E+04  0.19999193524E+04  0.25500000920E-02 0. -1.
    10030    2    1    2    0    0  0.00000000000E+00  0.00000000000E+00 -0.11549177080E+04  0.28449209968E+04  0.25999501084E+04 0.  0.
        5    1    3    3  502    0  0.19478638446E+03  0.95684381159E+03  0.36154710487E+03  0.10412637583E+04  0.46999998093E+01 0.  1.
       -5    1    3    3    0  502 -0.19478638446E+03 -0.95684381159E+03 -0.15164648129E+04  0.18036572385E+04  0.46999998093E+01 0. -1.
</event>
<event>
 5   0  0.5942229E-06  0.2581092E+04  0.7818609E-02  0.8374652E-01
        2   -1    0    0  501    0  0.00000000000E+00  0.00000000000E+00  0.21780315317E+04  0.21780315317E+04  0.25500000920E-02 0. -1.
       -2   -1    0    0    0  501  0.00000000000E+00  0.00000000000E+00 -0.76468521050E+03  0.76468521051E+03  0.25500000920E-02 0.  1.
    10030    2    1    2    0    0  0.00000000000E+00  0.00000000000E+00  0.14133463212E+04  0.29427167422E+04  0.25810916297E+04 0.  0.
        4    1    3    3  502    0 -0.89931305386E+01 -0.12709456708E+04  0.96192216408E+03  0.15939509519E+04  0.12699999809E+01 0. -1.
       -4    1    3    3    0  502  0.89931305386E+01  0.12709456708E+04  0.45142415708E+03  0.13487657903E+04  0.12699999809E+01 0.  1.
</event>
<event>
 5   0  0.5942229E-06  0.2596627E+04  0.7818609E-02  0.8369348E-01
        2   -1    0    0  501    0  0.00000000000E+00  0.00000000000E+00  0.11887544721E+04  0.11887544721E+04  0.25500000920E-02 0. -1.
       -2   -1    0    0    0  501  0.00000000000E+00  0.00000000000E+00 -0.14179693901E+04  0.14179693901E+04  0.25500000920E-02 0.  1.
    10030    2    1    2    0    0  0.00000000000E+00  0.00000000000E+00 -0.22921491793E+03  0.26067238622E+04  0.25966266222E+04 0.  0.
        4    1    3    3  502    0 -0.10356878524E+04  0.23837829426E+03  0.63404195198E+03  0.12375315546E+04  0.12699999809E+01 0. -1.
       -4    1    3    3    0  502  0.10356878524E+04 -0.23837829426E+03 -0.86325686992E+03  0.13691923076E+04  0.12699999809E+01 0.  1.
</event>
<event>
 5   0  0.2456600E-06  0.2602140E+04  0.7818609E-02  0.8367475E-01
        1   -1    0    0  501    0  0.00000000000E+00  0.00000000000E+00  0.84081194572E+03  0.84081194574E+03  0.50400001928E-02 0. -1.
       -1   -1    0    0    0  501  0.00000000000E+00  0.00000000000E+00 -0.20132715893E+04  0.20132715893E+04  0.50400001928E-02 0.  1.
    10030    2    1    2    0    0  0.00000000000E+00  0.00000000000E+00 -0.11724596436E+04  0.28540835351E+04  0.26021397367E+04 0.  0.
        5    1    3    3  502    0 -0.27154309852E+03 -0.53674752498E+03  0.67912757462E+03  0.90723200590E+03  0.46999998093E+01 0. -1.
       -5    1    3    3    0  502  0.27154309852E+03  0.53674752498E+03 -0.18515872182E+04  0.19468515292E+04  0.46999998093E+01 0.  1.
</event>
<event>
 5   0  0.2456600E-06  0.2591018E+04  0.7818609E-02  0.8371258E-01
        1   -1    0    0  501    0  0.00000000000E+00  0.00000000000E+00  0.16061561295E+04  0.16061561296E+04  0.50400001928E-02 0. -1.
       -1   -1    0    0    0  501  0.00000000000E+00  0.00000000000E+00 -0.10449445615E+04  0.10449445615E+04  0.50400001928E-02 0.  1.
    10030    2    1    2    0    0  0.00000000000E+00  0.00000000000E+00  0.56121156802E+03  0.26511006911E+04  0.25910184195E+04 0.  0.
        5    1    3    3  502    0 -0.39893496638E+03 -0.12197791431E+04  0.99551233794E+02  0.12872229035E+04  0.46999998093E+01 0. -1.
       -5    1    3    3    0  502  0.39893496638E+03  0.12197791431E+04  0.46166033422E+03  0.13638777876E+04  0.46999998093E+01 0.  1.
</event>
<event>
 5   0  0.2456600E-06  0.2601335E+04  0.7818609E-02  0.8367748E-01
        1   -1    0    0  501    0  0.00000000000E+00  0.00000000000E+00  0.58455753205E+03  0.58455753207E+03  0.50400001928E-02 0. -1.
       -1   -1    0    0    0  501  0.00000000000E+00  0.00000000000E+00 -0.28940449990E+04  0.28940449990E+04  0.50400001928E-02 0.  1.
    10030    2    1    2    0    0  0.00000000000E+00  0.00000000000E+00 -0.23094874669E+04  0.34786025310E+04  0.26013348898E+04 0.  0.
        5    1    3    3  502    0 -0.12831645263E+04 -0.21141989812E+03 -0.11247187350E+04  0.17193672957E+04  0.46999998093E+01 0.  1.
       -5    1    3    3    0  502  0.12831645263E+04  0.21141989812E+03 -0.11847687320E+04  0.17592352353E+04  0.46999998093E+01 0. -1.
</event>
<event>
 5   0  0.5942229E-06  0.2587288E+04  0.7818609E-02  0.8372532E-01
       -2   -1    0    0    0  501  0.00000000000E+00  0.00000000000E+00  0.10165585160E+04  0.10165585160E+04  0.25500000920E-02 0. -1.
        2   -1    0    0  501    0  0.00000000000E+00  0.00000000000E+00 -0.16462548486E+04  0.16462548486E+04  0.25500000920E-02 0.  1.
    10030    2    1    2    0    0  0.00000000000E+00  0.00000000000E+00 -0.62969633255E+03  0.26628133646E+04  0.25872876808E+04 0.  0.
        4    1    3    3  502    0 -0.11048106715E+03 -0.29030591745E+03 -0.16073044790E+04  0.16370439496E+04  0.12699999809E+01 0.  1.
       -4    1    3    3    0  502  0.11048106715E+03  0.29030591745E+03  0.97760814641E+03  0.10257694150E+04  0.12699999809E+01 0. -1.
</event>
<event>
 5   0  0.6161834E-06  0.2704296E+04  0.7818609E-02  0.8333613E-01
       -2   -1    0    0    0  501  0.00000000000E+00  0.00000000000E+00  0.72701266675E+03  0.72701266676E+03  0.25500000920E-02 0.  1.
        2   -1    0    0  501    0  0.00000000000E+00  0.00000000000E+00 -0.25148168680E+04  0.25148168680E+04  0.25500000920E-02 0. -1.
    10030    2    1    2    0    0  0.00000000000E+00  0.00000000000E+00 -0.17878042013E+04  0.32418295348E+04  0.27042956330E+04 0.  0.
        5    1    3    3  502    0 -0.93332650673E+03 -0.74998888108E+03 -0.14077281308E+03  0.12055790164E+04  0.46999998093E+01 0.  1.
       -5    1    3    3    0  502  0.93332650673E+03  0.74998888108E+03 -0.16470313882E+04  0.20362505184E+04  0.46999998093E+01 0. -1.
</event>
<event>
 5   0  0.2333979E-06  0.2597952E+04  0.7818609E-02  0.8368897E-01
        1   -1    0    0  501    0  0.00000000000E+00  0.00000000000E+00  0.97347787899E+03  0.97347787900E+03  0.50400001928E-02 0. -1.
       -1   -1    0    0    0  501  0.00000000000E+00  0.00000000000E+00 -0.17333095258E+04  0.17333095258E+04  0.50400001928E-02 0.  1.
    10030    2    1    2    0    0  0.00000000000E+00  0.00000000000E+00 -0.75983164682E+03  0.27067874048E+04  0.25979518709E+04 0.  0.
        3    1    3    3  502    0  0.84310711153E+03 -0.11368728421E+03 -0.14026619697E+04  0.16404923076E+04  0.10100000352E+00 0.  1.
       -3    1    3    3    0  502 -0.84310711153E+03  0.11368728421E+03  0.64283032284E+03  0.10662950972E+04  0.10100000352E+00 0. -1.
</event>
<event>
 5   0  0.5942229E-06  0.2598618E+04  0.7818609E-02  0.8368671E-01
       -2   -1    0    0    0  501  0.00000000000E+00  0.00000000000E+00  0.10284270184E+04  0.10284270184E+04  0.25500000920E-02 0. -1.
        2   -1    0    0  501    0  0.00000000000E+00  0.00000000000E+00 -0.16415403229E+04  0.16415403229E+04  0.25500000920E-02 0.  1.
    10030    2    1    2    0    0  0.00000000000E+00  0.00000000000E+00 -0.61311330455E+03  0.26699673413E+04  0.25986184175E+04 0.  0.
        4    1    3    3  502    0  0.11431414318E+04 -0.10933979164E+03  0.31797741417E+03  0.11915698770E+04  0.12699999809E+01 0. -1.
       -4    1    3    3    0  502 -0.11431414318E+04  0.10933979164E+03 -0.93109071872E+03  0.14783974643E+04  0.12699999809E+01 0.  1.
</event>
<event>
 5   0  0.5940748E-06  0.2568905E+04  0.7818609E-02  0.8378841E-01
       -2   -1    0    0    0  501  0.00000000000E+00  0.00000000000E+00  0.13449568245E+04  0.13449568245E+04  0.25500000920E-02 0.  1.
        2   -1    0    0  501    0  0.00000000000E+00  0.00000000000E+00 -0.12266697016E+04  0.12266697016E+04  0.25500000920E-02 0. -1.
    10030    2    1    2    0    0  0.00000000000E+00  0.00000000000E+00  0.11828712299E+03  0.25716265261E+04  0.25689046589E+04 0.  0.
        1    1    3    3  502    0 -0.11932826877E+04  0.38142830249E+03 -0.22471757178E+03  0.12727565006E+04  0.50400001928E-02 0.  1.
       -1    1    3    3    0  502  0.11932826877E+04 -0.38142830249E+03  0.34300469477E+03  0.12988700255E+04  0.50400001928E-02 0. -1.
</event>
<event>
 5   0  0.2333979E-06  0.2595269E+04  0.7818609E-02  0.8369810E-01
        1   -1    0    0  501    0  0.00000000000E+00  0.00000000000E+00  0.18697766001E+04  0.18697766001E+04  0.50400001928E-02 0. -1.
       -1   -1    0    0    0  501  0.00000000000E+00  0.00000000000E+00 -0.90056506188E+03  0.90056506190E+03  0.50400001928E-02 0.  1.
    10030    2    1    2    0    0  0.00000000000E+00  0.00000000000E+00  0.96921153821E+03  0.27703416620E+04  0.25952691418E+04 0.  0.
        3    1    3    3  502    0 -0.23955193343E+03  0.21411939894E+03  0.18266446853E+04  0.18546867828E+04  0.10100000352E+00 0. -1.
       -3    1    3    3    0  502  0.23955193343E+03 -0.21411939894E+03 -0.85743314710E+03  0.91565487917E+03  0.10100000352E+00 0.  1.
</event>
<event>
 5   0  0.6173140E-06  0.2612880E+04  0.7818609E-02  0.8363839E-01
       -2   -1    0    0    0  501  0.00000000000E+00  0.00000000000E+00  0.87657612387E+03  0.87657612388E+03  0.25500000920E-02 0.  1.
        2   -1    0    0  501    0  0.00000000000E+00  0.00000000000E+00 -0.19471047226E+04  0.19471047226E+04  0.25500000920E-02 0. -1.
    10030    2    1    2    0    0  0.00000000000E+00  0.00000000000E+00 -0.10705285988E+04  0.28236808465E+04  0.26128800283E+04 0.  0.
        3    1    3    3  502    0 -0.23385330575E+03 -0.97558117305E+02  0.84976664338E+03  0.88674027385E+03  0.10100000352E+00 0.  1.
       -3    1    3    3    0  502  0.23385330575E+03  0.97558117305E+02 -0.19202952422E+04  0.19369405727E+04  0.10100000352E+00 0. -1.
</event>
<event>
 5   0  0.2333979E-06  0.2597232E+04  0.7818609E-02  0.8369142E-01
       -1   -1    0    0    0  501  0.00000000000E+00  0.00000000000E+00  0.16042089781E+04  0.16042089781E+04  0.50400001928E-02 0. -1.
        1   -1    0    0  501    0  0.00000000000E+00  0.00000000000E+00 -0.10512367865E+04  0.10512367865E+04  0.50400001928E-02 0.  1.
    10030    2    1    2    0    0  0.00000000000E+00  0.00000000000E+00  0.55297219161E+03  0.26554457647E+04  0.25972319812E+04 0.  0.
        3    1    3    3  502    0  0.82923838314E+03 -0.98275673119E+03  0.46209402467E+03  0.13663740288E+04  0.10100000352E+00 0.  1.
       -3    1    3    3    0  502 -0.82923838314E+03  0.98275673119E+03  0.90878166943E+02  0.12890717359E+04  0.10100000352E+00 0. -1.
</event>
<event>
 5   0  0.2456600E-06  0.2593826E+04  0.7818609E-02  0.8370301E-01
       -1   -1    0    0    0  501  0.00000000000E+00  0.00000000000E+00  0.78065995372E+03  0.78065995373E+03  0.50400001928E-02 0.  1.
        1   -1    0    0  501    0  0.00000000000E+00  0.00000000000E+00 -0.21545667235E+04  0.21545667235E+04  0.50400001928E-02 0. -1.
    10030    2    1    2    0    0  0.00000000000E+00  0.00000000000E+00 -0.13739067698E+04  0.29352266773E+04  0.25938264851E+04 0.  0.
        5    1    3    3  502    0  0.50918622129E+03 -0.84382406170E+03  0.26700467586E+03  0.10210892429E+04  0.46999998093E+01 0.  1.
       -5    1    3    3    0  502 -0.50918622129E+03  0.84382406170E+03 -0.16409114457E+04  0.19141374343E+04  0.46999998093E+01 0. -1.
</event>
<event>
 5   0  0.2440590E-06  0.2604264E+04  0.7818609E-02  0.8366754E-01
       -1   -1    0    0    0  501  0.00000000000E+00  0.00000000000E+00  0.17274657158E+04  0.17274657158E+04  0.50400001928E-02 0. -1.
        1   -1    0    0  501    0  0.00000000000E+00  0.00000000000E+00 -0.98152349779E+03  0.98152349780E+03  0.50400001928E-02 0.  1.
    10030    2    1    2    0    0  0.00000000000E+00  0.00000000000E+00  0.74594221799E+03  0.27089892136E+04  0.26042643427E+04 0.  0.
        1    1    3    3  502    0 -0.92749609568E+03 -0.26578827471E+03  0.12825810503E+04  0.16049631039E+04  0.50400001928E-02 0. -1.
       -1    1    3    3    0  502  0.92749609568E+03  0.26578827471E+03 -0.53663883226E+03  0.11040261097E+04  0.50400001928E-02 0.  1.
</event>
<event>
 5   0  0.2440590E-06  0.2594570E+04  0.7818609E-02  0.8370048E-01
        1   -1    0    0  501    0  0.00000000000E+00  0.00000000000E+00  0.15408250866E+04  0.15408250866E+04  0.50400001928E-02 0. -1.
       -1   -1    0    0    0  501  0.00000000000E+00  0.00000000000E+00 -0.10922380548E+04  0.10922380548E+04  0.50400001928E-02 0.  1.
    10030    2    1    2    0    0  0.00000000000E+00  0.00000000000E+00  0.44858703181E+03  0.26330631415E+04  0.25945695562E+04 0.  0.
        1    1    3    3  502    0 -0.11604277536E+03  0.10990278756E+04 -0.46521252454E+03  0.11990625047E+04  0.50400001928E-02 0.  1.
       -1    1    3    3    0  502  0.11604277536E+03 -0.10990278756E+04  0.91379955635E+03  0.14340006368E+04  0.50400001928E-02 0. -1.
</event>
<event>
 5   0  0.6173140E-06  0.2613159E+04  0.7818609E-02  0.8363745E-01
        2   -1    0    0  501    0  0.00000000000E+00  0.00000000000E+00  0.11705852007E+04  0.11705852007E+04  0.25500000920E-02 0. -1.
       -2   -1    0    0    0  501  0.00000000000E+00  0.00000000000E+00 -0.14583736310E+04  0.14583736310E+04  0.25500000920E-02 0.  1.
    10030    2    1    2    0    0  0.00000000000E+00  0.00000000000E+00 -0.28778843035E+03  0.26289588317E+04  0.26131594590E+04 0.  0.
        3    1    3    3  502    0  0.79159583218E+02  0.10187723954E+04  0.67526897305E+03  0.12248067723E+04  0.10100000352E+00 0. -1.
       -3    1    3    3    0  502 -0.79159583218E+02 -0.10187723954E+04 -0.96305740341E+03  0.14041520594E+04  0.10100000352E+00 0.  1.
</event>
<event>
 5   0  0.2440590E-06  0.2565654E+04  0.7818609E-02  0.8379962E-01
        1   -1    0    0  501    0  0.00000000000E+00  0.00000000000E+00  0.83384945086E+03  0.83384945088E+03  0.50400001928E-02 0. -1.
       -1   -1    0    0    0  501  0.00000000000E+00  0.00000000000E+00 -0.19735511822E+04  0.19735511822E+04  0.50400001928E-02 0.  1.
    10030    2    1    2    0    0  0.00000000000E+00  0.00000000000E+00 -0.11397017314E+04  0.28074006331E+04  0.25656535772E+04 0.  0.
        1    1    3    3  502    0  0.70127884398E+03 -0.34988557789E+03 -0.16811393439E+04  0.18548426964E+04  0.50400001928E-02 0.  1.
       -1    1    3    3    0  502 -0.70127884398E+03  0.34988557789E+03  0.54143761251E+03  0.95255793677E+03  0.50400001928E-02 0. -1.
</event>
<event>
 5   0  0.2503292E-06  0.2611824E+04  0.7818609E-02  0.8364196E-01
        1   -1    0    0  501    0  0.00000000000E+00  0.00000000000E+00  0.24168187485E+04  0.24168187485E+04  0.50400001928E-02 0. -1.
       -1   -1    0    0    0  501  0.00000000000E+00  0.00000000000E+00 -0.70564063848E+03  0.70564063850E+03  0.50400001928E-02 0.  1.
    10030    2    1    2    0    0  0.00000000000E+00  0.00000000000E+00  0.17111781100E+04  0.31224593870E+04  0.26118235199E+04 0.  0.
        2    1    3    3  502    0 -0.64762283553E+03 -0.81238174879E+03 -0.90319565940E+02  0.10428504528E+04  0.25500000920E-02 0.  1.
       -2    1    3    3    0  502  0.64762283553E+03  0.81238174879E+03  0.18014976760E+04  0.20796089342E+04  0.25500000920E-02 0. -1.
</event>
<event>
 5   0  0.2456600E-06  0.2605979E+04  0.7818609E-02  0.8366173E-01
       -1   -1    0    0    0  501  0.00000000000E+00  0.00000000000E+00  0.21014418509E+04  0.21014418509E+04  0.50400001928E-02 0. -1.
        1   -1    0    0  501    0  0.00000000000E+00  0.00000000000E+00 -0.80791290699E+03  0.80791290700E+03  0.50400001928E-02 0.  1.
    10030    2    1    2    0    0  0.00000000000E+00  0.00000000000E+00  0.12935289439E+04  0.29093547579E+04  0.26059792744E+04 0.  0.
        5    1    3    3  502    0 -0.11060999662E+04  0.14489936096E+03 -0.10489634178E+03  0.11204812772E+04  0.46999998093E+01 0.  1.
       -5    1    3    3    0  502  0.11060999662E+04 -0.14489936096E+03  0.13984252856E+04  0.17888734806E+04  0.46999998093E+01 0. -1.
</event>
<event>
 5   0  0.5942229E-06  0.2601266E+04  0.7818609E-02  0.8367771E-01
       -2   -1    0    0    0  501  0.00000000000E+00  0.00000000000E+00  0.22715121278E+04  0.22715121278E+04  0.25500000920E-02 0. -1.
        2   -1    0    0  501    0  0.00000000000E+00  0.00000000000E+00 -0.74472244869E+03  0.74472244870E+03  0.25500000920E-02 0.  1.
    10030    2    1    2    0    0  0.00000000000E+00  0.00000000000E+00  0.15267896792E+04  0.30162345765E+04  0.26012659027E+04 0.  0.
        4    1    3    3  502    0  0.56446541476E+03  0.37899269194E+03 -0.52226126044E+03  0.85733021763E+03  0.12699999809E+01 0.  1.
       -4    1    3    3    0  502 -0.56446541476E+03 -0.37899269194E+03  0.20490509396E+04  0.21589043589E+04  0.12699999809E+01 0. -1.
</event>
<event>
 5   0  0.6173140E-06  0.2597638E+04  0.7818609E-02  0.8369004E-01
        2   -1    0    0  501    0  0.00000000000E+00  0.00000000000E+00  0.13749839926E+04  0.13749839926E+04  0.25500000920E-02 0.  1.
       -2   -1    0    0    0  501  0.00000000000E+00  0.00000000000E+00 -0.12268726474E+04  0.12268726474E+04  0.25500000920E-02 0. -1.
    10030    2    1    2    0    0  0.00000000000E+00  0.00000000000E+00  0.14811134524E+03  0.26018566400E+04  0.25976375814E+04 0.  0.
        3    1    3    3  502    0 -0.84657078726E+03 -0.63143508605E+03  0.83128480292E+03  0.13440337792E+04  0.10100000352E+00 0.  1.
       -3    1    3    3    0  502  0.84657078726E+03  0.63143508605E+03 -0.68317345768E+03  0.12578228608E+04  0.10100000352E+00 0. -1.
</event>
<event>
 5   0  0.2471488E-06  0.2599514E+04  0.7818609E-02  0.8368366E-01
        1   -1    0    0  501    0  0.00000000000E+00  0.00000000000E+00  0.95363672862E+03  0.95363672863E+03  0.50400001928E-02 0.  1.
       -1   -1    0    0    0  501  0.00000000000E+00  0.00000000000E+00 -0.17715002649E+04  0.17715002649E+04  0.50400001928E-02 0. -1.
    10030    2    1    2    0    0  0.00000000000E+00  0.00000000000E+00 -0.81786353625E+03  0.27251369935E+04  0.25995135832E+04 0.  0.
        4    1    3    3  502    0  0.11759683228E+04  0.39998674481E+03 -0.81014783506E+03  0.14829807887E+04  0.12699999809E+01 0. -1.
       -4    1    3    3    0  502 -0.11759683228E+04 -0.39998674481E+03 -0.77157011954E+01  0.12421562048E+04  0.12699999809E+01 0.  1.
</event>
<event>
 5   0  0.2503292E-06  0.2591015E+04  0.7818609E-02  0.8371259E-01
       -1   -1    0    0    0  501  0.00000000000E+00  0.00000000000E+00  0.14061554799E+04  0.14061554799E+04  0.50400001928E-02 0.  1.
        1   -1    0    0  501    0  0.00000000000E+00  0.00000000000E+00 -0.11935665403E+04  0.11935665403E+04  0.50400001928E-02 0. -1.
    10030    2    1    2    0    0  0.00000000000E+00  0.00000000000E+00  0.21258893962E+03  0.25997220202E+04  0.25910153463E+04 0.  0.
        2    1    3    3  502    0  0.39464585214E+03  0.26323621822E+03 -0.11032860524E+04  0.12009491116E+04  0.25500000920E-02 0. -1.
       -2    1    3    3    0  502 -0.39464585214E+03 -0.26323621822E+03  0.13158749920E+04  0.13987729086E+04  0.25500000920E-02 0.  1.
</event>
<event>
 5   0  0.2471488E-06  0.2588774E+04  0.7818609E-02  0.8372025E-01
        1   -1    0    0  501    0  0.00000000000E+00  0.00000000000E+00  0.17934245939E+04  0.17934245939E+04  0.50400001928E-02 0. -1.
       -1   -1    0    0    0  501  0.00000000000E+00  0.00000000000E+00 -0.93421114372E+03  0.93421114373E+03  0.50400001928E-02 0.  1.
    10030    2    1    2    0    0  0.00000000000E+00  0.00000000000E+00  0.85921345021E+03  0.27276357377E+04  0.25887736410E+04 0.  0.
        4    1    3    3  502    0  0.64440106222E+03  0.81653550936E+03 -0.38207419043E+03  0.11081359424E+04  0.12699999809E+01 0.  1.
       -4    1    3    3    0  502 -0.64440106222E+03 -0.81653550936E+03  0.12412876406E+04  0.16194997952E+04  0.12699999809E+01 0. -1.
</event>
<event>
 5   0  0.2440590E-06  0.2604372E+04  0.7818609E-02  0.8366718E-01
        1   -1    0    0  501    0  0.00000000000E+00  0.00000000000E+00  0.93283122842E+03  0.93283122843E+03  0.50400001928E-02 0.  1.
       -1   -1    0    0    0  501  0.00000000000E+00  0.00000000000E+00 -0.18177868207E+04  0.18177868207E+04  0.50400001928E-02 0. -1.
    10030    2    1    2    0    0  0.00000000000E+00  0.00000000000E+00 -0.88495559230E+03  0.27506180492E+04  0.26043719496E+04 0.  0.
        1    1    3    3  502    0 -0.11061425162E+04 -0.66643103830E+03 -0.26572821697E+03  0.13184434308E+04  0.50400001928E-02 0.  1.
       -1    1    3    3    0  502  0.11061425162E+04  0.66643103830E+03 -0.61922737534E+03  0.14321746183E+04  0.50400001928E-02 0. -1.
</event>
<event>
 5   0  0.2072125E-06  0.2603247E+04  0.7818609E-02  0.8367099E-01
        3   -1    0    0  501    0  0.00000000000E+00  0.00000000000E+00  0.79570072241E+03  0.79570072882E+03  0.10100000352E+00 0. -1.
       -3   -1    0    0    0  501  0.00000000000E+00  0.00000000000E+00 -0.21292216484E+04  0.21292216508E+04  0.10100000352E+00 0.  1.
    10030    2    1    2    0    0  0.00000000000E+00  0.00000000000E+00 -0.13335209260E+04  0.29249223796E+04  0.26032466012E+04 0.  0.
        1    1    3    3  502    0 -0.61806193999E+03 -0.11402380334E+04 -0.79025006302E+03  0.15187621593E+04  0.50400001928E-02 0.  1.
       -1    1    3    3    0  502  0.61806193999E+03  0.11402380334E+04 -0.54327086298E+03  0.14061602203E+04  0.50400001928E-02 0. -1.
</event>
<event>
 5   0  0.2440590E-06  0.2602555E+04  0.7818609E-02  0.8367334E-01
       -1   -1    0    0    0  501  0.00000000000E+00  0.00000000000E+00  0.11246905037E+04  0.11246905037E+04  0.50400001928E-02 0.  1.
        1   -1    0    0  501    0  0.00000000000E+00  0.00000000000E+00 -0.15055900822E+04  0.15055900822E+04  0.50400001928E-02 0. -1.
    10030    2    1    2    0    0  0.00000000000E+00  0.00000000000E+00 -0.38089957844E+03  0.26302805859E+04  0.26025547971E+04 0.  0.
        1    1    3    3  502    0  0.27918686815E+03 -0.12335601060E+04 -0.49982696683E+03  0.13599422191E+04  0.50400001928E-02 0. -1.
       -1    1    3    3    0  502 -0.27918686815E+03  0.12335601060E+04  0.11892738839E+03  0.12703383668E+04  0.50400001928E-02 0.  1.
</event>
<event>
 5   0  0.5942229E-06  0.2595964E+04  0.7818609E-02  0.8369573E-01
       -2   -1    0    0    0  501  0.00000000000E+00  0.00000000000E+00  0.35404052556E+04  0.35404052556E+04  0.25500000920E-02 0.  1.
        2   -1    0    0  501    0  0.00000000000E+00  0.00000000000E+00 -0.47586557594E+03  0.47586557595E+03  0.25500000920E-02 0. -1.
    10030    2    1    2    0    0  0.00000000000E+00  0.00000000000E+00  0.30645396797E+04  0.40162708316E+04  0.25959637794E+04 0.  0.
        4    1    3    3  502    0 -0.93870562229E+03  0.66472073930E+03  0.60176484716E+03  0.12981311377E+04  0.12699999809E+01 0. -1.
       -4    1    3    3    0  502  0.93870562229E+03 -0.66472073930E+03  0.24627748325E+04  0.27181396938E+04  0.12699999809E+01 0.  1.
</event>
<event>
 5   0  0.5942229E-06  0.2598453E+04  0.7818609E-02  0.8368727E-01
       -2   -1    0    0    0  501  0.00000000000E+00  0.00000000000E+00  0.83696766780E+03  0.83696766780E+03  0.25500000920E-02 0.  1.
        2   -1    0    0  501    0  0.00000000000E+00  0.00000000000E+00 -0.20167919118E+04  0.20167919118E+04  0.25500000920E-02 0. -1.
    10030    2    1    2    0    0  0.00000000000E+00  0.00000000000E+00 -0.11798242440E+04  0.28537595796E+04  0.25984530958E+04 0.  0.
        4    1    3    3  502    0  0.15453652211E+03 -0.12240535123E+04 -0.14272007389E+03  0.12419980556E+04  0.12699999809E+01 0.  1.
       -4    1    3    3    0  502 -0.15453652211E+03  0.12240535123E+04 -0.10371041701E+04  0.16117615240E+04  0.12699999809E+01 0. -1.
</event>
<event>
 5   0  0.2440590E-06  0.2605897E+04  0.7818609E-02  0.8366201E-01
       -1   -1    0    0    0  501  0.00000000000E+00  0.00000000000E+00  0.19220048089E+04  0.19220048089E+04  0.50400001928E-02 0. -1.
        1   -1    0    0  501    0  0.00000000000E+00  0.00000000000E+00 -0.88328325588E+03  0.88328325589E+03  0.50400001928E-02 0.  1.
    10030    2    1    2    0    0  0.00000000000E+00  0.00000000000E+00  0.10387215530E+04  0.28052880648E+04  0.26058969016E+04 0.  0.
        1    1    3    3  502    0  0.10263148704E+04 -0.54444808465E+02 -0.34278503463E+03  0.10834149853E+04  0.50400001928E-02 0.  1.
       -1    1    3    3    0  502 -0.10263148704E+04  0.54444808465E+02  0.13815065876E+04  0.17218730795E+04  0.50400001928E-02 0. -1.
</event>
<event>
 5   0  0.2471488E-06  0.2591662E+04  0.7818609E-02  0.8371039E-01
        1   -1    0    0  501    0  0.00000000000E+00  0.00000000000E+00  0.15426304284E+04  0.15426304284E+04  0.50400001928E-02 0. -1.
       -1   -1    0    0    0  501  0.00000000000E+00  0.00000000000E+00 -0.10885163636E+04  0.10885163636E+04  0.50400001928E-02 0.  1.
    10030    2    1    2    0    0  0.00000000000E+00  0.00000000000E+00  0.45411406472E+03  0.26311467920E+04  0.25916623733E+04 0.  0.
        4    1    3    3  502    0  0.98418283043E+03 -0.82126407616E+03  0.34198888678E+02  0.12822876835E+04  0.12699999809E+01 0.  1.
       -4    1    3    3    0  502 -0.98418283043E+03  0.82126407616E+03  0.41991517604E+03  0.13488591085E+04  0.12699999809E+01 0. -1.
</event>
<event>
 5   0  0.5942229E-06  0.2600389E+04  0.7818609E-02  0.8368069E-01
       -2   -1    0    0    0  501  0.00000000000E+00  0.00000000000E+00  0.11140099394E+04  0.11140099394E+04  0.25500000920E-02 0. -1.
        2   -1    0    0  501    0  0.00000000000E+00  0.00000000000E+00 -0.15174959427E+04  0.15174959427E+04  0.25500000920E-02 0.  1.
    10030    2    1    2    0    0  0.00000000000E+00  0.00000000000E+00 -0.40348600339E+03  0.26315058821E+04  0.26003888657E+04 0.  0.
        4    1    3    3  502    0 -0.27385002059E+03  0.12693496767E+04 -0.26780444345E+03  0.13258820718E+04  0.12699999809E+01 0. -1.
       -4    1    3    3    0  502  0.27385002059E+03 -0.12693496767E+04 -0.13568155994E+03  0.13056238103E+04  0.12699999809E+01 0.  1.
</event>
<event>
 5   0  0.5942229E-06  0.2495890E+04  0.7818609E-02  0.8404451E-01
        2   -1    0    0  501    0  0.00000000000E+00  0.00000000000E+00  0.14379495547E+04  0.14379495547E+04  0.25500000920E-02 0.  1.
       -2   -1    0    0    0  501  0.00000000000E+00  0.00000000000E+00 -0.10830466160E+04  0.10830466160E+04  0.25500000920E-02 0. -1.
    10030    2    1    2    0    0  0.00000000000E+00  0.00000000000E+00  0.35490293872E+03  0.25209961707E+04  0.24958897405E+04 0.  0.
        4    1    3    3  502    0  0.16618492925E+03  0.55415352775E+03  0.12943143559E+04  0.14177287568E+04  0.12699999809E+01 0.  1.
       -4    1    3    3    0  502 -0.16618492925E+03 -0.55415352775E+03 -0.93941141716E+03  0.11032674139E+04  0.12699999809E+01 0. -1.
</event>
<event>
 5   0  0.6161834E-06  0.2593732E+04  0.7818609E-02  0.8370333E-01
        2   -1    0    0  501    0  0.00000000000E+00  0.00000000000E+00  0.30042474159E+04  0.30042474159E+04  0.25500000920E-02 0. -1.
       -2   -1    0    0    0  501  0.00000000000E+00  0.00000000000E+00 -0.55982790670E+03  0.55982790670E+03  0.25500000920E-02 0.  1.
    10030    2    1    2    0    0  0.00000000000E+00  0.00000000000E+00  0.24444195092E+04  0.35640753226E+04  0.25937320926E+04 0.  0.
        5    1    3    3  502    0 -0.48131086085E+03 -0.65634069986E+03  0.26095828295E+04  0.27335668810E+04  0.46999998093E+01 0. -1.
       -5    1    3    3    0  502  0.48131086085E+03  0.65634069986E+03 -0.16516332034E+03  0.83050844153E+03  0.46999998093E+01 0.  1.
</event>
<event>
 5   0  0.5940748E-06  0.2589289E+04  0.7818609E-02  0.8371849E-01
        2   -1    0    0  501    0  0.00000000000E+00  0.00000000000E+00  0.18214891408E+04  0.18214891408E+04  0.25500000920E-02 0.  1.
       -2   -1    0    0    0  501  0.00000000000E+00  0.00000000000E+00 -0.92018333188E+03  0.92018333189E+03  0.25500000920E-02 0. -1.
    10030    2    1    2    0    0  0.00000000000E+00  0.00000000000E+00  0.90130580894E+03  0.27416724727E+04  0.25892886642E+04 0.  0.
        1    1    3    3  502    0 -0.11479357822E+03 -0.66513480032E+03  0.16204429505E+04  0.17553966002E+04  0.50400001928E-02 0.  1.
       -1    1    3    3    0  502  0.11479357822E+03  0.66513480032E+03 -0.71913714158E+03  0.98627587248E+03  0.50400001928E-02 0. -1.
</event>
<event>
 5   0  0.2456600E-06  0.2599879E+04  0.7818609E-02  0.8368242E-01
       -1   -1    0    0    0  501  0.00000000000E+00  0.00000000000E+00  0.17076148766E+04  0.17076148766E+04  0.50400001928E-02 0. -1.
        1   -1    0    0  501    0  0.00000000000E+00  0.00000000000E+00 -0.98959255933E+03  0.98959255934E+03  0.50400001928E-02 0.  1.
    10030    2    1    2    0    0  0.00000000000E+00  0.00000000000E+00  0.71802231727E+03  0.26972074359E+04  0.25998792096E+04 0.  0.
        5    1    3    3  502    0 -0.49838676369E+03  0.49740900985E+02  0.16034831884E+04  0.16798940291E+04  0.46999998093E+01 0. -1.
       -5    1    3    3    0  502  0.49838676369E+03 -0.49740900985E+02 -0.88546087114E+03  0.10173134069E+04  0.46999998093E+01 0.  1.
</event>
<event>
 5   0  0.6161834E-06  0.2600567E+04  0.7818609E-02  0.8368009E-01
       -2   -1    0    0    0  501  0.00000000000E+00  0.00000000000E+00  0.96085884335E+03  0.96085884335E+03  0.25500000920E-02 0. -1.
        2   -1    0    0  501    0  0.00000000000E+00  0.00000000000E+00 -0.17596107763E+04  0.17596107763E+04  0.25500000920E-02 0.  1.
    10030    2    1    2    0    0  0.00000000000E+00  0.00000000000E+00 -0.79875193292E+03  0.27204696196E+04  0.26005673037E+04 0.  0.
        5    1    3    3  502    0 -0.13529932363E+03 -0.12777662331E+04 -0.60787160573E+03  0.14214508196E+04  0.46999998093E+01 0. -1.
       -5    1    3    3    0  502  0.13529932363E+03  0.12777662331E+04 -0.19088032719E+03  0.12990188000E+04  0.46999998093E+01 0.  1.
</event>
<event>
 5   0  0.2503292E-06  0.2599669E+04  0.7818609E-02  0.8368313E-01
        1   -1    0    0  501    0  0.00000000000E+00  0.00000000000E+00  0.92254050388E+03  0.92254050390E+03  0.50400001928E-02 0. -1.
       -1   -1    0    0    0  501  0.00000000000E+00  0.00000000000E+00 -0.18314321780E+04  0.18314321780E+04  0.50400001928E-02 0.  1.
    10030    2    1    2    0    0  0.00000000000E+00  0.00000000000E+00 -0.90889167414E+03  0.27539726819E+04  0.25996694900E+04 0.  0.
        2    1    3    3  502    0  0.68069913592E+02 -0.10720028691E+04  0.32094603254E+03  0.11210843057E+04  0.25500000920E-02 0. -1.
       -2    1    3    3    0  502 -0.68069913592E+02  0.10720028691E+04 -0.12298377067E+04  0.16328883763E+04  0.25500000920E-02 0.  1.
</event>
<event>
 5   0  0.6161834E-06  0.2603690E+04  0.7818609E-02  0.8366949E-01
       -2   -1    0    0    0  501  0.00000000000E+00  0.00000000000E+00  0.74246520600E+03  0.74246520601E+03  0.25500000920E-02 0. -1.
        2   -1    0    0  501    0  0.00000000000E+00  0.00000000000E+00 -0.22826662966E+04  0.22826662966E+04  0.25500000920E-02 0.  1.
    10030    2    1    2    0    0  0.00000000000E+00  0.00000000000E+00 -0.15402010906E+04  0.30251315026E+04  0.26036899217E+04 0.  0.
        5    1    3    3  502    0  0.19876468287E+03  0.18626638693E+03 -0.22491736848E+04  0.22656140272E+04  0.46999998093E+01 0.  1.
       -5    1    3    3    0  502 -0.19876468287E+03 -0.18626638693E+03  0.70897259420E+03  0.75951747536E+03  0.46999998093E+01 0. -1.
</event>
<event>
 5   0  0.2333979E-06  0.2562401E+04  0.7818609E-02  0.8381086E-01
       -1   -1    0    0    0  501  0.00000000000E+00  0.00000000000E+00  0.12974804002E+04  0.12974804002E+04  0.50400001928E-02 0.  1.
        1   -1    0    0  501    0  0.00000000000E+00  0.00000000000E+00 -0.12651253425E+04  0.12651253425E+04  0.50400001928E-02 0. -1.
    10030    2    1    2    0    0  0.00000000000E+00  0.00000000000E+00  0.32355057667E+02  0.25626057427E+04  0.25624014796E+04 0.  0.
        3    1    3    3  502    0  0.23743380611E+03 -0.15994093444E+03 -0.12327292156E+04  0.12655343709E+04  0.10100000352E+00 0. -1.
       -3    1    3    3    0  502 -0.23743380611E+03  0.15994093444E+03  0.12650842733E+04  0.12970713718E+04  0.10100000352E+00 0.  1.
</event>
<event>
 5   0  0.2471488E-06  0.2606864E+04  0.7818609E-02  0.8365874E-01
       -1   -1    0    0    0  501  0.00000000000E+00  0.00000000000E+00  0.13579887843E+04  0.13579887844E+04  0.50400001928E-02 0. -1.
        1   -1    0    0  501    0  0.00000000000E+00  0.00000000000E+00 -0.12510667001E+04  0.12510667002E+04  0.50400001928E-02 0.  1.
    10030    2    1    2    0    0  0.00000000000E+00  0.00000000000E+00  0.10692208419E+03  0.26090554845E+04  0.26068636691E+04 0.  0.
        4    1    3    3  502    0  0.18212869168E+03  0.49305940662E+03 -0.11402926169E+04  0.12556063491E+04  0.12699999809E+01 0.  1.
       -4    1    3    3    0  502 -0.18212869168E+03 -0.49305940662E+03  0.12472147011E+04  0.13534491355E+04  0.12699999809E+01 0. -1.
</event>
<event>
 5   0  0.2333979E-06  0.2590175E+04  0.7818609E-02  0.8371546E-01
       -1   -1    0    0    0  501  0.00000000000E+00  0.00000000000E+00  0.16503200751E+04  0.16503200752E+04  0.50400001928E-02 0. -1.
        1   -1    0    0  501    0  0.00000000000E+00  0.00000000000E+00 -0.10163191083E+04  0.10163191084E+04  0.50400001928E-02 0.  1.
    10030    2    1    2    0    0  0.00000000000E+00  0.00000000000E+00  0.63400096679E+03  0.26666391835E+04  0.25901751503E+04 0.  0.
        3    1    3    3  502    0 -0.87811940355E+03  0.90762614881E+03  0.21521012382E+02  0.12630685164E+04  0.10100000352E+00 0.  1.
       -3    1    3    3    0  502  0.87811940355E+03 -0.90762614881E+03  0.61247995441E+03  0.14035706671E+04  0.10100000352E+00 0. -1.
</event>
<event>
 5   0  0.2333979E-06  0.2599535E+04  0.7818609E-02  0.8368359E-01
        1   -1    0    0  501    0  0.00000000000E+00  0.00000000000E+00  0.89959878630E+03  0.89959878632E+03  0.50400001928E-02 0.  1.
       -1   -1    0    0    0  501  0.00000000000E+00  0.00000000000E+00 -0.18779438901E+04  0.18779438901E+04  0.50400001928E-02 0. -1.
    10030    2    1    2    0    0  0.00000000000E+00  0.00000000000E+00 -0.97834510384E+03  0.27775426765E+04  0.25995353772E+04 0.  0.
        3    1    3    3  502    0  0.95651409302E+02 -0.10228213775E+04 -0.13399934651E+04  0.16884594336E+04  0.10100000352E+00 0. -1.
       -3    1    3    3    0  502 -0.95651409302E+02  0.10228213775E+04  0.36164836123E+03  0.10890832428E+04  0.10100000352E+00 0.  1.
</event>
<event>
 5   0  0.6158063E-06  0.2609773E+04  0.7818609E-02  0.8364889E-01
        2   -1    0    0  501    0  0.00000000000E+00  0.00000000000E+00  0.15972214939E+04  0.15972214939E+04  0.25500000920E-02 0.  1.
       -2   -1    0    0    0  501  0.00000000000E+00  0.00000000000E+00 -0.10660571303E+04  0.10660571303E+04  0.25500000920E-02 0. -1.
    10030    2    1    2    0    0  0.00000000000E+00  0.00000000000E+00  0.53116436359E+03  0.26632786242E+04  0.26097734478E+04 0.  0.
        2    1    3    3  502    0 -0.69893400311E+03  0.39095375517E+03  0.13169347557E+04  0.15413210990E+04  0.25500000920E-02 0.  1.
       -2    1    3    3    0  502  0.69893400311E+03 -0.39095375517E+03 -0.78577039208E+03  0.11219575252E+04  0.25500000920E-02 0. -1.
</event>
<event>
 5   0  0.2456600E-06  0.2595271E+04  0.7818609E-02  0.8369809E-01
       -1   -1    0    0    0  501  0.00000000000E+00  0.00000000000E+00  0.13088878139E+04  0.13088878139E+04  0.50400001928E-02 0.  1.
        1   -1    0    0  501    0  0.00000000000E+00  0.00000000000E+00 -0.12864803699E+04  0.12864803699E+04  0.50400001928E-02 0. -1.
    10030    2    1    2    0    0  0.00000000000E+00  0.00000000000E+00  0.22407444018E+02  0.25953681839E+04  0.25952714533E+04 0.  0.
        5    1    3    3  502    0 -0.12182849787E+04  0.36090321196E+03 -0.25218219677E+03  0.12954101158E+04  0.46999998093E+01 0. -1.
       -5    1    3    3    0  502  0.12182849787E+04 -0.36090321196E+03  0.27458964079E+03  0.12999580680E+04  0.46999998093E+01 0.  1.
</event>
<event>
 5   0  0.2503292E-06  0.2604144E+04  0.7818609E-02  0.8366795E-01
       -1   -1    0    0    0  501  0.00000000000E+00  0.00000000000E+00  0.10073489046E+04  0.10073489046E+04  0.50400001928E-02 0.  1.
        1   -1    0    0  501    0  0.00000000000E+00  0.00000000000E+00 -0.16830232532E+04  0.16830232532E+04  0.50400001928E-02 0. -1.
    10030    2    1    2    0    0  0.00000000000E+00  0.00000000000E+00 -0.67567434868E+03  0.26903721578E+04  0.26041441055E+04 0.  0.
        2    1    3    3  502    0  0.12001227409E+04  0.18875681429E+03 -0.82182323447E+03  0.14667369079E+04  0.25500000920E-02 0.  1.
       -2    1    3    3    0  502 -0.12001227409E+04 -0.18875681429E+03  0.14614888578E+03  0.12236352500E+04  0.25500000920E-02 0. -1.
</event>
<event>
 5   0  0.2333979E-06  0.2613190E+04  0.7818609E-02  0.8363735E-01
       -1   -1    0    0    0  501  0.00000000000E+00  0.00000000000E+00  0.90840437118E+03  0.90840437120E+03  0.50400001928E-02 0.  1.
        1   -1    0    0  501    0  0.00000000000E+00  0.00000000000E+00 -0.18793292432E+04  0.18793292432E+04  0.50400001928E-02 0. -1.
    10030    2    1    2    0    0  0.00000000000E+00  0.00000000000E+00 -0.97092487200E+03  0.27877336144E+04  0.26131903103E+04 0.  0.
        3    1    3    3  502    0  0.80162291362E+02  0.12334924838E+03 -0.18704664577E+04  0.18762424709E+04  0.10100000352E+00 0. -1.
       -3    1    3    3    0  502 -0.80162291362E+02 -0.12334924838E+03  0.89954158570E+03  0.91149114348E+03  0.10100000352E+00 0.  1.
</event>
<event>
 5   0  0.5940748E-06  0.2597550E+04  0.7818609E-02  0.8369034E-01
       -2   -1    0    0    0  501  0.00000000000E+00  0.00000000000E+00  0.98030360003E+03  0.98030360003E+03  0.25500000920E-02 0.  1.
        2   -1    0    0  501    0  0.00000000000E+00  0.00000000000E+00 -0.17207086248E+04  0.17207086248E+04  0.25500000920E-02 0. -1.
    10030    2    1    2    0    0  0.00000000000E+00  0.00000000000E+00 -0.74040502473E+03  0.27010122248E+04  0.25975502763E+04 0.  0.
        1    1    3    3  502    0 -0.13700015012E+03 -0.65547707661E+03  0.78695543390E+03  0.10333044537E+04  0.50400001928E-02 0.  1.
       -1    1    3    3    0  502  0.13700015012E+03  0.65547707661E+03 -0.15273604586E+04  0.16677077711E+04  0.50400001928E-02 0. -1.
</event>
<event>
 5   0  0.6158063E-06  0.2607251E+04  0.7818609E-02  0.8365742E-01
       -2   -1    0    0    0  501  0.00000000000E+00  0.00000000000E+00  0.90306113674E+03  0.90306113674E+03  0.25500000920E-02 0.  1.
        2   -1    0    0  501    0  0.00000000000E+00  0.00000000000E+00 -0.18818658097E+04  0.18818658097E+04  0.25500000920E-02 0. -1.
    10030    2    1    2    0    0  0.00000000000E+00  0.00000000000E+00 -0.97880467299E+03  0.27849269465E+04  0.26072513322E+04 0.  0.
        2    1    3    3  502    0  0.40098095343E+03 -0.26376287066E+03  0.80525286435E+03  0.93743733257E+03  0.25500000920E-02 0.  1.
       -2    1    3    3    0  502 -0.40098095343E+03  0.26376287066E+03 -0.17840575373E+04  0.18474896139E+04  0.25500000920E-02 0. -1.
</event>
<event>
 5   0  0.2333979E-06  0.2533021E+04  0.7818609E-02  0.8391315E-01
        1   -1    0    0  501    0  0.00000000000E+00  0.00000000000E+00  0.15117997705E+04  0.15117997705E+04  0.50400001928E-02 0. -1.
       -1   -1    0    0    0  501  0.00000000000E+00  0.00000000000E+00 -0.10610191492E+04  0.10610191492E+04  0.50400001928E-02 0.  1.
    10030    2    1    2    0    0  0.00000000000E+00  0.00000000000E+00  0.45078062130E+03  0.25728189197E+04  0.25330207313E+04 0.  0.
        3    1    3    3  502    0 -0.51149679700E+03  0.10712615199E+04  0.67370743448E+03  0.13649585836E+04  0.10100000352E+00 0. -1.
       -3    1    3    3    0  502  0.51149679700E+03 -0.10712615199E+04 -0.22292681318E+03  0.12078603362E+04  0.10100000352E+00 0.  1.
</event>
<event>
 5   0  0.5940748E-06  0.2595036E+04  0.7818609E-02  0.8369889E-01
        2   -1    0    0  501    0  0.00000000000E+00  0.00000000000E+00  0.18385802411E+04  0.18385802411E+04  0.25500000920E-02 0.  1.
       -2   -1    0    0    0  501  0.00000000000E+00  0.00000000000E+00 -0.91568077440E+03  0.91568077440E+03  0.25500000920E-02 0. -1.
    10030    2    1    2    0    0  0.00000000000E+00  0.00000000000E+00  0.92289946666E+03  0.27542610155E+04  0.25950357061E+04 0.  0.
        1    1    3    3  502    0 -0.10244821672E+04 -0.16793816438E+03  0.12875280917E+04  0.16539333496E+04  0.50400001928E-02 0.  1.
       -1    1    3    3    0  502  0.10244821672E+04  0.16793816438E+03 -0.36462862504E+03  0.11003276658E+04  0.50400001928E-02 0. -1.
</event>
<event>
 5   0  0.2440590E-06  0.2593626E+04  0.7818609E-02  0.8370370E-01
       -1   -1    0    0    0  501  0.00000000000E+00  0.00000000000E+00  0.71116464594E+03  0.71116464596E+03  0.50400001928E-02 0. -1.
        1   -1    0    0  501    0  0.00000000000E+00  0.00000000000E+00 -0.23647461952E+04  0.23647461952E+04  0.50400001928E-02 0.  1.
    10030    2    1    2    0    0  0.00000000000E+00  0.00000000000E+00 -0.16535815493E+04  0.30759108412E+04  0.25936259489E+04 0.  0.
        1    1    3    3  502    0  0.74937426804E+03  0.21407776332E+03  0.40244677856E+03  0.87712854927E+03  0.50400001928E-02 0. -1.
       -1    1    3    3    0  502 -0.74937426804E+03 -0.21407776332E+03 -0.20560283278E+04  0.21987822919E+04  0.50400001928E-02 0.  1.
</event>
<event>
 5   0  0.2333979E-06  0.2599953E+04  0.7818609E-02  0.8368217E-01
       -1   -1    0    0    0  501  0.00000000000E+00  0.00000000000E+00  0.25693653321E+04  0.25693653321E+04  0.50400001928E-02 0. -1.
        1   -1    0    0  501    0  0.00000000000E+00  0.00000000000E+00 -0.65772642144E+03  0.65772642146E+03  0.50400001928E-02 0.  1.
    10030    2    1    2    0    0  0.00000000000E+00  0.00000000000E+00  0.19116389106E+04  0.32270917535E+04  0.25999534344E+04 0.  0.
        3    1    3    3  502    0  0.90498913692E+03  0.61076596840E+03  0.79996362259E+02  0.10947327684E+04  0.10100000352E+00 0.  1.
       -3    1    3    3    0  502 -0.90498913692E+03 -0.61076596840E+03  0.18316425484E+04  0.21323589851E+04  0.10100000352E+00 0. -1.
</event>
<event>
 5   0  0.5942229E-06  0.2599395E+04  0.7818609E-02  0.8368407E-01
        2   -1    0    0  501    0  0.00000000000E+00  0.00000000000E+00  0.18180407504E+04  0.18180407505E+04  0.25500000920E-02 0. -1.
       -2   -1    0    0    0  501  0.00000000000E+00  0.00000000000E+00 -0.92913947887E+03  0.92913947887E+03  0.25500000920E-02 0.  1.
    10030    2    1    2    0    0  0.00000000000E+00  0.00000000000E+00  0.88890127158E+03  0.27471802293E+04  0.25993948799E+04 0.  0.
        4    1    3    3  502    0 -0.44229015969E+03 -0.56253038680E+02 -0.84578853768E+03  0.95610922655E+03  0.12699999809E+01 0.  1.
       -4    1    3    3    0  502  0.44229015969E+03  0.56253038680E+02  0.17346898093E+04  0.17910710028E+04  0.12699999809E+01 0. -1.
</event>
<event>
 5   0  0.6161834E-06  0.2593288E+04  0.7818609E-02  0.8370485E-01
       -2   -1    0    0    0  501  0.00000000000E+00  0.00000000000E+00  0.12077941391E+04  0.12077941391E+04  0.25500000920E-02 0. -1.
        2   -1    0    0  501    0  0.00000000000E+00  0.00000000000E+00 -0.13920297400E+04  0.13920297400E+04  0.25500000920E-02 0.  1.
    10030    2    1    2    0    0  0.00000000000E+00  0.00000000000E+00 -0.18423560087E+03  0.25998238791E+04  0.25932877676E+04 0.  0.
        5    1    3    3  502    0  0.65191973892E+03  0.92165797141E+03  0.54730673795E+03  0.12545993455E+04  0.46999998093E+01 0. -1.
       -5    1    3    3    0  502 -0.65191973892E+03 -0.92165797141E+03 -0.73154233882E+03  0.13452245336E+04  0.46999998093E+01 0.  1.
</event>
<event>
 5   0  0.2072125E-06  0.2640673E+04  0.7818609E-02  0.8354515E-01
       -3   -1    0    0    0  501  0.00000000000E+00  0.00000000000E+00  0.14769162083E+04  0.14769162117E+04  0.10100000352E+00 0.  1.
        3   -1    0    0  501    0  0.00000000000E+00  0.00000000000E+00 -0.11803568961E+04  0.11803569005E+04  0.10100000352E+00 0. -1.
    10030    2    1    2    0    0  0.00000000000E+00  0.00000000000E+00  0.29655931213E+03  0.26572731122E+04  0.26406728247E+04 0.  0.
        5    1    3    3  502    0  0.79045908458E+03  0.24213226196E+03 -0.88766398049E+03  0.12130222706E+04  0.46999998093E+01 0. -1.
       -5    1    3    3    0  502 -0.79045908458E+03 -0.24213226196E+03  0.11842232926E+04  0.14442508416E+04  0.46999998093E+01 0.  1.
</event>
<event>
 5   0  0.5940748E-06  0.2590108E+04  0.7818609E-02  0.8371569E-01
       -2   -1    0    0    0  501  0.00000000000E+00  0.00000000000E+00  0.75486336679E+03  0.75486336679E+03  0.25500000920E-02 0. -1.
        2   -1    0    0  501    0  0.00000000000E+00  0.00000000000E+00 -0.22218118030E+04  0.22218118030E+04  0.25500000920E-02 0.  1.
    10030    2    1    2    0    0  0.00000000000E+00  0.00000000000E+00 -0.14669484362E+04  0.29766751698E+04  0.25901075947E+04 0.  0.
        1    1    3    3  502    0  0.24786668013E+03 -0.89483138094E+03 -0.17709866488E+04  0.19996386678E+04  0.50400001928E-02 0.  1.
       -1    1    3    3    0  502 -0.24786668013E+03  0.89483138094E+03  0.30403821262E+03  0.97703650198E+03  0.50400001928E-02 0. -1.
</event>
<event>
 5   0  0.6161834E-06  0.2533048E+04  0.7818609E-02  0.8391306E-01
        2   -1    0    0  501    0  0.00000000000E+00  0.00000000000E+00  0.16078724110E+04  0.16078724110E+04  0.25500000920E-02 0.  1.
       -2   -1    0    0    0  501  0.00000000000E+00  0.00000000000E+00 -0.99764315757E+03  0.99764315757E+03  0.25500000920E-02 0. -1.
    10030    2    1    2    0    0  0.00000000000E+00  0.00000000000E+00  0.61022925343E+03  0.26055155686E+04  0.25330478946E+04 0.  0.
        5    1    3    3  502    0 -0.74009565451E+03  0.94237042361E+03 -0.11681219415E+03  0.12039396878E+04  0.46999998093E+01 0. -1.
       -5    1    3    3    0  502  0.74009565451E+03 -0.94237042361E+03  0.72704144758E+03  0.14015758808E+04  0.46999998093E+01 0.  1.
</event>
<event>
 5   0  0.5942229E-06  0.2599817E+04  0.7818609E-02  0.8368263E-01
       -2   -1    0    0    0  501  0.00000000000E+00  0.00000000000E+00  0.12823690010E+04  0.12823690010E+04  0.25500000920E-02 0. -1.
        2   -1    0    0  501    0  0.00000000000E+00  0.00000000000E+00 -0.13176881219E+04  0.13176881219E+04  0.25500000920E-02 0.  1.
    10030    2    1    2    0    0  0.00000000000E+00  0.00000000000E+00 -0.35319120937E+02  0.26000571229E+04  0.25998172247E+04 0.  0.
        4    1    3    3  502    0  0.54781686171E+03  0.52073113162E+03 -0.10753471279E+04  0.13143961670E+04  0.12699999809E+01 0.  1.
       -4    1    3    3    0  502 -0.54781686171E+03 -0.52073113162E+03  0.10400280070E+04  0.12856609559E+04  0.12699999809E+01 0. -1.
</event>
<event>
 5   0  0.2333979E-06  0.2547816E+04  0.7818609E-02  0.8386146E-01
        1   -1    0    0  501    0  0.00000000000E+00  0.00000000000E+00  0.16960462842E+04  0.16960462842E+04  0.50400001928E-02 0. -1.
       -1   -1    0    0    0  501  0.00000000000E+00  0.00000000000E+00 -0.95683822328E+03  0.95683822329E+03  0.50400001928E-02 0.  1.
    10030    2    1    2    0    0  0.00000000000E+00  0.00000000000E+00  0.73920806093E+03  0.26528845075E+04  0.25478162518E+04 0.  0.
        3    1    3    3  502    0 -0.12239347326E+04 -0.33520893197E+03  0.25337342304E+03  0.12940553927E+04  0.10100000352E+00 0.  1.
       -3    1    3    3    0  502  0.12239347326E+04  0.33520893197E+03  0.48583463790E+03  0.13588291148E+04  0.10100000352E+00 0. -1.
</event>
<event>
 5   0  0.2333979E-06  0.2610431E+04  0.7818609E-02  0.8364667E-01
        1   -1    0    0  501    0  0.00000000000E+00  0.00000000000E+00  0.18003645045E+04  0.18003645045E+04  0.50400001928E-02 0.  1.
       -1   -1    0    0    0  501  0.00000000000E+00  0.00000000000E+00 -0.94624579190E+03  0.94624579191E+03  0.50400001928E-02 0. -1.
    10030    2    1    2    0    0  0.00000000000E+00  0.00000000000E+00  0.85411871264E+03  0.27466102965E+04  0.26104308735E+04 0.  0.
        3    1    3    3  502    0  0.11696647711E+04 -0.30513618452E+03  0.94504593451E+03  0.15343844356E+04  0.10100000352E+00 0.  1.
       -3    1    3    3    0  502 -0.11696647711E+04  0.30513618452E+03 -0.90927221872E+02  0.12122258608E+04  0.10100000352E+00 0. -1.
</event>
<event>
 5   0  0.6173140E-06  0.2596019E+04  0.7818609E-02  0.8369555E-01
       -2   -1    0    0    0  501  0.00000000000E+00  0.00000000000E+00  0.79741182255E+03  0.79741182255E+03  0.25500000920E-02 0. -1.
        2   -1    0    0  501    0  0.00000000000E+00  0.00000000000E+00 -0.21128718028E+04  0.21128718028E+04  0.25500000920E-02 0.  1.
    10030    2    1    2    0    0  0.00000000000E+00  0.00000000000E+00 -0.13154599802E+04  0.29102836254E+04  0.25960192257E+04 0.  0.
        3    1    3    3  502    0  0.11986808074E+04  0.38248142832E+03 -0.30021809117E+03  0.12935449871E+04  0.10100000352E+00 0. -1.
       -3    1    3    3    0  502 -0.11986808074E+04 -0.38248142832E+03 -0.10152418891E+04  0.16167386383E+04  0.10100000352E+00 0.  1.
</event>
<event>
 5   0  0.5942229E-06  0.2608026E+04  0.7818609E-02  0.8365480E-01
        2   -1    0    0  501    0  0.00000000000E+00  0.00000000000E+00  0.28570970175E+04  0.28570970175E+04  0.25500000920E-02 0.  1.
       -2   -1    0    0    0  501  0.00000000000E+00  0.00000000000E+00 -0.59516721355E+03  0.59516721355E+03  0.25500000920E-02 0. -1.
    10030    2    1    2    0    0  0.00000000000E+00  0.00000000000E+00  0.22619298040E+04  0.34522642311E+04  0.26080264345E+04 0.  0.
        4    1    3    3  502    0 -0.29943860283E+03  0.11586436617E+04  0.18166533835E+04  0.21753964559E+04  0.12699999809E+01 0.  1.
       -4    1    3    3    0  502  0.29943860283E+03 -0.11586436617E+04  0.44527642048E+03  0.12768677752E+04  0.12699999809E+01 0. -1.
</event>
<event>
 5   0  0.2503292E-06  0.2622382E+04  0.7818609E-02  0.8360638E-01
       -1   -1    0    0    0  501  0.00000000000E+00  0.00000000000E+00  0.77475982407E+03  0.77475982409E+03  0.50400001928E-02 0. -1.
        1   -1    0    0  501    0  0.00000000000E+00  0.00000000000E+00 -0.22190376564E+04  0.22190376564E+04  0.50400001928E-02 0.  1.
    10030    2    1    2    0    0  0.00000000000E+00  0.00000000000E+00 -0.14442778323E+04  0.29937974805E+04  0.26223815316E+04 0.  0.
        2    1    3    3  502    0  0.56013524223E+03 -0.11384954203E+04 -0.34471234225E+03  0.13148193452E+04  0.25500000920E-02 0. -1.
       -2    1    3    3    0  502 -0.56013524223E+03  0.11384954203E+04 -0.10995654901E+04  0.16789781352E+04  0.25500000920E-02 0.  1.
</event>
<event>
 5   0  0.2440590E-06  0.2605419E+04  0.7818609E-02  0.8366363E-01
        1   -1    0    0  501    0  0.00000000000E+00  0.00000000000E+00  0.12422645606E+04  0.12422645607E+04  0.50400001928E-02 0.  1.
       -1   -1    0    0    0  501  0.00000000000E+00  0.00000000000E+00 -0.13660954161E+04  0.13660954161E+04  0.50400001928E-02 0. -1.
    10030    2    1    2    0    0  0.00000000000E+00  0.00000000000E+00 -0.12383085548E+03  0.26083599768E+04  0.26054189083E+04 0.  0.
        1    1    3    3  502    0 -0.76326079209E+03  0.51077987226E+03 -0.98685704967E+03  0.13480912251E+04  0.50400001928E-02 0. -1.
       -1    1    3    3    0  502  0.76326079209E+03 -0.51077987226E+03  0.86302619418E+03  0.12602687517E+04  0.50400001928E-02 0.  1.
</event>
<event>
 5   0  0.2503292E-06  0.2577388E+04  0.7818609E-02  0.8375923E-01
        1   -1    0    0  501    0  0.00000000000E+00  0.00000000000E+00  0.18514071887E+04  0.18514071887E+04  0.50400001928E-02 0.  1.
       -1   -1    0    0    0  501  0.00000000000E+00  0.00000000000E+00 -0.89701101725E+03  0.89701101727E+03  0.50400001928E-02 0. -1.
    10030    2    1    2    0    0  0.00000000000E+00  0.00000000000E+00  0.95439617145E+03  0.27484182060E+04  0.25773883260E+04 0.  0.
        2    1    3    3  502    0 -0.35332546749E+03  0.86522447206E+03 -0.46896864189E+03  0.10456499702E+04  0.25500000920E-02 0. -1.
       -2    1    3    3    0  502  0.35332546749E+03 -0.86522447206E+03  0.14233648133E+04  0.17027682358E+04  0.25500000920E-02 0.  1.
</event>
<event>
 5   0  0.5942229E-06  0.2591929E+04  0.7818609E-02  0.8370948E-01
        2   -1    0    0  501    0  0.00000000000E+00  0.00000000000E+00  0.14801299590E+04  0.14801299590E+04  0.25500000920E-02 0.  1.
       -2   -1    0    0    0  501  0.00000000000E+00  0.00000000000E+00 -0.11347136098E+04  0.11347136098E+04  0.25500000920E-02 0. -1.
    10030    2    1    2    0    0  0.00000000000E+00  0.00000000000E+00  0.34541634925E+03  0.26148435688E+04  0.25919287095E+04 0.  0.
        4    1    3    3  502    0  0.63139817594E+03  0.10901011882E+04 -0.13418137664E+03  0.12668822012E+04  0.12699999809E+01 0. -1.
       -4    1    3    3    0  502 -0.63139817594E+03 -0.10901011882E+04  0.47959772589E+03  0.13479613676E+04  0.12699999809E+01 0.  1.
</event>
<event>
 5   0  0.5942229E-06  0.2600607E+04  0.7818609E-02  0.8367995E-01
       -2   -1    0    0    0  501  0.00000000000E+00  0.00000000000E+00  0.83746917430E+03  0.83746917431E+03  0.25500000920E-02 0.  1.
        2   -1    0    0  501    0  0.00000000000E+00  0.00000000000E+00 -0.20189276057E+04  0.20189276057E+04  0.25500000920E-02 0. -1.
    10030    2    1    2    0    0  0.00000000000E+00  0.00000000000E+00 -0.11814584314E+04  0.28563967800E+04  0.26006073405E+04 0.  0.
        4    1    3    3  502    0  0.60921886610E+03  0.23738163377E+03  0.64378285583E+03  0.91758141068E+03  0.12699999809E+01 0.  1.
       -4    1    3    3    0  502 -0.60921886610E+03 -0.23738163377E+03 -0.18252412872E+04  0.19388153693E+04  0.12699999809E+01 0. -1.
</event>
<event>
 5   0  0.6161834E-06  0.2583104E+04  0.7818609E-02  0.8373963E-01
        2   -1    0    0  501    0  0.00000000000E+00  0.00000000000E+00  0.18678665114E+04  0.18678665114E+04  0.25500000920E-02 0. -1.
       -2   -1    0    0    0  501  0.00000000000E+00  0.00000000000E+00 -0.89305415925E+03  0.89305415925E+03  0.25500000920E-02 0.  1.
    10030    2    1    2    0    0  0.00000000000E+00  0.00000000000E+00  0.97481235213E+03  0.27609206706E+04  0.25831035263E+04 0.  0.
        5    1    3    3  502    0 -0.52432927025E+02  0.82505989139E+03  0.15479885869E+04  0.17549255800E+04  0.46999998093E+01 0.  1.
       -5    1    3    3    0  502  0.52432927025E+02 -0.82505989139E+03 -0.57317623478E+03  0.10059950906E+04  0.46999998093E+01 0. -1.
</event>
<event>
 5   0  0.2333979E-06  0.2610578E+04  0.7818609E-02  0.8364617E-01
        1   -1    0    0  501    0  0.00000000000E+00  0.00000000000E+00  0.21568964185E+04  0.21568964185E+04  0.50400001928E-02 0. -1.
       -1   -1    0    0    0  501  0.00000000000E+00  0.00000000000E+00 -0.78992191409E+03  0.78992191411E+03  0.50400001928E-02 0.  1.
    10030    2    1    2    0    0  0.00000000000E+00  0.00000000000E+00  0.13669745044E+04  0.29468183326E+04  0.26105782864E+04 0.  0.
        3    1    3    3  502    0 -0.57694510348E+03 -0.44003566169E+03 -0.54128974976E+03  0.90525777511E+03  0.10100000352E+00 0.  1.
       -3    1    3    3    0  502  0.57694510348E+03  0.44003566169E+03  0.19082642541E+04  0.20415605575E+04  0.10100000352E+00 0. -1.
</event>
<event>
 5   0  0.2503292E-06  0.2623738E+04  0.7818609E-02  0.8360182E-01
        1   -1    0    0  501    0  0.00000000000E+00  0.00000000000E+00  0.16739033809E+04  0.16739033809E+04  0.50400001928E-02 0. -1.
       -1   -1    0    0    0  501  0.00000000000E+00  0.00000000000E+00 -0.10281358825E+04  0.10281358825E+04  0.50400001928E-02 0.  1.
    10030    2    1    2    0    0  0.00000000000E+00  0.00000000000E+00  0.64576749839E+03  0.27020392634E+04  0.26237378907E+04 0.  0.
        2    1    3    3  502    0 -0.43096234700E+03  0.32576516340E+03 -0.90826324466E+03  0.10567845607E+04  0.25500000920E-02 0.  1.
       -2    1    3    3    0  502  0.43096234700E+03 -0.32576516340E+03  0.15540307430E+04  0.16452547026E+04  0.25500000920E-02 0. -1.
</event>
<event>
 5   0  0.5940748E-06  0.2600764E+04  0.7818609E-02  0.8367942E-01
        2   -1    0    0  501    0  0.00000000000E+00  0.00000000000E+00  0.19997868090E+04  0.19997868090E+04  0.25500000920E-02 0.  1.
       -2   -1    0    0    0  501  0.00000000000E+00  0.00000000000E+00 -0.84558674328E+03  0.84558674328E+03  0.25500000920E-02 0. -1.
    10030    2    1    2    0    0  0.00000000000E+00  0.00000000000E+00  0.11542000657E+04  0.28453735522E+04  0.26007638994E+04 0.  0.
        1    1    3    3  502    0 -0.76752923256E+03  0.88506314669E+03  0.11945912608E+04  0.16731665120E+04  0.50400001928E-02 0. -1.
       -1    1    3    3    0  502  0.76752923256E+03 -0.88506314669E+03 -0.40391195167E+02  0.11722070402E+04  0.50400001928E-02 0.  1.
</event>
<event>
 5   0  0.2471488E-06  0.2612647E+04  0.7818609E-02  0.8363918E-01
        1   -1    0    0  501    0  0.00000000000E+00  0.00000000000E+00  0.19991593689E+04  0.19991593689E+04  0.50400001928E-02 0. -1.
       -1   -1    0    0    0  501  0.00000000000E+00  0.00000000000E+00 -0.85359911792E+03  0.85359911794E+03  0.50400001928E-02 0.  1.
    10030    2    1    2    0    0  0.00000000000E+00  0.00000000000E+00  0.11455602510E+04  0.28527584869E+04  0.26126466841E+04 0.  0.
        4    1    3    3  502    0  0.12945433089E+03  0.50005114124E+03 -0.73735389534E+03  0.90027881654E+03  0.12699999809E+01 0.  1.
       -4    1    3    3    0  502 -0.12945433089E+03 -0.50005114124E+03  0.18829141463E+04  0.19524796703E+04  0.12699999809E+01 0. -1.
</event>
<event>
 5   0  0.5942229E-06  0.2594806E+04  0.7818609E-02  0.8369968E-01
        2   -1    0    0  501    0  0.00000000000E+00  0.00000000000E+00  0.18101689674E+04  0.18101689674E+04  0.25500000920E-02 0. -1.
       -2   -1    0    0    0  501  0.00000000000E+00  0.00000000000E+00 -0.92988831168E+03  0.92988831168E+03  0.25500000920E-02 0.  1.
    10030    2    1    2    0    0  0.00000000000E+00  0.00000000000E+00  0.88028065568E+03  0.27400572790E+04  0.25948063241E+04 0.  0.
        4    1    3    3  502    0 -0.97471605617E+03 -0.20148580204E+03 -0.43866234754E+03  0.10877013315E+04  0.12699999809E+01 0.  1.
       -4    1    3    3    0  502  0.97471605617E+03  0.20148580204E+03  0.13189430032E+04  0.16523559475E+04  0.12699999809E+01 0. -1.
</event>
<event>
 5   0  0.2072125E-06  0.2602147E+04  0.7818609E-02  0.8367472E-01
       -3   -1    0    0    0  501  0.00000000000E+00  0.00000000000E+00  0.99342673145E+03  0.99342673658E+03  0.10100000352E+00 0.  1.
        3   -1    0    0  501    0  0.00000000000E+00  0.00000000000E+00 -0.17039932230E+04  0.17039932260E+04  0.10100000352E+00 0. -1.
    10030    2    1    2    0    0  0.00000000000E+00  0.00000000000E+00 -0.71056649154E+03  0.26974199626E+04  0.26021471356E+04 0.  0.
        3    1    3    3  502    0  0.10800912074E+03  0.87610454065E+03  0.63551900953E+03  0.10877083975E+04  0.10100000352E+00 0. -1.
       -3    1    3    3    0  502 -0.10800912074E+03 -0.87610454065E+03 -0.13460855011E+04  0.16097115651E+04  0.10100000352E+00 0.  1.
</event>
<event>
 5   0  0.6158063E-06  0.2698536E+04  0.7818609E-02  0.8335480E-01
       -2   -1    0    0    0  501  0.00000000000E+00  0.00000000000E+00  0.10123901348E+04  0.10123901348E+04  0.25500000920E-02 0.  1.
        2   -1    0    0  501    0  0.00000000000E+00  0.00000000000E+00 -0.17982439751E+04  0.17982439751E+04  0.25500000920E-02 0. -1.
    10030    2    1    2    0    0  0.00000000000E+00  0.00000000000E+00 -0.78585384035E+03  0.28106341099E+04  0.26985362405E+04 0.  0.
        2    1    3    3  502    0 -0.37939505541E+02  0.75803987695E+03  0.76896741195E+03  0.10804511751E+04  0.25500000920E-02 0.  1.
       -2    1    3    3    0  502  0.37939505541E+02 -0.75803987695E+03 -0.15548212523E+04  0.17301829348E+04  0.25500000920E-02 0. -1.
</event>
<event>
 5   0  0.2471488E-06  0.2597316E+04  0.7818609E-02  0.8369113E-01
        1   -1    0    0  501    0  0.00000000000E+00  0.00000000000E+00  0.24680978681E+04  0.24680978681E+04  0.50400001928E-02 0. -1.
       -1   -1    0    0    0  501  0.00000000000E+00  0.00000000000E+00 -0.68332502204E+03  0.68332502206E+03  0.50400001928E-02 0.  1.
    10030    2    1    2    0    0  0.00000000000E+00  0.00000000000E+00  0.17847728461E+04  0.31514228902E+04  0.25973163305E+04 0.  0.
        4    1    3    3  502    0 -0.91881379165E+03  0.84663123211E+03  0.46253549086E+03  0.13322702129E+04  0.12699999809E+01 0.  1.
       -4    1    3    3    0  502  0.91881379165E+03 -0.84663123211E+03  0.13222373552E+04  0.18191526773E+04  0.12699999809E+01 0. -1.
</event>
<event>
 5   0  0.5942229E-06  0.2597665E+04  0.7818609E-02  0.8368995E-01
        2   -1    0    0  501    0  0.00000000000E+00  0.00000000000E+00  0.13464006450E+04  0.13464006450E+04  0.25500000920E-02 0.  1.
       -2   -1    0    0    0  501  0.00000000000E+00  0.00000000000E+00 -0.12529449222E+04  0.12529449222E+04  0.25500000920E-02 0. -1.
    10030    2    1    2    0    0  0.00000000000E+00  0.00000000000E+00  0.93455722722E+02  0.25993455672E+04  0.25976649910E+04 0.  0.
        4    1    3    3  502    0  0.40158168783E+03  0.27981113233E+03 -0.11571307412E+04  0.12563897830E+04  0.12699999809E+01 0. -1.
       -4    1    3    3    0  502 -0.40158168783E+03 -0.27981113233E+03  0.12505864639E+04  0.13429557842E+04  0.12699999809E+01 0.  1.
</event>
<event>
 5   0  0.2333979E-06  0.2600121E+04  0.7818609E-02  0.8368160E-01
        1   -1    0    0  501    0  0.00000000000E+00  0.00000000000E+00  0.18707342904E+04  0.18707342904E+04  0.50400001928E-02 0. -1.
       -1   -1    0    0    0  501  0.00000000000E+00  0.00000000000E+00 -0.90347267873E+03  0.90347267874E+03  0.50400001928E-02 0.  1.
    10030    2    1    2    0    0  0.00000000000E+00  0.00000000000E+00  0.96726161168E+03  0.27742069692E+04  0.26001210130E+04 0.  0.
        3    1    3    3  502    0  0.99856055099E+03 -0.82929323777E+03  0.56135642693E+03  0.14142034848E+04  0.10100000352E+00 0.  1.
       -3    1    3    3    0  502 -0.99856055099E+03  0.82929323777E+03  0.40590518474E+03  0.13600034843E+04  0.10100000352E+00 0. -1.
</event>
<event>
 5   0  0.6161834E-06  0.2502807E+04  0.7818609E-02  0.8401986E-01
       -2   -1    0    0    0  501  0.00000000000E+00  0.00000000000E+00  0.74545237456E+03  0.74545237456E+03  0.25500000920E-02 0.  1.
        2   -1    0    0  501    0  0.00000000000E+00  0.00000000000E+00 -0.21007528453E+04  0.21007528453E+04  0.25500000920E-02 0. -1.
    10030    2    1    2    0    0  0.00000000000E+00  0.00000000000E+00 -0.13553004708E+04  0.28462052199E+04  0.25028073813E+04 0.  0.
        5    1    3    3  502    0 -0.10817849693E+04 -0.58831848949E+03 -0.93094780475E+03  0.15437173543E+04  0.46999998093E+01 0. -1.
       -5    1    3    3    0  502  0.10817849693E+04  0.58831848949E+03 -0.42435266601E+03  0.13024878656E+04  0.46999998093E+01 0.  1.
</event>
<event>
 5   0  0.6161834E-06  0.2602339E+04  0.7818609E-02  0.8367407E-01
       -2   -1    0    0    0  501  0.00000000000E+00  0.00000000000E+00  0.94106668596E+03  0.94106668596E+03  0.25500000920E-02 0.  1.
        2   -1    0    0  501    0  0.00000000000E+00  0.00000000000E+00 -0.17990675666E+04  0.17990675666E+04  0.25500000920E-02 0. -1.
    10030    2    1    2    0    0  0.00000000000E+00  0.00000000000E+00 -0.85800088069E+03  0.27401342526E+04  0.26023393728E+04 0.  0.
        5    1    3    3  502    0  0.12396056716E+04 -0.35448051022E+03 -0.61361783757E+03  0.14278752024E+04  0.46999998093E+01 0.  1.
       -5    1    3    3    0  502 -0.12396056716E+04  0.35448051022E+03 -0.24438304312E+03  0.13122590502E+04  0.46999998093E+01 0. -1.
</event>
<event>
 5   0  0.5940748E-06  0.2600273E+04  0.7818609E-02  0.8368108E-01
        2   -1    0    0  501    0  0.00000000000E+00  0.00000000000E+00  0.25265179728E+04  0.25265179728E+04  0.25500000920E-02 0. -1.
       -2   -1    0    0    0  501  0.00000000000E+00  0.00000000000E+00 -0.66904530856E+03  0.66904530856E+03  0.25500000920E-02 0.  1.
    10030    2    1    2    0    0  0.00000000000E+00  0.00000000000E+00  0.18574726643E+04  0.31955632814E+04  0.26002730601E+04 0.  0.
        1    1    3    3  502    0 -0.80060352312E+02  0.11900453144E+04  0.29284477814E+03  0.12281594255E+04  0.50400001928E-02 0.  1.
       -1    1    3    3    0  502  0.80060352312E+02 -0.11900453144E+04  0.15646278861E+04  0.19674038559E+04  0.50400001928E-02 0. -1.
</event>
<event>
 5   0  0.2471488E-06  0.2597536E+04  0.7818609E-02  0.8369039E-01
       -1   -1    0    0    0  501  0.00000000000E+00  0.00000000000E+00  0.20545379361E+04  0.20545379361E+04  0.50400001928E-02 0. -1.
        1   -1    0    0  501    0  0.00000000000E+00  0.00000000000E+00 -0.82101100329E+03  0.82101100330E+03  0.50400001928E-02 0.  1.
    10030    2    1    2    0    0  0.00000000000E+00  0.00000000000E+00  0.12335269328E+04  0.28755489394E+04  0.25975359495E+04 0.  0.
        4    1    3    3  502    0 -0.10143283603E+04  0.25949436097E+03  0.14675192745E+04  0.18027239888E+04  0.12699999809E+01 0. -1.
       -4    1    3    3    0  502  0.10143283603E+04 -0.25949436097E+03 -0.23399234171E+03  0.10728249506E+04  0.12699999809E+01 0.  1.
</event>
<event>
 5   0  0.2333979E-06  0.2606340E+04  0.7818609E-02  0.8366051E-01
       -1   -1    0    0    0  501  0.00000000000E+00  0.00000000000E+00  0.14259961405E+04  0.14259961405E+04  0.50400001928E-02 0. -1.
        1   -1    0    0  501    0  0.00000000000E+00  0.00000000000E+00 -0.11909236793E+04  0.11909236793E+04  0.50400001928E-02 0.  1.
    10030    2    1    2    0    0  0.00000000000E+00  0.00000000000E+00  0.23507246114E+03  0.26169198198E+04  0.26063404001E+04 0.  0.
        3    1    3    3  502    0 -0.11620784192E+04 -0.24025764671E+03 -0.42326175998E+03  0.12598811519E+04  0.10100000352E+00 0.  1.
       -3    1    3    3    0  502  0.11620784192E+04  0.24025764671E+03  0.65833422112E+03  0.13570386679E+04  0.10100000352E+00 0. -1.
</event>
<event>
 5   0  0.2333979E-06  0.2613833E+04  0.7818609E-02  0.8363518E-01
       -1   -1    0    0    0  501  0.00000000000E+00  0.00000000000E+00  0.10153302727E+04  0.10153302727E+04  0.50400001928E-02 0.  1.
        1   -1    0    0  501    0  0.00000000000E+00  0.00000000000E+00 -0.16822415972E+04  0.16822415972E+04  0.50400001928E-02 0. -1.
    10030    2    1    2    0    0  0.00000000000E+00  0.00000000000E+00 -0.66691132447E+03  0.26975718699E+04  0.26138330625E+04 0.  0.
        3    1    3    3  502    0  0.38947384679E+03 -0.59149277287E+03 -0.14670423635E+04  0.16290386380E+04  0.10100000352E+00 0. -1.
       -3    1    3    3    0  502 -0.38947384679E+03  0.59149277287E+03  0.80013103904E+03  0.10685332318E+04  0.10100000352E+00 0.  1.
</event>
<event>
 5   0  0.5942229E-06  0.2600296E+04  0.7818609E-02  0.8368101E-01
        2   -1    0    0  501    0  0.00000000000E+00  0.00000000000E+00  0.16904076175E+04  0.16904076176E+04  0.25500000920E-02 0.  1.
       -2   -1    0    0    0  501  0.00000000000E+00  0.00000000000E+00 -0.99998614063E+03  0.99998614063E+03  0.25500000920E-02 0. -1.
    10030    2    1    2    0    0  0.00000000000E+00  0.00000000000E+00  0.69042147692E+03  0.26903937582E+04  0.26002955136E+04 0.  0.
        4    1    3    3  502    0 -0.10863836684E+04 -0.58718355230E+03  0.76595638934E+03  0.14531706033E+04  0.12699999809E+01 0.  1.
       -4    1    3    3    0  502  0.10863836684E+04  0.58718355230E+03 -0.75534912418E+02  0.12372231549E+04  0.12699999809E+01 0. -1.
</event>
<event>
 5   0  0.2456600E-06  0.2600752E+04  0.7818609E-02  0.8367946E-01
       -1   -1    0    0    0  501  0.00000000000E+00  0.00000000000E+00  0.68519049345E+03  0.68519049347E+03  0.50400001928E-02 0.  1.
        1   -1    0    0  501    0  0.00000000000E+00  0.00000000000E+00 -0.24678948186E+04  0.24678948186E+04  0.50400001928E-02 0. -1.
    10030    2    1    2    0    0  0.00000000000E+00  0.00000000000E+00 -0.17827043252E+04  0.31530853121E+04  0.26007522516E+04 0.  0.
        5    1    3    3  502    0 -0.24617169050E+03 -0.61441315837E+03 -0.22483733070E+04  0.23437808447E+04  0.46999998093E+01 0. -1.
       -5    1    3    3    0  502  0.24617169050E+03  0.61441315837E+03  0.46566898179E+03  0.80930446742E+03  0.46999998093E+01 0.  1.
</event>
<event>
 5   0  0.2471488E-06  0.2603821E+04  0.7818609E-02  0.8366904E-01
       -1   -1    0    0    0  501  0.00000000000E+00  0.00000000000E+00  0.64021655591E+03  0.64021655593E+03  0.50400001928E-02 0.  1.
        1   -1    0    0  501    0  0.00000000000E+00  0.00000000000E+00 -0.26474972960E+04  0.26474972960E+04  0.50400001928E-02 0. -1.
    10030    2    1    2    0    0  0.00000000000E+00  0.00000000000E+00 -0.20072807401E+04  0.32877138520E+04  0.26038214998E+04 0.  0.
        4    1    3    3  502    0  0.39147629420E+03 -0.88745638200E+03  0.92858181449E+02  0.97440072538E+03  0.12699999809E+01 0.  1.
       -4    1    3    3    0  502 -0.39147629420E+03  0.88745638200E+03 -0.21001389216E+04  0.23133131266E+04  0.12699999809E+01 0. -1.
</event>
<event>
 5   0  0.2503292E-06  0.2603119E+04  0.7818609E-02  0.8367142E-01
       -1   -1    0    0    0  501  0.00000000000E+00  0.00000000000E+00  0.11788809412E+04  0.11788809412E+04  0.50400001928E-02 0.  1.
        1   -1    0    0  501    0  0.00000000000E+00  0.00000000000E+00 -0.14370047751E+04  0.14370047751E+04  0.50400001928E-02 0. -1.
    10030    2    1    2    0    0  0.00000000000E+00  0.00000000000E+00 -0.25812383387E+03  0.26158857163E+04  0.26031193148E+04 0.  0.
        2    1    3    3  502    0  0.23656707863E+03  0.91661809678E+03  0.76857403215E+03  0.12193681810E+04  0.25500000920E-02 0.  1.
       -2    1    3    3    0  502 -0.23656707863E+03 -0.91661809678E+03 -0.10266978660E+04  0.13965175352E+04  0.25500000920E-02 0. -1.
</event>
<event>
 5   0  0.6173140E-06  0.2590818E+04  0.7818609E-02  0.8371327E-01
        2   -1    0    0  501    0  0.00000000000E+00  0.00000000000E+00  0.21978288275E+04  0.21978288275E+04  0.25500000920E-02 0.  1.
       -2   -1    0    0    0  501  0.00000000000E+00  0.00000000000E+00 -0.76351939038E+03  0.76351939039E+03  0.25500000920E-02 0. -1.
    10030    2    1    2    0    0  0.00000000000E+00  0.00000000000E+00  0.14343094371E+04  0.29613482178E+04  0.25908183468E+04 0.  0.
        3    1    3    3  502    0  0.52027203499E+03 -0.68484624967E+03  0.18243994705E+04  0.20169607865E+04  0.10100000352E+00 0.  1.
       -3    1    3    3    0  502 -0.52027203499E+03  0.68484624967E+03 -0.39009003345E+03  0.94438743134E+03  0.10100000352E+00 0. -1.
</event>
<event>
 5   0  0.5942229E-06  0.2558622E+04  0.7818609E-02  0.8382394E-01
        2   -1    0    0  501    0  0.00000000000E+00  0.00000000000E+00  0.25472627110E+04  0.25472627110E+04  0.25500000920E-02 0.  1.
       -2   -1    0    0    0  501  0.00000000000E+00  0.00000000000E+00 -0.64250822077E+03  0.64250822077E+03  0.25500000920E-02 0. -1.
    10030    2    1    2    0    0  0.00000000000E+00  0.00000000000E+00  0.19047544902E+04  0.31897709318E+04  0.25586224671E+04 0.  0.
        4    1    3    3  502    0 -0.10723471919E+04  0.67931158118E+03  0.75430534494E+03  0.14766079001E+04  0.12699999809E+01 0. -1.
       -4    1    3    3    0  502  0.10723471919E+04 -0.67931158118E+03  0.11504491453E+04  0.17131630317E+04  0.12699999809E+01 0.  1.
</event>
<event>
 5   0  0.5940748E-06  0.2606736E+04  0.7818609E-02  0.8365917E-01
       -2   -1    0    0    0  501  0.00000000000E+00  0.00000000000E+00  0.78097384975E+03  0.78097384975E+03  0.25500000920E-02 0.  1.
        2   -1    0    0  501    0  0.00000000000E+00  0.00000000000E+00 -0.21751920972E+04  0.21751920972E+04  0.25500000920E-02 0. -1.
    10030    2    1    2    0    0  0.00000000000E+00  0.00000000000E+00 -0.13942182475E+04  0.29561659470E+04  0.26067360021E+04 0.  0.
        1    1    3    3  502    0 -0.86397362503E+03 -0.96892697089E+03 -0.82886513409E+03  0.15402231365E+04  0.50400001928E-02 0.  1.
       -1    1    3    3    0  502  0.86397362503E+03  0.96892697089E+03 -0.56535311337E+03  0.14159428105E+04  0.50400001928E-02 0. -1.
</event>
<event>
 5   0  0.6173140E-06  0.2600861E+04  0.7818609E-02  0.8367909E-01
        2   -1    0    0  501    0  0.00000000000E+00  0.00000000000E+00  0.10149544788E+04  0.10149544788E+04  0.25500000920E-02 0. -1.
       -2   -1    0    0    0  501  0.00000000000E+00  0.00000000000E+00 -0.16662018920E+04  0.16662018920E+04  0.25500000920E-02 0.  1.
    10030    2    1    2    0    0  0.00000000000E+00  0.00000000000E+00 -0.65124741328E+03  0.26811563708E+04  0.26008606828E+04 0.  0.
        3    1    3    3  502    0  0.11245449013E+04 -0.13177393116E+03  0.33377511632E+03  0.11804115564E+04  0.10100000352E+00 0. -1.
       -3    1    3    3    0  502 -0.11245449013E+04  0.13177393116E+03 -0.98502252960E+03  0.15007448144E+04  0.10100000352E+00 0.  1.
</event>
<event>
 5   0  0.2456600E-06  0.2689945E+04  0.7818609E-02  0.8338275E-01
        1   -1    0    0  501    0  0.00000000000E+00  0.00000000000E+00  0.17197691283E+04  0.17197691283E+04  0.50400001928E-02 0.  1.
       -1   -1    0    0    0  501  0.00000000000E+00  0.00000000000E+00 -0.10518568634E+04  0.10518568635E+04  0.50400001928E-02 0. -1.
    10030    2    1    2    0    0  0.00000000000E+00  0.00000000000E+00  0.66791226487E+03  0.27716259918E+04  0.26899449520E+04 0.  0.
        5    1    3    3  502    0 -0.12858824622E+04 -0.34468863590E+03  0.53114369070E+03  0.14333316687E+04  0.46999998093E+01 0. -1.
       -5    1    3    3    0  502  0.12858824622E+04  0.34468863590E+03  0.13676857417E+03  0.13382943231E+04  0.46999998093E+01 0.  1.
</event>
<event>
 5   0  0.2471488E-06  0.2585805E+04  0.7818609E-02  0.8373039E-01
        1   -1    0    0  501    0  0.00000000000E+00  0.00000000000E+00  0.17797236131E+04  0.17797236132E+04  0.50400001928E-02 0. -1.
       -1   -1    0    0    0  501  0.00000000000E+00  0.00000000000E+00 -0.93924494088E+03  0.93924494089E+03  0.50400001928E-02 0.  1.
    10030    2    1    2    0    0  0.00000000000E+00  0.00000000000E+00  0.84047867227E+03  0.27189685541E+04  0.25858046329E+04 0.  0.
        4    1    3    3  502    0  0.74508670885E+03  0.93371638451E+03 -0.99815804380E+02  0.11987265318E+04  0.12699999809E+01 0. -1.
       -4    1    3    3    0  502 -0.74508670885E+03 -0.93371638451E+03  0.94029447665E+03  0.15202420222E+04  0.12699999809E+01 0.  1.
</event>
<event>
 5   0  0.2456600E-06  0.2599750E+04  0.7818609E-02  0.8368286E-01
       -1   -1    0    0    0  501  0.00000000000E+00  0.00000000000E+00  0.10570333931E+04  0.10570333931E+04  0.50400001928E-02 0. -1.
        1   -1    0    0  501    0  0.00000000000E+00  0.00000000000E+00 -0.15985062378E+04  0.15985062378E+04  0.50400001928E-02 0.  1.
    10030    2    1    2    0    0  0.00000000000E+00  0.00000000000E+00 -0.54147284470E+03  0.26555396309E+04  0.25997495821E+04 0.  0.
        5    1    3    3  502    0  0.68702468401E+03  0.10772738615E+04 -0.51488559529E+03  0.13775525962E+04  0.46999998093E+01 0.  1.
       -5    1    3    3    0  502 -0.68702468401E+03 -0.10772738615E+04 -0.26587249405E+02  0.12779870347E+04  0.46999998093E+01 0. -1.
</event>
<event>
 5   0  0.2440590E-06  0.2596595E+04  0.7818609E-02  0.8369359E-01
       -1   -1    0    0    0  501  0.00000000000E+00  0.00000000000E+00  0.11606642802E+04  0.11606642802E+04  0.50400001928E-02 0. -1.
        1   -1    0    0  501    0  0.00000000000E+00  0.00000000000E+00 -0.14522512577E+04  0.14522512577E+04  0.50400001928E-02 0.  1.
    10030    2    1    2    0    0  0.00000000000E+00  0.00000000000E+00 -0.29158697749E+03  0.26129155379E+04  0.25965948168E+04 0.  0.
        1    1    3    3  502    0  0.11102742051E+04 -0.67293906944E+03 -0.15033393163E+03  0.13069644573E+04  0.50400001928E-02 0.  1.
       -1    1    3    3    0  502 -0.11102742051E+04  0.67293906944E+03 -0.14125304586E+03  0.13059510805E+04  0.50400001928E-02 0. -1.
</event>
<event>
 5   0  0.5942229E-06  0.2606744E+04  0.7818609E-02  0.8365914E-01
        2   -1    0    0  501    0  0.00000000000E+00  0.00000000000E+00  0.14186394414E+04  0.14186394414E+04  0.25500000920E-02 0.  1.
       -2   -1    0    0    0  501  0.00000000000E+00  0.00000000000E+00 -0.11974707124E+04  0.11974707124E+04  0.25500000920E-02 0. -1.
    10030    2    1    2    0    0  0.00000000000E+00  0.00000000000E+00  0.22116872895E+03  0.26161101538E+04  0.26067444697E+04 0.  0.
        4    1    3    3  502    0  0.11038097733E+04 -0.58060033172E+03  0.49047417067E+03  0.13401713643E+04  0.12699999809E+01 0.  1.
       -4    1    3    3    0  502 -0.11038097733E+04  0.58060033172E+03 -0.26930544172E+03  0.12759387895E+04  0.12699999809E+01 0. -1.
</event>
<event>
 5   0  0.5940748E-06  0.2552201E+04  0.7818609E-02  0.8384621E-01
        2   -1    0    0  501    0  0.00000000000E+00  0.00000000000E+00  0.16475069802E+04  0.16475069802E+04  0.25500000920E-02 0.  1.
       -2   -1    0    0    0  501  0.00000000000E+00  0.00000000000E+00 -0.98842225798E+03  0.98842225798E+03  0.25500000920E-02 0. -1.
    10030    2    1    2    0    0  0.00000000000E+00  0.00000000000E+00  0.65908472221E+03  0.26359292382E+04  0.25522010653E+04 0.  0.
        1    1    3    3  502    0 -0.72640362058E+03 -0.18085410984E+03 -0.73783287400E+03  0.10510793400E+04  0.50400001928E-02 0. -1.
       -1    1    3    3    0  502  0.72640362058E+03  0.18085410984E+03  0.13969175962E+04  0.15848498982E+04  0.50400001928E-02 0.  1.
</event>
<event>
 5   0  0.6158063E-06  0.2608417E+04  0.7818609E-02  0.8365348E-01
       -2   -1    0    0    0  501  0.00000000000E+00  0.00000000000E+00  0.82392493339E+03  0.82392493339E+03  0.25500000920E-02 0.  1.
        2   -1    0    0  501    0  0.00000000000E+00  0.00000000000E+00 -0.20644596537E+04  0.20644596537E+04  0.25500000920E-02 0. -1.
    10030    2    1    2    0    0  0.00000000000E+00  0.00000000000E+00 -0.12405347203E+04  0.28883845871E+04  0.26084169779E+04 0.  0.
        2    1    3    3  502    0 -0.51229161062E+02  0.42461130755E+01 -0.20633374348E+04  0.20639776710E+04  0.25500000920E-02 0. -1.
       -2    1    3    3    0  502  0.51229161062E+02 -0.42461130755E+01  0.82280271447E+03  0.82440691614E+03  0.25500000920E-02 0.  1.
</event>
<event>
 5   0  0.2333979E-06  0.2606831E+04  0.7818609E-02  0.8365885E-01
        1   -1    0    0  501    0  0.00000000000E+00  0.00000000000E+00  0.10741557474E+04  0.10741557474E+04  0.50400001928E-02 0. -1.
       -1   -1    0    0    0  501  0.00000000000E+00  0.00000000000E+00 -0.15816068010E+04  0.15816068010E+04  0.50400001928E-02 0.  1.
    10030    2    1    2    0    0  0.00000000000E+00  0.00000000000E+00 -0.50745105363E+03  0.26557625484E+04  0.26068310535E+04 0.  0.
        3    1    3    3  502    0  0.27361865595E+03  0.35078840841E+03 -0.15018638043E+04  0.15663698711E+04  0.10100000352E+00 0.  1.
       -3    1    3    3    0  502 -0.27361865595E+03 -0.35078840841E+03  0.99441275068E+03  0.10893926773E+04  0.10100000352E+00 0. -1.
</event>
<event>
 5   0  0.6173140E-06  0.2599680E+04  0.7818609E-02  0.8368310E-01
        2   -1    0    0  501    0  0.00000000000E+00  0.00000000000E+00  0.17595389116E+04  0.17595389116E+04  0.25500000920E-02 0.  1.
       -2   -1    0    0    0  501  0.00000000000E+00  0.00000000000E+00 -0.96024219940E+03  0.96024219940E+03  0.25500000920E-02 0. -1.
    10030    2    1    2    0    0  0.00000000000E+00  0.00000000000E+00  0.79929671217E+03  0.27197811110E+04  0.25996796067E+04 0.  0.
        3    1    3    3  502    0 -0.26854793720E+03  0.11636725933E+04  0.93651400792E+03  0.15176661017E+04  0.10100000352E+00 0.  1.
       -3    1    3    3    0  502  0.26854793720E+03 -0.11636725933E+04 -0.13721729576E+03  0.12021150093E+04  0.10100000352E+00 0. -1.
</event>
<event>
 5   0  0.6161834E-06  0.2534333E+04  0.7818609E-02  0.8390855E-01
       -2   -1    0    0    0  501  0.00000000000E+00  0.00000000000E+00  0.65280116896E+03  0.65280116897E+03  0.25500000920E-02 0. -1.
        2   -1    0    0  501    0  0.00000000000E+00  0.00000000000E+00 -0.24597237862E+04  0.24597237862E+04  0.25500000920E-02 0.  1.
    10030    2    1    2    0    0  0.00000000000E+00  0.00000000000E+00 -0.18069226172E+04  0.31125249551E+04  0.25343327035E+04 0.  0.
        5    1    3    3  502    0  0.31107862880E+03  0.73270511179E+03  0.30740486733E+03  0.85331502775E+03  0.46999998093E+01 0. -1.
       -5    1    3    3    0  502 -0.31107862880E+03 -0.73270511179E+03 -0.21143274845E+04  0.22592099274E+04  0.46999998093E+01 0.  1.
</event>
<event>
 5   0  0.5940748E-06  0.2498250E+04  0.7818609E-02  0.8403609E-01
        2   -1    0    0  501    0  0.00000000000E+00  0.00000000000E+00  0.14766608671E+04  0.14766608671E+04  0.25500000920E-02 0. -1.
       -2   -1    0    0    0  501  0.00000000000E+00  0.00000000000E+00 -0.10566494873E+04  0.10566494873E+04  0.25500000920E-02 0.  1.
    10030    2    1    2    0    0  0.00000000000E+00  0.00000000000E+00  0.42001137972E+03  0.25333103544E+04  0.24982497458E+04 0.  0.
        1    1    3    3  502    0  0.41066370558E+01 -0.61814765800E+03 -0.89067191659E+03  0.10841678166E+04  0.50400001928E-02 0.  1.
       -1    1    3    3    0  502 -0.41066370558E+01  0.61814765800E+03  0.13106832963E+04  0.14491425378E+04  0.50400001928E-02 0. -1.
</event>
<event>
 5   0  0.2333979E-06  0.2589154E+04  0.7818609E-02  0.8371895E-01
       -1   -1    0    0    0  501  0.00000000000E+00  0.00000000000E+00  0.16885661631E+04  0.16885661631E+04  0.50400001928E-02 0.  1.
        1   -1    0    0  501    0  0.00000000000E+00  0.00000000000E+00 -0.99251602161E+03  0.99251602162E+03  0.50400001928E-02 0. -1.
    10030    2    1    2    0    0  0.00000000000E+00  0.00000000000E+00  0.69605014151E+03  0.26810821847E+04  0.25891535068E+04 0.  0.
        3    1    3    3  502    0  0.95753880522E+02 -0.12479505659E+04  0.69049336667E+03  0.14294511255E+04  0.10100000352E+00 0.  1.
       -3    1    3    3    0  502 -0.95753880522E+02  0.12479505659E+04  0.55567748373E+01  0.12516310593E+04  0.10100000352E+00 0. -1.
</event>
<event>
 5   0  0.2471488E-06  0.2643723E+04  0.7818609E-02  0.8353499E-01
       -1   -1    0    0    0  501  0.00000000000E+00  0.00000000000E+00  0.10974754976E+04  0.10974754976E+04  0.50400001928E-02 0.  1.
        1   -1    0    0  501    0  0.00000000000E+00  0.00000000000E+00 -0.15921246334E+04  0.15921246334E+04  0.50400001928E-02 0. -1.
    10030    2    1    2    0    0  0.00000000000E+00  0.00000000000E+00 -0.49464913576E+03  0.26896001310E+04  0.26437229615E+04 0.  0.
        4    1    3    3  502    0  0.26044558648E+02 -0.97277813357E+03  0.66281748986E+03  0.11774142236E+04  0.12699999809E+01 0.  1.
       -4    1    3    3    0  502 -0.26044558648E+02  0.97277813357E+03 -0.11574666256E+04  0.15121859074E+04  0.12699999809E+01 0. -1.
</event>
<event>
 5   0  0.2333979E-06  0.2594980E+04  0.7818609E-02  0.8369908E-01
       -1   -1    0    0    0  501  0.00000000000E+00  0.00000000000E+00  0.11097554464E+04  0.11097554464E+04  0.50400001928E-02 0. -1.
        1   -1    0    0  501    0  0.00000000000E+00  0.00000000000E+00 -0.15169834324E+04  0.15169834324E+04  0.50400001928E-02 0.  1.
    10030    2    1    2    0    0  0.00000000000E+00  0.00000000000E+00 -0.40722798598E+03  0.26267388788E+04  0.25949802513E+04 0.  0.
        3    1    3    3  502    0  0.56792236378E+03  0.11022796252E+04  0.18306168162E+03  0.12534224239E+04  0.10100000352E+00 0. -1.
       -3    1    3    3    0  502 -0.56792236378E+03 -0.11022796252E+04 -0.59028966760E+03  0.13733164549E+04  0.10100000352E+00 0.  1.
</event>
<event>
 5   0  0.5942229E-06  0.2605926E+04  0.7818609E-02  0.8366191E-01
        2   -1    0    0  501    0  0.00000000000E+00  0.00000000000E+00  0.14189304260E+04  0.14189304260E+04  0.25500000920E-02 0.  1.
       -2   -1    0    0    0  501  0.00000000000E+00  0.00000000000E+00 -0.11964735457E+04  0.11964735457E+04  0.25500000920E-02 0. -1.
    10030    2    1    2    0    0  0.00000000000E+00  0.00000000000E+00  0.22245688039E+03  0.26154039717E+04  0.26059261063E+04 0.  0.
        4    1    3    3  502    0  0.50884965708E+03 -0.60615809644E+03  0.11500560475E+04  0.13960609359E+04  0.12699999809E+01 0.  1.
       -4    1    3    3    0  502 -0.50884965708E+03  0.60615809644E+03 -0.92759916709E+03  0.12193430358E+04  0.12699999809E+01 0. -1.
</event>
<event>
 5   0  0.6161834E-06  0.2608099E+04  0.7818609E-02  0.8365455E-01
        2   -1    0    0  501    0  0.00000000000E+00  0.00000000000E+00  0.25467113397E+04  0.25467113397E+04  0.25500000920E-02 0.  1.
       -2   -1    0    0    0  501  0.00000000000E+00  0.00000000000E+00 -0.66774182159E+03  0.66774182159E+03  0.25500000920E-02 0. -1.
    10030    2    1    2    0    0  0.00000000000E+00  0.00000000000E+00  0.18789695181E+04  0.32144531613E+04  0.26080994376E+04 0.  0.
        5    1    3    3  502    0 -0.89659726747E+03 -0.92479744596E+02 -0.22199081503E+03  0.92830015359E+03  0.46999998093E+01 0. -1.
       -5    1    3    3    0  502  0.89659726747E+03  0.92479744596E+02  0.21009603331E+04  0.22861530077E+04  0.46999998093E+01 0.  1.
</event>
<event>
 5   0  0.6158063E-06  0.2605765E+04  0.7818609E-02  0.8366245E-01
       -2   -1    0    0    0  501  0.00000000000E+00  0.00000000000E+00  0.12340110994E+04  0.12340110994E+04  0.25500000920E-02 0.  1.
        2   -1    0    0  501    0  0.00000000000E+00  0.00000000000E+00 -0.13755980159E+04  0.13755980159E+04  0.25500000920E-02 0. -1.
    10030    2    1    2    0    0  0.00000000000E+00  0.00000000000E+00 -0.14158691659E+03  0.26096091153E+04  0.26057653155E+04 0.  0.
        2    1    3    3  502    0  0.42610574842E+02 -0.24350231983E+03 -0.13518966838E+04  0.13743120768E+04  0.25500000920E-02 0. -1.
       -2    1    3    3    0  502 -0.42610574842E+02  0.24350231983E+03  0.12103097672E+04  0.12352970385E+04  0.25500000920E-02 0.  1.
</event>
<event>
 5   0  0.6173140E-06  0.2610594E+04  0.7818609E-02  0.8364611E-01
        2   -1    0    0  501    0  0.00000000000E+00  0.00000000000E+00  0.12780959079E+04  0.12780959079E+04  0.25500000920E-02 0. -1.
       -2   -1    0    0    0  501  0.00000000000E+00  0.00000000000E+00 -0.13330773764E+04  0.13330773764E+04  0.25500000920E-02 0.  1.
    10030    2    1    2    0    0  0.00000000000E+00  0.00000000000E+00 -0.54981468481E+02  0.26111732843E+04  0.26105943689E+04 0.  0.
        3    1    3    3  502    0  0.49405277194E+03  0.99348648319E+03 -0.71517297631E+03  0.13200666385E+04  0.10100000352E+00 0.  1.
       -3    1    3    3    0  502 -0.49405277194E+03 -0.99348648319E+03  0.66019150783E+03  0.12911066459E+04  0.10100000352E+00 0. -1.
</event>
<event>
 5   0  0.6158063E-06  0.2599384E+04  0.7818609E-02  0.8368410E-01
       -2   -1    0    0    0  501  0.00000000000E+00  0.00000000000E+00  0.12824649284E+04  0.12824649284E+04  0.25500000920E-02 0.  1.
        2   -1    0    0  501    0  0.00000000000E+00  0.00000000000E+00 -0.13171504047E+04  0.13171504047E+04  0.25500000920E-02 0. -1.
    10030    2    1    2    0    0  0.00000000000E+00  0.00000000000E+00 -0.34685476291E+02  0.25996153332E+04  0.25993839266E+04 0.  0.
        2    1    3    3  502    0  0.58086699835E+03  0.17421098540E+03  0.11323000551E+04  0.12844685095E+04  0.25500000920E-02 0.  1.
       -2    1    3    3    0  502 -0.58086699835E+03 -0.17421098540E+03 -0.11669855314E+04  0.13151468236E+04  0.25500000920E-02 0. -1.
</event>
<event>
 5   0  0.6173140E-06  0.2562503E+04  0.7818609E-02  0.8381051E-01
       -2   -1    0    0    0  501  0.00000000000E+00  0.00000000000E+00  0.78411614943E+03  0.78411614943E+03  0.25500000920E-02 0. -1.
        2   -1    0    0  501    0  0.00000000000E+00  0.00000000000E+00 -0.20935746586E+04  0.20935746586E+04  0.25500000920E-02 0.  1.
    10030    2    1    2    0    0  0.00000000000E+00  0.00000000000E+00 -0.13094585092E+04  0.28776908080E+04  0.25625032291E+04 0.  0.
        3    1    3    3  502    0  0.52031412080E+03 -0.40144325316E+03  0.58042880651E+03  0.87680161920E+03  0.10100000352E+00 0. -1.
       -3    1    3    3    0  502 -0.52031412080E+03  0.40144325316E+03 -0.18898873157E+04  0.20008891888E+04  0.10100000352E+00 0.  1.
</event>
<event>
 5   0  0.6173140E-06  0.2591183E+04  0.7818609E-02  0.8371202E-01
        2   -1    0    0  501    0  0.00000000000E+00  0.00000000000E+00  0.16757223512E+04  0.16757223512E+04  0.25500000920E-02 0.  1.
       -2   -1    0    0    0  501  0.00000000000E+00  0.00000000000E+00 -0.10016917376E+04  0.10016917376E+04  0.25500000920E-02 0. -1.
    10030    2    1    2    0    0  0.00000000000E+00  0.00000000000E+00  0.67403061366E+03  0.26774140888E+04  0.25911829219E+04 0.  0.
        3    1    3    3  502    0 -0.10733649248E+04 -0.64390326588E+03  0.68255943650E+03  0.14256966971E+04  0.10100000352E+00 0. -1.
       -3    1    3    3    0  502  0.10733649248E+04  0.64390326588E+03 -0.85288228448E+01  0.12517173917E+04  0.10100000352E+00 0.  1.
</event>
<event>
 5   0  0.5942229E-06  0.2566452E+04  0.7818609E-02  0.8379687E-01
        2   -1    0    0  501    0  0.00000000000E+00  0.00000000000E+00  0.24153080262E+04  0.24153080262E+04  0.25500000920E-02 0. -1.
       -2   -1    0    0    0  501  0.00000000000E+00  0.00000000000E+00 -0.68176342618E+03  0.68176342619E+03  0.25500000920E-02 0.  1.
    10030    2    1    2    0    0  0.00000000000E+00  0.00000000000E+00  0.17335446001E+04  0.30970714524E+04  0.25664517726E+04 0.  0.
        4    1    3    3  502    0 -0.25832376234E+03  0.11867227734E+04  0.13667013066E+04  0.18283643459E+04  0.12699999809E+01 0. -1.
       -4    1    3    3    0  502  0.25832376234E+03 -0.11867227734E+04  0.36684329351E+03  0.12687071065E+04  0.12699999809E+01 0.  1.
</event>
<event>
 5   0  0.2333979E-06  0.2599062E+04  0.7818609E-02  0.8368520E-01
        1   -1    0    0  501    0  0.00000000000E+00  0.00000000000E+00  0.54720541230E+03  0.54720541233E+03  0.50400001928E-02 0. -1.
       -1   -1    0    0    0  501  0.00000000000E+00  0.00000000000E+00 -0.30861926279E+04  0.30861926279E+04  0.50400001928E-02 0.  1.
    10030    2    1    2    0    0  0.00000000000E+00  0.00000000000E+00 -0.25389872156E+04  0.36333980402E+04  0.25990623767E+04 0.  0.
        3    1    3    3  502    0 -0.56346204677E+03  0.24182673764E+03  0.33226654727E+03  0.69740283755E+03  0.10100000352E+00 0. -1.
       -3    1    3    3    0  502  0.56346204677E+03 -0.24182673764E+03 -0.28712537628E+04  0.29359952027E+04  0.10100000352E+00 0.  1.
</event>
<event>
 5   0  0.2503292E-06  0.2596056E+04  0.7818609E-02  0.8369542E-01
       -1   -1    0    0    0  501  0.00000000000E+00  0.00000000000E+00  0.89886797514E+03  0.89886797516E+03  0.50400001928E-02 0.  1.
        1   -1    0    0  501    0  0.00000000000E+00  0.00000000000E+00 -0.18744427993E+04  0.18744427994E+04  0.50400001928E-02 0. -1.
    10030    2    1    2    0    0  0.00000000000E+00  0.00000000000E+00 -0.97557482420E+03  0.27733107745E+04  0.25960559344E+04 0.  0.
        2    1    3    3  502    0  0.39722885613E+03  0.73448476238E+03 -0.15494315985E+04  0.17601127545E+04  0.25500000920E-02 0. -1.
       -2    1    3    3    0  502 -0.39722885613E+03 -0.73448476238E+03  0.57385677427E+03  0.10131980200E+04  0.25500000920E-02 0.  1.
</event>
<event>
 5   0  0.2503292E-06  0.2595571E+04  0.7818609E-02  0.8369707E-01
        1   -1    0    0  501    0  0.00000000000E+00  0.00000000000E+00  0.14120702393E+04  0.14120702393E+04  0.50400001928E-02 0. -1.
       -1   -1    0    0    0  501  0.00000000000E+00  0.00000000000E+00 -0.11927507288E+04  0.11927507288E+04  0.50400001928E-02 0.  1.
    10030    2    1    2    0    0  0.00000000000E+00  0.00000000000E+00  0.21931951054E+03  0.26048209681E+04  0.25955714646E+04 0.  0.
        2    1    3    3  502    0  0.88229277204E+03  0.40394888723E+03  0.97449202023E+03  0.13752272309E+04  0.25500000920E-02 0. -1.
       -2    1    3    3    0  502 -0.88229277204E+03 -0.40394888723E+03 -0.75517250969E+03  0.12295937372E+04  0.25500000920E-02 0.  1.
</event>
<event>
 5   0  0.2333979E-06  0.2652572E+04  0.7818609E-02  0.8350560E-01
        1   -1    0    0  501    0  0.00000000000E+00  0.00000000000E+00  0.15792597255E+04  0.15792597255E+04  0.50400001928E-02 0.  1.
       -1   -1    0    0    0  501  0.00000000000E+00  0.00000000000E+00 -0.11138350476E+04  0.11138350476E+04  0.50400001928E-02 0. -1.
    10030    2    1    2    0    0  0.00000000000E+00  0.00000000000E+00  0.46542467791E+03  0.26930947732E+04  0.26525722095E+04 0.  0.
        3    1    3    3  502    0  0.98118763139E+03 -0.76929859684E+03  0.69182100651E+03  0.14258912351E+04  0.10100000352E+00 0.  1.
       -3    1    3    3    0  502 -0.98118763139E+03  0.76929859684E+03 -0.22639632860E+03  0.12672035381E+04  0.10100000352E+00 0. -1.
</event>
<event>
 5   0  0.5940748E-06  0.2576835E+04  0.7818609E-02  0.8376113E-01
       -2   -1    0    0    0  501  0.00000000000E+00  0.00000000000E+00  0.12960417787E+04  0.12960417787E+04  0.25500000920E-02 0.  1.
        2   -1    0    0  501    0  0.00000000000E+00  0.00000000000E+00 -0.12808382520E+04  0.12808382520E+04  0.25500000920E-02 0. -1.
    10030    2    1    2    0    0  0.00000000000E+00  0.00000000000E+00  0.15203526691E+02  0.25768800308E+04  0.25768351802E+04 0.  0.
        1    1    3    3  502    0 -0.39307036638E+03  0.18283676124E+03  0.12209185138E+04  0.12955985534E+04  0.50400001928E-02 0.  1.
       -1    1    3    3    0  502  0.39307036638E+03 -0.18283676124E+03 -0.12057149871E+04  0.12812814774E+04  0.50400001928E-02 0. -1.
</event>
<event>
 5   0  0.2333979E-06  0.2625322E+04  0.7818609E-02  0.8359650E-01
        1   -1    0    0  501    0  0.00000000000E+00  0.00000000000E+00  0.21141503907E+04  0.21141503907E+04  0.50400001928E-02 0.  1.
       -1   -1    0    0    0  501  0.00000000000E+00  0.00000000000E+00 -0.81502208115E+03  0.81502208117E+03  0.50400001928E-02 0. -1.
    10030    2    1    2    0    0  0.00000000000E+00  0.00000000000E+00  0.12991283096E+04  0.29291724719E+04  0.26253222670E+04 0.  0.
        3    1    3    3  502    0 -0.45100069561E+03 -0.91668826372E+03  0.15691925770E+04  0.18724540993E+04  0.10100000352E+00 0.  1.
       -3    1    3    3    0  502  0.45100069561E+03  0.91668826372E+03 -0.27006426736E+03  0.10567183726E+04  0.10100000352E+00 0. -1.
</event>
<event>
 5   0  0.6173140E-06  0.2584894E+04  0.7818609E-02  0.8373351E-01
       -2   -1    0    0    0  501  0.00000000000E+00  0.00000000000E+00  0.13191741669E+04  0.13191741669E+04  0.25500000920E-02 0. -1.
        2   -1    0    0  501    0  0.00000000000E+00  0.00000000000E+00 -0.12662612311E+04  0.12662612311E+04  0.25500000920E-02 0.  1.
    10030    2    1    2    0    0  0.00000000000E+00  0.00000000000E+00  0.52912935810E+02  0.25854353980E+04  0.25848938892E+04 0.  0.
        3    1    3    3  502    0 -0.47901651196E+03 -0.89034100030E+03  0.83176809266E+03  0.13091990245E+04  0.10100000352E+00 0. -1.
       -3    1    3    3    0  502  0.47901651196E+03  0.89034100030E+03 -0.77885515685E+03  0.12762363735E+04  0.10100000352E+00 0.  1.
</event>
<event>
 5   0  0.2440590E-06  0.2576047E+04  0.7818609E-02  0.8376383E-01
       -1   -1    0    0    0  501  0.00000000000E+00  0.00000000000E+00  0.10202535651E+04  0.10202535651E+04  0.50400001928E-02 0.  1.
        1   -1    0    0  501    0  0.00000000000E+00  0.00000000000E+00 -0.16260708644E+04  0.16260708644E+04  0.50400001928E-02 0. -1.
    10030    2    1    2    0    0  0.00000000000E+00  0.00000000000E+00 -0.60581729931E+03  0.26463244295E+04  0.25760470465E+04 0.  0.
        1    1    3    3  502    0 -0.99335342259E+03 -0.55383616788E+03  0.31816673608E+03  0.11809807767E+04  0.50400001928E-02 0.  1.
       -1    1    3    3    0  502  0.99335342259E+03  0.55383616788E+03 -0.92398403539E+03  0.14653436528E+04  0.50400001928E-02 0. -1.
</event>
<event>
 5   0  0.5942229E-06  0.2597148E+04  0.7818609E-02  0.8369170E-01
       -2   -1    0    0    0  501  0.00000000000E+00  0.00000000000E+00  0.94866060190E+03  0.94866060190E+03  0.25500000920E-02 0. -1.
        2   -1    0    0  501    0  0.00000000000E+00  0.00000000000E+00 -0.17775535723E+04  0.17775535723E+04  0.25500000920E-02 0.  1.
    10030    2    1    2    0    0  0.00000000000E+00  0.00000000000E+00 -0.82889297038E+03  0.27262141742E+04  0.25971484685E+04 0.  0.
        4    1    3    3  502    0  0.73758190936E+03  0.44439531549E+03  0.60585459549E+03  0.10528892027E+04  0.12699999809E+01 0. -1.
       -4    1    3    3    0  502 -0.73758190936E+03 -0.44439531549E+03 -0.14347475659E+04  0.16733249715E+04  0.12699999809E+01 0.  1.
</event>
<event>
 5   0  0.5942229E-06  0.2596639E+04  0.7818609E-02  0.8369344E-01
       -2   -1    0    0    0  501  0.00000000000E+00  0.00000000000E+00  0.13534596693E+04  0.13534596693E+04  0.25500000920E-02 0. -1.
        2   -1    0    0  501    0  0.00000000000E+00  0.00000000000E+00 -0.12454255139E+04  0.12454255139E+04  0.25500000920E-02 0.  1.
    10030    2    1    2    0    0  0.00000000000E+00  0.00000000000E+00  0.10803415540E+03  0.25988851833E+04  0.25966387537E+04 0.  0.
        4    1    3    3  502    0 -0.50264024945E+03 -0.35999623832E+03  0.11966645531E+04  0.13469417870E+04  0.12699999809E+01 0. -1.
       -4    1    3    3    0  502  0.50264024945E+03  0.35999623832E+03 -0.10886303977E+04  0.12519433963E+04  0.12699999809E+01 0.  1.
</event>
<event>
 5   0  0.2456600E-06  0.2575269E+04  0.7818609E-02  0.8376651E-01
        1   -1    0    0  501    0  0.00000000000E+00  0.00000000000E+00  0.18392532389E+04  0.18392532390E+04  0.50400001928E-02 0. -1.
       -1   -1    0    0    0  501  0.00000000000E+00  0.00000000000E+00 -0.90145426639E+03  0.90145426640E+03  0.50400001928E-02 0.  1.
    10030    2    1    2    0    0  0.00000000000E+00  0.00000000000E+00  0.93779897256E+03  0.27407075054E+04  0.25752690572E+04 0.  0.
        5    1    3    3  502    0  0.14346319443E+03  0.61732232457E+03 -0.72395877285E+03  0.96218861735E+03  0.46999998093E+01 0.  1.
       -5    1    3    3    0  502 -0.14346319443E+03 -0.61732232457E+03  0.16617577454E+04  0.17785188880E+04  0.46999998093E+01 0. -1.
</event>
<event>
 5   0  0.2333979E-06  0.2603183E+04  0.7818609E-02  0.8367121E-01
       -1   -1    0    0    0  501  0.00000000000E+00  0.00000000000E+00  0.13870432193E+04  0.13870432193E+04  0.50400001928E-02 0. -1.
        1   -1    0    0  501    0  0.00000000000E+00  0.00000000000E+00 -0.12214044717E+04  0.12214044717E+04  0.50400001928E-02 0.  1.
    10030    2    1    2    0    0  0.00000000000E+00  0.00000000000E+00  0.16563874762E+03  0.26084476910E+04  0.26031832748E+04 0.  0.
        3    1    3    3  502    0  0.30582619743E+03 -0.11057691593E+04  0.69878660119E+03  0.13433383121E+04  0.10100000352E+00 0. -1.
       -3    1    3    3    0  502 -0.30582619743E+03  0.11057691593E+04 -0.53314785357E+03  0.12651093789E+04  0.10100000352E+00 0.  1.
</event>
<event>
 5   0  0.2503292E-06  0.2601277E+04  0.7818609E-02  0.8367768E-01
       -1   -1    0    0    0  501  0.00000000000E+00  0.00000000000E+00  0.10150322958E+04  0.10150322958E+04  0.50400001928E-02 0.  1.
        1   -1    0    0  501    0  0.00000000000E+00  0.00000000000E+00 -0.16666075741E+04  0.16666075741E+04  0.50400001928E-02 0. -1.
    10030    2    1    2    0    0  0.00000000000E+00  0.00000000000E+00 -0.65157527830E+03  0.26816398699E+04  0.26012770034E+04 0.  0.
        2    1    3    3  502    0  0.12572380001E+04  0.29471619069E+03 -0.16556577545E+03  0.13018897987E+04  0.25500000920E-02 0.  1.
       -2    1    3    3    0  502 -0.12572380001E+04 -0.29471619069E+03 -0.48600950285E+03  0.13797500712E+04  0.25500000920E-02 0. -1.
</event>
<event>
 5   0  0.5942229E-06  0.2614333E+04  0.7818609E-02  0.8363349E-01
       -2   -1    0    0    0  501  0.00000000000E+00  0.00000000000E+00  0.85143745308E+03  0.85143745308E+03  0.25500000920E-02 0. -1.
        2   -1    0    0  501    0  0.00000000000E+00  0.00000000000E+00 -0.20068228079E+04  0.20068228079E+04  0.25500000920E-02 0.  1.
    10030    2    1    2    0    0  0.00000000000E+00  0.00000000000E+00 -0.11553853548E+04  0.28582602610E+04  0.26143328788E+04 0.  0.
        4    1    3    3  502    0 -0.76691920542E+03 -0.98821871523E+03 -0.99248760024E+03  0.15968013484E+04  0.12699999809E+01 0.  1.
       -4    1    3    3    0  502  0.76691920542E+03  0.98821871523E+03 -0.16289775459E+03  0.12614589126E+04  0.12699999809E+01 0. -1.
</event>
<event>
 5   0  0.2333979E-06  0.2617597E+04  0.7818609E-02  0.8362248E-01
       -1   -1    0    0    0  501  0.00000000000E+00  0.00000000000E+00  0.54804002033E+03  0.54804002036E+03  0.50400001928E-02 0. -1.
        1   -1    0    0  501    0  0.00000000000E+00  0.00000000000E+00 -0.31256002038E+04  0.31256002038E+04  0.50400001928E-02 0.  1.
    10030    2    1    2    0    0  0.00000000000E+00  0.00000000000E+00 -0.25775601835E+04  0.36736402242E+04  0.26175973711E+04 0.  0.
        3    1    3    3  502    0 -0.11740202060E+03  0.12957242116E+04 -0.10889708693E+04  0.16966266623E+04  0.10100000352E+00 0.  1.
       -3    1    3    3    0  502  0.11740202060E+03 -0.12957242116E+04 -0.14885893142E+04  0.19770135618E+04  0.10100000352E+00 0. -1.
</event>
<event>
 5   0  0.6158063E-06  0.2597367E+04  0.7818609E-02  0.8369096E-01
        2   -1    0    0  501    0  0.00000000000E+00  0.00000000000E+00  0.12392437918E+04  0.12392437918E+04  0.25500000920E-02 0.  1.
       -2   -1    0    0    0  501  0.00000000000E+00  0.00000000000E+00 -0.13609746264E+04  0.13609746264E+04  0.25500000920E-02 0. -1.
    10030    2    1    2    0    0  0.00000000000E+00  0.00000000000E+00 -0.12173083466E+03  0.26002184182E+04  0.25973674030E+04 0.  0.
        2    1    3    3  502    0 -0.79042920542E+03 -0.95549095186E+03 -0.44708425937E+03  0.13181902832E+04  0.25500000920E-02 0. -1.
       -2    1    3    3    0  502  0.79042920542E+03  0.95549095186E+03  0.32535342471E+03  0.12820281350E+04  0.25500000920E-02 0.  1.
</event>
<event>
 5   0  0.5942229E-06  0.2573192E+04  0.7818609E-02  0.8377365E-01
       -2   -1    0    0    0  501  0.00000000000E+00  0.00000000000E+00  0.10771367764E+04  0.10771367764E+04  0.25500000920E-02 0. -1.
        2   -1    0    0  501    0  0.00000000000E+00  0.00000000000E+00 -0.15367868594E+04  0.15367868594E+04  0.25500000920E-02 0.  1.
    10030    2    1    2    0    0  0.00000000000E+00  0.00000000000E+00 -0.45965008299E+03  0.26139236357E+04  0.25731922926E+04 0.  0.
        4    1    3    3  502    0 -0.41641638204E+03 -0.29258598045E+03  0.97053894641E+03  0.10958816627E+04  0.12699999809E+01 0. -1.
       -4    1    3    3    0  502  0.41641638204E+03  0.29258598045E+03 -0.14301890294E+04  0.15180419730E+04  0.12699999809E+01 0.  1.
</event>
<event>
 5   0  0.2456600E-06  0.2605507E+04  0.7818609E-02  0.8366333E-01
       -1   -1    0    0    0  501  0.00000000000E+00  0.00000000000E+00  0.90280708843E+03  0.90280708844E+03  0.50400001928E-02 0.  1.
        1   -1    0    0  501    0  0.00000000000E+00  0.00000000000E+00 -0.18798777753E+04  0.18798777753E+04  0.50400001928E-02 0. -1.
    10030    2    1    2    0    0  0.00000000000E+00  0.00000000000E+00 -0.97707068682E+03  0.27826848637E+04  0.26055072296E+04 0.  0.
        5    1    3    3  502    0  0.50795849092E+03 -0.40632184236E+03  0.71694691866E+03  0.96806727155E+03  0.46999998093E+01 0.  1.
       -5    1    3    3    0  502 -0.50795849092E+03  0.40632184236E+03 -0.16940176055E+04  0.18146175922E+04  0.46999998093E+01 0. -1.
</event>
<event>
 5   0  0.2503292E-06  0.2603968E+04  0.7818609E-02  0.8366855E-01
       -1   -1    0    0    0  501  0.00000000000E+00  0.00000000000E+00  0.13307233817E+04  0.13307233817E+04  0.50400001928E-02 0. -1.
        1   -1    0    0  501    0  0.00000000000E+00  0.00000000000E+00 -0.12738648641E+04  0.12738648641E+04  0.50400001928E-02 0.  1.
    10030    2    1    2    0    0  0.00000000000E+00  0.00000000000E+00  0.56858517559E+02  0.26045882458E+04  0.26039675572E+04 0.  0.
        2    1    3    3  502    0  0.17635116637E+03  0.65506534777E+03 -0.10831193091E+04  0.12780288657E+04  0.25500000920E-02 0.  1.
       -2    1    3    3    0  502 -0.17635116637E+03 -0.65506534777E+03  0.11399778266E+04  0.13265593801E+04  0.25500000920E-02 0. -1.
</event>
<event>
 5   0  0.6158063E-06  0.2580077E+04  0.7818609E-02  0.8375000E-01
       -2   -1    0    0    0  501  0.00000000000E+00  0.00000000000E+00  0.71994092310E+03  0.71994092311E+03  0.25500000920E-02 0. -1.
        2   -1    0    0  501    0  0.00000000000E+00  0.00000000000E+00 -0.23115780789E+04  0.23115780789E+04  0.25500000920E-02 0.  1.
    10030    2    1    2    0    0  0.00000000000E+00  0.00000000000E+00 -0.15916371558E+04  0.30315190020E+04  0.25800772515E+04 0.  0.
        2    1    3    3  502    0  0.60545731636E+03 -0.11277269260E+04 -0.98474107728E+03  0.16149494020E+04  0.25500000920E-02 0.  1.
       -2    1    3    3    0  502 -0.60545731636E+03  0.11277269260E+04 -0.60689607854E+03  0.14165696001E+04  0.25500000920E-02 0. -1.
</event>
<event>
 5   0  0.6173140E-06  0.2590656E+04  0.7818609E-02  0.8371382E-01
       -2   -1    0    0    0  501  0.00000000000E+00  0.00000000000E+00  0.91898344904E+03  0.91898344904E+03  0.25500000920E-02 0. -1.
        2   -1    0    0  501    0  0.00000000000E+00  0.00000000000E+00 -0.18257945025E+04  0.18257945025E+04  0.25500000920E-02 0.  1.
    10030    2    1    2    0    0  0.00000000000E+00  0.00000000000E+00 -0.90681105345E+03  0.27447779515E+04  0.25906562328E+04 0.  0.
        3    1    3    3  502    0  0.39810286350E+03  0.12138972458E+04 -0.22655927815E+03  0.12974442300E+04  0.10100000352E+00 0. -1.
       -3    1    3    3    0  502 -0.39810286350E+03 -0.12138972458E+04 -0.68025177530E+03  0.14473337215E+04  0.10100000352E+00 0.  1.
</event>
<event>
 5   0  0.6161834E-06  0.2550468E+04  0.7818609E-02  0.8385223E-01
       -2   -1    0    0    0  501  0.00000000000E+00  0.00000000000E+00  0.83675304179E+03  0.83675304180E+03  0.25500000920E-02 0.  1.
        2   -1    0    0  501    0  0.00000000000E+00  0.00000000000E+00 -0.19434908234E+04  0.19434908234E+04  0.25500000920E-02 0. -1.
    10030    2    1    2    0    0  0.00000000000E+00  0.00000000000E+00 -0.11067377816E+04  0.27802438652E+04  0.25504680811E+04 0.  0.
        5    1    3    3  502    0  0.10224819066E+04  0.75992699534E+03 -0.49130561239E+03  0.13654162671E+04  0.46999998093E+01 0. -1.
       -5    1    3    3    0  502 -0.10224819066E+04 -0.75992699534E+03 -0.61543216924E+03  0.14148275982E+04  0.46999998093E+01 0.  1.
</event>
<event>
 5   0  0.2503292E-06  0.2597938E+04  0.7818609E-02  0.8368902E-01
        1   -1    0    0  501    0  0.00000000000E+00  0.00000000000E+00  0.89352392588E+03  0.89352392589E+03  0.50400001928E-02 0.  1.
       -1   -1    0    0    0  501  0.00000000000E+00  0.00000000000E+00 -0.18883884480E+04  0.18883884480E+04  0.50400001928E-02 0. -1.
    10030    2    1    2    0    0  0.00000000000E+00  0.00000000000E+00 -0.99486452208E+03  0.27819123739E+04  0.25979378435E+04 0.  0.
        2    1    3    3  502    0 -0.11663707728E+04  0.47203476148E+03 -0.15196739219E+03  0.12674114107E+04  0.25500000920E-02 0.  1.
       -2    1    3    3    0  502  0.11663707728E+04 -0.47203476148E+03 -0.84289712989E+03  0.15145009631E+04  0.25500000920E-02 0. -1.
</event>
<event>
 5   0  0.6158063E-06  0.2596604E+04  0.7818609E-02  0.8369356E-01
       -2   -1    0    0    0  501  0.00000000000E+00  0.00000000000E+00  0.89143303645E+03  0.89143303645E+03  0.25500000920E-02 0.  1.
        2   -1    0    0  501    0  0.00000000000E+00  0.00000000000E+00 -0.18908748291E+04  0.18908748291E+04  0.25500000920E-02 0. -1.
    10030    2    1    2    0    0  0.00000000000E+00  0.00000000000E+00 -0.99944179268E+03  0.27823078656E+04  0.25966041597E+04 0.  0.
        2    1    3    3  502    0 -0.19241039852E+03 -0.67591485735E+03  0.67000453306E+03  0.97097308416E+03  0.25500000920E-02 0.  1.
       -2    1    3    3    0  502  0.19241039852E+03  0.67591485735E+03 -0.16694463257E+04  0.18113347814E+04  0.25500000920E-02 0. -1.
</event>
<event>
 5   0  0.2503292E-06  0.2607785E+04  0.7818609E-02  0.8365562E-01
        1   -1    0    0  501    0  0.00000000000E+00  0.00000000000E+00  0.17926891135E+04  0.17926891135E+04  0.50400001928E-02 0.  1.
       -1   -1    0    0    0  501  0.00000000000E+00  0.00000000000E+00 -0.94837179873E+03  0.94837179874E+03  0.50400001928E-02 0. -1.
    10030    2    1    2    0    0  0.00000000000E+00  0.00000000000E+00  0.84431731474E+03  0.27410609122E+04  0.26077851132E+04 0.  0.
        2    1    3    3  502    0 -0.61988554257E+03  0.22318975741E+03  0.16048589999E+04  0.17348326038E+04  0.25500000920E-02 0.  1.
       -2    1    3    3    0  502  0.61988554257E+03 -0.22318975741E+03 -0.76054168517E+03  0.10062283084E+04  0.25500000920E-02 0. -1.
</event>
<event>
 5   0  0.6161834E-06  0.2614228E+04  0.7818609E-02  0.8363384E-01
        2   -1    0    0  501    0  0.00000000000E+00  0.00000000000E+00  0.22639319783E+04  0.22639319783E+04  0.25500000920E-02 0.  1.
       -2   -1    0    0    0  501  0.00000000000E+00  0.00000000000E+00 -0.75468125638E+03  0.75468125639E+03  0.25500000920E-02 0. -1.
    10030    2    1    2    0    0  0.00000000000E+00  0.00000000000E+00  0.15092507219E+04  0.30186132347E+04  0.26142280159E+04 0.  0.
        5    1    3    3  502    0  0.10924840637E+04 -0.51986483377E+03  0.13258673093E+04  0.17949170139E+04  0.46999998093E+01 0.  1.
       -5    1    3    3    0  502 -0.10924840637E+04  0.51986483377E+03  0.18338341264E+03  0.12236962208E+04  0.46999998093E+01 0. -1.
</event>
<event>
 5   0  0.2440590E-06  0.2591286E+04  0.7818609E-02  0.8371167E-01
        1   -1    0    0  501    0  0.00000000000E+00  0.00000000000E+00  0.19790457760E+04  0.19790457760E+04  0.50400001928E-02 0. -1.
       -1   -1    0    0    0  501  0.00000000000E+00  0.00000000000E+00 -0.84823244687E+03  0.84823244688E+03  0.50400001928E-02 0.  1.
    10030    2    1    2    0    0  0.00000000000E+00  0.00000000000E+00  0.11308133291E+04  0.28272782229E+04  0.25912860445E+04 0.  0.
        1    1    3    3  502    0 -0.78800208251E+03  0.45956291518E+03  0.15692786646E+04  0.18151531291E+04  0.50400001928E-02 0. -1.
       -1    1    3    3    0  502  0.78800208251E+03 -0.45956291518E+03 -0.43846533543E+03  0.10121250938E+04  0.50400001928E-02 0.  1.
</event>
<event>
 5   0  0.2503292E-06  0.2608481E+04  0.7818609E-02  0.8365326E-01
       -1   -1    0    0    0  501  0.00000000000E+00  0.00000000000E+00  0.11284104381E+04  0.11284104381E+04  0.50400001928E-02 0.  1.
        1   -1    0    0  501    0  0.00000000000E+00  0.00000000000E+00 -0.15074686044E+04  0.15074686044E+04  0.50400001928E-02 0. -1.
    10030    2    1    2    0    0  0.00000000000E+00  0.00000000000E+00 -0.37905816637E+03  0.26358790425E+04  0.26084810203E+04 0.  0.
        2    1    3    3  502    0  0.19222967311E+02  0.40072002518E+03  0.10645122998E+04  0.11375994451E+04  0.25500000920E-02 0.  1.
       -2    1    3    3    0  502 -0.19222967311E+02 -0.40072002518E+03 -0.14435704662E+04  0.14982795974E+04  0.25500000920E-02 0. -1.
</event>
<event>
 5   0  0.2440590E-06  0.2585718E+04  0.7818609E-02  0.8373069E-01
       -1   -1    0    0    0  501  0.00000000000E+00  0.00000000000E+00  0.12435835469E+04  0.12435835470E+04  0.50400001928E-02 0. -1.
        1   -1    0    0  501    0  0.00000000000E+00  0.00000000000E+00 -0.13440872957E+04  0.13440872957E+04  0.50400001928E-02 0.  1.
    10030    2    1    2    0    0  0.00000000000E+00  0.00000000000E+00 -0.10050374875E+03  0.25876708427E+04  0.25857183502E+04 0.  0.
        1    1    3    3  502    0 -0.20775927340E+03  0.48988270327E+03 -0.12294182503E+04  0.13396336114E+04  0.50400001928E-02 0.  1.
       -1    1    3    3    0  502  0.20775927340E+03 -0.48988270327E+03  0.11289145016E+04  0.12480372312E+04  0.50400001928E-02 0. -1.
</event>
<event>
 5   0  0.6161834E-06  0.2599272E+04  0.7818609E-02  0.8368449E-01
       -2   -1    0    0    0  501  0.00000000000E+00  0.00000000000E+00  0.57883972373E+03  0.57883972374E+03  0.25500000920E-02 0. -1.
        2   -1    0    0  501    0  0.00000000000E+00  0.00000000000E+00 -0.29179980950E+04  0.29179980950E+04  0.25500000920E-02 0.  1.
    10030    2    1    2    0    0  0.00000000000E+00  0.00000000000E+00 -0.23391583713E+04  0.34968378188E+04  0.25992715989E+04 0.  0.
        5    1    3    3  502    0  0.62511297250E+03  0.13386305530E+03  0.35267589232E+03  0.73012870166E+03  0.46999998093E+01 0. -1.
       -5    1    3    3    0  502 -0.62511297250E+03 -0.13386305530E+03 -0.26918342636E+04  0.27667091171E+04  0.46999998093E+01 0.  1.
</event>
<event>
 5   0  0.2456600E-06  0.2626194E+04  0.7818609E-02  0.8359358E-01
        1   -1    0    0  501    0  0.00000000000E+00  0.00000000000E+00  0.21596478433E+04  0.21596478433E+04  0.50400001928E-02 0. -1.
       -1   -1    0    0    0  501  0.00000000000E+00  0.00000000000E+00 -0.79838193433E+03  0.79838193435E+03  0.50400001928E-02 0.  1.
    10030    2    1    2    0    0  0.00000000000E+00  0.00000000000E+00  0.13612659090E+04  0.29580297777E+04  0.26261940695E+04 0.  0.
        5    1    3    3  502    0 -0.58021609667E+03  0.45711818696E+03  0.19034397231E+04  0.20417425463E+04  0.46999998093E+01 0. -1.
       -5    1    3    3    0  502  0.58021609667E+03 -0.45711818696E+03 -0.54217381414E+03  0.91628723140E+03  0.46999998093E+01 0.  1.
</event>
<event>
 5   0  0.2333979E-06  0.2600515E+04  0.7818609E-02  0.8368026E-01
       -1   -1    0    0    0  501  0.00000000000E+00  0.00000000000E+00  0.82869297174E+03  0.82869297176E+03  0.50400001928E-02 0.  1.
        1   -1    0    0  501    0  0.00000000000E+00  0.00000000000E+00 -0.20401635323E+04  0.20401635323E+04  0.50400001928E-02 0. -1.
    10030    2    1    2    0    0  0.00000000000E+00  0.00000000000E+00 -0.12114705605E+04  0.28688565040E+04  0.26005147032E+04 0.  0.
        3    1    3    3  502    0  0.11357972063E+04  0.46713166915E+03 -0.13455405607E+03  0.12354562292E+04  0.10100000352E+00 0. -1.
       -3    1    3    3    0  502 -0.11357972063E+04 -0.46713166915E+03 -0.10769165045E+04  0.16334002748E+04  0.10100000352E+00 0.  1.
</event>
<event>
 5   0  0.5940748E-06  0.2599843E+04  0.7818609E-02  0.8368254E-01
        2   -1    0    0  501    0  0.00000000000E+00  0.00000000000E+00  0.14489107042E+04  0.14489107042E+04  0.25500000920E-02 0. -1.
       -2   -1    0    0    0  501  0.00000000000E+00  0.00000000000E+00 -0.11662529209E+04  0.11662529209E+04  0.25500000920E-02 0.  1.
    10030    2    1    2    0    0  0.00000000000E+00  0.00000000000E+00  0.28265778331E+03  0.26151636251E+04  0.25998433344E+04 0.  0.
        1    1    3    3  502    0 -0.52306780355E+03  0.90158036634E+03 -0.64000395053E+03  0.12231321028E+04  0.50400001928E-02 0.  1.
       -1    1    3    3    0  502  0.52306780355E+03 -0.90158036634E+03  0.92266173384E+03  0.13920315223E+04  0.50400001928E-02 0. -1.
</event>
<event>
 5   0  0.2333979E-06  0.2607417E+04  0.7818609E-02  0.8365686E-01
        1   -1    0    0  501    0  0.00000000000E+00  0.00000000000E+00  0.13059509062E+04  0.13059509062E+04  0.50400001928E-02 0. -1.
       -1   -1    0    0    0  501  0.00000000000E+00  0.00000000000E+00 -0.13014700916E+04  0.13014700916E+04  0.50400001928E-02 0.  1.
    10030    2    1    2    0    0  0.00000000000E+00  0.00000000000E+00  0.44808146116E+01  0.26074209979E+04  0.26074171477E+04 0.  0.
        3    1    3    3  502    0 -0.39286485204E+03  0.75926379815E+03 -0.98205354746E+03  0.13020190043E+04  0.10100000352E+00 0.  1.
       -3    1    3    3    0  502  0.39286485204E+03 -0.75926379815E+03  0.98653436207E+03  0.13054019936E+04  0.10100000352E+00 0. -1.
</event>
<event>
 5   0  0.6173140E-06  0.2598314E+04  0.7818609E-02  0.8368774E-01
       -2   -1    0    0    0  501  0.00000000000E+00  0.00000000000E+00  0.67494373983E+03  0.67494373983E+03  0.25500000920E-02 0.  1.
        2   -1    0    0  501    0  0.00000000000E+00  0.00000000000E+00 -0.25006669276E+04  0.25006669276E+04  0.25500000920E-02 0. -1.
    10030    2    1    2    0    0  0.00000000000E+00  0.00000000000E+00 -0.18257231878E+04  0.31756106675E+04  0.25983144446E+04 0.  0.
        3    1    3    3  502    0  0.72729332282E+03 -0.87131564658E+03 -0.16855110201E+04  0.20320172102E+04  0.10100000352E+00 0. -1.
       -3    1    3    3    0  502 -0.72729332282E+03  0.87131564658E+03 -0.14021216771E+03  0.11435934573E+04  0.10100000352E+00 0.  1.
</event>
<event>
 5   0  0.2440590E-06  0.2603906E+04  0.7818609E-02  0.8366876E-01
       -1   -1    0    0    0  501  0.00000000000E+00  0.00000000000E+00  0.70243704784E+03  0.70243704785E+03  0.50400001928E-02 0.  1.
        1   -1    0    0  501    0  0.00000000000E+00  0.00000000000E+00 -0.24131442328E+04  0.24131442328E+04  0.50400001928E-02 0. -1.
    10030    2    1    2    0    0  0.00000000000E+00  0.00000000000E+00 -0.17107071850E+04  0.31155812807E+04  0.26039062279E+04 0.  0.
        1    1    3    3  502    0  0.85187556324E+03 -0.44116949356E+02  0.32151122642E+03  0.91159626436E+03  0.50400001928E-02 0. -1.
       -1    1    3    3    0  502 -0.85187556324E+03  0.44116949356E+02 -0.20322184114E+04  0.22039850163E+04  0.50400001928E-02 0.  1.
</event>
<event>
 5   0  0.2440590E-06  0.2590551E+04  0.7818609E-02  0.8371418E-01
        1   -1    0    0  501    0  0.00000000000E+00  0.00000000000E+00  0.18681407841E+04  0.18681407841E+04  0.50400001928E-02 0.  1.
       -1   -1    0    0    0  501  0.00000000000E+00  0.00000000000E+00 -0.89807903507E+03  0.89807903509E+03  0.50400001928E-02 0. -1.
    10030    2    1    2    0    0  0.00000000000E+00  0.00000000000E+00  0.97006174905E+03  0.27662198192E+04  0.25905505769E+04 0.  0.
        1    1    3    3  502    0 -0.26782142236E+02 -0.76076930580E+03 -0.63400855062E+03  0.99068363369E+03  0.50400001928E-02 0. -1.
       -1    1    3    3    0  502  0.26782142236E+02  0.76076930580E+03  0.16040702997E+04  0.17755361855E+04  0.50400001928E-02 0.  1.
</event>
<event>
 5   0  0.5940748E-06  0.2600419E+04  0.7818609E-02  0.8368059E-01
       -2   -1    0    0    0  501  0.00000000000E+00  0.00000000000E+00  0.15369721665E+04  0.15369721665E+04  0.25500000920E-02 0.  1.
        2   -1    0    0  501    0  0.00000000000E+00  0.00000000000E+00 -0.10999187589E+04  0.10999187589E+04  0.25500000920E-02 0. -1.
    10030    2    1    2    0    0  0.00000000000E+00  0.00000000000E+00  0.43705340769E+03  0.26368909254E+04  0.26004188261E+04 0.  0.
        1    1    3    3  502    0  0.98078521580E+02 -0.10492612230E+04  0.99076952197E+03  0.14464414113E+04  0.50400001928E-02 0.  1.
       -1    1    3    3    0  502 -0.98078521580E+02  0.10492612230E+04 -0.55371611428E+03  0.11904495141E+04  0.50400001928E-02 0. -1.
</event>
<event>
 5   0  0.2440590E-06  0.2601030E+04  0.7818609E-02  0.8367852E-01
        1   -1    0    0  501    0  0.00000000000E+00  0.00000000000E+00  0.12539549989E+04  0.12539549989E+04  0.50400001928E-02 0. -1.
       -1   -1    0    0    0  501  0.00000000000E+00  0.00000000000E+00 -0.13488033358E+04  0.13488033358E+04  0.50400001928E-02 0.  1.
    10030    2    1    2    0    0  0.00000000000E+00  0.00000000000E+00 -0.94848336936E+02  0.26027583347E+04  0.26010295542E+04 0.  0.
        1    1    3    3  502    0 -0.10055712145E+03  0.12886788600E+04  0.95967083552E+02  0.12961537795E+04  0.50400001928E-02 0. -1.
       -1    1    3    3    0  502  0.10055712145E+03 -0.12886788600E+04 -0.19081542049E+03  0.13066045552E+04  0.50400001928E-02 0.  1.
</event>
<event>
 5   0  0.2440590E-06  0.2600369E+04  0.7818609E-02  0.8368076E-01
       -1   -1    0    0    0  501  0.00000000000E+00  0.00000000000E+00  0.60973609800E+03  0.60973609802E+03  0.50400001928E-02 0. -1.
        1   -1    0    0  501    0  0.00000000000E+00  0.00000000000E+00 -0.27724777662E+04  0.27724777662E+04  0.50400001928E-02 0.  1.
    10030    2    1    2    0    0  0.00000000000E+00  0.00000000000E+00 -0.21627416682E+04  0.33822138642E+04  0.26003690315E+04 0.  0.
        1    1    3    3  502    0 -0.12352873769E+04  0.37886922685E+03 -0.89287292256E+03  0.15705727778E+04  0.50400001928E-02 0. -1.
       -1    1    3    3    0  502  0.12352873769E+04 -0.37886922685E+03 -0.12698687456E+04  0.18116410864E+04  0.50400001928E-02 0.  1.
</event>
<event>
 5   0  0.6173140E-06  0.2593508E+04  0.7818609E-02  0.8370410E-01
        2   -1    0    0  501    0  0.00000000000E+00  0.00000000000E+00  0.10160468934E+04  0.10160468934E+04  0.25500000920E-02 0. -1.
       -2   -1    0    0    0  501  0.00000000000E+00  0.00000000000E+00 -0.16550126445E+04  0.16550126445E+04  0.25500000920E-02 0.  1.
    10030    2    1    2    0    0  0.00000000000E+00  0.00000000000E+00 -0.63896575108E+03  0.26710595380E+04  0.25935076295E+04 0.  0.
        3    1    3    3  502    0  0.76212384672E+03 -0.95449530495E+03  0.12905868414E+03  0.12282305154E+04  0.10100000352E+00 0.  1.
       -3    1    3    3    0  502 -0.76212384672E+03  0.95449530495E+03 -0.76802443522E+03  0.14428290225E+04  0.10100000352E+00 0. -1.
</event>
<event>
 5   0  0.6161834E-06  0.2605065E+04  0.7818609E-02  0.8366483E-01
        2   -1    0    0  501    0  0.00000000000E+00  0.00000000000E+00  0.14038727051E+04  0.14038727051E+04  0.25500000920E-02 0.  1.
       -2   -1    0    0    0  501  0.00000000000E+00  0.00000000000E+00 -0.12085079787E+04  0.12085079787E+04  0.25500000920E-02 0. -1.
    10030    2    1    2    0    0  0.00000000000E+00  0.00000000000E+00  0.19536472645E+03  0.26123806838E+04  0.26050653468E+04 0.  0.
        5    1    3    3  502    0 -0.22273890779E+03 -0.12538744972E+04 -0.17649975381E+03  0.12856858593E+04  0.46999998093E+01 0. -1.
       -5    1    3    3    0  502  0.22273890779E+03  0.12538744972E+04  0.37186448026E+03  0.13266948245E+04  0.46999998093E+01 0.  1.
</event>
<event>
 5   0  0.6158063E-06  0.2599710E+04  0.7818609E-02  0.8368300E-01
       -2   -1    0    0    0  501  0.00000000000E+00  0.00000000000E+00  0.10326028435E+04  0.10326028435E+04  0.25500000920E-02 0.  1.
        2   -1    0    0  501    0  0.00000000000E+00  0.00000000000E+00 -0.16362757126E+04  0.16362757126E+04  0.25500000920E-02 0. -1.
    10030    2    1    2    0    0  0.00000000000E+00  0.00000000000E+00 -0.60367286915E+03  0.26688785561E+04  0.25997099481E+04 0.  0.
        2    1    3    3  502    0  0.93172859797E+03  0.89189928764E+03 -0.46743675917E+03  0.13718963676E+04  0.25500000920E-02 0.  1.
       -2    1    3    3    0  502 -0.93172859797E+03 -0.89189928764E+03 -0.13623610997E+03  0.12969821885E+04  0.25500000920E-02 0. -1.
</event>
<event>
 5   0  0.6158063E-06  0.2602645E+04  0.7818609E-02  0.8367303E-01
        2   -1    0    0  501    0  0.00000000000E+00  0.00000000000E+00  0.11560063362E+04  0.11560063362E+04  0.25500000920E-02 0. -1.
       -2   -1    0    0    0  501  0.00000000000E+00  0.00000000000E+00 -0.14649057823E+04  0.14649057823E+04  0.25500000920E-02 0.  1.
    10030    2    1    2    0    0  0.00000000000E+00  0.00000000000E+00 -0.30889944614E+03  0.26209121185E+04  0.26026450901E+04 0.  0.
        2    1    3    3  502    0 -0.85698198023E+03  0.22697633131E+03  0.80486648598E+03  0.11973915106E+04  0.25500000920E-02 0. -1.
       -2    1    3    3    0  502  0.85698198023E+03 -0.22697633131E+03 -0.11137659321E+04  0.14235206078E+04  0.25500000920E-02 0.  1.
</event>
<event>
 5   0  0.6173140E-06  0.2600781E+04  0.7818609E-02  0.8367936E-01
        2   -1    0    0  501    0  0.00000000000E+00  0.00000000000E+00  0.11948484406E+04  0.11948484406E+04  0.25500000920E-02 0.  1.
       -2   -1    0    0    0  501  0.00000000000E+00  0.00000000000E+00 -0.14152554323E+04  0.14152554323E+04  0.25500000920E-02 0. -1.
    10030    2    1    2    0    0  0.00000000000E+00  0.00000000000E+00 -0.22040699165E+03  0.26101038729E+04  0.26007812260E+04 0.  0.
        3    1    3    3  502    0 -0.40053984490E+03 -0.12363401848E+04 -0.64802899101E+02  0.13012181393E+04  0.10100000352E+00 0. -1.
       -3    1    3    3    0  502  0.40053984490E+03  0.12363401848E+04 -0.15560409255E+03  0.13088857337E+04  0.10100000352E+00 0.  1.
</event>
<event>
 5   0  0.2503292E-06  0.2608484E+04  0.7818609E-02  0.8365325E-01
       -1   -1    0    0    0  501  0.00000000000E+00  0.00000000000E+00  0.76594174928E+03  0.76594174929E+03  0.50400001928E-02 0.  1.
        1   -1    0    0  501    0  0.00000000000E+00  0.00000000000E+00 -0.22208564283E+04  0.22208564283E+04  0.50400001928E-02 0. -1.
    10030    2    1    2    0    0  0.00000000000E+00  0.00000000000E+00 -0.14549146791E+04  0.29867981776E+04  0.26084835883E+04 0.  0.
        2    1    3    3  502    0 -0.83815223151E+03 -0.59445854357E+03  0.19225854012E+03  0.10453915388E+04  0.25500000920E-02 0.  1.
       -2    1    3    3    0  502  0.83815223151E+03  0.59445854357E+03 -0.16471732192E+04  0.19414066388E+04  0.25500000920E-02 0. -1.
</event>
<event>
 5   0  0.5940748E-06  0.2569110E+04  0.7818609E-02  0.8378770E-01
       -2   -1    0    0    0  501  0.00000000000E+00  0.00000000000E+00  0.84402112540E+03  0.84402112540E+03  0.25500000920E-02 0. -1.
        2   -1    0    0  501    0  0.00000000000E+00  0.00000000000E+00 -0.19550232840E+04  0.19550232840E+04  0.25500000920E-02 0.  1.
    10030    2    1    2    0    0  0.00000000000E+00  0.00000000000E+00 -0.11110021586E+04  0.27990444094E+04  0.25691095363E+04 0.  0.
        1    1    3    3  502    0  0.83112492295E+03  0.64702623650E+02  0.50927301280E+03  0.97688999823E+03  0.50400001928E-02 0. -1.
       -1    1    3    3    0  502 -0.83112492295E+03 -0.64702623650E+02 -0.16202751714E+04  0.18221544112E+04  0.50400001928E-02 0.  1.
</event>
<event>
 5   0  0.2333979E-06  0.2602729E+04  0.7818609E-02  0.8367275E-01
        1   -1    0    0  501    0  0.00000000000E+00  0.00000000000E+00  0.21829940680E+04  0.21829940680E+04  0.50400001928E-02 0.  1.
       -1   -1    0    0    0  501  0.00000000000E+00  0.00000000000E+00 -0.77579234984E+03  0.77579234985E+03  0.50400001928E-02 0. -1.
    10030    2    1    2    0    0  0.00000000000E+00  0.00000000000E+00  0.14072017181E+04  0.29587864178E+04  0.26027294118E+04 0.  0.
        3    1    3    3  502    0 -0.93703748325E+02  0.11935753286E+04  0.12834226508E+04  0.17551570209E+04  0.10100000352E+00 0.  1.
       -3    1    3    3    0  502  0.93703748325E+02 -0.11935753286E+04  0.12377906736E+03  0.12036293969E+04  0.10100000352E+00 0. -1.
</event>
<event>
 5   0  0.2333979E-06  0.2598309E+04  0.7818609E-02  0.8368776E-01
       -1   -1    0    0    0  501  0.00000000000E+00  0.00000000000E+00  0.10800446361E+04  0.10800446361E+04  0.50400001928E-02 0.  1.
        1   -1    0    0  501    0  0.00000000000E+00  0.00000000000E+00 -0.15627158504E+04  0.15627158504E+04  0.50400001928E-02 0. -1.
    10030    2    1    2    0    0  0.00000000000E+00  0.00000000000E+00 -0.48267121427E+03  0.26427604865E+04  0.25983093518E+04 0.  0.
        3    1    3    3  502    0 -0.21937851828E+03  0.23835629337E+03 -0.15209776574E+04  0.15550928272E+04  0.10100000352E+00 0. -1.
       -3    1    3    3    0  502  0.21937851828E+03 -0.23835629337E+03  0.10383064431E+04  0.10876676592E+04  0.10100000352E+00 0.  1.
</event>
<event>
 5   0  0.2471488E-06  0.2583540E+04  0.7818609E-02  0.8373814E-01
        1   -1    0    0  501    0  0.00000000000E+00  0.00000000000E+00  0.18278289103E+04  0.18278289103E+04  0.50400001928E-02 0. -1.
       -1   -1    0    0    0  501  0.00000000000E+00  0.00000000000E+00 -0.91292459591E+03  0.91292459592E+03  0.50400001928E-02 0.  1.
    10030    2    1    2    0    0  0.00000000000E+00  0.00000000000E+00  0.91490431439E+03  0.27407535062E+04  0.25835401830E+04 0.  0.
        4    1    3    3  502    0 -0.61272255554E+03  0.44824919628E+02  0.16629226582E+04  0.17727807488E+04  0.12699999809E+01 0. -1.
       -4    1    3    3    0  502  0.61272255554E+03 -0.44824919628E+02 -0.74801834379E+03  0.96797275738E+03  0.12699999809E+01 0.  1.
</event>
<event>
 5   0  0.5942229E-06  0.2590925E+04  0.7818609E-02  0.8371290E-01
        2   -1    0    0  501    0  0.00000000000E+00  0.00000000000E+00  0.16054472811E+04  0.16054472811E+04  0.25500000920E-02 0.  1.
       -2   -1    0    0    0  501  0.00000000000E+00  0.00000000000E+00 -0.10453303821E+04  0.10453303821E+04  0.25500000920E-02 0. -1.
    10030    2    1    2    0    0  0.00000000000E+00  0.00000000000E+00  0.56011689898E+03  0.26507776632E+04  0.25909247923E+04 0.  0.
        4    1    3    3  502    0 -0.12331971852E+04 -0.26797746917E+03  0.57945140234E+03  0.13886514185E+04  0.12699999809E+01 0.  1.
       -4    1    3    3    0  502  0.12331971852E+04  0.26797746917E+03 -0.19334503356E+02  0.12621262447E+04  0.12699999809E+01 0. -1.
</event>
<event>
 5   0  0.2333979E-06  0.2612167E+04  0.7818609E-02  0.8364080E-01
       -1   -1    0    0    0  501  0.00000000000E+00  0.00000000000E+00  0.91322760369E+03  0.91322760370E+03  0.50400001928E-02 0. -1.
        1   -1    0    0  501    0  0.00000000000E+00  0.00000000000E+00 -0.18679401999E+04  0.18679402000E+04  0.50400001928E-02 0.  1.
    10030    2    1    2    0    0  0.00000000000E+00  0.00000000000E+00 -0.95471259625E+03  0.27811678037E+04  0.26121673397E+04 0.  0.
        3    1    3    3  502    0  0.63874142695E+02  0.63858944798E+02 -0.18646111314E+04  0.18667974053E+04  0.10100000352E+00 0.  1.
       -3    1    3    3    0  502 -0.63874142695E+02 -0.63858944798E+02  0.90989853514E+03  0.91437039835E+03  0.10100000352E+00 0. -1.
</event>
<event>
 5   0  0.6161834E-06  0.2578935E+04  0.7818609E-02  0.8375392E-01
        2   -1    0    0  501    0  0.00000000000E+00  0.00000000000E+00  0.15483670320E+04  0.15483670320E+04  0.25500000920E-02 0.  1.
       -2   -1    0    0    0  501  0.00000000000E+00  0.00000000000E+00 -0.10738578305E+04  0.10738578305E+04  0.25500000920E-02 0. -1.
    10030    2    1    2    0    0  0.00000000000E+00  0.00000000000E+00  0.47450920149E+03  0.26222248625E+04  0.25789347118E+04 0.  0.
        5    1    3    3  502    0 -0.10191533805E+04  0.75116993137E+03  0.48584598978E+03  0.13560967128E+04  0.46999998093E+01 0.  1.
       -5    1    3    3    0  502  0.10191533805E+04 -0.75116993137E+03 -0.11336788292E+02  0.12661281497E+04  0.46999998093E+01 0. -1.
</event>
<event>
 5   0  0.2333979E-06  0.2586282E+04  0.7818609E-02  0.8372876E-01
        1   -1    0    0  501    0  0.00000000000E+00  0.00000000000E+00  0.18152458637E+04  0.18152458637E+04  0.50400001928E-02 0.  1.
       -1   -1    0    0    0  501  0.00000000000E+00  0.00000000000E+00 -0.92120473927E+03  0.92120473929E+03  0.50400001928E-02 0. -1.
    10030    2    1    2    0    0  0.00000000000E+00  0.00000000000E+00  0.89404112441E+03  0.27364506030E+04  0.25862815721E+04 0.  0.
        3    1    3    3  502    0 -0.47139080951E+03  0.70793317655E+03 -0.58361949859E+03  0.10314991067E+04  0.10100000352E+00 0. -1.
       -3    1    3    3    0  502  0.47139080951E+03 -0.70793317655E+03  0.14776606230E+04  0.17049514963E+04  0.10100000352E+00 0.  1.
</event>
<event>
 5   0  0.5940748E-06  0.2601151E+04  0.7818609E-02  0.8367810E-01
        2   -1    0    0  501    0  0.00000000000E+00  0.00000000000E+00  0.19564849351E+04  0.19564849351E+04  0.25500000920E-02 0. -1.
       -2   -1    0    0    0  501  0.00000000000E+00  0.00000000000E+00 -0.86455912748E+03  0.86455912748E+03  0.25500000920E-02 0.  1.
    10030    2    1    2    0    0  0.00000000000E+00  0.00000000000E+00  0.10919258077E+04  0.28210440626E+04  0.26011512132E+04 0.  0.
        1    1    3    3  502    0 -0.73467635766E+03  0.52501845552E+03  0.15610934538E+04  0.18034429574E+04  0.50400001928E-02 0. -1.
       -1    1    3    3    0  502  0.73467635766E+03 -0.52501845552E+03 -0.46916764612E+03  0.10176011052E+04  0.50400001928E-02 0.  1.
</event>
<event>
 5   0  0.2333979E-06  0.2594866E+04  0.7818609E-02  0.8369947E-01
        1   -1    0    0  501    0  0.00000000000E+00  0.00000000000E+00  0.12862168249E+04  0.12862168249E+04  0.50400001928E-02 0. -1.
       -1   -1    0    0    0  501  0.00000000000E+00  0.00000000000E+00 -0.13087473690E+04  0.13087473690E+04  0.50400001928E-02 0.  1.
    10030    2    1    2    0    0  0.00000000000E+00  0.00000000000E+00 -0.22530544058E+02  0.25949641939E+04  0.25948663823E+04 0.  0.
        3    1    3    3  502    0  0.92134283887E+03 -0.55012764398E+03  0.71802199496E+03  0.12911501256E+04  0.10100000352E+00 0. -1.
       -3    1    3    3    0  502 -0.92134283887E+03  0.55012764398E+03 -0.74055253902E+03  0.13038140683E+04  0.10100000352E+00 0.  1.
</event>
<event>
 5   0  0.6161834E-06  0.2642920E+04  0.7818609E-02  0.8353767E-01
        2   -1    0    0  501    0  0.00000000000E+00  0.00000000000E+00  0.21671152359E+04  0.21671152359E+04  0.25500000920E-02 0. -1.
       -2   -1    0    0    0  501  0.00000000000E+00  0.00000000000E+00 -0.80579757499E+03  0.80579757500E+03  0.25500000920E-02 0.  1.
    10030    2    1    2    0    0  0.00000000000E+00  0.00000000000E+00  0.13613176609E+04  0.29729128109E+04  0.26429197504E+04 0.  0.
        5    1    3    3  502    0 -0.10643668354E+04 -0.78224527282E+03  0.63783012356E+03  0.14668448397E+04  0.46999998093E+01 0.  1.
       -5    1    3    3    0  502  0.10643668354E+04  0.78224527282E+03  0.72348753731E+03  0.15060679712E+04  0.46999998093E+01 0. -1.
</event>
<event>
 5   0  0.6173140E-06  0.2603277E+04  0.7818609E-02  0.8367089E-01
       -2   -1    0    0    0  501  0.00000000000E+00  0.00000000000E+00  0.17479340604E+04  0.17479340604E+04  0.25500000920E-02 0.  1.
        2   -1    0    0  501    0  0.00000000000E+00  0.00000000000E+00 -0.96929451027E+03  0.96929451027E+03  0.25500000920E-02 0. -1.
    10030    2    1    2    0    0  0.00000000000E+00  0.00000000000E+00  0.77863955008E+03  0.27172285706E+04  0.26032770802E+04 0.  0.
        3    1    3    3  502    0 -0.93240626141E+02 -0.12066917890E+04  0.88931176731E+03  0.15018902482E+04  0.10100000352E+00 0. -1.
       -3    1    3    3    0  502  0.93240626141E+02  0.12066917890E+04 -0.11067221723E+03  0.12153383224E+04  0.10100000352E+00 0.  1.
</event>
<event>
 5   0  0.6173140E-06  0.2629557E+04  0.7818609E-02  0.8358230E-01
       -2   -1    0    0    0  501  0.00000000000E+00  0.00000000000E+00  0.12197162577E+04  0.12197162577E+04  0.25500000920E-02 0.  1.
        2   -1    0    0  501    0  0.00000000000E+00  0.00000000000E+00 -0.14172494429E+04  0.14172494429E+04  0.25500000920E-02 0. -1.
    10030    2    1    2    0    0  0.00000000000E+00  0.00000000000E+00 -0.19753318520E+03  0.26369657007E+04  0.26295567587E+04 0.  0.
        3    1    3    3  502    0  0.25479393081E+03 -0.14997770623E+03  0.11859475695E+04  0.12222458457E+04  0.10100000352E+00 0.  1.
       -3    1    3    3    0  502 -0.25479393081E+03  0.14997770623E+03 -0.13834807547E+04  0.14147198550E+04  0.10100000352E+00 0. -1.
</event>
<event>
 5   0  0.2440590E-06  0.2600712E+04  0.7818609E-02  0.8367959E-01
       -1   -1    0    0    0  501  0.00000000000E+00  0.00000000000E+00  0.15494610845E+04  0.15494610845E+04  0.50400001928E-02 0. -1.
        1   -1    0    0  501    0  0.00000000000E+00  0.00000000000E+00 -0.10912994548E+04  0.10912994548E+04  0.50400001928E-02 0.  1.
    10030    2    1    2    0    0  0.00000000000E+00  0.00000000000E+00  0.45816162969E+03  0.26407605393E+04  0.26007122384E+04 0.  0.
        1    1    3    3  502    0 -0.22638685809E+03  0.12339218721E+04 -0.11840503504E+03  0.12600928332E+04  0.50400001928E-02 0.  1.
       -1    1    3    3    0  502  0.22638685809E+03 -0.12339218721E+04  0.57656666472E+03  0.13806677061E+04  0.50400001928E-02 0. -1.
</event>
<event>
 5   0  0.2471488E-06  0.2605711E+04  0.7818609E-02  0.8366264E-01
        1   -1    0    0  501    0  0.00000000000E+00  0.00000000000E+00  0.22671627748E+04  0.22671627748E+04  0.50400001928E-02 0. -1.
       -1   -1    0    0    0  501  0.00000000000E+00  0.00000000000E+00 -0.74870311126E+03  0.74870311127E+03  0.50400001928E-02 0.  1.
    10030    2    1    2    0    0  0.00000000000E+00  0.00000000000E+00  0.15184596635E+04  0.30158658861E+04  0.26057105160E+04 0.  0.
        4    1    3    3  502    0 -0.35788655422E+03  0.98742947528E+03  0.16515071474E+04  0.19571860477E+04  0.12699999809E+01 0. -1.
       -4    1    3    3    0  502  0.35788655422E+03 -0.98742947528E+03 -0.13304748389E+03  0.10586798384E+04  0.12699999809E+01 0.  1.
</event>
<event>
 5   0  0.2440590E-06  0.2594088E+04  0.7818609E-02  0.8370212E-01
        1   -1    0    0  501    0  0.00000000000E+00  0.00000000000E+00  0.64629648845E+03  0.64629648847E+03  0.50400001928E-02 0.  1.
       -1   -1    0    0    0  501  0.00000000000E+00  0.00000000000E+00 -0.26030202942E+04  0.26030202942E+04  0.50400001928E-02 0. -1.
    10030    2    1    2    0    0  0.00000000000E+00  0.00000000000E+00 -0.19567238057E+04  0.32493167826E+04  0.25940877977E+04 0.  0.
        1    1    3    3  502    0 -0.98864239555E+03 -0.13379710542E+03 -0.20165788121E+04  0.22498678977E+04  0.50400001928E-02 0. -1.
       -1    1    3    3    0  502  0.98864239555E+03  0.13379710542E+03  0.59855006440E+02  0.99944888489E+03  0.50400001928E-02 0.  1.
</event>
<event>
 5   0  0.2456600E-06  0.2580545E+04  0.7818609E-02  0.8374840E-01
        1   -1    0    0  501    0  0.00000000000E+00  0.00000000000E+00  0.22716020150E+04  0.22716020150E+04  0.50400001928E-02 0. -1.
       -1   -1    0    0    0  501  0.00000000000E+00  0.00000000000E+00 -0.73287626799E+03  0.73287626801E+03  0.50400001928E-02 0.  1.
    10030    2    1    2    0    0  0.00000000000E+00  0.00000000000E+00  0.15387257470E+04  0.30044782830E+04  0.25805450642E+04 0.  0.
        5    1    3    3  502    0  0.69102959337E+03 -0.87874575567E+03  0.19268792359E+02  0.11180829032E+04  0.46999998093E+01 0.  1.
       -5    1    3    3    0  502 -0.69102959337E+03  0.87874575567E+03  0.15194569547E+04  0.18863953798E+04  0.46999998093E+01 0. -1.
</event>
<event>
 5   0  0.2333979E-06  0.2642435E+04  0.7818609E-02  0.8353928E-01
       -1   -1    0    0    0  501  0.00000000000E+00  0.00000000000E+00  0.11038588959E+04  0.11038588959E+04  0.50400001928E-02 0. -1.
        1   -1    0    0  501    0  0.00000000000E+00  0.00000000000E+00 -0.15813752268E+04  0.15813752268E+04  0.50400001928E-02 0.  1.
    10030    2    1    2    0    0  0.00000000000E+00  0.00000000000E+00 -0.47751633093E+03  0.26852341227E+04  0.26424345682E+04 0.  0.
        3    1    3    3  502    0  0.89200655456E+03  0.97315388458E+03 -0.29358503330E+03  0.13523669467E+04  0.10100000352E+00 0.  1.
       -3    1    3    3    0  502 -0.89200655456E+03 -0.97315388458E+03 -0.18393129763E+03  0.13328671760E+04  0.10100000352E+00 0. -1.
</event>
<event>
 5   0  0.2471488E-06  0.2599669E+04  0.7818609E-02  0.8368314E-01
        1   -1    0    0  501    0  0.00000000000E+00  0.00000000000E+00  0.16078584498E+04  0.16078584498E+04  0.50400001928E-02 0. -1.
       -1   -1    0    0    0  501  0.00000000000E+00  0.00000000000E+00 -0.10508200544E+04  0.10508200544E+04  0.50400001928E-02 0.  1.
    10030    2    1    2    0    0  0.00000000000E+00  0.00000000000E+00  0.55703839544E+03  0.26586785042E+04  0.25996691356E+04 0.  0.
        4    1    3    3  502    0 -0.49579326051E+03  0.75987257332E+03 -0.67338816980E+03  0.11298984578E+04  0.12699999809E+01 0.  1.
       -4    1    3    3    0  502  0.49579326051E+03 -0.75987257332E+03  0.12304265652E+04  0.15287800464E+04  0.12699999809E+01 0. -1.
</event>
<event>
 5   0  0.2503292E-06  0.2597848E+04  0.7818609E-02  0.8368933E-01
       -1   -1    0    0    0  501  0.00000000000E+00  0.00000000000E+00  0.95933056867E+03  0.95933056868E+03  0.50400001928E-02 0.  1.
        1   -1    0    0  501    0  0.00000000000E+00  0.00000000000E+00 -0.17587294845E+04  0.17587294845E+04  0.50400001928E-02 0. -1.
    10030    2    1    2    0    0  0.00000000000E+00  0.00000000000E+00 -0.79939891584E+03  0.27180600532E+04  0.25978475371E+04 0.  0.
        2    1    3    3  502    0 -0.47007933640E+02  0.61828843610E+03 -0.15938791973E+04  0.17102459564E+04  0.25500000920E-02 0. -1.
       -2    1    3    3    0  502  0.47007933640E+02 -0.61828843610E+03  0.79448028143E+03  0.10078140968E+04  0.25500000920E-02 0.  1.
</event>
<event>
 5   0  0.6158063E-06  0.2617516E+04  0.7818609E-02  0.8362276E-01
        2   -1    0    0  501    0  0.00000000000E+00  0.00000000000E+00  0.23916288466E+04  0.23916288466E+04  0.25500000920E-02 0.  1.
       -2   -1    0    0    0  501  0.00000000000E+00  0.00000000000E+00 -0.71618424756E+03  0.71618424757E+03  0.25500000920E-02 0. -1.
    10030    2    1    2    0    0  0.00000000000E+00  0.00000000000E+00  0.16754445990E+04  0.31078130942E+04  0.26175155441E+04 0.  0.
        2    1    3    3  502    0  0.11532316258E+03 -0.10679343217E+04  0.17254837708E+04  0.20325052006E+04  0.25500000920E-02 0.  1.
       -2    1    3    3    0  502 -0.11532316258E+03  0.10679343217E+04 -0.50039171769E+02  0.10753078935E+04  0.25500000920E-02 0. -1.
</event>
<event>
 5   0  0.2456600E-06  0.2509620E+04  0.7818609E-02  0.8399566E-01
        1   -1    0    0  501    0  0.00000000000E+00  0.00000000000E+00  0.94556215753E+03  0.94556215754E+03  0.50400001928E-02 0.  1.
       -1   -1    0    0    0  501  0.00000000000E+00  0.00000000000E+00 -0.16651980918E+04  0.16651980918E+04  0.50400001928E-02 0. -1.
    10030    2    1    2    0    0  0.00000000000E+00  0.00000000000E+00 -0.71963593427E+03  0.26107602493E+04  0.25096201310E+04 0.  0.
        5    1    3    3  502    0 -0.96935171141E+02 -0.53267360121E+03  0.81778646943E+03  0.98078254084E+03  0.46999998093E+01 0.  1.
       -5    1    3    3    0  502  0.96935171141E+02  0.53267360121E+03 -0.15374224037E+04  0.16299777085E+04  0.46999998093E+01 0. -1.
</event>
<event>
 5   0  0.2333979E-06  0.2598618E+04  0.7818609E-02  0.8368671E-01
       -1   -1    0    0    0  501  0.00000000000E+00  0.00000000000E+00  0.79624006712E+03  0.79624006714E+03  0.50400001928E-02 0. -1.
        1   -1    0    0  501    0  0.00000000000E+00  0.00000000000E+00 -0.21202196734E+04  0.21202196734E+04  0.50400001928E-02 0.  1.
    10030    2    1    2    0    0  0.00000000000E+00  0.00000000000E+00 -0.13239796063E+04  0.29164597406E+04  0.25986179828E+04 0.  0.
        3    1    3    3  502    0  0.10369702483E+04 -0.52871952677E+03 -0.13099751964E+04  0.17523945501E+04  0.10100000352E+00 0.  1.
       -3    1    3    3    0  502 -0.10369702483E+04  0.52871952677E+03 -0.14004409911E+02  0.11640651904E+04  0.10100000352E+00 0. -1.
</event>
<event>
 5   0  0.6158063E-06  0.2590436E+04  0.7818609E-02  0.8371457E-01
       -2   -1    0    0    0  501  0.00000000000E+00  0.00000000000E+00  0.16318153781E+04  0.16318153781E+04  0.25500000920E-02 0.  1.
        2   -1    0    0  501    0  0.00000000000E+00  0.00000000000E+00 -0.10280513380E+04  0.10280513381E+04  0.25500000920E-02 0. -1.
    10030    2    1    2    0    0  0.00000000000E+00  0.00000000000E+00  0.60376404007E+03  0.26598667162E+04  0.25904362435E+04 0.  0.
        2    1    3    3  502    0 -0.10776072248E+04  0.67619747396E+03  0.52240923567E+02  0.12732672417E+04  0.25500000920E-02 0. -1.
       -2    1    3    3    0  502  0.10776072248E+04 -0.67619747396E+03  0.55152311651E+03  0.13865994745E+04  0.25500000920E-02 0.  1.
</event>
<event>
 5   0  0.2503292E-06  0.2586247E+04  0.7818609E-02  0.8372888E-01
       -1   -1    0    0    0  501  0.00000000000E+00  0.00000000000E+00  0.16095106845E+04  0.16095106845E+04  0.50400001928E-02 0.  1.
        1   -1    0    0  501    0  0.00000000000E+00  0.00000000000E+00 -0.10389297582E+04  0.10389297582E+04  0.50400001928E-02 0. -1.
    10030    2    1    2    0    0  0.00000000000E+00  0.00000000000E+00  0.57058092635E+03  0.26484404427E+04  0.25862471237E+04 0.  0.
        2    1    3    3  502    0  0.42069055717E+03  0.12124849546E+04  0.12315348334E+03  0.12892893743E+04  0.25500000920E-02 0.  1.
       -2    1    3    3    0  502 -0.42069055717E+03 -0.12124849546E+04  0.44742744300E+03  0.13591510684E+04  0.25500000920E-02 0. -1.
</event>
<event>
 5   0  0.2456600E-06  0.2591385E+04  0.7818609E-02  0.8371133E-01
       -1   -1    0    0    0  501  0.00000000000E+00  0.00000000000E+00  0.11224548601E+04  0.11224548601E+04  0.50400001928E-02 0.  1.
        1   -1    0    0  501    0  0.00000000000E+00  0.00000000000E+00 -0.14956672629E+04  0.14956672629E+04  0.50400001928E-02 0. -1.
    10030    2    1    2    0    0  0.00000000000E+00  0.00000000000E+00 -0.37321240277E+03  0.26181221230E+04  0.25913849489E+04 0.  0.
        5    1    3    3  502    0 -0.53519430355E+03 -0.89638697240E+03  0.58867974721E+03  0.11985443178E+04  0.46999998093E+01 0.  1.
       -5    1    3    3    0  502  0.53519430355E+03  0.89638697240E+03 -0.96189214998E+03  0.14195778052E+04  0.46999998093E+01 0. -1.
</event>
<event>
 5   0  0.5940748E-06  0.2604824E+04  0.7818609E-02  0.8366564E-01
       -2   -1    0    0    0  501  0.00000000000E+00  0.00000000000E+00  0.13833398680E+04  0.13833398680E+04  0.25500000920E-02 0. -1.
        2   -1    0    0  501    0  0.00000000000E+00  0.00000000000E+00 -0.12262189440E+04  0.12262189440E+04  0.25500000920E-02 0.  1.
    10030    2    1    2    0    0  0.00000000000E+00  0.00000000000E+00  0.15712092394E+03  0.26095588120E+04  0.26048244103E+04 0.  0.
        1    1    3    3  502    0  0.50614648878E+03  0.11365086028E+04 -0.30742084589E+03  0.12815395620E+04  0.50400001928E-02 0.  1.
       -1    1    3    3    0  502 -0.50614648878E+03 -0.11365086028E+04  0.46454176983E+03  0.13280192500E+04  0.50400001928E-02 0. -1.
</event>
<event>
 5   0  0.6158063E-06  0.2610652E+04  0.7818609E-02  0.8364592E-01
       -2   -1    0    0    0  501  0.00000000000E+00  0.00000000000E+00  0.13430263021E+04  0.13430263021E+04  0.25500000920E-02 0.  1.
        2   -1    0    0  501    0  0.00000000000E+00  0.00000000000E+00 -0.12686843309E+04  0.12686843309E+04  0.25500000920E-02 0. -1.
    10030    2    1    2    0    0  0.00000000000E+00  0.00000000000E+00  0.74341971166E+02  0.26117106331E+04  0.26106523518E+04 0.  0.
        2    1    3    3  502    0  0.51507083150E+03 -0.67044354158E+02  0.12351886918E+04  0.13399567199E+04  0.25500000920E-02 0.  1.
       -2    1    3    3    0  502 -0.51507083150E+03  0.67044354158E+02 -0.11608467206E+04  0.12717539132E+04  0.25500000920E-02 0. -1.
</event>
<event>
 5   0  0.5942229E-06  0.2601844E+04  0.7818609E-02  0.8367575E-01
        2   -1    0    0  501    0  0.00000000000E+00  0.00000000000E+00  0.23512890860E+04  0.23512890860E+04  0.25500000920E-02 0.  1.
       -2   -1    0    0    0  501  0.00000000000E+00  0.00000000000E+00 -0.71977433924E+03  0.71977433925E+03  0.25500000920E-02 0. -1.
    10030    2    1    2    0    0  0.00000000000E+00  0.00000000000E+00  0.16315147468E+04  0.30710634253E+04  0.26018436143E+04 0.  0.
        4    1    3    3  502    0 -0.10403026983E+04 -0.61318451887E+03  0.13869388706E+04  0.18389741711E+04  0.12699999809E+01 0.  1.
       -4    1    3    3    0  502  0.10403026983E+04  0.61318451887E+03  0.24457587622E+03  0.12320892542E+04  0.12699999809E+01 0. -1.
</event>
<event>
 5   0  0.6161834E-06  0.2595133E+04  0.7818609E-02  0.8369856E-01
        2   -1    0    0  501    0  0.00000000000E+00  0.00000000000E+00  0.86743455491E+03  0.86743455491E+03  0.25500000920E-02 0.  1.
       -2   -1    0    0    0  501  0.00000000000E+00  0.00000000000E+00 -0.19409865199E+04  0.19409865199E+04  0.25500000920E-02 0. -1.
    10030    2    1    2    0    0  0.00000000000E+00  0.00000000000E+00 -0.10735519650E+04  0.28084210748E+04  0.25951329661E+04 0.  0.
        5    1    3    3  502    0 -0.47526683716E+03  0.11634568855E+04 -0.18753571140E+03  0.12707093389E+04  0.46999998093E+01 0.  1.
       -5    1    3    3    0  502  0.47526683716E+03 -0.11634568855E+04 -0.88601625359E+03  0.15377117359E+04  0.46999998093E+01 0. -1.
</event>
<event>
 5   0  0.5942229E-06  0.2602783E+04  0.7818609E-02  0.8367256E-01
        2   -1    0    0  501    0  0.00000000000E+00  0.00000000000E+00  0.16713901658E+04  0.16713901658E+04  0.25500000920E-02 0. -1.
       -2   -1    0    0    0  501  0.00000000000E+00  0.00000000000E+00 -0.10133002706E+04  0.10133002706E+04  0.25500000920E-02 0.  1.
    10030    2    1    2    0    0  0.00000000000E+00  0.00000000000E+00  0.65808989526E+03  0.26846904364E+04  0.26027832082E+04 0.  0.
        4    1    3    3  502    0  0.99828629742E+03  0.83425646798E+03  0.36261302089E+03  0.13505736566E+04  0.12699999809E+01 0.  1.
       -4    1    3    3    0  502 -0.99828629742E+03 -0.83425646798E+03  0.29547687438E+03  0.13341167798E+04  0.12699999809E+01 0. -1.
</event>
<event>
 5   0  0.5940748E-06  0.2601696E+04  0.7818609E-02  0.8367625E-01
        2   -1    0    0  501    0  0.00000000000E+00  0.00000000000E+00  0.17081882350E+04  0.17081882350E+04  0.25500000920E-02 0. -1.
       -2   -1    0    0    0  501  0.00000000000E+00  0.00000000000E+00 -0.99064313989E+03  0.99064313989E+03  0.25500000920E-02 0.  1.
    10030    2    1    2    0    0  0.00000000000E+00  0.00000000000E+00  0.71754509508E+03  0.26988313749E+04  0.26016955676E+04 0.  0.
        1    1    3    3  502    0  0.80215266552E+03  0.10240835915E+04  0.35568562745E+03  0.13485949602E+04  0.50400001928E-02 0.  1.
       -1    1    3    3    0  502 -0.80215266552E+03 -0.10240835915E+04  0.36185946763E+03  0.13502364147E+04  0.50400001928E-02 0. -1.
</event>
<event>
 5   0  0.2503292E-06  0.2607882E+04  0.7818609E-02  0.8365529E-01
       -1   -1    0    0    0  501  0.00000000000E+00  0.00000000000E+00  0.20860242741E+04  0.20860242741E+04  0.50400001928E-02 0. -1.
        1   -1    0    0  501    0  0.00000000000E+00  0.00000000000E+00 -0.81507294424E+03  0.81507294425E+03  0.50400001928E-02 0.  1.
    10030    2    1    2    0    0  0.00000000000E+00  0.00000000000E+00  0.12709513299E+04  0.29010972184E+04  0.26078818584E+04 0.  0.
        2    1    3    3  502    0  0.92854655093E+03 -0.26229471416E+03  0.16111666237E+04  0.18779923066E+04  0.25500000920E-02 0. -1.
       -2    1    3    3    0  502 -0.92854655093E+03  0.26229471416E+03 -0.34021529383E+03  0.10231049118E+04  0.25500000920E-02 0.  1.
</event>
<event>
 5   0  0.6158063E-06  0.2600916E+04  0.7818609E-02  0.8367890E-01
       -2   -1    0    0    0  501  0.00000000000E+00  0.00000000000E+00  0.14125358625E+04  0.14125358625E+04  0.25500000920E-02 0. -1.
        2   -1    0    0  501    0  0.00000000000E+00  0.00000000000E+00 -0.11972725580E+04  0.11972725581E+04  0.25500000920E-02 0.  1.
    10030    2    1    2    0    0  0.00000000000E+00  0.00000000000E+00  0.21526330448E+03  0.26098084206E+04  0.26009155507E+04 0.  0.
        2    1    3    3  502    0 -0.12263350698E+04  0.20507246023E+03  0.49003573373E+03  0.13364458229E+04  0.25500000920E-02 0. -1.
       -2    1    3    3    0  502  0.12263350698E+04 -0.20507246023E+03 -0.27477242924E+03  0.12733625977E+04  0.25500000920E-02 0.  1.
</event>
<event>
 5   0  0.6173140E-06  0.2584734E+04  0.7818609E-02  0.8373405E-01
       -2   -1    0    0    0  501  0.00000000000E+00  0.00000000000E+00  0.11650941241E+04  0.11650941241E+04  0.25500000920E-02 0.  1.
        2   -1    0    0  501    0  0.00000000000E+00  0.00000000000E+00 -0.14335434681E+04  0.14335434681E+04  0.25500000920E-02 0. -1.
    10030    2    1    2    0    0  0.00000000000E+00  0.00000000000E+00 -0.26844934397E+03  0.25986375922E+04  0.25847344709E+04 0.  0.
        3    1    3    3  502    0  0.78309115674E+03 -0.10279676572E+04 -0.11789547385E+03  0.12976319266E+04  0.10100000352E+00 0.  1.
       -3    1    3    3    0  502 -0.78309115674E+03  0.10279676572E+04 -0.15055387011E+03  0.13010056656E+04  0.10100000352E+00 0. -1.
</event>
<event>
 5   0  0.6161834E-06  0.2596921E+04  0.7818609E-02  0.8369248E-01
       -2   -1    0    0    0  501  0.00000000000E+00  0.00000000000E+00  0.10628914248E+04  0.10628914248E+04  0.25500000920E-02 0.  1.
        2   -1    0    0  501    0  0.00000000000E+00  0.00000000000E+00 -0.15862383690E+04  0.15862383690E+04  0.25500000920E-02 0. -1.
    10030    2    1    2    0    0  0.00000000000E+00  0.00000000000E+00 -0.52334694413E+03  0.26491297938E+04  0.25969206073E+04 0.  0.
        5    1    3    3  502    0  0.10267751147E+03  0.11782857617E+04 -0.80824098111E+03  0.14325416507E+04  0.46999998093E+01 0. -1.
       -5    1    3    3    0  502 -0.10267751147E+03 -0.11782857617E+04  0.28489403698E+03  0.12165881431E+04  0.46999998093E+01 0.  1.
</event>
<event>
 5   0  0.5940748E-06  0.2592735E+04  0.7818609E-02  0.8370673E-01
       -2   -1    0    0    0  501  0.00000000000E+00  0.00000000000E+00  0.11871645258E+04  0.11871645258E+04  0.25500000920E-02 0. -1.
        2   -1    0    0  501    0  0.00000000000E+00  0.00000000000E+00 -0.14156151715E+04  0.14156151715E+04  0.25500000920E-02 0.  1.
    10030    2    1    2    0    0  0.00000000000E+00  0.00000000000E+00 -0.22845064570E+03  0.26027796973E+04  0.25927345516E+04 0.  0.
        1    1    3    3  502    0 -0.35823516091E+03 -0.21492070693E+03  0.11177394700E+04  0.11932580876E+04  0.50400001928E-02 0. -1.
       -1    1    3    3    0  502  0.35823516091E+03  0.21492070693E+03 -0.13461901157E+04  0.14095216097E+04  0.50400001928E-02 0.  1.
</event>
<event>
 5   0  0.2440590E-06  0.2599778E+04  0.7818609E-02  0.8368277E-01
       -1   -1    0    0    0  501  0.00000000000E+00  0.00000000000E+00  0.31430997160E+04  0.31430997160E+04  0.50400001928E-02 0.  1.
        1   -1    0    0  501    0  0.00000000000E+00  0.00000000000E+00 -0.53759393601E+03  0.53759393603E+03  0.50400001928E-02 0. -1.
    10030    2    1    2    0    0  0.00000000000E+00  0.00000000000E+00  0.26055057800E+04  0.36806936521E+04  0.25997779502E+04 0.  0.
        1    1    3    3  502    0 -0.61985974044E+02  0.92531692451E+03  0.25923168403E+04  0.27532090862E+04  0.50400001928E-02 0.  1.
       -1    1    3    3    0  502  0.61985974044E+02 -0.92531692451E+03  0.13188939712E+02  0.92748456586E+03  0.50400001928E-02 0. -1.
</event>
<event>
 5   0  0.6158063E-06  0.2596503E+04  0.7818609E-02  0.8369390E-01
       -2   -1    0    0    0  501  0.00000000000E+00  0.00000000000E+00  0.52132257093E+03  0.52132257094E+03  0.25500000920E-02 0. -1.
        2   -1    0    0  501    0  0.00000000000E+00  0.00000000000E+00 -0.32330411413E+04  0.32330411413E+04  0.25500000920E-02 0.  1.
    10030    2    1    2    0    0  0.00000000000E+00  0.00000000000E+00 -0.27117185704E+04  0.37543637122E+04  0.25965032792E+04 0.  0.
        2    1    3    3  502    0  0.33512502719E+03  0.45085439202E+02  0.45653035738E+03  0.56812097998E+03  0.25500000920E-02 0. -1.
       -2    1    3    3    0  502 -0.33512502719E+03 -0.45085439202E+02 -0.31682489278E+04  0.31862427323E+04  0.25500000920E-02 0.  1.
</event>
<event>
 5   0  0.2333979E-06  0.2609489E+04  0.7818609E-02  0.8364985E-01
        1   -1    0    0  501    0  0.00000000000E+00  0.00000000000E+00  0.11064745582E+04  0.11064745582E+04  0.50400001928E-02 0.  1.
       -1   -1    0    0    0  501  0.00000000000E+00  0.00000000000E+00 -0.15385423191E+04  0.15385423191E+04  0.50400001928E-02 0. -1.
    10030    2    1    2    0    0  0.00000000000E+00  0.00000000000E+00 -0.43206776094E+03  0.26450168773E+04  0.26094887874E+04 0.  0.
        3    1    3    3  502    0 -0.35951375047E+03  0.62775559443E+03 -0.13166492396E+04  0.15022957277E+04  0.10100000352E+00 0. -1.
       -3    1    3    3    0  502  0.35951375047E+03 -0.62775559443E+03  0.88458147870E+03  0.11427211496E+04  0.10100000352E+00 0.  1.
</event>
<event>
 5   0  0.6161834E-06  0.2581795E+04  0.7818609E-02  0.8374412E-01
       -2   -1    0    0    0  501  0.00000000000E+00  0.00000000000E+00  0.98407296803E+03  0.98407296803E+03  0.25500000920E-02 0. -1.
        2   -1    0    0  501    0  0.00000000000E+00  0.00000000000E+00 -0.16933866595E+04  0.16933866595E+04  0.25500000920E-02 0.  1.
    10030    2    1    2    0    0  0.00000000000E+00  0.00000000000E+00 -0.70931369143E+03  0.26774596275E+04  0.25817947525E+04 0.  0.
        5    1    3    3  502    0  0.51866184491E+03 -0.82717103586E+03  0.52112982897E+03  0.11067160524E+04  0.46999998093E+01 0. -1.
       -5    1    3    3    0  502 -0.51866184491E+03  0.82717103586E+03 -0.12304435204E+04  0.15707435751E+04  0.46999998093E+01 0.  1.
</event>
<event>
 5   0  0.2471488E-06  0.2588157E+04  0.7818609E-02  0.8372235E-01
        1   -1    0    0  501    0  0.00000000000E+00  0.00000000000E+00  0.10715795585E+04  0.10715795585E+04  0.50400001928E-02 0. -1.
       -1   -1    0    0    0  501  0.00000000000E+00  0.00000000000E+00 -0.15627768296E+04  0.15627768297E+04  0.50400001928E-02 0.  1.
    10030    2    1    2    0    0  0.00000000000E+00  0.00000000000E+00 -0.49119727112E+03  0.26343563882E+04  0.25881574181E+04 0.  0.
        4    1    3    3  502    0 -0.12414588547E+04  0.35277162449E+03 -0.14919696768E+03  0.12992033155E+04  0.12699999809E+01 0.  1.
       -4    1    3    3    0  502  0.12414588547E+04 -0.35277162449E+03 -0.34200030345E+03  0.13351530727E+04  0.12699999809E+01 0. -1.
</event>
<event>
 5   0  0.5942229E-06  0.2606126E+04  0.7818609E-02  0.8366123E-01
       -2   -1    0    0    0  501  0.00000000000E+00  0.00000000000E+00  0.68557050705E+03  0.68557050705E+03  0.25500000920E-02 0.  1.
        2   -1    0    0  501    0  0.00000000000E+00  0.00000000000E+00 -0.24767296386E+04  0.24767296386E+04  0.25500000920E-02 0. -1.
    10030    2    1    2    0    0  0.00000000000E+00  0.00000000000E+00 -0.17911591316E+04  0.31623001457E+04  0.26061257024E+04 0.  0.
        4    1    3    3  502    0  0.22138150865E+03  0.29192669050E+03 -0.24129444579E+04  0.24406010602E+04  0.12699999809E+01 0. -1.
       -4    1    3    3    0  502 -0.22138150865E+03 -0.29192669050E+03  0.62178532637E+03  0.72169908548E+03  0.12699999809E+01 0.  1.
</event>
<event>
 5   0  0.2440590E-06  0.2649391E+04  0.7818609E-02  0.8351615E-01
       -1   -1    0    0    0  501  0.00000000000E+00  0.00000000000E+00  0.19033744657E+04  0.19033744657E+04  0.50400001928E-02 0. -1.
        1   -1    0    0  501    0  0.00000000000E+00  0.00000000000E+00 -0.92195141054E+03  0.92195141055E+03  0.50400001928E-02 0.  1.
    10030    2    1    2    0    0  0.00000000000E+00  0.00000000000E+00  0.98142305520E+03  0.28253258763E+04  0.26493914573E+04 0.  0.
        1    1    3    3  502    0 -0.59288978897E+03 -0.10946720300E+04  0.78833737823E+01  0.12449446987E+04  0.50400001928E-02 0.  1.
       -1    1    3    3    0  502  0.59288978897E+03  0.10946720300E+04  0.97353968142E+03  0.15803811776E+04  0.50400001928E-02 0. -1.
</event>
<event>
 5   0  0.5940748E-06  0.2621086E+04  0.7818609E-02  0.8361074E-01
       -2   -1    0    0    0  501  0.00000000000E+00  0.00000000000E+00  0.69349487654E+03  0.69349487654E+03  0.25500000920E-02 0. -1.
        2   -1    0    0  501    0  0.00000000000E+00  0.00000000000E+00 -0.24766189948E+04  0.24766189948E+04  0.25500000920E-02 0.  1.
    10030    2    1    2    0    0  0.00000000000E+00  0.00000000000E+00 -0.17831241182E+04  0.31701138713E+04  0.26210857170E+04 0.  0.
        1    1    3    3  502    0  0.44973206796E+03 -0.11051247938E+04 -0.23580970762E+03  0.12162096699E+04  0.50400001928E-02 0.  1.
       -1    1    3    3    0  502 -0.44973206796E+03  0.11051247938E+04 -0.15473144106E+04  0.19539042014E+04  0.50400001928E-02 0. -1.
</event>
<event>
 5   0  0.2471488E-06  0.2610280E+04  0.7818609E-02  0.8364718E-01
        1   -1    0    0  501    0  0.00000000000E+00  0.00000000000E+00  0.24600282746E+04  0.24600282746E+04  0.50400001928E-02 0.  1.
       -1   -1    0    0    0  501  0.00000000000E+00  0.00000000000E+00 -0.69242724038E+03  0.69242724040E+03  0.50400001928E-02 0. -1.
    10030    2    1    2    0    0  0.00000000000E+00  0.00000000000E+00  0.17676010343E+04  0.31524555150E+04  0.26102801302E+04 0.  0.
        4    1    3    3  502    0  0.29589777606E+02  0.22472810050E+03  0.24360741397E+04  0.24465970451E+04  0.12699999809E+01 0.  1.
       -4    1    3    3    0  502 -0.29589777606E+02 -0.22472810050E+03 -0.66847310541E+03  0.70585846998E+03  0.12699999809E+01 0. -1.
</event>
<event>
 5   0  0.6173140E-06  0.2599533E+04  0.7818609E-02  0.8368360E-01
        2   -1    0    0  501    0  0.00000000000E+00  0.00000000000E+00  0.16293397301E+04  0.16293397301E+04  0.25500000920E-02 0. -1.
       -2   -1    0    0    0  501  0.00000000000E+00  0.00000000000E+00 -0.10368571400E+04  0.10368571400E+04  0.25500000920E-02 0.  1.
    10030    2    1    2    0    0  0.00000000000E+00  0.00000000000E+00  0.59248259008E+03  0.26661968701E+04  0.25995326754E+04 0.  0.
        3    1    3    3  502    0 -0.22942160299E+03 -0.90022852215E+03  0.12285894671E+04  0.15402849583E+04  0.10100000352E+00 0. -1.
       -3    1    3    3    0  502  0.22942160299E+03  0.90022852215E+03 -0.63610687698E+03  0.11259119118E+04  0.10100000352E+00 0.  1.
</event>
<event>
 5   0  0.2333979E-06  0.2606057E+04  0.7818609E-02  0.8366147E-01
        1   -1    0    0  501    0  0.00000000000E+00  0.00000000000E+00  0.17900730539E+04  0.17900730539E+04  0.50400001928E-02 0. -1.
       -1   -1    0    0    0  501  0.00000000000E+00  0.00000000000E+00 -0.94849946718E+03  0.94849946719E+03  0.50400001928E-02 0.  1.
    10030    2    1    2    0    0  0.00000000000E+00  0.00000000000E+00  0.84157358675E+03  0.27385725211E+04  0.26060570507E+04 0.  0.
        3    1    3    3  502    0 -0.94653205022E+03 -0.55226046827E+03  0.11615934584E+04  0.15969389217E+04  0.10100000352E+00 0. -1.
       -3    1    3    3    0  502  0.94653205022E+03  0.55226046827E+03 -0.32001987162E+03  0.11416335994E+04  0.10100000352E+00 0.  1.
</event>
<event>
 5   0  0.5940748E-06  0.2599543E+04  0.7818609E-02  0.8368356E-01
       -2   -1    0    0    0  501  0.00000000000E+00  0.00000000000E+00  0.74537106008E+03  0.74537106008E+03  0.25500000920E-02 0.  1.
        2   -1    0    0  501    0  0.00000000000E+00  0.00000000000E+00 -0.22665298957E+04  0.22665298957E+04  0.25500000920E-02 0. -1.
    10030    2    1    2    0    0  0.00000000000E+00  0.00000000000E+00 -0.15211588357E+04  0.30119009558E+04  0.25995428760E+04 0.  0.
        1    1    3    3  502    0  0.70792231508E+03  0.10120918712E+03 -0.20181081339E+04  0.21410646286E+04  0.50400001928E-02 0. -1.
       -1    1    3    3    0  502 -0.70792231508E+03 -0.10120918712E+03  0.49694929824E+03  0.87083632721E+03  0.50400001928E-02 0.  1.
</event>
<event>
 5   0  0.2471488E-06  0.2601341E+04  0.7818609E-02  0.8367746E-01
        1   -1    0    0  501    0  0.00000000000E+00  0.00000000000E+00  0.22545418706E+04  0.22545418706E+04  0.50400001928E-02 0.  1.
       -1   -1    0    0    0  501  0.00000000000E+00  0.00000000000E+00 -0.75037156365E+03  0.75037156367E+03  0.50400001928E-02 0. -1.
    10030    2    1    2    0    0  0.00000000000E+00  0.00000000000E+00  0.15041703070E+04  0.30049134343E+04  0.26013412762E+04 0.  0.
        4    1    3    3  502    0 -0.10241287405E+04 -0.72178011657E+03  0.11554528432E+04  0.17043705875E+04  0.12699999809E+01 0.  1.
       -4    1    3    3    0  502  0.10241287405E+04  0.72178011657E+03  0.34871746382E+03  0.13005428468E+04  0.12699999809E+01 0. -1.
</event>
<event>
 5   0  0.6173140E-06  0.2604652E+04  0.7818609E-02  0.8366623E-01
        2   -1    0    0  501    0  0.00000000000E+00  0.00000000000E+00  0.12174312774E+04  0.12174312774E+04  0.25500000920E-02 0. -1.
       -2   -1    0    0    0  501  0.00000000000E+00  0.00000000000E+00 -0.13931407667E+04  0.13931407667E+04  0.25500000920E-02 0.  1.
    10030    2    1    2    0    0  0.00000000000E+00  0.00000000000E+00 -0.17570948930E+03  0.26105720441E+04  0.26046521021E+04 0.  0.
        3    1    3    3  502    0 -0.11978536211E+04  0.49577170064E+03  0.36565454127E+02  0.12969116852E+04  0.10100000352E+00 0. -1.
       -3    1    3    3    0  502  0.11978536211E+04 -0.49577170064E+03 -0.21227494343E+03  0.13136603589E+04  0.10100000352E+00 0.  1.
</event>
<event>
 5   0  0.2471488E-06  0.2618649E+04  0.7818609E-02  0.8361894E-01
        1   -1    0    0  501    0  0.00000000000E+00  0.00000000000E+00  0.17392670332E+04  0.17392670332E+04  0.50400001928E-02 0.  1.
       -1   -1    0    0    0  501  0.00000000000E+00  0.00000000000E+00 -0.98566261250E+03  0.98566261251E+03  0.50400001928E-02 0. -1.
    10030    2    1    2    0    0  0.00000000000E+00  0.00000000000E+00  0.75360442072E+03  0.27249296457E+04  0.26186488790E+04 0.  0.
        4    1    3    3  502    0 -0.11122027389E+04  0.35621172277E+03 -0.23920995735E+03  0.11921009775E+04  0.12699999809E+01 0. -1.
       -4    1    3    3    0  502  0.11122027389E+04 -0.35621172277E+03  0.99281437806E+03  0.15328286682E+04  0.12699999809E+01 0.  1.
</event>
<event>
 5   0  0.2456600E-06  0.2605159E+04  0.7818609E-02  0.8366451E-01
        1   -1    0    0  501    0  0.00000000000E+00  0.00000000000E+00  0.15826568469E+04  0.15826568469E+04  0.50400001928E-02 0.  1.
       -1   -1    0    0    0  501  0.00000000000E+00  0.00000000000E+00 -0.10720664415E+04  0.10720664415E+04  0.50400001928E-02 0. -1.
    10030    2    1    2    0    0  0.00000000000E+00  0.00000000000E+00  0.51059040544E+03  0.26547232884E+04  0.26051589541E+04 0.  0.
        5    1    3    3  502    0  0.10922142484E+04 -0.43264668409E+03 -0.31806043281E+03  0.12170865403E+04  0.46999998093E+01 0.  1.
       -5    1    3    3    0  502 -0.10922142484E+04  0.43264668409E+03  0.82865083826E+03  0.14376367481E+04  0.46999998093E+01 0. -1.
</event>
<event>
 5   0  0.2471488E-06  0.2588110E+04  0.7818609E-02  0.8372251E-01
        1   -1    0    0  501    0  0.00000000000E+00  0.00000000000E+00  0.14993097244E+04  0.14993097244E+04  0.50400001928E-02 0. -1.
       -1   -1    0    0    0  501  0.00000000000E+00  0.00000000000E+00 -0.11168994466E+04  0.11168994466E+04  0.50400001928E-02 0.  1.
    10030    2    1    2    0    0  0.00000000000E+00  0.00000000000E+00  0.38241027774E+03  0.26162091710E+04  0.25881098906E+04 0.  0.
        4    1    3    3  502    0  0.10228123207E+04 -0.71249735100E+02 -0.60689517591E+03  0.11914465727E+04  0.12699999809E+01 0.  1.
       -4    1    3    3    0  502 -0.10228123207E+04  0.71249735100E+02  0.98930545365E+03  0.14247625983E+04  0.12699999809E+01 0. -1.
</event>
<event>
 5   0  0.2456600E-06  0.2593880E+04  0.7818609E-02  0.8370283E-01
       -1   -1    0    0    0  501  0.00000000000E+00  0.00000000000E+00  0.88696966702E+03  0.88696966704E+03  0.50400001928E-02 0. -1.
        1   -1    0    0  501    0  0.00000000000E+00  0.00000000000E+00 -0.18964051307E+04  0.18964051307E+04  0.50400001928E-02 0.  1.
    10030    2    1    2    0    0  0.00000000000E+00  0.00000000000E+00 -0.10094354637E+04  0.27833747977E+04  0.25938803576E+04 0.  0.
        5    1    3    3  502    0 -0.85977175921E+03  0.53643893628E+03 -0.13732010298E+04  0.17066567811E+04  0.46999998093E+01 0.  1.
       -5    1    3    3    0  502  0.85977175921E+03 -0.53643893628E+03  0.36376556610E+03  0.10767180166E+04  0.46999998093E+01 0. -1.
</event>
<event>
 5   0  0.6158063E-06  0.2596852E+04  0.7818609E-02  0.8369271E-01
       -2   -1    0    0    0  501  0.00000000000E+00  0.00000000000E+00  0.67892405093E+03  0.67892405094E+03  0.25500000920E-02 0. -1.
        2   -1    0    0  501    0  0.00000000000E+00  0.00000000000E+00 -0.24832078721E+04  0.24832078721E+04  0.25500000920E-02 0.  1.
    10030    2    1    2    0    0  0.00000000000E+00  0.00000000000E+00 -0.18042838212E+04  0.31621319230E+04  0.25968515921E+04 0.  0.
        2    1    3    3  502    0 -0.11632057303E+04  0.15958976056E+03 -0.15772602424E+04  0.19662823640E+04  0.25500000920E-02 0.  1.
       -2    1    3    3    0  502  0.11632057303E+04 -0.15958976056E+03 -0.22702357874E+03  0.11958495591E+04  0.25500000920E-02 0. -1.
</event>
<event>
 5   0  0.5942229E-06  0.2594838E+04  0.7818609E-02  0.8369957E-01
        2   -1    0    0  501    0  0.00000000000E+00  0.00000000000E+00  0.10430802586E+04  0.10430802586E+04  0.25500000920E-02 0. -1.
       -2   -1    0    0    0  501  0.00000000000E+00  0.00000000000E+00 -0.16137737800E+04  0.16137737800E+04  0.25500000920E-02 0.  1.
    10030    2    1    2    0    0  0.00000000000E+00  0.00000000000E+00 -0.57069352132E+03  0.26568540386E+04  0.25948376225E+04 0.  0.
        4    1    3    3  502    0  0.11136956188E+04 -0.13273801502E+03  0.38243433710E+03  0.11849873193E+04  0.12699999809E+01 0. -1.
       -4    1    3    3    0  502 -0.11136956188E+04  0.13273801502E+03 -0.95312785842E+03  0.14718667193E+04  0.12699999809E+01 0.  1.
</event>
<event>
 5   0  0.6161834E-06  0.2568994E+04  0.7818609E-02  0.8378810E-01
       -2   -1    0    0    0  501  0.00000000000E+00  0.00000000000E+00  0.85097172110E+03  0.85097172110E+03  0.25500000920E-02 0.  1.
        2   -1    0    0  501    0  0.00000000000E+00  0.00000000000E+00 -0.19388808134E+04  0.19388808134E+04  0.25500000920E-02 0. -1.
    10030    2    1    2    0    0  0.00000000000E+00  0.00000000000E+00 -0.10879090923E+04  0.27898525345E+04  0.25689941555E+04 0.  0.
        5    1    3    3  502    0 -0.12759306953E+04  0.22163418136E+02 -0.70289369028E+03  0.14569049338E+04  0.46999998093E+01 0. -1.
       -5    1    3    3    0  502  0.12759306953E+04 -0.22163418136E+02 -0.38501540198E+03  0.13329476007E+04  0.46999998093E+01 0.  1.
</event>
<event>
 5   0  0.6161834E-06  0.2580550E+04  0.7818609E-02  0.8374838E-01
        2   -1    0    0  501    0  0.00000000000E+00  0.00000000000E+00  0.11389047104E+04  0.11389047104E+04  0.25500000920E-02 0. -1.
       -2   -1    0    0    0  501  0.00000000000E+00  0.00000000000E+00 -0.14617639711E+04  0.14617639711E+04  0.25500000920E-02 0.  1.
    10030    2    1    2    0    0  0.00000000000E+00  0.00000000000E+00 -0.32285926063E+03  0.26006686815E+04  0.25805502298E+04 0.  0.
        5    1    3    3  502    0 -0.20728686365E+03  0.11778562237E+04 -0.64943057548E+03  0.13609170768E+04  0.46999998093E+01 0.  1.
       -5    1    3    3    0  502  0.20728686365E+03 -0.11778562237E+04  0.32657131485E+03  0.12397516047E+04  0.46999998093E+01 0. -1.
</event>
<event>
 5   0  0.2471488E-06  0.2640215E+04  0.7818609E-02  0.8354668E-01
        1   -1    0    0  501    0  0.00000000000E+00  0.00000000000E+00  0.27246234834E+04  0.27246234834E+04  0.50400001928E-02 0. -1.
       -1   -1    0    0    0  501  0.00000000000E+00  0.00000000000E+00 -0.63960560668E+03  0.63960560670E+03  0.50400001928E-02 0.  1.
    10030    2    1    2    0    0  0.00000000000E+00  0.00000000000E+00  0.20850178767E+04  0.33642290901E+04  0.26402154883E+04 0.  0.
        4    1    3    3  502    0  0.21456624582E+03  0.12012411699E+04  0.40074478929E+03  0.12843741749E+04  0.12699999809E+01 0.  1.
       -4    1    3    3    0  502 -0.21456624582E+03 -0.12012411699E+04  0.16842730875E+04  0.20798549152E+04  0.12699999809E+01 0. -1.
</event>
<event>
 5   0  0.2440590E-06  0.2595908E+04  0.7818609E-02  0.8369593E-01
        1   -1    0    0  501    0  0.00000000000E+00  0.00000000000E+00  0.10052487151E+04  0.10052487152E+04  0.50400001928E-02 0.  1.
       -1   -1    0    0    0  501  0.00000000000E+00  0.00000000000E+00 -0.16758881519E+04  0.16758881519E+04  0.50400001928E-02 0. -1.
    10030    2    1    2    0    0  0.00000000000E+00  0.00000000000E+00 -0.67063943675E+03  0.26811368671E+04  0.25959078654E+04 0.  0.
        1    1    3    3  502    0  0.10397357853E+03  0.27440046707E+03  0.97054042092E+03  0.10139303872E+04  0.50400001928E-02 0.  1.
       -1    1    3    3    0  502 -0.10397357853E+03 -0.27440046707E+03 -0.16411798577E+04  0.16672064799E+04  0.50400001928E-02 0. -1.
</event>
<event>
 5   0  0.6173140E-06  0.2605682E+04  0.7818609E-02  0.8366274E-01
        2   -1    0    0  501    0  0.00000000000E+00  0.00000000000E+00  0.16028139349E+04  0.16028139349E+04  0.25500000920E-02 0. -1.
       -2   -1    0    0    0  501  0.00000000000E+00  0.00000000000E+00 -0.10590090258E+04  0.10590090258E+04  0.25500000920E-02 0.  1.
    10030    2    1    2    0    0  0.00000000000E+00  0.00000000000E+00  0.54380490906E+03  0.26618229607E+04  0.26056818100E+04 0.  0.
        3    1    3    3  502    0 -0.52127670021E+03  0.36026713172E+03  0.14347932710E+04  0.15684876618E+04  0.10100000352E+00 0. -1.
       -3    1    3    3    0  502  0.52127670021E+03 -0.36026713172E+03 -0.89098836198E+03  0.10933352989E+04  0.10100000352E+00 0.  1.
</event>
<event>
 5   0  0.5940748E-06  0.2600153E+04  0.7818609E-02  0.8368149E-01
       -2   -1    0    0    0  501  0.00000000000E+00  0.00000000000E+00  0.77240312094E+03  0.77240312094E+03  0.25500000920E-02 0.  1.
        2   -1    0    0  501    0  0.00000000000E+00  0.00000000000E+00 -0.21882333451E+04  0.21882333451E+04  0.25500000920E-02 0. -1.
    10030    2    1    2    0    0  0.00000000000E+00  0.00000000000E+00 -0.14158302241E+04  0.29606364660E+04  0.26001525071E+04 0.  0.
        1    1    3    3  502    0 -0.46307066458E+03  0.11301418766E+04 -0.12152721991E+04  0.17229456230E+04  0.50400001928E-02 0.  1.
       -1    1    3    3    0  502  0.46307066458E+03 -0.11301418766E+04 -0.20055802499E+03  0.12376908431E+04  0.50400001928E-02 0. -1.
</event>
<event>
 5   0  0.2072125E-06  0.2523094E+04  0.7818609E-02  0.8394804E-01
       -3   -1    0    0    0  501  0.00000000000E+00  0.00000000000E+00  0.14182841196E+04  0.14182841232E+04  0.10100000352E+00 0. -1.
        3   -1    0    0  501    0  0.00000000000E+00  0.00000000000E+00 -0.11221308539E+04  0.11221308585E+04  0.10100000352E+00 0.  1.
    10030    2    1    2    0    0  0.00000000000E+00  0.00000000000E+00  0.29615326569E+03  0.25404149816E+04  0.25230936412E+04 0.  0.
        5    1    3    3  502    0  0.59977768187E+03  0.10997179722E+04  0.29865399171E+03  0.12877613066E+04  0.46999998093E+01 0. -1.
       -5    1    3    3    0  502 -0.59977768187E+03 -0.10997179722E+04 -0.25007260228E+01  0.12526536751E+04  0.46999998093E+01 0.  1.
</event>
<event>
 5   0  0.6161834E-06  0.2597894E+04  0.7818609E-02  0.8368917E-01
        2   -1    0    0  501    0  0.00000000000E+00  0.00000000000E+00  0.16863211473E+04  0.16863211473E+04  0.25500000920E-02 0. -1.
       -2   -1    0    0    0  501  0.00000000000E+00  0.00000000000E+00 -0.10005589829E+04  0.10005589829E+04  0.25500000920E-02 0.  1.
    10030    2    1    2    0    0  0.00000000000E+00  0.00000000000E+00  0.68576216438E+03  0.26868801302E+04  0.25978943565E+04 0.  0.
        5    1    3    3  502    0 -0.71922685425E+01 -0.77347371876E+03  0.14221420218E+04  0.16188957170E+04  0.46999998093E+01 0. -1.
       -5    1    3    3    0  502  0.71922685425E+01  0.77347371876E+03 -0.73637985742E+03  0.10679844132E+04  0.46999998093E+01 0.  1.
</event>
<event>
 5   0  0.2333979E-06  0.2595028E+04  0.7818609E-02  0.8369892E-01
        1   -1    0    0  501    0  0.00000000000E+00  0.00000000000E+00  0.14601241730E+04  0.14601241730E+04  0.50400001928E-02 0.  1.
       -1   -1    0    0    0  501  0.00000000000E+00  0.00000000000E+00 -0.11530134193E+04  0.11530134193E+04  0.50400001928E-02 0. -1.
    10030    2    1    2    0    0  0.00000000000E+00  0.00000000000E+00  0.30711075371E+03  0.26131375923E+04  0.25950281426E+04 0.  0.
        3    1    3    3  502    0 -0.51168200963E+03 -0.84962561083E+03 -0.68885940195E+03  0.12075634325E+04  0.10100000352E+00 0. -1.
       -3    1    3    3    0  502  0.51168200963E+03  0.84962561083E+03  0.99597015566E+03  0.14055741598E+04  0.10100000352E+00 0.  1.
</event>
<event>
 5   0  0.6158063E-06  0.2582684E+04  0.7818609E-02  0.8374107E-01
        2   -1    0    0  501    0  0.00000000000E+00  0.00000000000E+00  0.12777835983E+04  0.12777835983E+04  0.25500000920E-02 0.  1.
       -2   -1    0    0    0  501  0.00000000000E+00  0.00000000000E+00 -0.13050440499E+04  0.13050440499E+04  0.25500000920E-02 0. -1.
    10030    2    1    2    0    0  0.00000000000E+00  0.00000000000E+00 -0.27260451547E+02  0.25828276482E+04  0.25826837840E+04 0.  0.
        2    1    3    3  502    0 -0.58353777989E+03 -0.41163177474E+03 -0.10896115418E+04  0.13027702677E+04  0.25500000920E-02 0. -1.
       -2    1    3    3    0  502  0.58353777989E+03  0.41163177474E+03  0.10623510902E+04  0.12800573805E+04  0.25500000920E-02 0.  1.
</event>
<event>
 5   0  0.2440590E-06  0.2611920E+04  0.7818609E-02  0.8364163E-01
       -1   -1    0    0    0  501  0.00000000000E+00  0.00000000000E+00  0.14165929006E+04  0.14165929006E+04  0.50400001928E-02 0. -1.
        1   -1    0    0  501    0  0.00000000000E+00  0.00000000000E+00 -0.12039675179E+04  0.12039675179E+04  0.50400001928E-02 0.  1.
    10030    2    1    2    0    0  0.00000000000E+00  0.00000000000E+00  0.21262538264E+03  0.26205604185E+04  0.26119202426E+04 0.  0.
        1    1    3    3  502    0 -0.61937911707E+02 -0.35550483999E+03 -0.11529534743E+04  0.12081066633E+04  0.50400001928E-02 0.  1.
       -1    1    3    3    0  502  0.61937911707E+02  0.35550483999E+03  0.13655788569E+04  0.14124537552E+04  0.50400001928E-02 0. -1.
</event>
<event>
 5   0  0.6173140E-06  0.2598340E+04  0.7818609E-02  0.8368765E-01
       -2   -1    0    0    0  501  0.00000000000E+00  0.00000000000E+00  0.55883453006E+03  0.55883453007E+03  0.25500000920E-02 0.  1.
        2   -1    0    0  501    0  0.00000000000E+00  0.00000000000E+00 -0.30202908461E+04  0.30202908461E+04  0.25500000920E-02 0. -1.
    10030    2    1    2    0    0  0.00000000000E+00  0.00000000000E+00 -0.24614563160E+04  0.35791253762E+04  0.25983400976E+04 0.  0.
        3    1    3    3  502    0  0.10678902240E+04 -0.73810771569E+03 -0.11598150716E+04  0.17407939399E+04  0.10100000352E+00 0. -1.
       -3    1    3    3    0  502 -0.10678902240E+04  0.73810771569E+03 -0.13016412444E+04  0.18383314363E+04  0.10100000352E+00 0.  1.
</event>
<event>
 5   0  0.6158063E-06  0.2587405E+04  0.7818609E-02  0.8372492E-01
        2   -1    0    0  501    0  0.00000000000E+00  0.00000000000E+00  0.24476065785E+04  0.24476065785E+04  0.25500000920E-02 0.  1.
       -2   -1    0    0    0  501  0.00000000000E+00  0.00000000000E+00 -0.68379702341E+03  0.68379702342E+03  0.25500000920E-02 0. -1.
    10030    2    1    2    0    0  0.00000000000E+00  0.00000000000E+00  0.17638095551E+04  0.31314036019E+04  0.25874049493E+04 0.  0.
        2    1    3    3  502    0 -0.10719688244E+04  0.16988958337E+02  0.17581953337E+04  0.20592854626E+04  0.25500000920E-02 0.  1.
       -2    1    3    3    0  502  0.10719688244E+04 -0.16988958337E+02  0.56142213842E+01  0.10721181393E+04  0.25500000920E-02 0. -1.
</event>
<event>
 5   0  0.2440590E-06  0.2595494E+04  0.7818609E-02  0.8369733E-01
        1   -1    0    0  501    0  0.00000000000E+00  0.00000000000E+00  0.19488783068E+04  0.19488783068E+04  0.50400001928E-02 0. -1.
       -1   -1    0    0    0  501  0.00000000000E+00  0.00000000000E+00 -0.86416231845E+03  0.86416231846E+03  0.50400001928E-02 0.  1.
    10030    2    1    2    0    0  0.00000000000E+00  0.00000000000E+00  0.10847159884E+04  0.28130406253E+04  0.25954939384E+04 0.  0.
        1    1    3    3  502    0 -0.83037410862E+03 -0.18710955342E+03  0.16040651317E+04  0.18159174243E+04  0.50400001928E-02 0. -1.
       -1    1    3    3    0  502  0.83037410862E+03  0.18710955342E+03 -0.51934914330E+03  0.99712320097E+03  0.50400001928E-02 0.  1.
</event>
<event>
 5   0  0.6161834E-06  0.2587281E+04  0.7818609E-02  0.8372534E-01
       -2   -1    0    0    0  501  0.00000000000E+00  0.00000000000E+00  0.83869790450E+03  0.83869790450E+03  0.25500000920E-02 0.  1.
        2   -1    0    0  501    0  0.00000000000E+00  0.00000000000E+00 -0.19953625089E+04  0.19953625089E+04  0.25500000920E-02 0. -1.
    10030    2    1    2    0    0  0.00000000000E+00  0.00000000000E+00 -0.11566646044E+04  0.28340604134E+04  0.25872814729E+04 0.  0.
        5    1    3    3  502    0 -0.35270076524E+03  0.96575554596E+03 -0.14383307701E+04  0.17680212381E+04  0.46999998093E+01 0. -1.
       -5    1    3    3    0  502  0.35270076524E+03 -0.96575554596E+03  0.28166616566E+03  0.10660391753E+04  0.46999998093E+01 0.  1.
</event>
<event>
 5   0  0.6158063E-06  0.2591695E+04  0.7818609E-02  0.8371028E-01
        2   -1    0    0  501    0  0.00000000000E+00  0.00000000000E+00  0.11724967204E+04  0.11724967205E+04  0.25500000920E-02 0. -1.
       -2   -1    0    0    0  501  0.00000000000E+00  0.00000000000E+00 -0.14321749237E+04  0.14321749237E+04  0.25500000920E-02 0.  1.
    10030    2    1    2    0    0  0.00000000000E+00  0.00000000000E+00 -0.25967820330E+03  0.26046716442E+04  0.25916947360E+04 0.  0.
        2    1    3    3  502    0 -0.75677878124E+03  0.94218256202E+03 -0.59994002527E+03  0.13492035198E+04  0.25500000920E-02 0.  1.
       -2    1    3    3    0  502  0.75677878124E+03 -0.94218256202E+03  0.34026182197E+03  0.12554681244E+04  0.25500000920E-02 0. -1.
</event>
<event>
 5   0  0.6161834E-06  0.2606617E+04  0.7818609E-02  0.8365957E-01
       -2   -1    0    0    0  501  0.00000000000E+00  0.00000000000E+00  0.66028740609E+03  0.66028740609E+03  0.25500000920E-02 0.  1.
        2   -1    0    0  501    0  0.00000000000E+00  0.00000000000E+00 -0.25725350968E+04  0.25725350968E+04  0.25500000920E-02 0. -1.
    10030    2    1    2    0    0  0.00000000000E+00  0.00000000000E+00 -0.19122476907E+04  0.32328225029E+04  0.26066166010E+04 0.  0.
        5    1    3    3  502    0 -0.77755769916E+03 -0.83176318728E+03 -0.16960968078E+03  0.11511800507E+04  0.46999998093E+01 0. -1.
       -5    1    3    3    0  502  0.77755769916E+03  0.83176318728E+03 -0.17426380100E+04  0.20816424522E+04  0.46999998093E+01 0.  1.
</event>
<event>
 5   0  0.2440590E-06  0.2627232E+04  0.7818609E-02  0.8359009E-01
        1   -1    0    0  501    0  0.00000000000E+00  0.00000000000E+00  0.15583460590E+04  0.15583460590E+04  0.50400001928E-02 0. -1.
       -1   -1    0    0    0  501  0.00000000000E+00  0.00000000000E+00 -0.11073197119E+04  0.11073197119E+04  0.50400001928E-02 0.  1.
    10030    2    1    2    0    0  0.00000000000E+00  0.00000000000E+00  0.45102634713E+03  0.26656657710E+04  0.26272322388E+04 0.  0.
        1    1    3    3  502    0 -0.54827555102E+03 -0.49567638517E+03 -0.87632250147E+03  0.11464040672E+04  0.50400001928E-02 0.  1.
       -1    1    3    3    0  502  0.54827555102E+03  0.49567638517E+03  0.13273488486E+04  0.15192617038E+04  0.50400001928E-02 0. -1.
</event>
<event>
 5   0  0.5942229E-06  0.2609765E+04  0.7818609E-02  0.8364892E-01
       -2   -1    0    0    0  501  0.00000000000E+00  0.00000000000E+00  0.80073794905E+03  0.80073794905E+03  0.25500000920E-02 0. -1.
        2   -1    0    0  501    0  0.00000000000E+00  0.00000000000E+00 -0.21264368711E+04  0.21264368711E+04  0.25500000920E-02 0.  1.
    10030    2    1    2    0    0  0.00000000000E+00  0.00000000000E+00 -0.13256989221E+04  0.29271748201E+04  0.26097652760E+04 0.  0.
        4    1    3    3  502    0 -0.12274899761E+04 -0.91993273191E+02 -0.17714273716E+03  0.12436139135E+04  0.12699999809E+01 0.  1.
       -4    1    3    3    0  502  0.12274899761E+04  0.91993273191E+02 -0.11485561849E+04  0.16835609066E+04  0.12699999809E+01 0. -1.
</event>
<event>
 5   0  0.6173140E-06  0.2578374E+04  0.7818609E-02  0.8375584E-01
       -2   -1    0    0    0  501  0.00000000000E+00  0.00000000000E+00  0.12940512324E+04  0.12940512324E+04  0.25500000920E-02 0. -1.
        2   -1    0    0  501    0  0.00000000000E+00  0.00000000000E+00 -0.12843407250E+04  0.12843407250E+04  0.25500000920E-02 0.  1.
    10030    2    1    2    0    0  0.00000000000E+00  0.00000000000E+00  0.97105074301E+01  0.25783919574E+04  0.25783736719E+04 0.  0.
        3    1    3    3  502    0 -0.97550846880E+03  0.61057211768E+03  0.58588226900E+03  0.12913841903E+04  0.10100000352E+00 0.  1.
       -3    1    3    3    0  502  0.97550846880E+03 -0.61057211768E+03 -0.57617176157E+03  0.12870077671E+04  0.10100000352E+00 0. -1.
</event>
<event>
 5   0  0.6161834E-06  0.2586824E+04  0.7818609E-02  0.8372690E-01
        2   -1    0    0  501    0  0.00000000000E+00  0.00000000000E+00  0.19241558208E+04  0.19241558208E+04  0.25500000920E-02 0. -1.
       -2   -1    0    0    0  501  0.00000000000E+00  0.00000000000E+00 -0.86942804528E+03  0.86942804528E+03  0.25500000920E-02 0.  1.
    10030    2    1    2    0    0  0.00000000000E+00  0.00000000000E+00  0.10547277755E+04  0.27935838660E+04  0.25868243342E+04 0.  0.
        5    1    3    3  502    0 -0.28119849986E+03 -0.86219838108E+03  0.15232625751E+04  0.17727971140E+04  0.46999998093E+01 0. -1.
       -5    1    3    3    0  502  0.28119849986E+03  0.86219838108E+03 -0.46853479965E+03  0.10207867520E+04  0.46999998093E+01 0.  1.
</event>
<event>
 5   0  0.6173140E-06  0.2536760E+04  0.7818609E-02  0.8390006E-01
        2   -1    0    0  501    0  0.00000000000E+00  0.00000000000E+00  0.10471325279E+04  0.10471325279E+04  0.25500000920E-02 0.  1.
       -2   -1    0    0    0  501  0.00000000000E+00  0.00000000000E+00 -0.15363740058E+04  0.15363740058E+04  0.25500000920E-02 0. -1.
    10030    2    1    2    0    0  0.00000000000E+00  0.00000000000E+00 -0.48924147793E+03  0.25835065337E+04  0.25367595050E+04 0.  0.
        3    1    3    3  502    0  0.43667856322E+03 -0.90845691220E+03  0.53950591747E+03  0.11432623383E+04  0.10100000352E+00 0.  1.
       -3    1    3    3    0  502 -0.43667856322E+03  0.90845691220E+03 -0.10287473954E+04  0.14402441955E+04  0.10100000352E+00 0. -1.
</event>
<event>
 5   0  0.2333979E-06  0.2534914E+04  0.7818609E-02  0.8390652E-01
        1   -1    0    0  501    0  0.00000000000E+00  0.00000000000E+00  0.87959905102E+03  0.87959905103E+03  0.50400001928E-02 0. -1.
       -1   -1    0    0    0  501  0.00000000000E+00  0.00000000000E+00 -0.18263396849E+04  0.18263396849E+04  0.50400001928E-02 0.  1.
    10030    2    1    2    0    0  0.00000000000E+00  0.00000000000E+00 -0.94674063389E+03  0.27059387359E+04  0.25349135320E+04 0.  0.
        3    1    3    3  502    0 -0.31729855602E+03  0.12053088320E+04 -0.71911729981E+03  0.14389501225E+04  0.10100000352E+00 0.  1.
       -3    1    3    3    0  502  0.31729855602E+03 -0.12053088320E+04 -0.22762333408E+03  0.12669886134E+04  0.10100000352E+00 0. -1.
</event>
<event>
 5   0  0.2333979E-06  0.2603002E+04  0.7818609E-02  0.8367182E-01
       -1   -1    0    0    0  501  0.00000000000E+00  0.00000000000E+00  0.11129739188E+04  0.11129739188E+04  0.50400001928E-02 0. -1.
        1   -1    0    0  501    0  0.00000000000E+00  0.00000000000E+00 -0.15219624919E+04  0.15219624919E+04  0.50400001928E-02 0.  1.
    10030    2    1    2    0    0  0.00000000000E+00  0.00000000000E+00 -0.40898857312E+03  0.26349364107E+04  0.26030017740E+04 0.  0.
        3    1    3    3  502    0  0.26393376444E+03  0.11438060369E+04  0.36449714317E+03  0.12291507067E+04  0.10100000352E+00 0.  1.
       -3    1    3    3    0  502 -0.26393376444E+03 -0.11438060369E+04 -0.77348571629E+03  0.14057857040E+04  0.10100000352E+00 0. -1.
</event>
<event>
 5   0  0.5942229E-06  0.2599657E+04  0.7818609E-02  0.8368318E-01
        2   -1    0    0  501    0  0.00000000000E+00  0.00000000000E+00  0.11017942047E+04  0.11017942047E+04  0.25500000920E-02 0.  1.
       -2   -1    0    0    0  501  0.00000000000E+00  0.00000000000E+00 -0.15334576082E+04  0.15334576082E+04  0.25500000920E-02 0. -1.
    10030    2    1    2    0    0  0.00000000000E+00  0.00000000000E+00 -0.43166340351E+03  0.26352518128E+04  0.25996574434E+04 0.  0.
        4    1    3    3  502    0  0.88345377029E+03  0.82390965981E+03 -0.70223000005E+03  0.13972996377E+04  0.12699999809E+01 0. -1.
       -4    1    3    3    0  502 -0.88345377029E+03 -0.82390965981E+03  0.27056659654E+03  0.12379521751E+04  0.12699999809E+01 0.  1.
</event>
<event>
 5   0  0.2456600E-06  0.2596848E+04  0.7818609E-02  0.8369273E-01
        1   -1    0    0  501    0  0.00000000000E+00  0.00000000000E+00  0.20388092149E+04  0.20388092149E+04  0.50400001928E-02 0.  1.
       -1   -1    0    0    0  501  0.00000000000E+00  0.00000000000E+00 -0.82690670889E+03  0.82690670891E+03  0.50400001928E-02 0. -1.
    10030    2    1    2    0    0  0.00000000000E+00  0.00000000000E+00  0.12119025060E+04  0.28657159238E+04  0.25968481033E+04 0.  0.
        5    1    3    3  502    0  0.51994471803E+03  0.32476512769E+03 -0.65713646996E+03  0.89870202410E+03  0.46999998093E+01 0. -1.
       -5    1    3    3    0  502 -0.51994471803E+03 -0.32476512769E+03  0.18690389759E+04  0.19670138997E+04  0.46999998093E+01 0.  1.
</event>
<event>
 5   0  0.2072125E-06  0.2576320E+04  0.7818609E-02  0.8376290E-01
       -3   -1    0    0    0  501  0.00000000000E+00  0.00000000000E+00  0.10548044417E+04  0.10548044466E+04  0.10100000352E+00 0. -1.
        3   -1    0    0  501    0  0.00000000000E+00  0.00000000000E+00 -0.15731406567E+04  0.15731406600E+04  0.10100000352E+00 0.  1.
    10030    2    1    2    0    0  0.00000000000E+00  0.00000000000E+00 -0.51833621498E+03  0.26279451066E+04  0.25763196718E+04 0.  0.
        3    1    3    3  502    0  0.18436910580E+03 -0.12484942030E+04  0.41243660557E+01  0.12620407135E+04  0.10100000352E+00 0. -1.
       -3    1    3    3    0  502 -0.18436910580E+03  0.12484942030E+04 -0.52246058104E+03  0.13659043930E+04  0.10100000352E+00 0.  1.
</event>
<event>
 5   0  0.2333979E-06  0.2596675E+04  0.7818609E-02  0.8369332E-01
       -1   -1    0    0    0  501  0.00000000000E+00  0.00000000000E+00  0.77741446578E+03  0.77741446580E+03  0.50400001928E-02 0.  1.
        1   -1    0    0  501    0  0.00000000000E+00  0.00000000000E+00 -0.21683156462E+04  0.21683156462E+04  0.50400001928E-02 0. -1.
    10030    2    1    2    0    0  0.00000000000E+00  0.00000000000E+00 -0.13909011804E+04  0.29457301120E+04  0.25966747581E+04 0.  0.
        3    1    3    3  502    0 -0.46854876425E+03  0.10553224071E+04 -0.21984230869E+02  0.11548708343E+04  0.10100000352E+00 0.  1.
       -3    1    3    3    0  502  0.46854876425E+03 -0.10553224071E+04 -0.13689169496E+04  0.17908592777E+04  0.10100000352E+00 0. -1.
</event>
<event>
 5   0  0.2072125E-06  0.2604340E+04  0.7818609E-02  0.8366729E-01
        3   -1    0    0  501    0  0.00000000000E+00  0.00000000000E+00  0.11246555741E+04  0.11246555787E+04  0.10100000352E+00 0.  1.
       -3   -1    0    0    0  501  0.00000000000E+00  0.00000000000E+00 -0.15077029100E+04  0.15077029134E+04  0.10100000352E+00 0. -1.
    10030    2    1    2    0    0  0.00000000000E+00  0.00000000000E+00 -0.38304733586E+03  0.26323584920E+04  0.26043398336E+04 0.  0.
        2    1    3    3  502    0  0.80747888748E+03  0.87042107661E+03 -0.73205880992E+03  0.13948351535E+04  0.25500000920E-02 0.  1.
       -2    1    3    3    0  502 -0.80747888748E+03 -0.87042107661E+03  0.34901147406E+03  0.12375233385E+04  0.25500000920E-02 0. -1.
</event>
<event>
 5   0  0.2333979E-06  0.2601475E+04  0.7818609E-02  0.8367700E-01
        1   -1    0    0  501    0  0.00000000000E+00  0.00000000000E+00  0.12354591657E+04  0.12354591657E+04  0.50400001928E-02 0.  1.
       -1   -1    0    0    0  501  0.00000000000E+00  0.00000000000E+00 -0.13694654669E+04  0.13694654669E+04  0.50400001928E-02 0. -1.
    10030    2    1    2    0    0  0.00000000000E+00  0.00000000000E+00 -0.13400630114E+03  0.26049246326E+04  0.26014754761E+04 0.  0.
        3    1    3    3  502    0  0.16060038378E+03  0.45900734090E+03 -0.12750182020E+04  0.13646067741E+04  0.10100000352E+00 0. -1.
       -3    1    3    3    0  502 -0.16060038378E+03 -0.45900734090E+03  0.11410119008E+04  0.12403178586E+04  0.10100000352E+00 0.  1.
</event>
<event>
 5   0  0.5940748E-06  0.2598911E+04  0.7818609E-02  0.8368571E-01
       -2   -1    0    0    0  501  0.00000000000E+00  0.00000000000E+00  0.12271400127E+04  0.12271400127E+04  0.25500000920E-02 0.  1.
        2   -1    0    0  501    0  0.00000000000E+00  0.00000000000E+00 -0.13760324020E+04  0.13760324020E+04  0.25500000920E-02 0. -1.
    10030    2    1    2    0    0  0.00000000000E+00  0.00000000000E+00 -0.14889238933E+03  0.26031724148E+04  0.25989108637E+04 0.  0.
        1    1    3    3  502    0 -0.10017492083E+03 -0.13382529395E+03 -0.13652175583E+04  0.13754138307E+04  0.50400001928E-02 0. -1.
       -1    1    3    3    0  502  0.10017492083E+03  0.13382529395E+03  0.12163251690E+04  0.12277585841E+04  0.50400001928E-02 0.  1.
</event>
<event>
 5   0  0.2503292E-06  0.2483366E+04  0.7818609E-02  0.8408936E-01
       -1   -1    0    0    0  501  0.00000000000E+00  0.00000000000E+00  0.11822050806E+04  0.11822050807E+04  0.50400001928E-02 0. -1.
        1   -1    0    0  501    0  0.00000000000E+00  0.00000000000E+00 -0.13041532686E+04  0.13041532686E+04  0.50400001928E-02 0.  1.
    10030    2    1    2    0    0  0.00000000000E+00  0.00000000000E+00 -0.12194818791E+03  0.24863583492E+04  0.24833659578E+04 0.  0.
        2    1    3    3  502    0 -0.62007135455E+03 -0.28617421383E+03 -0.10992349745E+04  0.12941026600E+04  0.25500000920E-02 0.  1.
       -2    1    3    3    0  502  0.62007135455E+03  0.28617421383E+03  0.97728678656E+03  0.11922556893E+04  0.25500000920E-02 0. -1.
</event>
<event>
 5   0  0.2333979E-06  0.2590642E+04  0.7818609E-02  0.8371387E-01
       -1   -1    0    0    0  501  0.00000000000E+00  0.00000000000E+00  0.19828996888E+04  0.19828996888E+04  0.50400001928E-02 0. -1.
        1   -1    0    0  501    0  0.00000000000E+00  0.00000000000E+00 -0.84616299096E+03  0.84616299098E+03  0.50400001928E-02 0.  1.
    10030    2    1    2    0    0  0.00000000000E+00  0.00000000000E+00  0.11367366979E+04  0.28290626798E+04  0.25906418753E+04 0.  0.
        3    1    3    3  502    0 -0.49359163192E+03 -0.31225391775E+03 -0.69420201867E+03  0.90722194703E+03  0.10100000352E+00 0.  1.
       -3    1    3    3    0  502  0.49359163192E+03  0.31225391775E+03  0.18309387165E+04  0.19218407328E+04  0.10100000352E+00 0. -1.
</event>
<event>
 5   0  0.2503292E-06  0.2593498E+04  0.7818609E-02  0.8370413E-01
       -1   -1    0    0    0  501  0.00000000000E+00  0.00000000000E+00  0.72236196551E+03  0.72236196553E+03  0.50400001928E-02 0. -1.
        1   -1    0    0  501    0  0.00000000000E+00  0.00000000000E+00 -0.23278600548E+04  0.23278600548E+04  0.50400001928E-02 0.  1.
    10030    2    1    2    0    0  0.00000000000E+00  0.00000000000E+00 -0.16054980893E+04  0.30502220204E+04  0.25934976882E+04 0.  0.
        2    1    3    3  502    0 -0.11545234929E+04  0.52443870792E+03 -0.48368639376E+03  0.13571709478E+04  0.25500000920E-02 0.  1.
       -2    1    3    3    0  502  0.11545234929E+04 -0.52443870792E+03 -0.11218116956E+04  0.16930510726E+04  0.25500000920E-02 0. -1.
</event>
<event>
 5   0  0.2333979E-06  0.2624747E+04  0.7818609E-02  0.8359844E-01
        1   -1    0    0  501    0  0.00000000000E+00  0.00000000000E+00  0.25048175088E+04  0.25048175088E+04  0.50400001928E-02 0.  1.
       -1   -1    0    0    0  501  0.00000000000E+00  0.00000000000E+00 -0.68760454950E+03  0.68760454952E+03  0.50400001928E-02 0. -1.
    10030    2    1    2    0    0  0.00000000000E+00  0.00000000000E+00  0.18172129593E+04  0.31924220583E+04  0.26247467800E+04 0.  0.
        3    1    3    3  502    0  0.25131617254E+03 -0.80643180946E+03 -0.31303080196E+03  0.90082205516E+03  0.10100000352E+00 0. -1.
       -3    1    3    3    0  502 -0.25131617254E+03  0.80643180946E+03  0.21302437612E+04  0.22916000031E+04  0.10100000352E+00 0.  1.
</event>
<event>
 5   0  0.6161834E-06  0.2770143E+04  0.7818609E-02  0.8312598E-01
        2   -1    0    0  501    0  0.00000000000E+00  0.00000000000E+00  0.17114071314E+04  0.17114071314E+04  0.25500000920E-02 0. -1.
       -2   -1    0    0    0  501  0.00000000000E+00  0.00000000000E+00 -0.11209626917E+04  0.11209626917E+04  0.25500000920E-02 0.  1.
    10030    2    1    2    0    0  0.00000000000E+00  0.00000000000E+00  0.59044443965E+03  0.28323698231E+04  0.27701433498E+04 0.  0.
        5    1    3    3  502    0 -0.26516831446E+03  0.33568513148E+02 -0.10943352208E+04  0.11265135354E+04  0.46999998093E+01 0.  1.
       -5    1    3    3    0  502  0.26516831446E+03 -0.33568513148E+02  0.16847796604E+04  0.17058562877E+04  0.46999998093E+01 0. -1.
</event>
<event>
 5   0  0.5940748E-06  0.2597675E+04  0.7818609E-02  0.8368991E-01
        2   -1    0    0  501    0  0.00000000000E+00  0.00000000000E+00  0.10535258117E+04  0.10535258117E+04  0.25500000920E-02 0. -1.
       -2   -1    0    0    0  501  0.00000000000E+00  0.00000000000E+00 -0.16012697975E+04  0.16012697975E+04  0.25500000920E-02 0.  1.
    10030    2    1    2    0    0  0.00000000000E+00  0.00000000000E+00 -0.54774398584E+03  0.26547956092E+04  0.25976751630E+04 0.  0.
        1    1    3    3  502    0  0.73804764725E+03 -0.70422500356E+02  0.81602335848E+03  0.11025279043E+04  0.50400001928E-02 0. -1.
       -1    1    3    3    0  502 -0.73804764725E+03  0.70422500356E+02 -0.13637673443E+04  0.15522677049E+04  0.50400001928E-02 0.  1.
</event>
<event>
 5   0  0.2440590E-06  0.2594463E+04  0.7818609E-02  0.8370084E-01
        1   -1    0    0  501    0  0.00000000000E+00  0.00000000000E+00  0.11902831504E+04  0.11902831504E+04  0.50400001928E-02 0. -1.
       -1   -1    0    0    0  501  0.00000000000E+00  0.00000000000E+00 -0.14137892834E+04  0.14137892834E+04  0.50400001928E-02 0.  1.
    10030    2    1    2    0    0  0.00000000000E+00  0.00000000000E+00 -0.22350613307E+03  0.26040724338E+04  0.25944629982E+04 0.  0.
        1    1    3    3  502    0  0.48601857558E+03  0.11822399851E+04  0.11020877592E+03  0.12829853516E+04  0.50400001928E-02 0.  1.
       -1    1    3    3    0  502 -0.48601857558E+03 -0.11822399851E+04 -0.33371490899E+03  0.13210870822E+04  0.50400001928E-02 0. -1.
</event>
<event>
 5   0  0.6158063E-06  0.2581135E+04  0.7818609E-02  0.8374638E-01
       -2   -1    0    0    0  501  0.00000000000E+00  0.00000000000E+00  0.10201023003E+04  0.10201023003E+04  0.25500000920E-02 0. -1.
        2   -1    0    0  501    0  0.00000000000E+00  0.00000000000E+00 -0.16327422719E+04  0.16327422719E+04  0.25500000920E-02 0.  1.
    10030    2    1    2    0    0  0.00000000000E+00  0.00000000000E+00 -0.61263997161E+03  0.26528445723E+04  0.25811347485E+04 0.  0.
        2    1    3    3  502    0 -0.20463960355E+03 -0.21824573811E+03 -0.15966086816E+04  0.16243976889E+04  0.25500000920E-02 0.  1.
       -2    1    3    3    0  502  0.20463960355E+03  0.21824573811E+03  0.98396871002E+03  0.10284468833E+04  0.25500000920E-02 0. -1.
</event>
<event>
 5   0  0.6161834E-06  0.2600262E+04  0.7818609E-02  0.8368112E-01
        2   -1    0    0  501    0  0.00000000000E+00  0.00000000000E+00  0.19164808400E+04  0.19164808400E+04  0.25500000920E-02 0. -1.
       -2   -1    0    0    0  501  0.00000000000E+00  0.00000000000E+00 -0.88200259968E+03  0.88200259968E+03  0.25500000920E-02 0.  1.
    10030    2    1    2    0    0  0.00000000000E+00  0.00000000000E+00  0.10344782403E+04  0.27984834397E+04  0.26002623584E+04 0.  0.
        5    1    3    3  502    0  0.11903527035E+04  0.36942392681E+03  0.11902573298E+03  0.12520394609E+04  0.46999998093E+01 0.  1.
       -5    1    3    3    0  502 -0.11903527035E+04 -0.36942392681E+03  0.91545250731E+03  0.15464439788E+04  0.46999998093E+01 0. -1.
</event>
<event>
 5   0  0.2503292E-06  0.2578408E+04  0.7818609E-02  0.8375573E-01
        1   -1    0    0  501    0  0.00000000000E+00  0.00000000000E+00  0.80559769102E+03  0.80559769103E+03  0.50400001928E-02 0. -1.
       -1   -1    0    0    0  501  0.00000000000E+00  0.00000000000E+00 -0.20631223856E+04  0.20631223856E+04  0.50400001928E-02 0.  1.
    10030    2    1    2    0    0  0.00000000000E+00  0.00000000000E+00 -0.12575246945E+04  0.28687200766E+04  0.25784077491E+04 0.  0.
        2    1    3    3  502    0 -0.12275909949E+03 -0.36902411120E+03  0.73877684402E+03  0.83488910426E+03  0.25500000920E-02 0. -1.
       -2    1    3    3    0  502  0.12275909949E+03  0.36902411120E+03 -0.19963015386E+04  0.20338309723E+04  0.25500000920E-02 0.  1.
</event>
<event>
 5   0  0.6158063E-06  0.2599390E+04  0.7818609E-02  0.8368409E-01
       -2   -1    0    0    0  501  0.00000000000E+00  0.00000000000E+00  0.10223250350E+04  0.10223250350E+04  0.25500000920E-02 0. -1.
        2   -1    0    0  501    0  0.00000000000E+00  0.00000000000E+00 -0.16523185188E+04  0.16523185188E+04  0.25500000920E-02 0.  1.
    10030    2    1    2    0    0  0.00000000000E+00  0.00000000000E+00 -0.62999348374E+03  0.26746435538E+04  0.25993896111E+04 0.  0.
        2    1    3    3  502    0 -0.90321233606E+02 -0.12834630917E+04 -0.50408627415E+03  0.13818604867E+04  0.25500000920E-02 0.  1.
       -2    1    3    3    0  502  0.90321233606E+02  0.12834630917E+04 -0.12590720959E+03  0.12927830671E+04  0.25500000920E-02 0. -1.
</event>
<event>
 5   0  0.6173140E-06  0.2582805E+04  0.7818609E-02  0.8374065E-01
        2   -1    0    0  501    0  0.00000000000E+00  0.00000000000E+00  0.18529183064E+04  0.18529183064E+04  0.25500000920E-02 0. -1.
       -2   -1    0    0    0  501  0.00000000000E+00  0.00000000000E+00 -0.90005098758E+03  0.90005098759E+03  0.25500000920E-02 0.  1.
    10030    2    1    2    0    0  0.00000000000E+00  0.00000000000E+00  0.95286731885E+03  0.27529692940E+04  0.25828054140E+04 0.  0.
        3    1    3    3  502    0  0.72130721857E+03  0.45472129706E+03 -0.55734427863E+03  0.10186698271E+04  0.10100000352E+00 0.  1.
       -3    1    3    3    0  502 -0.72130721857E+03 -0.45472129706E+03  0.15102115975E+04  0.17342994669E+04  0.10100000352E+00 0. -1.
</event>
<event>
 5   0  0.2456600E-06  0.2619148E+04  0.7818609E-02  0.8361726E-01
        1   -1    0    0  501    0  0.00000000000E+00  0.00000000000E+00  0.18366465613E+04  0.18366465613E+04  0.50400001928E-02 0.  1.
       -1   -1    0    0    0  501  0.00000000000E+00  0.00000000000E+00 -0.93375808162E+03  0.93375808163E+03  0.50400001928E-02 0. -1.
    10030    2    1    2    0    0  0.00000000000E+00  0.00000000000E+00  0.90288847967E+03  0.27704046429E+04  0.26191476245E+04 0.  0.
        5    1    3    3  502    0 -0.11967820474E+04 -0.49097671736E+03  0.66722552765E+03  0.14555265030E+04  0.46999998093E+01 0. -1.
       -5    1    3    3    0  502  0.11967820474E+04  0.49097671736E+03  0.23566295202E+03  0.13148781400E+04  0.46999998093E+01 0.  1.
</event>
<event>
 5   0  0.2456600E-06  0.2632619E+04  0.7818609E-02  0.8357205E-01
       -1   -1    0    0    0  501  0.00000000000E+00  0.00000000000E+00  0.15035089886E+04  0.15035089886E+04  0.50400001928E-02 0. -1.
        1   -1    0    0  501    0  0.00000000000E+00  0.00000000000E+00 -0.11524179949E+04  0.11524179949E+04  0.50400001928E-02 0.  1.
    10030    2    1    2    0    0  0.00000000000E+00  0.00000000000E+00  0.35109099371E+03  0.26559269834E+04  0.26326190867E+04 0.  0.
        5    1    3    3  502    0  0.12106245044E+04 -0.11838413629E+03 -0.33192108117E+03  0.12608807194E+04  0.46999998093E+01 0.  1.
       -5    1    3    3    0  502 -0.12106245044E+04  0.11838413629E+03  0.68301207489E+03  0.13950462641E+04  0.46999998093E+01 0. -1.
</event>
<event>
 5   0  0.5940748E-06  0.2614952E+04  0.7818609E-02  0.8363140E-01
       -2   -1    0    0    0  501  0.00000000000E+00  0.00000000000E+00  0.75686733032E+03  0.75686733033E+03  0.25500000920E-02 0. -1.
        2   -1    0    0  501    0  0.00000000000E+00  0.00000000000E+00 -0.22586427203E+04  0.22586427203E+04  0.25500000920E-02 0.  1.
    10030    2    1    2    0    0  0.00000000000E+00  0.00000000000E+00 -0.15017753899E+04  0.30155100506E+04  0.26149515375E+04 0.  0.
        1    1    3    3  502    0  0.10970298701E+04  0.60204200467E+03 -0.31394994308E+03  0.12901525794E+04  0.50400001928E-02 0. -1.
       -1    1    3    3    0  502 -0.10970298701E+04 -0.60204200467E+03 -0.11878254468E+04  0.17253574712E+04  0.50400001928E-02 0.  1.
</event>
<event>
 5   0  0.2471488E-06  0.2591193E+04  0.7818609E-02  0.8371199E-01
       -1   -1    0    0    0  501  0.00000000000E+00  0.00000000000E+00  0.92170389594E+03  0.92170389596E+03  0.50400001928E-02 0. -1.
        1   -1    0    0  501    0  0.00000000000E+00  0.00000000000E+00 -0.18211600680E+04  0.18211600680E+04  0.50400001928E-02 0.  1.
    10030    2    1    2    0    0  0.00000000000E+00  0.00000000000E+00 -0.89945617205E+03  0.27428639640E+04  0.25911930301E+04 0.  0.
        4    1    3    3  502    0 -0.40392012644E+03  0.11121525553E+04 -0.10083829249E+04  0.15546293806E+04  0.12699999809E+01 0.  1.
       -4    1    3    3    0  502  0.40392012644E+03 -0.11121525553E+04  0.10892675288E+03  0.11882345834E+04  0.12699999809E+01 0. -1.
</event>
<event>
 5   0  0.2503292E-06  0.2601277E+04  0.7818609E-02  0.8367768E-01
       -1   -1    0    0    0  501  0.00000000000E+00  0.00000000000E+00  0.21203122100E+04  0.21203122100E+04  0.50400001928E-02 0.  1.
        1   -1    0    0  501    0  0.00000000000E+00  0.00000000000E+00 -0.79783542653E+03  0.79783542655E+03  0.50400001928E-02 0. -1.
    10030    2    1    2    0    0  0.00000000000E+00  0.00000000000E+00  0.13224767835E+04  0.29181476366E+04  0.26012767607E+04 0.  0.
        2    1    3    3  502    0 -0.11421122990E+04 -0.30622982239E+03  0.53527014223E+02  0.11836647959E+04  0.25500000920E-02 0. -1.
       -2    1    3    3    0  502  0.11421122990E+04  0.30622982239E+03  0.12689497693E+04  0.17344828407E+04  0.25500000920E-02 0.  1.
</event>
<event>
 5   0  0.5942229E-06  0.2672943E+04  0.7818609E-02  0.8343838E-01
        2   -1    0    0  501    0  0.00000000000E+00  0.00000000000E+00  0.11076717760E+04  0.11076717760E+04  0.25500000920E-02 0.  1.
       -2   -1    0    0    0  501  0.00000000000E+00  0.00000000000E+00 -0.16125318680E+04  0.16125318680E+04  0.25500000920E-02 0. -1.
    10030    2    1    2    0    0  0.00000000000E+00  0.00000000000E+00 -0.50486009200E+03  0.27202036440E+04  0.26729429758E+04 0.  0.
        4    1    3    3  502    0  0.71266925395E+03  0.34078982407E+03  0.84464685977E+03  0.11564882621E+04  0.12699999809E+01 0.  1.
       -4    1    3    3    0  502 -0.71266925395E+03 -0.34078982407E+03 -0.13495069518E+04  0.15637153819E+04  0.12699999809E+01 0. -1.
</event>
<event>
 5   0  0.6158063E-06  0.2605704E+04  0.7818609E-02  0.8366266E-01
        2   -1    0    0  501    0  0.00000000000E+00  0.00000000000E+00  0.16222534287E+04  0.16222534287E+04  0.25500000920E-02 0.  1.
       -2   -1    0    0    0  501  0.00000000000E+00  0.00000000000E+00 -0.10463370730E+04  0.10463370730E+04  0.25500000920E-02 0. -1.
    10030    2    1    2    0    0  0.00000000000E+00  0.00000000000E+00  0.57591635569E+03  0.26685905016E+04  0.26057044377E+04 0.  0.
        2    1    3    3  502    0 -0.54301031391E+03  0.99406888308E+03 -0.37130954590E+03  0.11920167466E+04  0.25500000920E-02 0. -1.
       -2    1    3    3    0  502  0.54301031391E+03 -0.99406888308E+03  0.94722590160E+03  0.14765737550E+04  0.25500000920E-02 0.  1.
</event>
<event>
 5   0  0.6173140E-06  0.2595135E+04  0.7818609E-02  0.8369856E-01
       -2   -1    0    0    0  501  0.00000000000E+00  0.00000000000E+00  0.72272383105E+03  0.72272383106E+03  0.25500000920E-02 0.  1.
        2   -1    0    0  501    0  0.00000000000E+00  0.00000000000E+00 -0.23296330069E+04  0.23296330069E+04  0.25500000920E-02 0. -1.
    10030    2    1    2    0    0  0.00000000000E+00  0.00000000000E+00 -0.16069091759E+04  0.30523568380E+04  0.25951349034E+04 0.  0.
        3    1    3    3  502    0  0.33552274836E+03 -0.17053069711E+03  0.65711105053E+03  0.75726559162E+03  0.10100000352E+00 0.  1.
       -3    1    3    3    0  502 -0.33552274836E+03  0.17053069711E+03 -0.22640202264E+04  0.22950912463E+04  0.10100000352E+00 0. -1.
</event>
<event>
 5   0  0.2072125E-06  0.2621988E+04  0.7818609E-02  0.8360771E-01
        4   -1    0    0  501    0  0.00000000000E+00  0.00000000000E+00  0.16323847026E+04  0.16323851967E+04  0.12699999809E+01 0. -1.
       -4   -1    0    0    0  501  0.00000000000E+00  0.00000000000E+00 -0.10528789460E+04  0.10528797120E+04  0.12699999809E+01 0.  1.
    10030    2    1    2    0    0  0.00000000000E+00  0.00000000000E+00  0.57950575660E+03  0.26852649086E+04  0.26219879305E+04 0.  0.
        5    1    3    3  502    0  0.56871854037E+03  0.73496570384E+03  0.12367675442E+04  0.15470072438E+04  0.46999998093E+01 0. -1.
       -5    1    3    3    0  502 -0.56871854037E+03 -0.73496570384E+03 -0.65726178764E+03  0.11382576648E+04  0.46999998093E+01 0.  1.
</event>
<event>
 5   0  0.5942229E-06  0.2603388E+04  0.7818609E-02  0.8367051E-01
        2   -1    0    0  501    0  0.00000000000E+00  0.00000000000E+00  0.15104838953E+04  0.15104838953E+04  0.25500000920E-02 0. -1.
       -2   -1    0    0    0  501  0.00000000000E+00  0.00000000000E+00 -0.11217643459E+04  0.11217643459E+04  0.25500000920E-02 0.  1.
    10030    2    1    2    0    0  0.00000000000E+00  0.00000000000E+00  0.38871954946E+03  0.26322482412E+04  0.26033877766E+04 0.  0.
        4    1    3    3  502    0  0.16989932599E+03 -0.47564435623E+03  0.14073685758E+04  0.14952562508E+04  0.12699999809E+01 0. -1.
       -4    1    3    3    0  502 -0.16989932599E+03  0.47564435623E+03 -0.10186490263E+04  0.11369919904E+04  0.12699999809E+01 0.  1.
</event>
<event>
 5   0  0.6173140E-06  0.2602045E+04  0.7818609E-02  0.8367507E-01
        2   -1    0    0  501    0  0.00000000000E+00  0.00000000000E+00  0.21871211058E+04  0.21871211059E+04  0.25500000920E-02 0.  1.
       -2   -1    0    0    0  501  0.00000000000E+00  0.00000000000E+00 -0.77392134051E+03  0.77392134052E+03  0.25500000920E-02 0. -1.
    10030    2    1    2    0    0  0.00000000000E+00  0.00000000000E+00  0.14131997653E+04  0.29610424464E+04  0.26020451173E+04 0.  0.
        3    1    3    3  502    0  0.53095073368E+03 -0.59411538954E+03 -0.46378056288E+03  0.92194045274E+03  0.10100000352E+00 0. -1.
       -3    1    3    3    0  502 -0.53095073368E+03  0.59411538954E+03  0.18769803282E+04  0.20391019936E+04  0.10100000352E+00 0.  1.
</event>
<event>
 5   0  0.2333979E-06  0.2603062E+04  0.7818609E-02  0.8367162E-01
       -1   -1    0    0    0  501  0.00000000000E+00  0.00000000000E+00  0.11129181167E+04  0.11129181167E+04  0.50400001928E-02 0.  1.
        1   -1    0    0  501    0  0.00000000000E+00  0.00000000000E+00 -0.15221087759E+04  0.15221087759E+04  0.50400001928E-02 0. -1.
    10030    2    1    2    0    0  0.00000000000E+00  0.00000000000E+00 -0.40919065919E+03  0.26350268926E+04  0.26030616069E+04 0.  0.
        3    1    3    3  502    0 -0.68884123698E+03  0.10981592299E+04 -0.32232690999E+03  0.13357958643E+04  0.10100000352E+00 0. -1.
       -3    1    3    3    0  502  0.68884123698E+03 -0.10981592299E+04 -0.86863749202E+02  0.12992310284E+04  0.10100000352E+00 0.  1.
</event>
<event>
 5   0  0.5940748E-06  0.2609786E+04  0.7818609E-02  0.8364885E-01
       -2   -1    0    0    0  501  0.00000000000E+00  0.00000000000E+00  0.14147222849E+04  0.14147222849E+04  0.25500000920E-02 0. -1.
        2   -1    0    0  501    0  0.00000000000E+00  0.00000000000E+00 -0.12035900709E+04  0.12035900709E+04  0.25500000920E-02 0.  1.
    10030    2    1    2    0    0  0.00000000000E+00  0.00000000000E+00  0.21113221404E+03  0.26183123558E+04  0.26097859646E+04 0.  0.
        1    1    3    3  502    0 -0.79899998090E+03  0.16507327416E+03  0.11272721152E+04  0.13915432358E+04  0.50400001928E-02 0. -1.
       -1    1    3    3    0  502  0.79899998090E+03 -0.16507327416E+03 -0.91613990119E+03  0.12267691200E+04  0.50400001928E-02 0.  1.
</event>
<event>
 5   0  0.2503292E-06  0.2649154E+04  0.7818609E-02  0.8351694E-01
       -1   -1    0    0    0  501  0.00000000000E+00  0.00000000000E+00  0.11707656012E+04  0.11707656012E+04  0.50400001928E-02 0.  1.
        1   -1    0    0  501    0  0.00000000000E+00  0.00000000000E+00 -0.14985959164E+04  0.14985959164E+04  0.50400001928E-02 0. -1.
    10030    2    1    2    0    0  0.00000000000E+00  0.00000000000E+00 -0.32783031516E+03  0.26693615176E+04  0.26491542417E+04 0.  0.
        2    1    3    3  502    0 -0.76422499520E+03  0.81513345794E+03  0.55286325108E+03  0.12466515840E+04  0.25500000920E-02 0.  1.
       -2    1    3    3    0  502  0.76422499520E+03 -0.81513345794E+03 -0.88069356623E+03  0.14227099336E+04  0.25500000920E-02 0. -1.
</event>
<event>
 5   0  0.2440590E-06  0.2577417E+04  0.7818609E-02  0.8375913E-01
       -1   -1    0    0    0  501  0.00000000000E+00  0.00000000000E+00  0.73459458246E+03  0.73459458247E+03  0.50400001928E-02 0.  1.
        1   -1    0    0  501    0  0.00000000000E+00  0.00000000000E+00 -0.22607979291E+04  0.22607979291E+04  0.50400001928E-02 0. -1.
    10030    2    1    2    0    0  0.00000000000E+00  0.00000000000E+00 -0.15262033466E+04  0.29953925115E+04  0.25774172427E+04 0.  0.
        1    1    3    3  502    0  0.52409714173E+03  0.53410920148E+03 -0.19824479566E+04  0.21189738917E+04  0.50400001928E-02 0. -1.
       -1    1    3    3    0  502 -0.52409714173E+03 -0.53410920148E+03  0.45624460998E+03  0.87641861985E+03  0.50400001928E-02 0.  1.
</event>
<event>
 5   0  0.5942229E-06  0.2647906E+04  0.7818609E-02  0.8352108E-01
       -2   -1    0    0    0  501  0.00000000000E+00  0.00000000000E+00  0.10317183079E+04  0.10317183079E+04  0.25500000920E-02 0. -1.
        2   -1    0    0  501    0  0.00000000000E+00  0.00000000000E+00 -0.16989634650E+04  0.16989634650E+04  0.25500000920E-02 0.  1.
    10030    2    1    2    0    0  0.00000000000E+00  0.00000000000E+00 -0.66724515712E+03  0.27306817729E+04  0.26479061246E+04 0.  0.
        4    1    3    3  502    0 -0.86974387867E+03  0.62413894601E+02 -0.13610089645E+04  0.16163839033E+04  0.12699999809E+01 0.  1.
       -4    1    3    3    0  502  0.86974387867E+03 -0.62413894601E+02  0.69376380735E+03  0.11142978695E+04  0.12699999809E+01 0. -1.
</event>
<event>
 5   0  0.5942229E-06  0.2603181E+04  0.7818609E-02  0.8367121E-01
        2   -1    0    0  501    0  0.00000000000E+00  0.00000000000E+00  0.13494308892E+04  0.13494308892E+04  0.25500000920E-02 0.  1.
       -2   -1    0    0    0  501  0.00000000000E+00  0.00000000000E+00 -0.12554461982E+04  0.12554461982E+04  0.25500000920E-02 0. -1.
    10030    2    1    2    0    0  0.00000000000E+00  0.00000000000E+00  0.93984690927E+02  0.26048770874E+04  0.26031810383E+04 0.  0.
        4    1    3    3  502    0 -0.21368403380E+03  0.78543002733E+03  0.10633189236E+04  0.13391078897E+04  0.12699999809E+01 0.  1.
       -4    1    3    3    0  502  0.21368403380E+03 -0.78543002733E+03 -0.96933423269E+03  0.12657691976E+04  0.12699999809E+01 0. -1.
</event>
<event>
 5   0  0.5942229E-06  0.2635648E+04  0.7818609E-02  0.8356192E-01
        2   -1    0    0  501    0  0.00000000000E+00  0.00000000000E+00  0.98137121845E+03  0.98137121846E+03  0.25500000920E-02 0.  1.
       -2   -1    0    0    0  501  0.00000000000E+00  0.00000000000E+00 -0.17696263029E+04  0.17696263029E+04  0.25500000920E-02 0. -1.
    10030    2    1    2    0    0  0.00000000000E+00  0.00000000000E+00 -0.78825508447E+03  0.27509975214E+04  0.26356481716E+04 0.  0.
        4    1    3    3  502    0 -0.20268133360E+03  0.11232585646E+04  0.29338743607E+03  0.11785021538E+04  0.12699999809E+01 0. -1.
       -4    1    3    3    0  502  0.20268133360E+03 -0.11232585646E+04 -0.10816425205E+04  0.15724953676E+04  0.12699999809E+01 0.  1.
</event>
<event>
 5   0  0.2072125E-06  0.2626466E+04  0.7818609E-02  0.8359267E-01
       -3   -1    0    0    0  501  0.00000000000E+00  0.00000000000E+00  0.84649994778E+03  0.84649995380E+03  0.10100000352E+00 0. -1.
        3   -1    0    0  501    0  0.00000000000E+00  0.00000000000E+00 -0.20373071243E+04  0.20373071268E+04  0.10100000352E+00 0.  1.
    10030    2    1    2    0    0  0.00000000000E+00  0.00000000000E+00 -0.11908071765E+04  0.28838070806E+04  0.26264655997E+04 0.  0.
        5    1    3    3  502    0  0.91158049822E+03 -0.51550585436E+03 -0.14653981913E+04  0.18011494218E+04  0.46999998093E+01 0.  1.
       -5    1    3    3    0  502 -0.91158049822E+03  0.51550585436E+03  0.27459101484E+03  0.10826576587E+04  0.46999998093E+01 0. -1.
</event>
<event>
 5   0  0.2440590E-06  0.2601690E+04  0.7818609E-02  0.8367627E-01
        1   -1    0    0  501    0  0.00000000000E+00  0.00000000000E+00  0.76714913982E+03  0.76714913984E+03  0.50400001928E-02 0. -1.
       -1   -1    0    0    0  501  0.00000000000E+00  0.00000000000E+00 -0.22058265788E+04  0.22058265788E+04  0.50400001928E-02 0.  1.
    10030    2    1    2    0    0  0.00000000000E+00  0.00000000000E+00 -0.14386774389E+04  0.29729757186E+04  0.26016901910E+04 0.  0.
        1    1    3    3  502    0  0.65031432194E+02 -0.46292999046E+03 -0.21065260792E+04  0.21577732471E+04  0.50400001928E-02 0.  1.
       -1    1    3    3    0  502 -0.65031432194E+02  0.46292999046E+03  0.66784864029E+03  0.81520247154E+03  0.50400001928E-02 0. -1.
</event>
<event>
 5   0  0.6173140E-06  0.2600345E+04  0.7818609E-02  0.8368084E-01
        2   -1    0    0  501    0  0.00000000000E+00  0.00000000000E+00  0.27055056251E+04  0.27055056251E+04  0.25500000920E-02 0.  1.
       -2   -1    0    0    0  501  0.00000000000E+00  0.00000000000E+00 -0.62481812770E+03  0.62481812770E+03  0.25500000920E-02 0. -1.
    10030    2    1    2    0    0  0.00000000000E+00  0.00000000000E+00  0.20806874974E+04  0.33303237528E+04  0.26003453303E+04 0.  0.
        3    1    3    3  502    0  0.11446839682E+04 -0.20498329892E+03  0.29561708939E+03  0.11998787496E+04  0.10100000352E+00 0. -1.
       -3    1    3    3    0  502 -0.11446839682E+04  0.20498329892E+03  0.17850704081E+04  0.21304450033E+04  0.10100000352E+00 0.  1.
</event>
<event>
 5   0  0.5940748E-06  0.2613205E+04  0.7818609E-02  0.8363730E-01
       -2   -1    0    0    0  501  0.00000000000E+00  0.00000000000E+00  0.10033871506E+04  0.10033871506E+04  0.25500000920E-02 0. -1.
        2   -1    0    0  501    0  0.00000000000E+00  0.00000000000E+00 -0.17014467159E+04  0.17014467159E+04  0.25500000920E-02 0.  1.
    10030    2    1    2    0    0  0.00000000000E+00  0.00000000000E+00 -0.69805956521E+03  0.27048338665E+04  0.26132047545E+04 0.  0.
        1    1    3    3  502    0  0.12383500635E+04  0.41200567751E+03 -0.41408430250E+03  0.13692061085E+04  0.50400001928E-02 0. -1.
       -1    1    3    3    0  502 -0.12383500635E+04 -0.41200567751E+03 -0.28397526271E+03  0.13356277580E+04  0.50400001928E-02 0.  1.
</event>
<event>
 5   0  0.2503292E-06  0.2610775E+04  0.7818609E-02  0.8364551E-01
        1   -1    0    0  501    0  0.00000000000E+00  0.00000000000E+00  0.18678483100E+04  0.18678483100E+04  0.50400001928E-02 0. -1.
       -1   -1    0    0    0  501  0.00000000000E+00  0.00000000000E+00 -0.91229893154E+03  0.91229893156E+03  0.50400001928E-02 0.  1.
    10030    2    1    2    0    0  0.00000000000E+00  0.00000000000E+00  0.95554937841E+03  0.27801472415E+04  0.26107746111E+04 0.  0.
        2    1    3    3  502    0 -0.65749324831E+03 -0.67830560676E+03 -0.48158215454E+03  0.10603382665E+04  0.25500000920E-02 0.  1.
       -2    1    3    3    0  502  0.65749324831E+03  0.67830560676E+03  0.14371315330E+04  0.17198089751E+04  0.25500000920E-02 0. -1.
</event>
<event>
 5   0  0.2440590E-06  0.2599307E+04  0.7818609E-02  0.8368437E-01
        1   -1    0    0  501    0  0.00000000000E+00  0.00000000000E+00  0.22845175472E+04  0.22845175472E+04  0.50400001928E-02 0.  1.
       -1   -1    0    0    0  501  0.00000000000E+00  0.00000000000E+00 -0.73936779638E+03  0.73936779640E+03  0.50400001928E-02 0. -1.
    10030    2    1    2    0    0  0.00000000000E+00  0.00000000000E+00  0.15451497508E+04  0.30238853436E+04  0.25993066035E+04 0.  0.
        1    1    3    3  502    0  0.12276040813E+04  0.18751217201E+03  0.32665451810E+03  0.12840855771E+04  0.50400001928E-02 0. -1.
       -1    1    3    3    0  502 -0.12276040813E+04 -0.18751217201E+03  0.12184952327E+04  0.17397997664E+04  0.50400001928E-02 0.  1.
</event>
<event>
 5   0  0.2503292E-06  0.2598770E+04  0.7818609E-02  0.8368619E-01
        1   -1    0    0  501    0  0.00000000000E+00  0.00000000000E+00  0.11652068150E+04  0.11652068150E+04  0.50400001928E-02 0.  1.
       -1   -1    0    0    0  501  0.00000000000E+00  0.00000000000E+00 -0.14490143205E+04  0.14490143205E+04  0.50400001928E-02 0. -1.
    10030    2    1    2    0    0  0.00000000000E+00  0.00000000000E+00 -0.28380750552E+03  0.26142211355E+04  0.25987699870E+04 0.  0.
        2    1    3    3  502    0  0.44957526973E+03  0.17420662270E+03  0.10718918098E+04  0.11753373653E+04  0.25500000920E-02 0.  1.
       -2    1    3    3    0  502 -0.44957526973E+03 -0.17420662270E+03 -0.13556993153E+04  0.14388837702E+04  0.25500000920E-02 0. -1.
</event>
<event>
 5   0  0.6173140E-06  0.2599050E+04  0.7818609E-02  0.8368524E-01
        2   -1    0    0  501    0  0.00000000000E+00  0.00000000000E+00  0.13954484095E+04  0.13954484095E+04  0.25500000920E-02 0.  1.
       -2   -1    0    0    0  501  0.00000000000E+00  0.00000000000E+00 -0.12101951614E+04  0.12101951614E+04  0.25500000920E-02 0. -1.
    10030    2    1    2    0    0  0.00000000000E+00  0.00000000000E+00  0.18525324813E+03  0.26056435709E+04  0.25990497596E+04 0.  0.
        3    1    3    3  502    0  0.43163252846E+03 -0.61552545180E+03  0.11553095548E+04  0.13783752751E+04  0.10100000352E+00 0.  1.
       -3    1    3    3    0  502 -0.43163252846E+03  0.61552545180E+03 -0.97005630669E+03  0.12272682958E+04  0.10100000352E+00 0. -1.
</event>
<event>
 5   0  0.2503292E-06  0.2584173E+04  0.7818609E-02  0.8373597E-01
        1   -1    0    0  501    0  0.00000000000E+00  0.00000000000E+00  0.10741864111E+04  0.10741864111E+04  0.50400001928E-02 0.  1.
       -1   -1    0    0    0  501  0.00000000000E+00  0.00000000000E+00 -0.15541883865E+04  0.15541883865E+04  0.50400001928E-02 0. -1.
    10030    2    1    2    0    0  0.00000000000E+00  0.00000000000E+00 -0.48000197538E+03  0.26283747976E+04  0.25841734036E+04 0.  0.
        2    1    3    3  502    0  0.65961830516E+03 -0.75558722500E+03  0.58847410395E+03  0.11628887024E+04  0.25500000920E-02 0.  1.
       -2    1    3    3    0  502 -0.65961830516E+03  0.75558722500E+03 -0.10684760793E+04  0.14654860952E+04  0.25500000920E-02 0. -1.
</event>
<event>
 5   0  0.5942229E-06  0.2583108E+04  0.7818609E-02  0.8373962E-01
        2   -1    0    0  501    0  0.00000000000E+00  0.00000000000E+00  0.26631097645E+04  0.26631097645E+04  0.25500000920E-02 0. -1.
       -2   -1    0    0    0  501  0.00000000000E+00  0.00000000000E+00 -0.62637749522E+03  0.62637749522E+03  0.25500000920E-02 0.  1.
    10030    2    1    2    0    0  0.00000000000E+00  0.00000000000E+00  0.20367322693E+04  0.32894872597E+04  0.25831082237E+04 0.  0.
        4    1    3    3  502    0  0.89059749045E+03  0.68258556277E+03  0.18328073086E+04  0.21490163294E+04  0.12699999809E+01 0.  1.
       -4    1    3    3    0  502 -0.89059749045E+03 -0.68258556277E+03  0.20392496067E+03  0.11404709304E+04  0.12699999809E+01 0. -1.
</event>
<event>
 5   0  0.2333979E-06  0.2613260E+04  0.7818609E-02  0.8363711E-01
        1   -1    0    0  501    0  0.00000000000E+00  0.00000000000E+00  0.19107898732E+04  0.19107898732E+04  0.50400001928E-02 0. -1.
       -1   -1    0    0    0  501  0.00000000000E+00  0.00000000000E+00 -0.89349558827E+03  0.89349558829E+03  0.50400001928E-02 0.  1.
    10030    2    1    2    0    0  0.00000000000E+00  0.00000000000E+00  0.10172942850E+04  0.28042854615E+04  0.26132602793E+04 0.  0.
        3    1    3    3  502    0 -0.71692089053E+03 -0.51699156129E+03 -0.52399835188E+03  0.10275359462E+04  0.10100000352E+00 0.  1.
       -3    1    3    3    0  502  0.71692089053E+03  0.51699156129E+03  0.15412926368E+04  0.17767495153E+04  0.10100000352E+00 0. -1.
</event>
<event>
 5   0  0.2440590E-06  0.2589993E+04  0.7818609E-02  0.8371608E-01
       -1   -1    0    0    0  501  0.00000000000E+00  0.00000000000E+00  0.81848451628E+03  0.81848451629E+03  0.50400001928E-02 0.  1.
        1   -1    0    0  501    0  0.00000000000E+00  0.00000000000E+00 -0.20489276270E+04  0.20489276270E+04  0.50400001928E-02 0. -1.
    10030    2    1    2    0    0  0.00000000000E+00  0.00000000000E+00 -0.12304431107E+04  0.28674121433E+04  0.25899926932E+04 0.  0.
        1    1    3    3  502    0  0.94451134473E+03 -0.87822977340E+03 -0.74445678310E+03  0.14891625556E+04  0.50400001928E-02 0.  1.
       -1    1    3    3    0  502 -0.94451134473E+03  0.87822977340E+03 -0.48598632762E+03  0.13782495877E+04  0.50400001928E-02 0. -1.
</event>
<event>
 5   0  0.5942229E-06  0.2502812E+04  0.7818609E-02  0.8401984E-01
        2   -1    0    0  501    0  0.00000000000E+00  0.00000000000E+00  0.20990407150E+04  0.20990407150E+04  0.25500000920E-02 0.  1.
       -2   -1    0    0    0  501  0.00000000000E+00  0.00000000000E+00 -0.74606346542E+03  0.74606346543E+03  0.25500000920E-02 0. -1.
    10030    2    1    2    0    0  0.00000000000E+00  0.00000000000E+00  0.13529772496E+04  0.28451041804E+04  0.25028124899E+04 0.  0.
        4    1    3    3  502    0 -0.12246464296E+04  0.24094620036E+03  0.77943960519E+03  0.14715099931E+04  0.12699999809E+01 0.  1.
       -4    1    3    3    0  502  0.12246464296E+04 -0.24094620036E+03  0.57353764439E+03  0.13735941873E+04  0.12699999809E+01 0. -1.
</event>
<event>
 5   0  0.6161834E-06  0.2598674E+04  0.7818609E-02  0.8368652E-01
       -2   -1    0    0    0  501  0.00000000000E+00  0.00000000000E+00  0.16421919925E+04  0.16421919925E+04  0.25500000920E-02 0.  1.
        2   -1    0    0  501    0  0.00000000000E+00  0.00000000000E+00 -0.10280626630E+04  0.10280626630E+04  0.25500000920E-02 0. -1.
    10030    2    1    2    0    0  0.00000000000E+00  0.00000000000E+00  0.61412932949E+03  0.26702546555E+04  0.25986737179E+04 0.  0.
        5    1    3    3  502    0  0.70012122136E+03 -0.63743958723E+03  0.12213808284E+04  0.15454100330E+04  0.46999998093E+01 0.  1.
       -5    1    3    3    0  502 -0.70012122136E+03  0.63743958723E+03 -0.60725149891E+03  0.11248446226E+04  0.46999998093E+01 0. -1.
</event>
<event>
 5   0  0.2503292E-06  0.2661886E+04  0.7818609E-02  0.8347479E-01
        1   -1    0    0  501    0  0.00000000000E+00  0.00000000000E+00  0.17408198594E+04  0.17408198594E+04  0.50400001928E-02 0.  1.
       -1   -1    0    0    0  501  0.00000000000E+00  0.00000000000E+00 -0.10175715913E+04  0.10175715913E+04  0.50400001928E-02 0. -1.
    10030    2    1    2    0    0  0.00000000000E+00  0.00000000000E+00  0.72324826813E+03  0.27583914507E+04  0.26618856734E+04 0.  0.
        2    1    3    3  502    0  0.78030615871E+03  0.48909959080E+03 -0.63410430093E+03  0.11181164409E+04  0.25500000920E-02 0. -1.
       -2    1    3    3    0  502 -0.78030615871E+03 -0.48909959080E+03  0.13573525691E+04  0.16402750098E+04  0.25500000920E-02 0.  1.
</event>
<event>
 5   0  0.2503292E-06  0.2587679E+04  0.7818609E-02  0.8372399E-01
       -1   -1    0    0    0  501  0.00000000000E+00  0.00000000000E+00  0.14600675122E+04  0.14600675122E+04  0.50400001928E-02 0. -1.
        1   -1    0    0  501    0  0.00000000000E+00  0.00000000000E+00 -0.11465361960E+04  0.11465361960E+04  0.50400001928E-02 0.  1.
    10030    2    1    2    0    0  0.00000000000E+00  0.00000000000E+00  0.31353131617E+03  0.26066037083E+04  0.25876786906E+04 0.  0.
        2    1    3    3  502    0  0.89634203393E+03  0.48537631714E+03  0.95946309779E+03  0.13998530805E+04  0.25500000920E-02 0. -1.
       -2    1    3    3    0  502 -0.89634203393E+03 -0.48537631714E+03 -0.64593178161E+03  0.12067506277E+04  0.25500000920E-02 0.  1.
</event>
<event>
 5   0  0.2440590E-06  0.2598528E+04  0.7818609E-02  0.8368701E-01
        1   -1    0    0  501    0  0.00000000000E+00  0.00000000000E+00  0.16637173315E+04  0.16637173315E+04  0.50400001928E-02 0.  1.
       -1   -1    0    0    0  501  0.00000000000E+00  0.00000000000E+00 -0.10146477184E+04  0.10146477184E+04  0.50400001928E-02 0. -1.
    10030    2    1    2    0    0  0.00000000000E+00  0.00000000000E+00  0.64906961313E+03  0.26783650499E+04  0.25985280406E+04 0.  0.
        1    1    3    3  502    0  0.73310280489E+03 -0.10390065659E+04  0.49672158898E+02  0.12725728623E+04  0.50400001928E-02 0. -1.
       -1    1    3    3    0  502 -0.73310280489E+03  0.10390065659E+04  0.59939745423E+03  0.14057921876E+04  0.50400001928E-02 0.  1.
</event>
<event>
 5   0  0.2456600E-06  0.2604321E+04  0.7818609E-02  0.8366735E-01
       -1   -1    0    0    0  501  0.00000000000E+00  0.00000000000E+00  0.96311258114E+03  0.96311258115E+03  0.50400001928E-02 0.  1.
        1   -1    0    0  501    0  0.00000000000E+00  0.00000000000E+00 -0.17605643904E+04  0.17605643904E+04  0.50400001928E-02 0. -1.
    10030    2    1    2    0    0  0.00000000000E+00  0.00000000000E+00 -0.79745180929E+03  0.27236769716E+04  0.26043208054E+04 0.  0.
        5    1    3    3  502    0 -0.21214233225E+03  0.83005513412E+03  0.62682964244E+03  0.10615711872E+04  0.46999998093E+01 0.  1.
       -5    1    3    3    0  502  0.21214233225E+03 -0.83005513412E+03 -0.14242814517E+04  0.16621057844E+04  0.46999998093E+01 0. -1.
</event>
<event>
 5   0  0.2333979E-06  0.2588722E+04  0.7818609E-02  0.8372042E-01
       -1   -1    0    0    0  501  0.00000000000E+00  0.00000000000E+00  0.11250060632E+04  0.11250060632E+04  0.50400001928E-02 0.  1.
        1   -1    0    0  501    0  0.00000000000E+00  0.00000000000E+00 -0.14892106686E+04  0.14892106686E+04  0.50400001928E-02 0. -1.
    10030    2    1    2    0    0  0.00000000000E+00  0.00000000000E+00 -0.36420460542E+03  0.26142167319E+04  0.25887224893E+04 0.  0.
        3    1    3    3  502    0 -0.88705330349E+03  0.19519055027E+03  0.74915520984E+03  0.11773684439E+04  0.10100000352E+00 0.  1.
       -3    1    3    3    0  502  0.88705330349E+03 -0.19519055027E+03 -0.11133598153E+04  0.14368482879E+04  0.10100000352E+00 0. -1.
</event>
<event>
 5   0  0.5940748E-06  0.2594735E+04  0.7818609E-02  0.8369992E-01
        2   -1    0    0  501    0  0.00000000000E+00  0.00000000000E+00  0.17704347280E+04  0.17704347280E+04  0.25500000920E-02 0. -1.
       -2   -1    0    0    0  501  0.00000000000E+00  0.00000000000E+00 -0.95070548919E+03  0.95070548920E+03  0.25500000920E-02 0.  1.
    10030    2    1    2    0    0  0.00000000000E+00  0.00000000000E+00  0.81972923880E+03  0.27211402172E+04  0.25947346794E+04 0.  0.
        1    1    3    3  502    0  0.12624141813E+04  0.27392866710E+03  0.53586573682E+03  0.13985272853E+04  0.50400001928E-02 0.  1.
       -1    1    3    3    0  502 -0.12624141813E+04 -0.27392866710E+03  0.28386350198E+03  0.13226129319E+04  0.50400001928E-02 0. -1.
</event>
<event>
 5   0  0.2456600E-06  0.2616331E+04  0.7818609E-02  0.8362675E-01
       -1   -1    0    0    0  501  0.00000000000E+00  0.00000000000E+00  0.96111275107E+03  0.96111275108E+03  0.50400001928E-02 0.  1.
        1   -1    0    0  501    0  0.00000000000E+00  0.00000000000E+00 -0.17805365660E+04  0.17805365660E+04  0.50400001928E-02 0. -1.
    10030    2    1    2    0    0  0.00000000000E+00  0.00000000000E+00 -0.81942381497E+03  0.27416493171E+04  0.26163305582E+04 0.  0.
        5    1    3    3  502    0  0.53478224961E+03 -0.62656597100E+03  0.65518071545E+03  0.10525496807E+04  0.46999998093E+01 0.  1.
       -5    1    3    3    0  502 -0.53478224961E+03  0.62656597100E+03 -0.14746045304E+04  0.16890996364E+04  0.46999998093E+01 0. -1.
</event>
<event>
 5   0  0.2440590E-06  0.2598959E+04  0.7818609E-02  0.8368555E-01
        1   -1    0    0  501    0  0.00000000000E+00  0.00000000000E+00  0.16566865614E+04  0.16566865615E+04  0.50400001928E-02 0.  1.
       -1   -1    0    0    0  501  0.00000000000E+00  0.00000000000E+00 -0.10192919576E+04  0.10192919576E+04  0.50400001928E-02 0. -1.
    10030    2    1    2    0    0  0.00000000000E+00  0.00000000000E+00  0.63739460387E+03  0.26759785191E+04  0.25989592443E+04 0.  0.
        1    1    3    3  502    0  0.11115696778E+03 -0.48324596472E+03  0.15554444453E+04  0.16325715777E+04  0.50400001928E-02 0.  1.
       -1    1    3    3    0  502 -0.11115696778E+03  0.48324596472E+03 -0.91804984142E+03  0.10434069414E+04  0.50400001928E-02 0. -1.
</event>
<event>
 5   0  0.2440590E-06  0.2594779E+04  0.7818609E-02  0.8369977E-01
       -1   -1    0    0    0  501  0.00000000000E+00  0.00000000000E+00  0.62965394095E+03  0.62965394097E+03  0.50400001928E-02 0. -1.
        1   -1    0    0  501    0  0.00000000000E+00  0.00000000000E+00 -0.26732453864E+04  0.26732453864E+04  0.50400001928E-02 0.  1.
    10030    2    1    2    0    0  0.00000000000E+00  0.00000000000E+00 -0.20435914454E+04  0.33028993274E+04  0.25947789830E+04 0.  0.
        1    1    3    3  502    0  0.83894261910E+03  0.89732184475E+03 -0.15530829354E+04  0.19801711581E+04  0.50400001928E-02 0. -1.
       -1    1    3    3    0  502 -0.83894261910E+03 -0.89732184475E+03 -0.49050851000E+03  0.13227281692E+04  0.50400001928E-02 0.  1.
</event>
<event>
 5   0  0.2471488E-06  0.2603872E+04  0.7818609E-02  0.8366887E-01
       -1   -1    0    0    0  501  0.00000000000E+00  0.00000000000E+00  0.67955260445E+03  0.67955260446E+03  0.50400001928E-02 0.  1.
        1   -1    0    0  501    0  0.00000000000E+00  0.00000000000E+00 -0.24943427513E+04  0.24943427513E+04  0.50400001928E-02 0. -1.
    10030    2    1    2    0    0  0.00000000000E+00  0.00000000000E+00 -0.18147901468E+04  0.31738953557E+04  0.26038718195E+04 0.  0.
        4    1    3    3  502    0  0.11448251594E+04  0.79415423686E+02 -0.16569072007E+04  0.20155085064E+04  0.12699999809E+01 0. -1.
       -4    1    3    3    0  502 -0.11448251594E+04 -0.79415423686E+02 -0.15788294616E+03  0.11583868493E+04  0.12699999809E+01 0.  1.
</event>
<event>
 5   0  0.2333979E-06  0.2597810E+04  0.7818609E-02  0.8368946E-01
       -1   -1    0    0    0  501  0.00000000000E+00  0.00000000000E+00  0.49077385868E+03  0.49077385870E+03  0.50400001928E-02 0. -1.
        1   -1    0    0  501    0  0.00000000000E+00  0.00000000000E+00 -0.34377420925E+04  0.34377420925E+04  0.50400001928E-02 0.  1.
    10030    2    1    2    0    0  0.00000000000E+00  0.00000000000E+00 -0.29469682339E+04  0.39285159513E+04  0.25978098098E+04 0.  0.
        3    1    3    3  502    0  0.85990660189E+03 -0.68079412545E+03 -0.42116180210E+03  0.11748605360E+04  0.10100000352E+00 0. -1.
       -3    1    3    3    0  502 -0.85990660189E+03  0.68079412545E+03 -0.25258064318E+04  0.27536554153E+04  0.10100000352E+00 0.  1.
</event>
<event>
 5   0  0.5940748E-06  0.2572142E+04  0.7818609E-02  0.8377726E-01
        2   -1    0    0  501    0  0.00000000000E+00  0.00000000000E+00  0.21639512609E+04  0.21639512609E+04  0.25500000920E-02 0.  1.
       -2   -1    0    0    0  501  0.00000000000E+00  0.00000000000E+00 -0.76433248148E+03  0.76433248148E+03  0.25500000920E-02 0. -1.
    10030    2    1    2    0    0  0.00000000000E+00  0.00000000000E+00  0.13996187794E+04  0.29282837423E+04  0.25721417045E+04 0.  0.
        1    1    3    3  502    0 -0.17549297940E+01 -0.94919054872E+03  0.16877238591E+04  0.19363309640E+04  0.50400001928E-02 0.  1.
       -1    1    3    3    0  502  0.17549297940E+01  0.94919054872E+03 -0.28810507967E+03  0.99195277837E+03  0.50400001928E-02 0. -1.
</event>
<event>
 5   0  0.6173140E-06  0.2612793E+04  0.7818609E-02  0.8363869E-01
       -2   -1    0    0    0  501  0.00000000000E+00  0.00000000000E+00  0.10721516661E+04  0.10721516661E+04  0.25500000920E-02 0. -1.
        2   -1    0    0  501    0  0.00000000000E+00  0.00000000000E+00 -0.15918198157E+04  0.15918198157E+04  0.25500000920E-02 0.  1.
    10030    2    1    2    0    0  0.00000000000E+00  0.00000000000E+00 -0.51966814963E+03  0.26639714818E+04  0.26127933463E+04 0.  0.
        3    1    3    3  502    0 -0.10988572023E+04 -0.56895899392E+03  0.16726329821E+03  0.12486706968E+04  0.10100000352E+00 0. -1.
       -3    1    3    3    0  502  0.10988572023E+04  0.56895899392E+03 -0.68693144785E+03  0.14153007850E+04  0.10100000352E+00 0.  1.
</event>
<event>
 5   0  0.2333979E-06  0.2601574E+04  0.7818609E-02  0.8367667E-01
        1   -1    0    0  501    0  0.00000000000E+00  0.00000000000E+00  0.14621644356E+04  0.14621644356E+04  0.50400001928E-02 0.  1.
       -1   -1    0    0    0  501  0.00000000000E+00  0.00000000000E+00 -0.11572202811E+04  0.11572202811E+04  0.50400001928E-02 0. -1.
    10030    2    1    2    0    0  0.00000000000E+00  0.00000000000E+00  0.30494415454E+03  0.26193847167E+04  0.26015736309E+04 0.  0.
        3    1    3    3  502    0 -0.51793316777E+03 -0.54711428694E+03  0.12201363097E+04  0.14339879476E+04  0.10100000352E+00 0.  1.
       -3    1    3    3    0  502  0.51793316777E+03  0.54711428694E+03 -0.91519215517E+03  0.11853967692E+04  0.10100000352E+00 0. -1.
</event>
<event>
 5   0  0.6161834E-06  0.2609719E+04  0.7818609E-02  0.8364907E-01
       -2   -1    0    0    0  501  0.00000000000E+00  0.00000000000E+00  0.21280902289E+04  0.21280902290E+04  0.25500000920E-02 0. -1.
        2   -1    0    0  501    0  0.00000000000E+00  0.00000000000E+00 -0.80008756397E+03  0.80008756398E+03  0.25500000920E-02 0.  1.
    10030    2    1    2    0    0  0.00000000000E+00  0.00000000000E+00  0.13280026650E+04  0.29281777929E+04  0.26097191628E+04 0.  0.
        5    1    3    3  502    0 -0.11237026607E+03 -0.18904960491E+03  0.21071358470E+04  0.21185868869E+04  0.46999998093E+01 0. -1.
       -5    1    3    3    0  502  0.11237026607E+03  0.18904960491E+03 -0.77913318200E+03  0.80959090601E+03  0.46999998093E+01 0.  1.
</event>
<event>
 5   0  0.2471488E-06  0.2598132E+04  0.7818609E-02  0.8368836E-01
       -1   -1    0    0    0  501  0.00000000000E+00  0.00000000000E+00  0.85770711381E+03  0.85770711383E+03  0.50400001928E-02 0.  1.
        1   -1    0    0  501    0  0.00000000000E+00  0.00000000000E+00 -0.19675395455E+04  0.19675395455E+04  0.50400001928E-02 0. -1.
    10030    2    1    2    0    0  0.00000000000E+00  0.00000000000E+00 -0.11098324317E+04  0.28252466594E+04  0.25981321483E+04 0.  0.
        4    1    3    3  502    0 -0.78468708960E+03  0.77280987952E+03 -0.13040510077E+04  0.17069035069E+04  0.12699999809E+01 0. -1.
       -4    1    3    3    0  502  0.78468708960E+03 -0.77280987952E+03  0.19421857595E+03  0.11183431524E+04  0.12699999809E+01 0.  1.
</event>
<event>
 5   0  0.2503292E-06  0.2605120E+04  0.7818609E-02  0.8366464E-01
        1   -1    0    0  501    0  0.00000000000E+00  0.00000000000E+00  0.23007185048E+04  0.23007185048E+04  0.50400001928E-02 0. -1.
       -1   -1    0    0    0  501  0.00000000000E+00  0.00000000000E+00 -0.73744924553E+03  0.73744924554E+03  0.50400001928E-02 0.  1.
    10030    2    1    2    0    0  0.00000000000E+00  0.00000000000E+00  0.15632692592E+04  0.30381677503E+04  0.26051204391E+04 0.  0.
        2    1    3    3  502    0  0.65456636161E+03 -0.14590490124E+03 -0.52064080743E+03  0.84900660323E+03  0.25500000920E-02 0.  1.
       -2    1    3    3    0  502 -0.65456636161E+03  0.14590490124E+03  0.20839100667E+04  0.21891611471E+04  0.25500000920E-02 0. -1.
</event>
<event>
 5   0  0.2440590E-06  0.2614837E+04  0.7818609E-02  0.8363179E-01
       -1   -1    0    0    0  501  0.00000000000E+00  0.00000000000E+00  0.70299704702E+03  0.70299704704E+03  0.50400001928E-02 0. -1.
        1   -1    0    0  501    0  0.00000000000E+00  0.00000000000E+00 -0.24315089081E+04  0.24315089081E+04  0.50400001928E-02 0.  1.
    10030    2    1    2    0    0  0.00000000000E+00  0.00000000000E+00 -0.17285118611E+04  0.31345059552E+04  0.26148373427E+04 0.  0.
        1    1    3    3  502    0 -0.30854010591E+03 -0.91215208880E+03  0.19588242383E+03  0.98264355391E+03  0.50400001928E-02 0. -1.
       -1    1    3    3    0  502  0.30854010591E+03  0.91215208880E+03 -0.19243942849E+04  0.21518624013E+04  0.50400001928E-02 0.  1.
</event>
<event>
 5   0  0.2456600E-06  0.2605081E+04  0.7818609E-02  0.8366477E-01
       -1   -1    0    0    0  501  0.00000000000E+00  0.00000000000E+00  0.87622539683E+03  0.87622539684E+03  0.50400001928E-02 0.  1.
        1   -1    0    0  501    0  0.00000000000E+00  0.00000000000E+00 -0.19362737520E+04  0.19362737520E+04  0.50400001928E-02 0. -1.
    10030    2    1    2    0    0  0.00000000000E+00  0.00000000000E+00 -0.10600483551E+04  0.28124991488E+04  0.26050813705E+04 0.  0.
        5    1    3    3  502    0 -0.17401784221E+03  0.94164957603E+03 -0.14832770873E+04  0.17655365023E+04  0.46999998093E+01 0. -1.
       -5    1    3    3    0  502  0.17401784221E+03 -0.94164957603E+03  0.42322873213E+03  0.10469626465E+04  0.46999998093E+01 0.  1.
</event>
<event>
 5   0  0.6161834E-06  0.2600323E+04  0.7818609E-02  0.8368091E-01
       -2   -1    0    0    0  501  0.00000000000E+00  0.00000000000E+00  0.67647965560E+03  0.67647965560E+03  0.25500000920E-02 0.  1.
        2   -1    0    0  501    0  0.00000000000E+00  0.00000000000E+00 -0.24988482694E+04  0.24988482694E+04  0.25500000920E-02 0. -1.
    10030    2    1    2    0    0  0.00000000000E+00  0.00000000000E+00 -0.18223686138E+04  0.31753279250E+04  0.26003230697E+04 0.  0.
        5    1    3    3  502    0 -0.10092436823E+04 -0.76496450510E+03 -0.55171928310E+03  0.13813615608E+04  0.46999998093E+01 0.  1.
       -5    1    3    3    0  502  0.10092436823E+04  0.76496450510E+03 -0.12706493307E+04  0.17939663642E+04  0.46999998093E+01 0. -1.
</event>
<event>
 5   0  0.5942229E-06  0.2585089E+04  0.7818609E-02  0.8373284E-01
       -2   -1    0    0    0  501  0.00000000000E+00  0.00000000000E+00  0.15490727014E+04  0.15490727014E+04  0.25500000920E-02 0. -1.
        2   -1    0    0  501    0  0.00000000000E+00  0.00000000000E+00 -0.10784976659E+04  0.10784976659E+04  0.25500000920E-02 0.  1.
    10030    2    1    2    0    0  0.00000000000E+00  0.00000000000E+00  0.47057503558E+03  0.26275703673E+04  0.25850890064E+04 0.  0.
        4    1    3    3  502    0 -0.12057354466E+04  0.43314416645E+03  0.61427382742E+02  0.12826483432E+04  0.12699999809E+01 0.  1.
       -4    1    3    3    0  502  0.12057354466E+04 -0.43314416645E+03  0.40914765284E+03  0.13449220241E+04  0.12699999809E+01 0. -1.
</event>
<event>
 5   0  0.2456600E-06  0.2598664E+04  0.7818609E-02  0.8368655E-01
        1   -1    0    0  501    0  0.00000000000E+00  0.00000000000E+00  0.23876471558E+04  0.23876471558E+04  0.50400001928E-02 0. -1.
       -1   -1    0    0    0  501  0.00000000000E+00  0.00000000000E+00 -0.70708257753E+03  0.70708257755E+03  0.50400001928E-02 0.  1.
    10030    2    1    2    0    0  0.00000000000E+00  0.00000000000E+00  0.16805645783E+04  0.30947297333E+04  0.25986640454E+04 0.  0.
        5    1    3    3  502    0  0.11503007402E+04  0.41092619714E+02  0.15581457969E+04  0.19371940560E+04  0.46999998093E+01 0. -1.
       -5    1    3    3    0  502 -0.11503007402E+04 -0.41092619714E+02  0.12241878137E+03  0.11575356773E+04  0.46999998093E+01 0.  1.
</event>
<event>
 5   0  0.2072125E-06  0.2597433E+04  0.7818609E-02  0.8369074E-01
        3   -1    0    0  501    0  0.00000000000E+00  0.00000000000E+00  0.13991935449E+04  0.13991935486E+04  0.10100000352E+00 0.  1.
       -3   -1    0    0    0  501  0.00000000000E+00  0.00000000000E+00 -0.12054548643E+04  0.12054548686E+04  0.10100000352E+00 0. -1.
    10030    2    1    2    0    0  0.00000000000E+00  0.00000000000E+00  0.19373868061E+03  0.26046484172E+04  0.25974330984E+04 0.  0.
        2    1    3    3  502    0 -0.11884839963E+04 -0.24956621348E+03  0.55846006124E+03  0.13366582003E+04  0.25500000920E-02 0.  1.
       -2    1    3    3    0  502  0.11884839963E+04  0.24956621348E+03 -0.36472138063E+03  0.12679902168E+04  0.25500000920E-02 0. -1.
</event>
<event>
 5   0  0.5940748E-06  0.2626818E+04  0.7818609E-02  0.8359148E-01
        2   -1    0    0  501    0  0.00000000000E+00  0.00000000000E+00  0.28865335540E+04  0.28865335540E+04  0.25500000920E-02 0. -1.
       -2   -1    0    0    0  501  0.00000000000E+00  0.00000000000E+00 -0.59761750775E+03  0.59761750775E+03  0.25500000920E-02 0.  1.
    10030    2    1    2    0    0  0.00000000000E+00  0.00000000000E+00  0.22889160463E+04  0.34841510618E+04  0.26268178381E+04 0.  0.
        1    1    3    3  502    0  0.10628979132E+04 -0.22067704438E+03  0.16384215651E+03  0.10978590912E+04  0.50400001928E-02 0.  1.
       -1    1    3    3    0  502 -0.10628979132E+04  0.22067704438E+03  0.21250738897E+04  0.23862919706E+04  0.50400001928E-02 0. -1.
</event>
<event>
 5   0  0.5942229E-06  0.2618617E+04  0.7818609E-02  0.8361905E-01
        2   -1    0    0  501    0  0.00000000000E+00  0.00000000000E+00  0.91070615512E+03  0.91070615513E+03  0.25500000920E-02 0. -1.
       -2   -1    0    0    0  501  0.00000000000E+00  0.00000000000E+00 -0.18823731200E+04  0.18823731200E+04  0.25500000920E-02 0.  1.
    10030    2    1    2    0    0  0.00000000000E+00  0.00000000000E+00 -0.97166696484E+03  0.27930792751E+04  0.26186170293E+04 0.  0.
        4    1    3    3  502    0  0.13061835941E+04 -0.87500565266E+02 -0.46162222130E+03  0.13881169326E+04  0.12699999809E+01 0.  1.
       -4    1    3    3    0  502 -0.13061835941E+04  0.87500565266E+02 -0.51004474354E+03  0.14049623425E+04  0.12699999809E+01 0. -1.
</event>
<event>
 5   0  0.5942229E-06  0.2609970E+04  0.7818609E-02  0.8364823E-01
        2   -1    0    0  501    0  0.00000000000E+00  0.00000000000E+00  0.14559268771E+04  0.14559268771E+04  0.25500000920E-02 0.  1.
       -2   -1    0    0    0  501  0.00000000000E+00  0.00000000000E+00 -0.11696916970E+04  0.11696916970E+04  0.25500000920E-02 0. -1.
    10030    2    1    2    0    0  0.00000000000E+00  0.00000000000E+00  0.28623518010E+03  0.26256185741E+04  0.26099697926E+04 0.  0.
        4    1    3    3  502    0  0.77583219492E+03  0.34489875495E+03  0.11400757533E+04  0.14214939613E+04  0.12699999809E+01 0.  1.
       -4    1    3    3    0  502 -0.77583219492E+03 -0.34489875495E+03 -0.85384057318E+03  0.12041246128E+04  0.12699999809E+01 0. -1.
</event>
<event>
 5   0  0.2471488E-06  0.2609347E+04  0.7818609E-02  0.8365033E-01
        1   -1    0    0  501    0  0.00000000000E+00  0.00000000000E+00  0.20215166020E+04  0.20215166020E+04  0.50400001928E-02 0. -1.
       -1   -1    0    0    0  501  0.00000000000E+00  0.00000000000E+00 -0.84202772665E+03  0.84202772666E+03  0.50400001928E-02 0.  1.
    10030    2    1    2    0    0  0.00000000000E+00  0.00000000000E+00  0.11794888754E+04  0.28635443287E+04  0.26093470668E+04 0.  0.
        4    1    3    3  502    0  0.89686477742E+03 -0.47324555760E+03 -0.31110378454E+03  0.10607143651E+04  0.12699999809E+01 0. -1.
       -4    1    3    3    0  502 -0.89686477742E+03  0.47324555760E+03  0.14905926599E+04  0.18028299636E+04  0.12699999809E+01 0.  1.
</event>
<event>
 5   0  0.2333979E-06  0.2593028E+04  0.7818609E-02  0.8370573E-01
       -1   -1    0    0    0  501  0.00000000000E+00  0.00000000000E+00  0.14319568080E+04  0.14319568080E+04  0.50400001928E-02 0. -1.
        1   -1    0    0  501    0  0.00000000000E+00  0.00000000000E+00 -0.11738819149E+04  0.11738819149E+04  0.50400001928E-02 0.  1.
    10030    2    1    2    0    0  0.00000000000E+00  0.00000000000E+00  0.25807489308E+03  0.26058387229E+04  0.25930277282E+04 0.  0.
        3    1    3    3  502    0  0.11480022583E+04  0.59797769991E+03  0.20330571519E+03  0.13102746806E+04  0.10100000352E+00 0.  1.
       -3    1    3    3    0  502 -0.11480022583E+04 -0.59797769991E+03  0.54769177886E+02  0.12955640423E+04  0.10100000352E+00 0. -1.
</event>
<event>
 5   0  0.2333979E-06  0.2597943E+04  0.7818609E-02  0.8368900E-01
        1   -1    0    0  501    0  0.00000000000E+00  0.00000000000E+00  0.14310728657E+04  0.14310728658E+04  0.50400001928E-02 0. -1.
       -1   -1    0    0    0  501  0.00000000000E+00  0.00000000000E+00 -0.11790640026E+04  0.11790640026E+04  0.50400001928E-02 0.  1.
    10030    2    1    2    0    0  0.00000000000E+00  0.00000000000E+00  0.25200886315E+03  0.26101368684E+04  0.25979426484E+04 0.  0.
        3    1    3    3  502    0 -0.51151011608E+03 -0.23089629912E+03  0.13029854388E+04  0.14187060174E+04  0.10100000352E+00 0. -1.
       -3    1    3    3    0  502  0.51151011608E+03  0.23089629912E+03 -0.10509765757E+04  0.11914308510E+04  0.10100000352E+00 0.  1.
</event>
<event>
 5   0  0.5942229E-06  0.2611753E+04  0.7818609E-02  0.8364220E-01
        2   -1    0    0  501    0  0.00000000000E+00  0.00000000000E+00  0.15720940654E+04  0.15720940654E+04  0.25500000920E-02 0. -1.
       -2   -1    0    0    0  501  0.00000000000E+00  0.00000000000E+00 -0.10847401997E+04  0.10847401997E+04  0.25500000920E-02 0.  1.
    10030    2    1    2    0    0  0.00000000000E+00  0.00000000000E+00  0.48735386571E+03  0.26568342652E+04  0.26117531511E+04 0.  0.
        4    1    3    3  502    0 -0.56257364190E+03  0.11689153880E+04  0.91224412463E+02  0.13004521495E+04  0.12699999809E+01 0.  1.
       -4    1    3    3    0  502  0.56257364190E+03 -0.11689153880E+04  0.39612945325E+03  0.13563821156E+04  0.12699999809E+01 0. -1.
</event>
<event>
 5   0  0.2471488E-06  0.2604618E+04  0.7818609E-02  0.8366634E-01
        1   -1    0    0  501    0  0.00000000000E+00  0.00000000000E+00  0.18223354438E+04  0.18223354438E+04  0.50400001928E-02 0. -1.
       -1   -1    0    0    0  501  0.00000000000E+00  0.00000000000E+00 -0.93067869299E+03  0.93067869301E+03  0.50400001928E-02 0.  1.
    10030    2    1    2    0    0  0.00000000000E+00  0.00000000000E+00  0.89165675076E+03  0.27530141368E+04  0.26046180288E+04 0.  0.
        4    1    3    3  502    0 -0.12959556333E+03 -0.10366715853E+04 -0.37598126972E+03  0.11103362166E+04  0.12699999809E+01 0.  1.
       -4    1    3    3    0  502  0.12959556333E+03  0.10366715853E+04  0.12676380205E+04  0.16426779202E+04  0.12699999809E+01 0. -1.
</event>
<event>
 5   0  0.5940748E-06  0.2600104E+04  0.7818609E-02  0.8368166E-01
        2   -1    0    0  501    0  0.00000000000E+00  0.00000000000E+00  0.18331527910E+04  0.18331527910E+04  0.25500000920E-02 0. -1.
       -2   -1    0    0    0  501  0.00000000000E+00  0.00000000000E+00 -0.92198255783E+03  0.92198255783E+03  0.25500000920E-02 0.  1.
    10030    2    1    2    0    0  0.00000000000E+00  0.00000000000E+00  0.91117023315E+03  0.27551353488E+04  0.26001037665E+04 0.  0.
        1    1    3    3  502    0  0.86292115491E+02  0.32988251198E+03  0.17849253487E+04  0.18172031536E+04  0.50400001928E-02 0. -1.
       -1    1    3    3    0  502 -0.86292115491E+02 -0.32988251198E+03 -0.87375511554E+03  0.93793219524E+03  0.50400001928E-02 0.  1.
</event>
<event>
 5   0  0.2456600E-06  0.2585773E+04  0.7818609E-02  0.8373050E-01
        1   -1    0    0  501    0  0.00000000000E+00  0.00000000000E+00  0.12082354124E+04  0.12082354124E+04  0.50400001928E-02 0. -1.
       -1   -1    0    0    0  501  0.00000000000E+00  0.00000000000E+00 -0.13834680795E+04  0.13834680795E+04  0.50400001928E-02 0.  1.
    10030    2    1    2    0    0  0.00000000000E+00  0.00000000000E+00 -0.17523266709E+03  0.25917034919E+04  0.25857727089E+04 0.  0.
        5    1    3    3  502    0 -0.30839363308E+03  0.13861002966E+03  0.11631295122E+04  0.12112851545E+04  0.46999998093E+01 0. -1.
       -5    1    3    3    0  502  0.30839363308E+03 -0.13861002966E+03 -0.13383621793E+04  0.13804183374E+04  0.46999998093E+01 0.  1.
</event>
<event>
 5   0  0.6173140E-06  0.2593779E+04  0.7818609E-02  0.8370317E-01
        2   -1    0    0  501    0  0.00000000000E+00  0.00000000000E+00  0.10390662493E+04  0.10390662493E+04  0.25500000920E-02 0. -1.
       -2   -1    0    0    0  501  0.00000000000E+00  0.00000000000E+00 -0.16186864405E+04  0.16186864405E+04  0.25500000920E-02 0.  1.
    10030    2    1    2    0    0  0.00000000000E+00  0.00000000000E+00 -0.57962019121E+03  0.26577526899E+04  0.25937790566E+04 0.  0.
        3    1    3    3  502    0 -0.72214203660E+03 -0.31016228908E+03  0.76725049301E+03  0.10983456177E+04  0.10100000352E+00 0. -1.
       -3    1    3    3    0  502  0.72214203660E+03  0.31016228908E+03 -0.13468706842E+04  0.15594070722E+04  0.10100000352E+00 0.  1.
</event>
<event>
 5   0  0.5940748E-06  0.2596435E+04  0.7818609E-02  0.8369413E-01
       -2   -1    0    0    0  501  0.00000000000E+00  0.00000000000E+00  0.94203554395E+03  0.94203554395E+03  0.25500000920E-02 0.  1.
        2   -1    0    0  501    0  0.00000000000E+00  0.00000000000E+00 -0.17890705798E+04  0.17890705798E+04  0.25500000920E-02 0. -1.
    10030    2    1    2    0    0  0.00000000000E+00  0.00000000000E+00 -0.84703503585E+03  0.27311061238E+04  0.25964345374E+04 0.  0.
        1    1    3    3  502    0 -0.12081735518E+04 -0.45451640056E+03 -0.27814805408E+03  0.13204676557E+04  0.50400001928E-02 0. -1.
       -1    1    3    3    0  502  0.12081735518E+04  0.45451640056E+03 -0.56888698177E+03  0.14106384681E+04  0.50400001928E-02 0.  1.
</event>
<event>
 5   0  0.2456600E-06  0.2624168E+04  0.7818609E-02  0.8360038E-01
        1   -1    0    0  501    0  0.00000000000E+00  0.00000000000E+00  0.20608713051E+04  0.20608713051E+04  0.50400001928E-02 0. -1.
       -1   -1    0    0    0  501  0.00000000000E+00  0.00000000000E+00 -0.83535743604E+03  0.83535743606E+03  0.50400001928E-02 0.  1.
    10030    2    1    2    0    0  0.00000000000E+00  0.00000000000E+00  0.12255138691E+04  0.28962287412E+04  0.26241678068E+04 0.  0.
        5    1    3    3  502    0 -0.78291132727E+03 -0.49463252299E+03  0.16385994264E+04  0.18821906517E+04  0.46999998093E+01 0. -1.
       -5    1    3    3    0  502  0.78291132727E+03  0.49463252299E+03 -0.41308555735E+03  0.10140380895E+04  0.46999998093E+01 0.  1.
</event>
<event>
 5   0  0.2503292E-06  0.2605579E+04  0.7818609E-02  0.8366309E-01
        1   -1    0    0  501    0  0.00000000000E+00  0.00000000000E+00  0.22538023509E+04  0.22538023509E+04  0.50400001928E-02 0.  1.
       -1   -1    0    0    0  501  0.00000000000E+00  0.00000000000E+00 -0.75306518963E+03  0.75306518964E+03  0.50400001928E-02 0. -1.
    10030    2    1    2    0    0  0.00000000000E+00  0.00000000000E+00  0.15007371612E+04  0.30068675405E+04  0.26055787033E+04 0.  0.
        2    1    3    3  502    0  0.10376183488E+04  0.77185463248E+03  0.93228076646E+03  0.15942267213E+04  0.25500000920E-02 0.  1.
       -2    1    3    3    0  502 -0.10376183488E+04 -0.77185463248E+03  0.56845639476E+03  0.14126408192E+04  0.25500000920E-02 0. -1.
</event>
<event>
 5   0  0.6158063E-06  0.2610255E+04  0.7818609E-02  0.8364726E-01
        2   -1    0    0  501    0  0.00000000000E+00  0.00000000000E+00  0.13462893243E+04  0.13462893243E+04  0.25500000920E-02 0.  1.
       -2   -1    0    0    0  501  0.00000000000E+00  0.00000000000E+00 -0.12652239501E+04  0.12652239501E+04  0.25500000920E-02 0. -1.
    10030    2    1    2    0    0  0.00000000000E+00  0.00000000000E+00  0.81065374253E+02  0.26115132744E+04  0.26102547745E+04 0.  0.
        2    1    3    3  502    0 -0.41187351335E+01 -0.53114135505E+03 -0.11521953533E+04  0.12687325310E+04  0.25500000920E-02 0. -1.
       -2    1    3    3    0  502  0.41187351335E+01  0.53114135505E+03  0.12332607275E+04  0.13427807435E+04  0.25500000920E-02 0.  1.
</event>
<event>
 5   0  0.6158063E-06  0.2594745E+04  0.7818609E-02  0.8369988E-01
        2   -1    0    0  501    0  0.00000000000E+00  0.00000000000E+00  0.17996524424E+04  0.17996524424E+04  0.25500000920E-02 0. -1.
       -2   -1    0    0    0  501  0.00000000000E+00  0.00000000000E+00 -0.93527838446E+03  0.93527838447E+03  0.25500000920E-02 0.  1.
    10030    2    1    2    0    0  0.00000000000E+00  0.00000000000E+00  0.86437405793E+03  0.27349308269E+04  0.25947454819E+04 0.  0.
        2    1    3    3  502    0 -0.10406856152E+04  0.77448527115E+03  0.41327190533E+03  0.13614872943E+04  0.25500000920E-02 0. -1.
       -2    1    3    3    0  502  0.10406856152E+04 -0.77448527115E+03  0.45110215260E+03  0.13734435325E+04  0.25500000920E-02 0.  1.
</event>
<event>
 5   0  0.2333979E-06  0.2593447E+04  0.7818609E-02  0.8370430E-01
       -1   -1    0    0    0  501  0.00000000000E+00  0.00000000000E+00  0.99380731020E+03  0.99380731022E+03  0.50400001928E-02 0.  1.
        1   -1    0    0  501    0  0.00000000000E+00  0.00000000000E+00 -0.16919698053E+04  0.16919698053E+04  0.50400001928E-02 0. -1.
    10030    2    1    2    0    0  0.00000000000E+00  0.00000000000E+00 -0.69816249507E+03  0.26857771155E+04  0.25934470969E+04 0.  0.
        3    1    3    3  502    0 -0.76304191729E+02 -0.62664725061E+03  0.82393222531E+03  0.10379660055E+04  0.10100000352E+00 0.  1.
       -3    1    3    3    0  502  0.76304191729E+02  0.62664725061E+03 -0.15220947204E+04  0.16478111100E+04  0.10100000352E+00 0. -1.
</event>
<event>
 5   0  0.2503292E-06  0.2590361E+04  0.7818609E-02  0.8371483E-01
       -1   -1    0    0    0  501  0.00000000000E+00  0.00000000000E+00  0.12286177340E+04  0.12286177340E+04  0.50400001928E-02 0.  1.
        1   -1    0    0  501    0  0.00000000000E+00  0.00000000000E+00 -0.13653498331E+04  0.13653498331E+04  0.50400001928E-02 0. -1.
    10030    2    1    2    0    0  0.00000000000E+00  0.00000000000E+00 -0.13673209912E+03  0.25939675671E+04  0.25903613787E+04 0.  0.
        2    1    3    3  502    0  0.10806978835E+04  0.64277816052E+03  0.24258409597E+03  0.12805931137E+04  0.25500000920E-02 0. -1.
       -2    1    3    3    0  502 -0.10806978835E+04 -0.64277816052E+03 -0.37931619509E+03  0.13133744535E+04  0.25500000920E-02 0.  1.
</event>
<event>
 5   0  0.5940748E-06  0.2585655E+04  0.7818609E-02  0.8373090E-01
        2   -1    0    0  501    0  0.00000000000E+00  0.00000000000E+00  0.14760146767E+04  0.14760146767E+04  0.25500000920E-02 0. -1.
       -2   -1    0    0    0  501  0.00000000000E+00  0.00000000000E+00 -0.11323757615E+04  0.11323757615E+04  0.25500000920E-02 0.  1.
    10030    2    1    2    0    0  0.00000000000E+00  0.00000000000E+00  0.34363891519E+03  0.26083904383E+04  0.25856552312E+04 0.  0.
        1    1    3    3  502    0 -0.53109137127E+03  0.35209910321E+02  0.13603578500E+04  0.14607776225E+04  0.50400001928E-02 0. -1.
       -1    1    3    3    0  502  0.53109137127E+03 -0.35209910321E+02 -0.10167189348E+04  0.11476128157E+04  0.50400001928E-02 0.  1.
</event>
<event>
 5   0  0.2471488E-06  0.2583168E+04  0.7818609E-02  0.8373941E-01
        1   -1    0    0  501    0  0.00000000000E+00  0.00000000000E+00  0.11353692787E+04  0.11353692787E+04  0.50400001928E-02 0. -1.
       -1   -1    0    0    0  501  0.00000000000E+00  0.00000000000E+00 -0.14692924322E+04  0.14692924322E+04  0.50400001928E-02 0.  1.
    10030    2    1    2    0    0  0.00000000000E+00  0.00000000000E+00 -0.33392315354E+03  0.26046617109E+04  0.25831682012E+04 0.  0.
        4    1    3    3  502    0 -0.71526419642E+02  0.62159508343E+03  0.97234762852E+03  0.11562689999E+04  0.12699999809E+01 0. -1.
       -4    1    3    3    0  502  0.71526419642E+02 -0.62159508343E+03 -0.13062707821E+04  0.14483927110E+04  0.12699999809E+01 0.  1.
</event>
<event>
 5   0  0.5940748E-06  0.2657730E+04  0.7818609E-02  0.8348852E-01
        2   -1    0    0  501    0  0.00000000000E+00  0.00000000000E+00  0.17976821153E+04  0.17976821153E+04  0.25500000920E-02 0. -1.
       -2   -1    0    0    0  501  0.00000000000E+00  0.00000000000E+00 -0.98231078253E+03  0.98231078253E+03  0.25500000920E-02 0.  1.
    10030    2    1    2    0    0  0.00000000000E+00  0.00000000000E+00  0.81537133278E+03  0.27799928978E+04  0.26577302538E+04 0.  0.
        1    1    3    3  502    0  0.63010164397E+03 -0.33355801387E+03 -0.76532760959E+03  0.10459519016E+04  0.50400001928E-02 0.  1.
       -1    1    3    3    0  502 -0.63010164397E+03  0.33355801387E+03  0.15806989424E+04  0.17340409963E+04  0.50400001928E-02 0. -1.
</event>
<event>
 5   0  0.2440590E-06  0.2570567E+04  0.7818609E-02  0.8378268E-01
        1   -1    0    0  501    0  0.00000000000E+00  0.00000000000E+00  0.13797666539E+04  0.13797666539E+04  0.50400001928E-02 0. -1.
       -1   -1    0    0    0  501  0.00000000000E+00  0.00000000000E+00 -0.11972704996E+04  0.11972704996E+04  0.50400001928E-02 0.  1.
    10030    2    1    2    0    0  0.00000000000E+00  0.00000000000E+00  0.18249615426E+03  0.25770371535E+04  0.25705671834E+04 0.  0.
        1    1    3    3  502    0  0.36453666009E+03  0.69680546866E+03  0.11104331867E+04  0.13606934628E+04  0.50400001928E-02 0. -1.
       -1    1    3    3    0  502 -0.36453666009E+03 -0.69680546866E+03 -0.92793703241E+03  0.12163436907E+04  0.50400001928E-02 0.  1.
</event>
<event>
 5   0  0.5942229E-06  0.2614424E+04  0.7818609E-02  0.8363318E-01
       -2   -1    0    0    0  501  0.00000000000E+00  0.00000000000E+00  0.92732014405E+03  0.92732014405E+03  0.25500000920E-02 0.  1.
        2   -1    0    0  501    0  0.00000000000E+00  0.00000000000E+00 -0.18427321762E+04  0.18427321762E+04  0.25500000920E-02 0. -1.
    10030    2    1    2    0    0  0.00000000000E+00  0.00000000000E+00 -0.91541203212E+03  0.27700523202E+04  0.26144235824E+04 0.  0.
        4    1    3    3  502    0 -0.35957289409E+03 -0.99227699841E+02 -0.17851467088E+04  0.18237020556E+04  0.12699999809E+01 0. -1.
       -4    1    3    3    0  502  0.35957289409E+03  0.99227699841E+02  0.86973467672E+03  0.94635026463E+03  0.12699999809E+01 0.  1.
</event>
<event>
 5   0  0.2456600E-06  0.2596322E+04  0.7818609E-02  0.8369452E-01
       -1   -1    0    0    0  501  0.00000000000E+00  0.00000000000E+00  0.80349272752E+03  0.80349272753E+03  0.50400001928E-02 0. -1.
        1   -1    0    0  501    0  0.00000000000E+00  0.00000000000E+00 -0.20973707694E+04  0.20973707694E+04  0.50400001928E-02 0.  1.
    10030    2    1    2    0    0  0.00000000000E+00  0.00000000000E+00 -0.12938780419E+04  0.29008634969E+04  0.25963221373E+04 0.  0.
        5    1    3    3  502    0  0.96606862526E+03  0.86425315439E+03 -0.72576959765E+03  0.14855927108E+04  0.46999998093E+01 0. -1.
       -5    1    3    3    0  502 -0.96606862526E+03 -0.86425315439E+03 -0.56810844421E+03  0.14152707861E+04  0.46999998093E+01 0.  1.
</event>
<event>
 5   0  0.6173140E-06  0.2571742E+04  0.7818609E-02  0.8377864E-01
        2   -1    0    0  501    0  0.00000000000E+00  0.00000000000E+00  0.12098833256E+04  0.12098833256E+04  0.25500000920E-02 0.  1.
       -2   -1    0    0    0  501  0.00000000000E+00  0.00000000000E+00 -0.13666312901E+04  0.13666312901E+04  0.25500000920E-02 0. -1.
    10030    2    1    2    0    0  0.00000000000E+00  0.00000000000E+00 -0.15674796451E+03  0.25765146158E+04  0.25717421412E+04 0.  0.
        3    1    3    3  502    0 -0.16430192541E+03 -0.20227715354E+03  0.11831502653E+04  0.12115096905E+04  0.10100000352E+00 0.  1.
       -3    1    3    3    0  502  0.16430192541E+03  0.20227715354E+03 -0.13398982299E+04  0.13650049253E+04  0.10100000352E+00 0. -1.
</event>
<event>
 5   0  0.6158063E-06  0.2595768E+04  0.7818609E-02  0.8369640E-01
        2   -1    0    0  501    0  0.00000000000E+00  0.00000000000E+00  0.13268284559E+04  0.13268284559E+04  0.25500000920E-02 0.  1.
       -2   -1    0    0    0  501  0.00000000000E+00  0.00000000000E+00 -0.12695706452E+04  0.12695706452E+04  0.25500000920E-02 0. -1.
    10030    2    1    2    0    0  0.00000000000E+00  0.00000000000E+00  0.57257810750E+02  0.25963991011E+04  0.25957676775E+04 0.  0.
        2    1    3    3  502    0 -0.91295955132E+03  0.41113991474E+03  0.85464531446E+03  0.13164155064E+04  0.25500000920E-02 0.  1.
       -2    1    3    3    0  502  0.91295955132E+03 -0.41113991474E+03 -0.79738750371E+03  0.12799835948E+04  0.25500000920E-02 0. -1.
</event>
<event>
 5   0  0.5940748E-06  0.2599734E+04  0.7818609E-02  0.8368292E-01
        2   -1    0    0  501    0  0.00000000000E+00  0.00000000000E+00  0.18572230216E+04  0.18572230216E+04  0.25500000920E-02 0.  1.
       -2   -1    0    0    0  501  0.00000000000E+00  0.00000000000E+00 -0.90977446818E+03  0.90977446818E+03  0.25500000920E-02 0. -1.
    10030    2    1    2    0    0  0.00000000000E+00  0.00000000000E+00  0.94744855340E+03  0.27669974898E+04  0.25997338993E+04 0.  0.
        1    1    3    3  502    0 -0.62279998280E+03  0.73013088273E+03  0.14068787708E+04  0.17030204932E+04  0.50400001928E-02 0.  1.
       -1    1    3    3    0  502  0.62279998280E+03 -0.73013088273E+03 -0.45943021741E+03  0.10639769966E+04  0.50400001928E-02 0. -1.
</event>
<event>
 5   0  0.2471488E-06  0.2600293E+04  0.7818609E-02  0.8368102E-01
       -1   -1    0    0    0  501  0.00000000000E+00  0.00000000000E+00  0.81240667814E+03  0.81240667815E+03  0.50400001928E-02 0.  1.
        1   -1    0    0  501    0  0.00000000000E+00  0.00000000000E+00 -0.20807081285E+04  0.20807081285E+04  0.50400001928E-02 0. -1.
    10030    2    1    2    0    0  0.00000000000E+00  0.00000000000E+00 -0.12683014503E+04  0.28931148066E+04  0.26002931980E+04 0.  0.
        4    1    3    3  502    0 -0.20344958222E+03 -0.10604932541E+04  0.17150709356E+03  0.10933681771E+04  0.12699999809E+01 0. -1.
       -4    1    3    3    0  502  0.20344958222E+03  0.10604932541E+04 -0.14398085439E+04  0.17997466295E+04  0.12699999809E+01 0.  1.
</event>
<event>
 5   0  0.6158063E-06  0.2595835E+04  0.7818609E-02  0.8369617E-01
        2   -1    0    0  501    0  0.00000000000E+00  0.00000000000E+00  0.10502122321E+04  0.10502122321E+04  0.25500000920E-02 0.  1.
       -2   -1    0    0    0  501  0.00000000000E+00  0.00000000000E+00 -0.16040474814E+04  0.16040474814E+04  0.25500000920E-02 0. -1.
    10030    2    1    2    0    0  0.00000000000E+00  0.00000000000E+00 -0.55383524936E+03  0.26542597135E+04  0.25958353460E+04 0.  0.
        2    1    3    3  502    0 -0.78808743391E+02  0.93143487433E+03  0.64379782686E+03  0.11350142664E+04  0.25500000920E-02 0.  1.
       -2    1    3    3    0  502  0.78808743391E+02 -0.93143487433E+03 -0.11976330762E+04  0.15192454471E+04  0.25500000920E-02 0. -1.
</event>
<event>
 5   0  0.2333979E-06  0.2605458E+04  0.7818609E-02  0.8366349E-01
       -1   -1    0    0    0  501  0.00000000000E+00  0.00000000000E+00  0.79076306262E+03  0.79076306264E+03  0.50400001928E-02 0. -1.
        1   -1    0    0  501    0  0.00000000000E+00  0.00000000000E+00 -0.21461591094E+04  0.21461591094E+04  0.50400001928E-02 0.  1.
    10030    2    1    2    0    0  0.00000000000E+00  0.00000000000E+00 -0.13553960468E+04  0.29369221720E+04  0.26054583860E+04 0.  0.
        3    1    3    3  502    0 -0.17508162642E+03  0.12842262937E+04 -0.82558550644E+03  0.15367114850E+04  0.10100000352E+00 0. -1.
       -3    1    3    3    0  502  0.17508162642E+03 -0.12842262937E+04 -0.52981054033E+03  0.14002106871E+04  0.10100000352E+00 0.  1.
</event>
<event>
 5   0  0.2471488E-06  0.2602724E+04  0.7818609E-02  0.8367276E-01
       -1   -1    0    0    0  501  0.00000000000E+00  0.00000000000E+00  0.84965333429E+03  0.84965333431E+03  0.50400001928E-02 0.  1.
        1   -1    0    0  501    0  0.00000000000E+00  0.00000000000E+00 -0.19932170856E+04  0.19932170856E+04  0.50400001928E-02 0. -1.
    10030    2    1    2    0    0  0.00000000000E+00  0.00000000000E+00 -0.11435637513E+04  0.28428704199E+04  0.26027243748E+04 0.  0.
        4    1    3    3  502    0  0.56432365750E+03  0.10645163571E+04 -0.11089793361E+04  0.16375265023E+04  0.12699999809E+01 0.  1.
       -4    1    3    3    0  502 -0.56432365750E+03 -0.10645163571E+04 -0.34584415185E+02  0.12053439176E+04  0.12699999809E+01 0. -1.
</event>
<event>
 5   0  0.2503292E-06  0.2604478E+04  0.7818609E-02  0.8366682E-01
       -1   -1    0    0    0  501  0.00000000000E+00  0.00000000000E+00  0.14904111140E+04  0.14904111140E+04  0.50400001928E-02 0. -1.
        1   -1    0    0  501    0  0.00000000000E+00  0.00000000000E+00 -0.11378246300E+04  0.11378246301E+04  0.50400001928E-02 0.  1.
    10030    2    1    2    0    0  0.00000000000E+00  0.00000000000E+00  0.35258648393E+03  0.26282357441E+04  0.26044780471E+04 0.  0.
        2    1    3    3  502    0 -0.13252890210E+03  0.75452917597E+03  0.12389653052E+04  0.14566788303E+04  0.25500000920E-02 0. -1.
       -2    1    3    3    0  502  0.13252890210E+03 -0.75452917597E+03 -0.88637882126E+03  0.11715569137E+04  0.25500000920E-02 0.  1.
</event>
<event>
 5   0  0.2456600E-06  0.2588396E+04  0.7818609E-02  0.8372154E-01
        1   -1    0    0  501    0  0.00000000000E+00  0.00000000000E+00  0.24971943090E+04  0.24971943090E+04  0.50400001928E-02 0. -1.
       -1   -1    0    0    0  501  0.00000000000E+00  0.00000000000E+00 -0.67073193546E+03  0.67073193548E+03  0.50400001928E-02 0.  1.
    10030    2    1    2    0    0  0.00000000000E+00  0.00000000000E+00  0.18264623735E+04  0.31679262445E+04  0.25883956206E+04 0.  0.
        5    1    3    3  502    0  0.79800484674E+03  0.51389216544E+03 -0.16353899039E+03  0.96315314696E+03  0.46999998093E+01 0.  1.
       -5    1    3    3    0  502 -0.79800484674E+03 -0.51389216544E+03  0.19900013639E+04  0.22047730975E+04  0.46999998093E+01 0. -1.
</event>
<event>
 5   0  0.5940748E-06  0.2602548E+04  0.7818609E-02  0.8367336E-01
       -2   -1    0    0    0  501  0.00000000000E+00  0.00000000000E+00  0.16590605500E+04  0.16590605500E+04  0.25500000920E-02 0.  1.
        2   -1    0    0  501    0  0.00000000000E+00  0.00000000000E+00 -0.10206463020E+04  0.10206463020E+04  0.25500000920E-02 0. -1.
    10030    2    1    2    0    0  0.00000000000E+00  0.00000000000E+00  0.63841424800E+03  0.26797068521E+04  0.26025479940E+04 0.  0.
        1    1    3    3  502    0 -0.90917562238E+03  0.62485298021E+03  0.10297925118E+04  0.15091435242E+04  0.50400001928E-02 0.  1.
       -1    1    3    3    0  502  0.90917562238E+03 -0.62485298021E+03 -0.39137826382E+03  0.11705633279E+04  0.50400001928E-02 0. -1.
</event>
<event>
 5   0  0.5942229E-06  0.2664389E+04  0.7818609E-02  0.8346653E-01
        2   -1    0    0  501    0  0.00000000000E+00  0.00000000000E+00  0.12817343652E+04  0.12817343652E+04  0.25500000920E-02 0.  1.
       -2   -1    0    0    0  501  0.00000000000E+00  0.00000000000E+00 -0.13846412139E+04  0.13846412139E+04  0.25500000920E-02 0. -1.
    10030    2    1    2    0    0  0.00000000000E+00  0.00000000000E+00 -0.10290684874E+03  0.26663755791E+04  0.26643890312E+04 0.  0.
        4    1    3    3  502    0 -0.12291910031E+04  0.11978167805E+03 -0.55130800817E+03  0.13524793179E+04  0.12699999809E+01 0. -1.
       -4    1    3    3    0  502  0.12291910031E+04 -0.11978167805E+03  0.44840115943E+03  0.13138962612E+04  0.12699999809E+01 0.  1.
</event>
<event>
 5   0  0.6173140E-06  0.2609981E+04  0.7818609E-02  0.8364819E-01
       -2   -1    0    0    0  501  0.00000000000E+00  0.00000000000E+00  0.98680925010E+03  0.98680925010E+03  0.25500000920E-02 0. -1.
        2   -1    0    0  501    0  0.00000000000E+00  0.00000000000E+00 -0.17257645337E+04  0.17257645337E+04  0.25500000920E-02 0.  1.
    10030    2    1    2    0    0  0.00000000000E+00  0.00000000000E+00 -0.73895528363E+03  0.27125737838E+04  0.26099811535E+04 0.  0.
        3    1    3    3  502    0  0.12634531586E+04 -0.98491654308E+02 -0.45810583397E+02  0.12681139971E+04  0.10100000352E+00 0. -1.
       -3    1    3    3    0  502 -0.12634531586E+04  0.98491654308E+02 -0.69314470023E+03  0.14444597867E+04  0.10100000352E+00 0.  1.
</event>
<event>
 5   0  0.2503292E-06  0.2579235E+04  0.7818609E-02  0.8375289E-01
        1   -1    0    0  501    0  0.00000000000E+00  0.00000000000E+00  0.17807581256E+04  0.17807581256E+04  0.50400001928E-02 0. -1.
       -1   -1    0    0    0  501  0.00000000000E+00  0.00000000000E+00 -0.93393561787E+03  0.93393561788E+03  0.50400001928E-02 0.  1.
    10030    2    1    2    0    0  0.00000000000E+00  0.00000000000E+00  0.84682250769E+03  0.27146937434E+04  0.25792351116E+04 0.  0.
        2    1    3    3  502    0  0.18161826762E+03 -0.12394309134E+04  0.10081934683E+03  0.12567174404E+04  0.25500000920E-02 0.  1.
       -2    1    3    3    0  502 -0.18161826762E+03  0.12394309134E+04  0.74600316086E+03  0.14579763031E+04  0.25500000920E-02 0. -1.
</event>
<event>
 5   0  0.2503292E-06  0.2577805E+04  0.7818609E-02  0.8375780E-01
       -1   -1    0    0    0  501  0.00000000000E+00  0.00000000000E+00  0.10221214361E+04  0.10221214361E+04  0.50400001928E-02 0.  1.
        1   -1    0    0  501    0  0.00000000000E+00  0.00000000000E+00 -0.16253155419E+04  0.16253155419E+04  0.50400001928E-02 0. -1.
    10030    2    1    2    0    0  0.00000000000E+00  0.00000000000E+00 -0.60319410579E+03  0.26474369780E+04  0.25778051561E+04 0.  0.
        2    1    3    3  502    0 -0.46754896417E+03  0.13713804872E+03  0.92389171874E+03  0.10445021715E+04  0.25500000920E-02 0.  1.
       -2    1    3    3    0  502  0.46754896417E+03 -0.13713804872E+03 -0.15270858245E+04  0.16029348065E+04  0.25500000920E-02 0. -1.
</event>
<event>
 5   0  0.2072125E-06  0.2608940E+04  0.7818609E-02  0.8365171E-01
       -3   -1    0    0    0  501  0.00000000000E+00  0.00000000000E+00  0.10098973772E+04  0.10098973823E+04  0.10100000352E+00 0. -1.
        3   -1    0    0  501    0  0.00000000000E+00  0.00000000000E+00 -0.16849650075E+04  0.16849650105E+04  0.10100000352E+00 0.  1.
    10030    2    1    2    0    0  0.00000000000E+00  0.00000000000E+00 -0.67506763023E+03  0.26948623928E+04  0.26089398250E+04 0.  0.
        4    1    3    3  502    0  0.70804941643E+02  0.13016198391E+04 -0.28679799533E+03  0.13347217869E+04  0.12699999809E+01 0. -1.
       -4    1    3    3    0  502 -0.70804941643E+02 -0.13016198391E+04 -0.38826963490E+03  0.13601406059E+04  0.12699999809E+01 0.  1.
</event>
<event>
 5   0  0.2072125E-06  0.2598991E+04  0.7818609E-02  0.8368544E-01
        3   -1    0    0  501    0  0.00000000000E+00  0.00000000000E+00  0.15680360285E+04  0.15680360318E+04  0.10100000352E+00 0.  1.
       -3   -1    0    0    0  501  0.00000000000E+00  0.00000000000E+00 -0.10769449165E+04  0.10769449212E+04  0.10100000352E+00 0. -1.
    10030    2    1    2    0    0  0.00000000000E+00  0.00000000000E+00  0.49109111206E+03  0.26449809530E+04  0.25989909121E+04 0.  0.
        2    1    3    3  502    0  0.88743110270E+02 -0.99133558431E+03 -0.60474293042E+03  0.11646182174E+04  0.25500000920E-02 0. -1.
       -2    1    3    3    0  502 -0.88743110270E+02  0.99133558431E+03  0.10958340425E+04  0.14803627356E+04  0.25500000920E-02 0.  1.
</event>
<event>
 5   0  0.2471488E-06  0.2596382E+04  0.7818609E-02  0.8369431E-01
        1   -1    0    0  501    0  0.00000000000E+00  0.00000000000E+00  0.15052882203E+04  0.15052882203E+04  0.50400001928E-02 0.  1.
       -1   -1    0    0    0  501  0.00000000000E+00  0.00000000000E+00 -0.11195862655E+04  0.11195862656E+04  0.50400001928E-02 0. -1.
    10030    2    1    2    0    0  0.00000000000E+00  0.00000000000E+00  0.38570195472E+03  0.26248744858E+04  0.25963821114E+04 0.  0.
        4    1    3    3  502    0 -0.86618907177E+03  0.55985597604E+03 -0.60420186633E+03  0.11953174181E+04  0.12699999809E+01 0. -1.
       -4    1    3    3    0  502  0.86618907177E+03 -0.55985597604E+03  0.98990382105E+03  0.14295570677E+04  0.12699999809E+01 0.  1.
</event>
<event>
 5   0  0.2440590E-06  0.2623943E+04  0.7818609E-02  0.8360113E-01
        1   -1    0    0  501    0  0.00000000000E+00  0.00000000000E+00  0.17423123400E+04  0.17423123400E+04  0.50400001928E-02 0.  1.
       -1   -1    0    0    0  501  0.00000000000E+00  0.00000000000E+00 -0.98792246806E+03  0.98792246807E+03  0.50400001928E-02 0. -1.
    10030    2    1    2    0    0  0.00000000000E+00  0.00000000000E+00  0.75438987193E+03  0.27302348081E+04  0.26239432212E+04 0.  0.
        1    1    3    3  502    0 -0.11539272924E+04  0.21868870207E+03  0.98560015817E+03  0.15332255595E+04  0.50400001928E-02 0.  1.
       -1    1    3    3    0  502  0.11539272924E+04 -0.21868870207E+03 -0.23121028624E+03  0.11970092485E+04  0.50400001928E-02 0. -1.
</event>
<event>
 5   0  0.5942229E-06  0.2598170E+04  0.7818609E-02  0.8368823E-01
        2   -1    0    0  501    0  0.00000000000E+00  0.00000000000E+00  0.15287178244E+04  0.15287178244E+04  0.25500000920E-02 0.  1.
       -2   -1    0    0    0  501  0.00000000000E+00  0.00000000000E+00 -0.11039463300E+04  0.11039463300E+04  0.25500000920E-02 0. -1.
    10030    2    1    2    0    0  0.00000000000E+00  0.00000000000E+00  0.42477149443E+03  0.26326641544E+04  0.25981704577E+04 0.  0.
        4    1    3    3  502    0 -0.11725669163E+04  0.48480463513E+03  0.49478294038E+03  0.13618959132E+04  0.12699999809E+01 0.  1.
       -4    1    3    3    0  502  0.11725669163E+04 -0.48480463513E+03 -0.70011445944E+02  0.12707682412E+04  0.12699999809E+01 0. -1.
</event>
<event>
 5   0  0.6161834E-06  0.2604035E+04  0.7818609E-02  0.8366832E-01
       -2   -1    0    0    0  501  0.00000000000E+00  0.00000000000E+00  0.74282346734E+03  0.74282346735E+03  0.25500000920E-02 0. -1.
        2   -1    0    0  501    0  0.00000000000E+00  0.00000000000E+00 -0.22821693406E+04  0.22821693406E+04  0.25500000920E-02 0.  1.
    10030    2    1    2    0    0  0.00000000000E+00  0.00000000000E+00 -0.15393458732E+04  0.30249928079E+04  0.26040345179E+04 0.  0.
        5    1    3    3  502    0 -0.12324654439E+04 -0.17928154135E+03 -0.12106647852E+04  0.17369065184E+04  0.46999998093E+01 0.  1.
       -5    1    3    3    0  502  0.12324654439E+04  0.17928154135E+03 -0.32868108800E+03  0.12880862895E+04  0.46999998093E+01 0. -1.
</event>
<event>
 5   0  0.2456600E-06  0.2577996E+04  0.7818609E-02  0.8375714E-01
        1   -1    0    0  501    0  0.00000000000E+00  0.00000000000E+00  0.22895024536E+04  0.22895024536E+04  0.50400001928E-02 0.  1.
       -1   -1    0    0    0  501  0.00000000000E+00  0.00000000000E+00 -0.72571066837E+03  0.72571066839E+03  0.50400001928E-02 0. -1.
    10030    2    1    2    0    0  0.00000000000E+00  0.00000000000E+00  0.15637917853E+04  0.30152131220E+04  0.25779963971E+04 0.  0.
        5    1    3    3  502    0 -0.11203270691E+04 -0.29674787636E+03  0.14417615764E+04  0.18498352838E+04  0.46999998093E+01 0.  1.
       -5    1    3    3    0  502  0.11203270691E+04  0.29674787636E+03  0.12203020882E+03  0.11653778382E+04  0.46999998093E+01 0. -1.
</event>
<event>
 5   0  0.5940748E-06  0.2616527E+04  0.7818609E-02  0.8362609E-01
       -2   -1    0    0    0  501  0.00000000000E+00  0.00000000000E+00  0.91501589462E+03  0.91501589463E+03  0.25500000920E-02 0.  1.
        2   -1    0    0  501    0  0.00000000000E+00  0.00000000000E+00 -0.18705177738E+04  0.18705177738E+04  0.25500000920E-02 0. -1.
    10030    2    1    2    0    0  0.00000000000E+00  0.00000000000E+00 -0.95550187915E+03  0.27855336684E+04  0.26165270831E+04 0.  0.
        1    1    3    3  502    0  0.82114637644E+03  0.98962748322E+03 -0.22156320299E+03  0.13048885700E+04  0.50400001928E-02 0.  1.
       -1    1    3    3    0  502 -0.82114637644E+03 -0.98962748322E+03 -0.73393867616E+03  0.14806450984E+04  0.50400001928E-02 0. -1.
</event>
<event>
 5   0  0.6158063E-06  0.2590877E+04  0.7818609E-02  0.8371307E-01
        2   -1    0    0  501    0  0.00000000000E+00  0.00000000000E+00  0.14020942843E+04  0.14020942843E+04  0.25500000920E-02 0. -1.
       -2   -1    0    0    0  501  0.00000000000E+00  0.00000000000E+00 -0.11968959601E+04  0.11968959601E+04  0.25500000920E-02 0.  1.
    10030    2    1    2    0    0  0.00000000000E+00  0.00000000000E+00  0.20519832417E+03  0.25989902445E+04  0.25908770597E+04 0.  0.
        2    1    3    3  502    0 -0.35866564421E+03 -0.10672107217E+03  0.13466967359E+04  0.13977204764E+04  0.25500000920E-02 0. -1.
       -2    1    3    3    0  502  0.35866564421E+03  0.10672107217E+03 -0.11414984118E+04  0.12012697681E+04  0.25500000920E-02 0.  1.
</event>
<event>
 5   0  0.6158063E-06  0.2620513E+04  0.7818609E-02  0.8361267E-01
       -2   -1    0    0    0  501  0.00000000000E+00  0.00000000000E+00  0.10662883492E+04  0.10662883492E+04  0.25500000920E-02 0.  1.
        2   -1    0    0  501    0  0.00000000000E+00  0.00000000000E+00 -0.16100446935E+04  0.16100446935E+04  0.25500000920E-02 0. -1.
    10030    2    1    2    0    0  0.00000000000E+00  0.00000000000E+00 -0.54375634431E+03  0.26763330427E+04  0.26205128493E+04 0.  0.
        2    1    3    3  502    0  0.77064896078E+03  0.80968088331E+03  0.42626840926E+03  0.11963225779E+04  0.25500000920E-02 0.  1.
       -2    1    3    3    0  502 -0.77064896078E+03 -0.80968088331E+03 -0.97002475357E+03  0.14800104649E+04  0.25500000920E-02 0. -1.
</event>
<event>
 5   0  0.2471488E-06  0.2600636E+04  0.7818609E-02  0.8367985E-01
        1   -1    0    0  501    0  0.00000000000E+00  0.00000000000E+00  0.82617584369E+03  0.82617584371E+03  0.50400001928E-02 0.  1.
       -1   -1    0    0    0  501  0.00000000000E+00  0.00000000000E+00 -0.20465704235E+04  0.20465704235E+04  0.50400001928E-02 0. -1.
    10030    2    1    2    0    0  0.00000000000E+00  0.00000000000E+00 -0.12203945798E+04  0.28727462672E+04  0.26006361116E+04 0.  0.
        4    1    3    3  502    0  0.10085961928E+04 -0.40235312848E+03  0.17995923357E+03  0.11007003492E+04  0.12699999809E+01 0.  1.
       -4    1    3    3    0  502 -0.10085961928E+04  0.40235312848E+03 -0.14003538133E+04  0.17720459180E+04  0.12699999809E+01 0. -1.
</event>
<event>
 5   0  0.2440590E-06  0.2577889E+04  0.7818609E-02  0.8375751E-01
        1   -1    0    0  501    0  0.00000000000E+00  0.00000000000E+00  0.11415947379E+04  0.11415947380E+04  0.50400001928E-02 0.  1.
       -1   -1    0    0    0  501  0.00000000000E+00  0.00000000000E+00 -0.14553136798E+04  0.14553136798E+04  0.50400001928E-02 0. -1.
    10030    2    1    2    0    0  0.00000000000E+00  0.00000000000E+00 -0.31371894183E+03  0.25969084177E+04  0.25778893994E+04 0.  0.
        1    1    3    3  502    0 -0.13378931447E+03  0.75594502958E+03  0.88616622243E+03  0.11724517228E+04  0.50400001928E-02 0.  1.
       -1    1    3    3    0  502  0.13378931447E+03 -0.75594502958E+03 -0.11998851643E+04  0.14244566950E+04  0.50400001928E-02 0. -1.
</event>
<event>
 5   0  0.6161834E-06  0.2602622E+04  0.7818609E-02  0.8367311E-01
        2   -1    0    0  501    0  0.00000000000E+00  0.00000000000E+00  0.17892303771E+04  0.17892303771E+04  0.25500000920E-02 0.  1.
       -2   -1    0    0    0  501  0.00000000000E+00  0.00000000000E+00 -0.94644618742E+03  0.94644618742E+03  0.25500000920E-02 0. -1.
    10030    2    1    2    0    0  0.00000000000E+00  0.00000000000E+00  0.84278418964E+03  0.27356765645E+04  0.26026219616E+04 0.  0.
        5    1    3    3  502    0 -0.75334039754E+02  0.13557100228E+03 -0.93668745523E+03  0.94945257542E+03  0.46999998093E+01 0. -1.
       -5    1    3    3    0  502  0.75334039754E+02 -0.13557100228E+03  0.17794716449E+04  0.17862239891E+04  0.46999998093E+01 0.  1.
</event>
<event>
 5   0  0.2456600E-06  0.2602754E+04  0.7818609E-02  0.8367266E-01
        1   -1    0    0  501    0  0.00000000000E+00  0.00000000000E+00  0.15534829205E+04  0.15534829205E+04  0.50400001928E-02 0.  1.
       -1   -1    0    0    0  501  0.00000000000E+00  0.00000000000E+00 -0.10901841584E+04  0.10901841585E+04  0.50400001928E-02 0. -1.
    10030    2    1    2    0    0  0.00000000000E+00  0.00000000000E+00  0.46329876204E+03  0.26436670790E+04  0.26027542876E+04 0.  0.
        5    1    3    3  502    0  0.66704522549E+03 -0.91469148052E+03 -0.42027336199E+03  0.12075850389E+04  0.46999998093E+01 0. -1.
       -5    1    3    3    0  502 -0.66704522549E+03  0.91469148052E+03  0.88357212403E+03  0.14360820400E+04  0.46999998093E+01 0.  1.
</event>
<event>
 5   0  0.6158063E-06  0.2521281E+04  0.7818609E-02  0.8395443E-01
        2   -1    0    0  501    0  0.00000000000E+00  0.00000000000E+00  0.26918683850E+04  0.26918683851E+04  0.25500000920E-02 0. -1.
       -2   -1    0    0    0  501  0.00000000000E+00  0.00000000000E+00 -0.59037586711E+03  0.59037586712E+03  0.25500000920E-02 0.  1.
    10030    2    1    2    0    0  0.00000000000E+00  0.00000000000E+00  0.21014925179E+04  0.32822442522E+04  0.25212807317E+04 0.  0.
        2    1    3    3  502    0 -0.15018096073E+01  0.89045525300E+03  0.22124313326E+04  0.23849036069E+04  0.25500000920E-02 0. -1.
       -2    1    3    3    0  502  0.15018096073E+01 -0.89045525300E+03 -0.11093881462E+03  0.89734064525E+03  0.25500000920E-02 0.  1.
</event>
<event>
 5   0  0.5942229E-06  0.2597200E+04  0.7818609E-02  0.8369153E-01
       -2   -1    0    0    0  501  0.00000000000E+00  0.00000000000E+00  0.11290133687E+04  0.11290133687E+04  0.25500000920E-02 0. -1.
        2   -1    0    0  501    0  0.00000000000E+00  0.00000000000E+00 -0.14936600055E+04  0.14936600055E+04  0.25500000920E-02 0.  1.
    10030    2    1    2    0    0  0.00000000000E+00  0.00000000000E+00 -0.36464663678E+03  0.26226733742E+04  0.25972001190E+04 0.  0.
        4    1    3    3  502    0 -0.25715032079E+03 -0.92191905359E+03 -0.10685985113E+04  0.14345610548E+04  0.12699999809E+01 0.  1.
       -4    1    3    3    0  502  0.25715032079E+03  0.92191905359E+03  0.70395187450E+03  0.11881123193E+04  0.12699999809E+01 0. -1.
</event>
<event>
 5   0  0.2471488E-06  0.2618117E+04  0.7818609E-02  0.8362073E-01
        1   -1    0    0  501    0  0.00000000000E+00  0.00000000000E+00  0.66394162204E+03  0.66394162206E+03  0.50400001928E-02 0.  1.
       -1   -1    0    0    0  501  0.00000000000E+00  0.00000000000E+00 -0.25810020360E+04  0.25810020360E+04  0.50400001928E-02 0. -1.
    10030    2    1    2    0    0  0.00000000000E+00  0.00000000000E+00 -0.19170604139E+04  0.32449436580E+04  0.26181173987E+04 0.  0.
        4    1    3    3  502    0 -0.59267806586E+03  0.86678785388E+03  0.10315225441E+02  0.10500935626E+04  0.12699999809E+01 0.  1.
       -4    1    3    3    0  502  0.59267806586E+03 -0.86678785388E+03 -0.19273756394E+04  0.21948500955E+04  0.12699999809E+01 0. -1.
</event>
<event>
 5   0  0.6161834E-06  0.2598897E+04  0.7818609E-02  0.8368576E-01
        2   -1    0    0  501    0  0.00000000000E+00  0.00000000000E+00  0.10756472315E+04  0.10756472315E+04  0.25500000920E-02 0. -1.
       -2   -1    0    0    0  501  0.00000000000E+00  0.00000000000E+00 -0.15698144748E+04  0.15698144749E+04  0.25500000920E-02 0.  1.
    10030    2    1    2    0    0  0.00000000000E+00  0.00000000000E+00 -0.49416724333E+03  0.26454617064E+04  0.25988971460E+04 0.  0.
        5    1    3    3  502    0 -0.81849733404E+03 -0.83170655682E+03 -0.82905344294E+03  0.14314417151E+04  0.46999998093E+01 0.  1.
       -5    1    3    3    0  502  0.81849733404E+03  0.83170655682E+03  0.33488619961E+03  0.12140199913E+04  0.46999998093E+01 0. -1.
</event>
<event>
 5   0  0.6173140E-06  0.2604899E+04  0.7818609E-02  0.8366539E-01
       -2   -1    0    0    0  501  0.00000000000E+00  0.00000000000E+00  0.15735781090E+04  0.15735781090E+04  0.25500000920E-02 0. -1.
        2   -1    0    0  501    0  0.00000000000E+00  0.00000000000E+00 -0.10780363238E+04  0.10780363238E+04  0.25500000920E-02 0.  1.
    10030    2    1    2    0    0  0.00000000000E+00  0.00000000000E+00  0.49554178523E+03  0.26516144327E+04  0.26048987387E+04 0.  0.
        3    1    3    3  502    0 -0.54293756166E+03  0.85914882286E+03  0.10769068320E+04  0.14807586673E+04  0.10100000352E+00 0. -1.
       -3    1    3    3    0  502  0.54293756166E+03 -0.85914882286E+03 -0.58136504679E+03  0.11708557655E+04  0.10100000352E+00 0.  1.
</event>
<event>
 5   0  0.5942229E-06  0.2595662E+04  0.7818609E-02  0.8369676E-01
       -2   -1    0    0    0  501  0.00000000000E+00  0.00000000000E+00  0.11640072921E+04  0.11640072921E+04  0.25500000920E-02 0.  1.
        2   -1    0    0  501    0  0.00000000000E+00  0.00000000000E+00 -0.14470396446E+04  0.14470396446E+04  0.25500000920E-02 0. -1.
    10030    2    1    2    0    0  0.00000000000E+00  0.00000000000E+00 -0.28303235248E+03  0.26110469367E+04  0.25956615329E+04 0.  0.
        4    1    3    3  502    0 -0.58217527577E+03 -0.58114740867E+03  0.86827793547E+03  0.11960637727E+04  0.12699999809E+01 0.  1.
       -4    1    3    3    0  502  0.58217527577E+03  0.58114740867E+03 -0.11513102880E+04  0.14149831640E+04  0.12699999809E+01 0. -1.
</event>
<event>
 5   0  0.2503292E-06  0.2583877E+04  0.7818609E-02  0.8373699E-01
        1   -1    0    0  501    0  0.00000000000E+00  0.00000000000E+00  0.19249327136E+04  0.19249327136E+04  0.50400001928E-02 0.  1.
       -1   -1    0    0    0  501  0.00000000000E+00  0.00000000000E+00 -0.86709760364E+03  0.86709760365E+03  0.50400001928E-02 0. -1.
    10030    2    1    2    0    0  0.00000000000E+00  0.00000000000E+00  0.10578351100E+04  0.27920303173E+04  0.25838765784E+04 0.  0.
        2    1    3    3  502    0 -0.18508180599E+03  0.66019130227E+03  0.17121153746E+04  0.18443011919E+04  0.25500000920E-02 0.  1.
       -2    1    3    3    0  502  0.18508180599E+03 -0.66019130227E+03 -0.65428026459E+03  0.94772912540E+03  0.25500000920E-02 0. -1.
</event>
<event>
 5   0  0.6173140E-06  0.2598833E+04  0.7818609E-02  0.8368598E-01
        2   -1    0    0  501    0  0.00000000000E+00  0.00000000000E+00  0.14096285338E+04  0.14096285338E+04  0.25500000920E-02 0. -1.
       -2   -1    0    0    0  501  0.00000000000E+00  0.00000000000E+00 -0.11978210451E+04  0.11978210451E+04  0.25500000920E-02 0.  1.
    10030    2    1    2    0    0  0.00000000000E+00  0.00000000000E+00  0.21180748874E+03  0.26074495789E+04  0.25988326022E+04 0.  0.
        3    1    3    3  502    0 -0.79542452714E+03  0.35230977406E+03  0.10743297007E+04  0.13823916490E+04  0.10100000352E+00 0. -1.
       -3    1    3    3    0  502  0.79542452714E+03 -0.35230977406E+03 -0.86252221198E+03  0.12250579299E+04  0.10100000352E+00 0.  1.
</event>
<event>
 5   0  0.2333979E-06  0.2603234E+04  0.7818609E-02  0.8367104E-01
        1   -1    0    0  501    0  0.00000000000E+00  0.00000000000E+00  0.16085517464E+04  0.16085517464E+04  0.50400001928E-02 0.  1.
       -1   -1    0    0    0  501  0.00000000000E+00  0.00000000000E+00 -0.10532497108E+04  0.10532497108E+04  0.50400001928E-02 0. -1.
    10030    2    1    2    0    0  0.00000000000E+00  0.00000000000E+00  0.55530203561E+03  0.26618014572E+04  0.26032338824E+04 0.  0.
        3    1    3    3  502    0 -0.86377490017E+03  0.12564950877E+03  0.12649371909E+04  0.15368672631E+04  0.10100000352E+00 0.  1.
       -3    1    3    3    0  502  0.86377490017E+03 -0.12564950877E+03 -0.70963515527E+03  0.11249341941E+04  0.10100000352E+00 0. -1.
</event>
<event>
 5   0  0.5942229E-06  0.2608594E+04  0.7818609E-02  0.8365288E-01
        2   -1    0    0  501    0  0.00000000000E+00  0.00000000000E+00  0.12303127811E+04  0.12303127812E+04  0.25500000920E-02 0. -1.
       -2   -1    0    0    0  501  0.00000000000E+00  0.00000000000E+00 -0.13827301338E+04  0.13827301338E+04  0.25500000920E-02 0.  1.
    10030    2    1    2    0    0  0.00000000000E+00  0.00000000000E+00 -0.15241735260E+03  0.26130429149E+04  0.26085939174E+04 0.  0.
        4    1    3    3  502    0  0.56410175364E+03  0.11425772758E+04  0.20264592429E+03  0.12902560223E+04  0.12699999809E+01 0.  1.
       -4    1    3    3    0  502 -0.56410175364E+03 -0.11425772758E+04 -0.35506327690E+03  0.13227868926E+04  0.12699999809E+01 0. -1.
</event>
<event>
 5   0  0.2440590E-06  0.2526605E+04  0.7818609E-02  0.8393568E-01
        1   -1    0    0  501    0  0.00000000000E+00  0.00000000000E+00  0.12424763507E+04  0.12424763507E+04  0.50400001928E-02 0. -1.
       -1   -1    0    0    0  501  0.00000000000E+00  0.00000000000E+00 -0.12844778469E+04  0.12844778470E+04  0.50400001928E-02 0.  1.
    10030    2    1    2    0    0  0.00000000000E+00  0.00000000000E+00 -0.42001496254E+02  0.25269541977E+04  0.25266051119E+04 0.  0.
        1    1    3    3  502    0  0.16785583882E+03  0.45692466341E+03  0.11449122703E+04  0.12440980015E+04  0.50400001928E-02 0. -1.
       -1    1    3    3    0  502 -0.16785583882E+03 -0.45692466341E+03 -0.11869137666E+04  0.12828561961E+04  0.50400001928E-02 0.  1.
</event>
<event>
 5   0  0.6161834E-06  0.2607569E+04  0.7818609E-02  0.8365635E-01
       -2   -1    0    0    0  501  0.00000000000E+00  0.00000000000E+00  0.10618214590E+04  0.10618214590E+04  0.25500000920E-02 0.  1.
        2   -1    0    0  501    0  0.00000000000E+00  0.00000000000E+00 -0.16008852929E+04  0.16008852929E+04  0.25500000920E-02 0. -1.
    10030    2    1    2    0    0  0.00000000000E+00  0.00000000000E+00 -0.53906383388E+03  0.26627067519E+04  0.26075692569E+04 0.  0.
        5    1    3    3  502    0  0.17460536639E+03 -0.16432387872E+03  0.10391057170E+04  0.10664202512E+04  0.46999998093E+01 0.  1.
       -5    1    3    3    0  502 -0.17460536639E+03  0.16432387872E+03 -0.15781695508E+04  0.15962865007E+04  0.46999998093E+01 0. -1.
</event>
<event>
 5   0  0.2456600E-06  0.2541694E+04  0.7818609E-02  0.8388281E-01
       -1   -1    0    0    0  501  0.00000000000E+00  0.00000000000E+00  0.10711004962E+04  0.10711004962E+04  0.50400001928E-02 0.  1.
        1   -1    0    0  501    0  0.00000000000E+00  0.00000000000E+00 -0.15078435088E+04  0.15078435088E+04  0.50400001928E-02 0. -1.
    10030    2    1    2    0    0  0.00000000000E+00  0.00000000000E+00 -0.43674301255E+03  0.25789440050E+04  0.25416938686E+04 0.  0.
        5    1    3    3  502    0  0.54638424263E+03 -0.10927573735E+04  0.13657734374E+03  0.12293615737E+04  0.46999998093E+01 0.  1.
       -5    1    3    3    0  502 -0.54638424263E+03  0.10927573735E+04 -0.57332035628E+03  0.13495824313E+04  0.46999998093E+01 0. -1.
</event>
<event>
 5   0  0.2456600E-06  0.2602238E+04  0.7818609E-02  0.8367442E-01
        1   -1    0    0  501    0  0.00000000000E+00  0.00000000000E+00  0.12042785263E+04  0.12042785263E+04  0.50400001928E-02 0.  1.
       -1   -1    0    0    0  501  0.00000000000E+00  0.00000000000E+00 -0.14057462501E+04  0.14057462501E+04  0.50400001928E-02 0. -1.
    10030    2    1    2    0    0  0.00000000000E+00  0.00000000000E+00 -0.20146772380E+03  0.26100247764E+04  0.26022375160E+04 0.  0.
        5    1    3    3  502    0 -0.10955496553E+04 -0.59850843800E+03  0.26703292309E+03  0.12766244826E+04  0.46999998093E+01 0.  1.
       -5    1    3    3    0  502  0.10955496553E+04  0.59850843800E+03 -0.46850064689E+03  0.13334002938E+04  0.46999998093E+01 0. -1.
</event>
<event>
 5   0  0.6161834E-06  0.2607347E+04  0.7818609E-02  0.8365710E-01
       -2   -1    0    0    0  501  0.00000000000E+00  0.00000000000E+00  0.21405037822E+04  0.21405037822E+04  0.25500000920E-02 0.  1.
        2   -1    0    0  501    0  0.00000000000E+00  0.00000000000E+00 -0.79400206160E+03  0.79400206161E+03  0.25500000920E-02 0. -1.
    10030    2    1    2    0    0  0.00000000000E+00  0.00000000000E+00  0.13465017206E+04  0.29345058438E+04  0.26073468630E+04 0.  0.
        5    1    3    3  502    0  0.11177754796E+04  0.24208862048E+03 -0.30970972566E+02  0.11441198426E+04  0.46999998093E+01 0. -1.
       -5    1    3    3    0  502 -0.11177754796E+04 -0.24208862048E+03  0.13774726932E+04  0.17903860012E+04  0.46999998093E+01 0.  1.
</event>
<event>
 5   0  0.2471488E-06  0.2599891E+04  0.7818609E-02  0.8368238E-01
       -1   -1    0    0    0  501  0.00000000000E+00  0.00000000000E+00  0.10494259086E+04  0.10494259086E+04  0.50400001928E-02 0. -1.
        1   -1    0    0  501    0  0.00000000000E+00  0.00000000000E+00 -0.16102691183E+04  0.16102691183E+04  0.50400001928E-02 0.  1.
    10030    2    1    2    0    0  0.00000000000E+00  0.00000000000E+00 -0.56084320971E+03  0.26596950269E+04  0.25998908689E+04 0.  0.
        4    1    3    3  502    0  0.56196449227E+03  0.89883119043E+03  0.48931894447E+03  0.11675342572E+04  0.12699999809E+01 0. -1.
       -4    1    3    3    0  502 -0.56196449227E+03 -0.89883119043E+03 -0.10501621542E+04  0.14921607696E+04  0.12699999809E+01 0.  1.
</event>
<event>
 5   0  0.2471488E-06  0.2597147E+04  0.7818609E-02  0.8369171E-01
       -1   -1    0    0    0  501  0.00000000000E+00  0.00000000000E+00  0.18332286894E+04  0.18332286894E+04  0.50400001928E-02 0. -1.
        1   -1    0    0  501    0  0.00000000000E+00  0.00000000000E+00 -0.91984906792E+03  0.91984906793E+03  0.50400001928E-02 0.  1.
    10030    2    1    2    0    0  0.00000000000E+00  0.00000000000E+00  0.91337962146E+03  0.27530777573E+04  0.25971474361E+04 0.  0.
        4    1    3    3  502    0  0.11619315603E+04 -0.48115795761E+03  0.11369851713E+03  0.12627457767E+04  0.12699999809E+01 0.  1.
       -4    1    3    3    0  502 -0.11619315603E+04  0.48115795761E+03  0.79968110433E+03  0.14903319806E+04  0.12699999809E+01 0. -1.
</event>
<event>
 5   0  0.2456600E-06  0.2596839E+04  0.7818609E-02  0.8369276E-01
       -1   -1    0    0    0  501  0.00000000000E+00  0.00000000000E+00  0.75169246296E+03  0.75169246298E+03  0.50400001928E-02 0.  1.
        1   -1    0    0  501    0  0.00000000000E+00  0.00000000000E+00 -0.22427963415E+04  0.22427963415E+04  0.50400001928E-02 0. -1.
    10030    2    1    2    0    0  0.00000000000E+00  0.00000000000E+00 -0.14911038786E+04  0.29944888045E+04  0.25968389291E+04 0.  0.
        5    1    3    3  502    0 -0.12186276388E+04  0.19663170199E+03 -0.28120662340E+03  0.12660239347E+04  0.46999998093E+01 0.  1.
       -5    1    3    3    0  502  0.12186276388E+04 -0.19663170199E+03 -0.12098972552E+04  0.17284648698E+04  0.46999998093E+01 0. -1.
</event>
<event>
 5   0  0.2471488E-06  0.2619312E+04  0.7818609E-02  0.8361671E-01
        1   -1    0    0  501    0  0.00000000000E+00  0.00000000000E+00  0.15621515981E+04  0.15621515981E+04  0.50400001928E-02 0. -1.
       -1   -1    0    0    0  501  0.00000000000E+00  0.00000000000E+00 -0.10979719000E+04  0.10979719000E+04  0.50400001928E-02 0.  1.
    10030    2    1    2    0    0  0.00000000000E+00  0.00000000000E+00  0.46417969817E+03  0.26601234981E+04  0.26193117861E+04 0.  0.
        4    1    3    3  502    0 -0.94326906163E+03 -0.58712876746E+03  0.93623274684E+03  0.14529315474E+04  0.12699999809E+01 0. -1.
       -4    1    3    3    0  502  0.94326906163E+03  0.58712876746E+03 -0.47205304867E+03  0.12071919507E+04  0.12699999809E+01 0.  1.
</event>
<event>
 5   0  0.2471488E-06  0.2575173E+04  0.7818609E-02  0.8376683E-01
        1   -1    0    0  501    0  0.00000000000E+00  0.00000000000E+00  0.12370008849E+04  0.12370008850E+04  0.50400001928E-02 0. -1.
       -1   -1    0    0    0  501  0.00000000000E+00  0.00000000000E+00 -0.13402411096E+04  0.13402411096E+04  0.50400001928E-02 0.  1.
    10030    2    1    2    0    0  0.00000000000E+00  0.00000000000E+00 -0.10324022460E+03  0.25772419945E+04  0.25751733445E+04 0.  0.
        4    1    3    3  502    0  0.87221853904E+03  0.12570697533E+03  0.88791535444E+03  0.12509846974E+04  0.12699999809E+01 0. -1.
       -4    1    3    3    0  502 -0.87221853904E+03 -0.12570697533E+03 -0.99115557904E+03  0.13262572972E+04  0.12699999809E+01 0.  1.
</event>
<event>
 5   0  0.2471488E-06  0.2655736E+04  0.7818609E-02  0.8349512E-01
       -1   -1    0    0    0  501  0.00000000000E+00  0.00000000000E+00  0.75851285955E+03  0.75851285956E+03  0.50400001928E-02 0.  1.
        1   -1    0    0  501    0  0.00000000000E+00  0.00000000000E+00 -0.23245933094E+04  0.23245933094E+04  0.50400001928E-02 0. -1.
    10030    2    1    2    0    0  0.00000000000E+00  0.00000000000E+00 -0.15660804498E+04  0.30831061690E+04  0.26557363713E+04 0.  0.
        4    1    3    3  502    0 -0.37863589933E+03  0.36627996044E+03 -0.21980843402E+04  0.22603323944E+04  0.12699999809E+01 0. -1.
       -4    1    3    3    0  502  0.37863589933E+03 -0.36627996044E+03  0.63200389038E+03  0.82277377452E+03  0.12699999809E+01 0.  1.
</event>
<event>
 5   0  0.2440590E-06  0.2599036E+04  0.7818609E-02  0.8368529E-01
       -1   -1    0    0    0  501  0.00000000000E+00  0.00000000000E+00  0.78932343517E+03  0.78932343519E+03  0.50400001928E-02 0. -1.
        1   -1    0    0  501    0  0.00000000000E+00  0.00000000000E+00 -0.21394871460E+04  0.21394871460E+04  0.50400001928E-02 0.  1.
    10030    2    1    2    0    0  0.00000000000E+00  0.00000000000E+00 -0.13501637108E+04  0.29288105812E+04  0.25990362395E+04 0.  0.
        1    1    3    3  502    0  0.50757342693E+03  0.11786872806E+04 -0.90550911643E+03  0.15706308443E+04  0.50400001928E-02 0. -1.
       -1    1    3    3    0  502 -0.50757342693E+03 -0.11786872806E+04 -0.44465459435E+03  0.13581797368E+04  0.50400001928E-02 0.  1.
</event>
<event>
 5   0  0.6158063E-06  0.2595929E+04  0.7818609E-02  0.8369585E-01
        2   -1    0    0  501    0  0.00000000000E+00  0.00000000000E+00  0.12636465469E+04  0.12636465469E+04  0.25500000920E-02 0.  1.
       -2   -1    0    0    0  501  0.00000000000E+00  0.00000000000E+00 -0.13332144082E+04  0.13332144082E+04  0.25500000920E-02 0. -1.
    10030    2    1    2    0    0  0.00000000000E+00  0.00000000000E+00 -0.69567861332E+02  0.25968609550E+04  0.25959289537E+04 0.  0.
        2    1    3    3  502    0  0.64626240724E+03 -0.38824522190E+02 -0.11601541939E+04  0.13285782612E+04  0.25500000920E-02 0. -1.
       -2    1    3    3    0  502 -0.64626240724E+03  0.38824522190E+02  0.10905863326E+04  0.12682826938E+04  0.25500000920E-02 0.  1.
</event>
<event>
 5   0  0.2440590E-06  0.2607765E+04  0.7818609E-02  0.8365568E-01
       -1   -1    0    0    0  501  0.00000000000E+00  0.00000000000E+00  0.98812206025E+03  0.98812206027E+03  0.50400001928E-02 0. -1.
        1   -1    0    0  501    0  0.00000000000E+00  0.00000000000E+00 -0.17205458854E+04  0.17205458854E+04  0.50400001928E-02 0.  1.
    10030    2    1    2    0    0  0.00000000000E+00  0.00000000000E+00 -0.73242382514E+03  0.27086679457E+04  0.26077648246E+04 0.  0.
        1    1    3    3  502    0  0.11845698090E+04  0.42873873128E+03 -0.16916141236E+02  0.12598843946E+04  0.50400001928E-02 0.  1.
       -1    1    3    3    0  502 -0.11845698090E+04 -0.42873873128E+03 -0.71550768390E+03  0.14487835510E+04  0.50400001928E-02 0. -1.
</event>
<event>
 5   0  0.2440590E-06  0.2618536E+04  0.7818609E-02  0.8361932E-01
       -1   -1    0    0    0  501  0.00000000000E+00  0.00000000000E+00  0.12827208623E+04  0.12827208623E+04  0.50400001928E-02 0.  1.
        1   -1    0    0  501    0  0.00000000000E+00  0.00000000000E+00 -0.13363642201E+04  0.13363642201E+04  0.50400001928E-02 0. -1.
    10030    2    1    2    0    0  0.00000000000E+00  0.00000000000E+00 -0.53643357820E+02  0.26190850824E+04  0.26185356708E+04 0.  0.
        1    1    3    3  502    0  0.11546112006E+03  0.11304069390E+04  0.62372323354E+03  0.12962182648E+04  0.50400001928E-02 0.  1.
       -1    1    3    3    0  502 -0.11546112006E+03 -0.11304069390E+04 -0.67736659136E+03  0.13228668176E+04  0.50400001928E-02 0. -1.
</event>
<event>
 5   0  0.6161834E-06  0.2607757E+04  0.7818609E-02  0.8365571E-01
        2   -1    0    0  501    0  0.00000000000E+00  0.00000000000E+00  0.26953994810E+04  0.26953994810E+04  0.25500000920E-02 0. -1.
       -2   -1    0    0    0  501  0.00000000000E+00  0.00000000000E+00 -0.63074130366E+03  0.63074130367E+03  0.25500000920E-02 0.  1.
    10030    2    1    2    0    0  0.00000000000E+00  0.00000000000E+00  0.20646581773E+04  0.33261407847E+04  0.26077574907E+04 0.  0.
        5    1    3    3  502    0  0.44168696919E+03  0.79253325369E+03  0.22267127232E+04  0.24044683359E+04  0.46999998093E+01 0. -1.
       -5    1    3    3    0  502 -0.44168696919E+03 -0.79253325369E+03 -0.16205454583E+03  0.92167244875E+03  0.46999998093E+01 0.  1.
</event>
<event>
 5   0  0.6161834E-06  0.2609220E+04  0.7818609E-02  0.8365076E-01
        2   -1    0    0  501    0  0.00000000000E+00  0.00000000000E+00  0.12718526710E+04  0.12718526710E+04  0.25500000920E-02 0.  1.
       -2   -1    0    0    0  501  0.00000000000E+00  0.00000000000E+00 -0.13382106211E+04  0.13382106211E+04  0.25500000920E-02 0. -1.
    10030    2    1    2    0    0  0.00000000000E+00  0.00000000000E+00 -0.66357950186E+02  0.26100632921E+04  0.26092196173E+04 0.  0.
        5    1    3    3  502    0 -0.14979488003E+03  0.11917606085E+04  0.47615440439E+03  0.12920824125E+04  0.46999998093E+01 0.  1.
       -5    1    3    3    0  502  0.14979488003E+03 -0.11917606085E+04 -0.54251235458E+03  0.13179808796E+04  0.46999998093E+01 0. -1.
</event>
<event>
 5   0  0.2333979E-06  0.2625798E+04  0.7818609E-02  0.8359491E-01
       -1   -1    0    0    0  501  0.00000000000E+00  0.00000000000E+00  0.10266429638E+04  0.10266429638E+04  0.50400001928E-02 0.  1.
        1   -1    0    0  501    0  0.00000000000E+00  0.00000000000E+00 -0.16789715590E+04  0.16789715590E+04  0.50400001928E-02 0. -1.
    10030    2    1    2    0    0  0.00000000000E+00  0.00000000000E+00 -0.65232859519E+03  0.27056145228E+04  0.26257984214E+04 0.  0.
        3    1    3    3  502    0 -0.63235874904E+03 -0.37816314568E+02  0.85874582966E+03  0.10671232690E+04  0.10100000352E+00 0.  1.
       -3    1    3    3    0  502  0.63235874904E+03  0.37816314568E+02 -0.15110744249E+04  0.16384912538E+04  0.10100000352E+00 0. -1.
</event>
<event>
 5   0  0.2471488E-06  0.2595999E+04  0.7818609E-02  0.8369562E-01
       -1   -1    0    0    0  501  0.00000000000E+00  0.00000000000E+00  0.92862128043E+03  0.92862128045E+03  0.50400001928E-02 0. -1.
        1   -1    0    0  501    0  0.00000000000E+00  0.00000000000E+00 -0.18143055130E+04  0.18143055130E+04  0.50400001928E-02 0.  1.
    10030    2    1    2    0    0  0.00000000000E+00  0.00000000000E+00 -0.88568423257E+03  0.27429267935E+04  0.25959990051E+04 0.  0.
        4    1    3    3  502    0 -0.60955406503E+02  0.11708513100E+03 -0.18071944782E+04  0.18120093776E+04  0.12699999809E+01 0.  1.
       -4    1    3    3    0  502  0.60955406503E+02 -0.11708513100E+03  0.92151024563E+03  0.93091741588E+03  0.12699999809E+01 0. -1.
</event>
<event>
 5   0  0.2471488E-06  0.2598624E+04  0.7818609E-02  0.8368669E-01
       -1   -1    0    0    0  501  0.00000000000E+00  0.00000000000E+00  0.16167269422E+04  0.16167269422E+04  0.50400001928E-02 0.  1.
        1   -1    0    0  501    0  0.00000000000E+00  0.00000000000E+00 -0.10442158625E+04  0.10442158625E+04  0.50400001928E-02 0. -1.
    10030    2    1    2    0    0  0.00000000000E+00  0.00000000000E+00  0.57251107966E+03  0.26609428047E+04  0.25986241886E+04 0.  0.
        4    1    3    3  502    0 -0.95402521643E+03  0.18341605408E+03  0.11697353494E+04  0.15205551496E+04  0.12699999809E+01 0.  1.
       -4    1    3    3    0  502  0.95402521643E+03 -0.18341605408E+03 -0.59722426979E+03  0.11403876551E+04  0.12699999809E+01 0. -1.
</event>
<event>
 5   0  0.5942229E-06  0.2591563E+04  0.7818609E-02  0.8371073E-01
        2   -1    0    0  501    0  0.00000000000E+00  0.00000000000E+00  0.14116988150E+04  0.14116988150E+04  0.25500000920E-02 0. -1.
       -2   -1    0    0    0  501  0.00000000000E+00  0.00000000000E+00 -0.11893826225E+04  0.11893826225E+04  0.25500000920E-02 0.  1.
    10030    2    1    2    0    0  0.00000000000E+00  0.00000000000E+00  0.22231619250E+03  0.26010814375E+04  0.25915632648E+04 0.  0.
        4    1    3    3  502    0 -0.86636559106E+03 -0.41429356712E+03  0.98430720353E+03  0.13751693645E+04  0.12699999809E+01 0. -1.
       -4    1    3    3    0  502  0.86636559106E+03  0.41429356712E+03 -0.76199101103E+03  0.12259120731E+04  0.12699999809E+01 0.  1.
</event>
<event>
 5   0  0.2072125E-06  0.2606796E+04  0.7818609E-02  0.8365897E-01
       -3   -1    0    0    0  501  0.00000000000E+00  0.00000000000E+00  0.23274423924E+04  0.23274423946E+04  0.10100000352E+00 0. -1.
        3   -1    0    0  501    0  0.00000000000E+00  0.00000000000E+00 -0.72991964731E+03  0.72991965429E+03  0.10100000352E+00 0.  1.
    10030    2    1    2    0    0  0.00000000000E+00  0.00000000000E+00  0.15975227451E+04  0.30573620489E+04  0.26067956915E+04 0.  0.
        4    1    3    3  502    0  0.10632784230E+04 -0.75379019405E+03  0.80948951174E+03  0.15342866564E+04  0.12699999809E+01 0.  1.
       -4    1    3    3    0  502 -0.10632784230E+04  0.75379019405E+03  0.78803323340E+03  0.15230753925E+04  0.12699999809E+01 0. -1.
</event>
<event>
 5   0  0.2333979E-06  0.2613041E+04  0.7818609E-02  0.8363785E-01
       -1   -1    0    0    0  501  0.00000000000E+00  0.00000000000E+00  0.10836661192E+04  0.10836661192E+04  0.50400001928E-02 0. -1.
        1   -1    0    0  501    0  0.00000000000E+00  0.00000000000E+00 -0.15752046529E+04  0.15752046529E+04  0.50400001928E-02 0.  1.
    10030    2    1    2    0    0  0.00000000000E+00  0.00000000000E+00 -0.49153853366E+03  0.26588707721E+04  0.26130410737E+04 0.  0.
        3    1    3    3  502    0  0.14368610707E+01 -0.32455520150E+02 -0.15747935944E+04  0.15751286616E+04  0.10100000352E+00 0.  1.
       -3    1    3    3    0  502 -0.14368610707E+01  0.32455520150E+02  0.10832550607E+04  0.10837421105E+04  0.10100000352E+00 0. -1.
</event>
<event>
 5   0  0.6158063E-06  0.2603759E+04  0.7818609E-02  0.8366925E-01
        2   -1    0    0  501    0  0.00000000000E+00  0.00000000000E+00  0.15880918171E+04  0.15880918171E+04  0.25500000920E-02 0.  1.
       -2   -1    0    0    0  501  0.00000000000E+00  0.00000000000E+00 -0.10672496065E+04  0.10672496065E+04  0.25500000920E-02 0. -1.
    10030    2    1    2    0    0  0.00000000000E+00  0.00000000000E+00  0.52084221064E+03  0.26553414236E+04  0.26037591032E+04 0.  0.
        2    1    3    3  502    0  0.42996677329E+03  0.12144132112E+04  0.69034684270E+02  0.12901304823E+04  0.25500000920E-02 0.  1.
       -2    1    3    3    0  502 -0.42996677329E+03 -0.12144132112E+04  0.45180752637E+03  0.13652109414E+04  0.25500000920E-02 0. -1.
</event>
<event>
 5   0  0.6161834E-06  0.2600882E+04  0.7818609E-02  0.8367902E-01
        2   -1    0    0  501    0  0.00000000000E+00  0.00000000000E+00  0.11228313897E+04  0.11228313897E+04  0.25500000920E-02 0.  1.
       -2   -1    0    0    0  501  0.00000000000E+00  0.00000000000E+00 -0.15061449810E+04  0.15061449810E+04  0.25500000920E-02 0. -1.
    10030    2    1    2    0    0  0.00000000000E+00  0.00000000000E+00 -0.38331359128E+03  0.26289763707E+04  0.26008820520E+04 0.  0.
        5    1    3    3  502    0 -0.12998526235E+04  0.27334057469E+02 -0.16377664148E+03  0.13104231652E+04  0.46999998093E+01 0. -1.
       -5    1    3    3    0  502  0.12998526235E+04 -0.27334057469E+02 -0.21953694980E+03  0.13185532055E+04  0.46999998093E+01 0.  1.
</event>
<event>
 5   0  0.6173140E-06  0.2591019E+04  0.7818609E-02  0.8371258E-01
        2   -1    0    0  501    0  0.00000000000E+00  0.00000000000E+00  0.13784370871E+04  0.13784370871E+04  0.25500000920E-02 0. -1.
       -2   -1    0    0    0  501  0.00000000000E+00  0.00000000000E+00 -0.12175705221E+04  0.12175705221E+04  0.25500000920E-02 0.  1.
    10030    2    1    2    0    0  0.00000000000E+00  0.00000000000E+00  0.16086656499E+03  0.25960076092E+04  0.25910186134E+04 0.  0.
        3    1    3    3  502    0 -0.77573481394E+03  0.98776053568E+03  0.39870667116E+03  0.13177262224E+04  0.10100000352E+00 0. -1.
       -3    1    3    3    0  502  0.77573481394E+03 -0.98776053568E+03 -0.23784010617E+03  0.12782813868E+04  0.10100000352E+00 0.  1.
</event>
<event>
 5   0  0.2503292E-06  0.2624443E+04  0.7818609E-02  0.8359946E-01
       -1   -1    0    0    0  501  0.00000000000E+00  0.00000000000E+00  0.14874193621E+04  0.14874193621E+04  0.50400001928E-02 0. -1.
        1   -1    0    0  501    0  0.00000000000E+00  0.00000000000E+00 -0.11576597401E+04  0.11576597401E+04  0.50400001928E-02 0.  1.
    10030    2    1    2    0    0  0.00000000000E+00  0.00000000000E+00  0.32975962198E+03  0.26450791021E+04  0.26244431882E+04 0.  0.
        2    1    3    3  502    0 -0.11122449377E+04  0.59480278294E+03  0.52972949100E+03  0.13680250311E+04  0.25500000920E-02 0. -1.
       -2    1    3    3    0  502  0.11122449377E+04 -0.59480278294E+03 -0.19996986902E+03  0.12770540711E+04  0.25500000920E-02 0.  1.
</event>
<event>
 5   0  0.6173140E-06  0.2595854E+04  0.7818609E-02  0.8369611E-01
       -2   -1    0    0    0  501  0.00000000000E+00  0.00000000000E+00  0.13767874669E+04  0.13767874669E+04  0.25500000920E-02 0. -1.
        2   -1    0    0  501    0  0.00000000000E+00  0.00000000000E+00 -0.12235836683E+04  0.12235836683E+04  0.25500000920E-02 0.  1.
    10030    2    1    2    0    0  0.00000000000E+00  0.00000000000E+00  0.15320379859E+03  0.26003711353E+04  0.25958541248E+04 0.  0.
        3    1    3    3  502    0  0.77144363016E+03 -0.10419465914E+04  0.13865058283E+03  0.13038412358E+04  0.10100000352E+00 0. -1.
       -3    1    3    3    0  502 -0.77144363016E+03  0.10419465914E+04  0.14553215762E+02  0.12965298995E+04  0.10100000352E+00 0.  1.
</event>
<event>
 5   0  0.2456600E-06  0.2597524E+04  0.7818609E-02  0.8369043E-01
       -1   -1    0    0    0  501  0.00000000000E+00  0.00000000000E+00  0.18123221064E+04  0.18123221064E+04  0.50400001928E-02 0. -1.
        1   -1    0    0  501    0  0.00000000000E+00  0.00000000000E+00 -0.93073015942E+03  0.93073015944E+03  0.50400001928E-02 0.  1.
    10030    2    1    2    0    0  0.00000000000E+00  0.00000000000E+00  0.88159194695E+03  0.27430522658E+04  0.25975240850E+04 0.  0.
        5    1    3    3  502    0  0.11686487038E+04 -0.42589309189E+03  0.83541066761E+03  0.14983516917E+04  0.46999998093E+01 0. -1.
       -5    1    3    3    0  502 -0.11686487038E+04  0.42589309189E+03  0.46181279340E+02  0.12447005741E+04  0.46999998093E+01 0.  1.
</event>
<event>
 5   0  0.2333979E-06  0.2616319E+04  0.7818609E-02  0.8362679E-01
       -1   -1    0    0    0  501  0.00000000000E+00  0.00000000000E+00  0.13283190190E+04  0.13283190190E+04  0.50400001928E-02 0.  1.
        1   -1    0    0  501    0  0.00000000000E+00  0.00000000000E+00 -0.12883064199E+04  0.12883064199E+04  0.50400001928E-02 0. -1.
    10030    2    1    2    0    0  0.00000000000E+00  0.00000000000E+00  0.40012599172E+02  0.26166254389E+04  0.26163194911E+04 0.  0.
        3    1    3    3  502    0 -0.26745467953E+03  0.32727463460E+03  0.12581499453E+04  0.13272460160E+04  0.10100000352E+00 0.  1.
       -3    1    3    3    0  502  0.26745467953E+03 -0.32727463460E+03 -0.12181373461E+04  0.12893794229E+04  0.10100000352E+00 0. -1.
</event>
<event>
 5   0  0.2471488E-06  0.2579153E+04  0.7818609E-02  0.8375317E-01
        1   -1    0    0  501    0  0.00000000000E+00  0.00000000000E+00  0.11643650598E+04  0.11643650598E+04  0.50400001928E-02 0.  1.
       -1   -1    0    0    0  501  0.00000000000E+00  0.00000000000E+00 -0.14282522576E+04  0.14282522576E+04  0.50400001928E-02 0. -1.
    10030    2    1    2    0    0  0.00000000000E+00  0.00000000000E+00 -0.26388719776E+03  0.25926173174E+04  0.25791525937E+04 0.  0.
        4    1    3    3  502    0  0.23798177270E+03  0.12585802245E+04  0.18322278803E+02  0.12810139829E+04  0.12699999809E+01 0.  1.
       -4    1    3    3    0  502 -0.23798177270E+03 -0.12585802245E+04 -0.28220947656E+03  0.13116033345E+04  0.12699999809E+01 0. -1.
</event>
<event>
 5   0  0.5942229E-06  0.2601551E+04  0.7818609E-02  0.8367675E-01
        2   -1    0    0  501    0  0.00000000000E+00  0.00000000000E+00  0.28415363571E+04  0.28415363571E+04  0.25500000920E-02 0. -1.
       -2   -1    0    0    0  501  0.00000000000E+00  0.00000000000E+00 -0.59545848789E+03  0.59545848790E+03  0.25500000920E-02 0.  1.
    10030    2    1    2    0    0  0.00000000000E+00  0.00000000000E+00  0.22460778692E+04  0.34369948450E+04  0.26015510316E+04 0.  0.
        4    1    3    3  502    0  0.95897238648E+03  0.28945041363E+03  0.22193450929E+04  0.24349340514E+04  0.12699999809E+01 0. -1.
       -4    1    3    3    0  502 -0.95897238648E+03 -0.28945041363E+03  0.26732776293E+02  0.10020607937E+04  0.12699999809E+01 0.  1.
</event>
<event>
 5   0  0.2471488E-06  0.2600244E+04  0.7818609E-02  0.8368118E-01
        1   -1    0    0  501    0  0.00000000000E+00  0.00000000000E+00  0.12905954875E+04  0.12905954875E+04  0.50400001928E-02 0.  1.
       -1   -1    0    0    0  501  0.00000000000E+00  0.00000000000E+00 -0.13097192931E+04  0.13097192931E+04  0.50400001928E-02 0. -1.
    10030    2    1    2    0    0  0.00000000000E+00  0.00000000000E+00 -0.19123805610E+02  0.26003147806E+04  0.26002444574E+04 0.  0.
        4    1    3    3  502    0  0.41919064317E+03 -0.10053641740E+04  0.70027295953E+03  0.12949369670E+04  0.12699999809E+01 0.  1.
       -4    1    3    3    0  502 -0.41919064317E+03  0.10053641740E+04 -0.71939676514E+03  0.13053778136E+04  0.12699999809E+01 0. -1.
</event>
<event>
 5   0  0.6161834E-06  0.2495564E+04  0.7818609E-02  0.8404568E-01
        2   -1    0    0  501    0  0.00000000000E+00  0.00000000000E+00  0.12185615449E+04  0.12185615449E+04  0.25500000920E-02 0.  1.
       -2   -1    0    0    0  501  0.00000000000E+00  0.00000000000E+00 -0.12777032832E+04  0.12777032832E+04  0.25500000920E-02 0. -1.
    10030    2    1    2    0    0  0.00000000000E+00  0.00000000000E+00 -0.59141738296E+02  0.24962648281E+04  0.24955641339E+04 0.  0.
        5    1    3    3  502    0  0.62124951470E+03 -0.39848818924E+03  0.97679023866E+03  0.12242896131E+04  0.46999998093E+01 0.  1.
       -5    1    3    3    0  502 -0.62124951470E+03  0.39848818924E+03 -0.10359319770E+04  0.12719752149E+04  0.46999998093E+01 0. -1.
</event>
<event>
 5   0  0.2333979E-06  0.2600013E+04  0.7818609E-02  0.8368197E-01
       -1   -1    0    0    0  501  0.00000000000E+00  0.00000000000E+00  0.90386082870E+03  0.90386082871E+03  0.50400001928E-02 0.  1.
        1   -1    0    0  501    0  0.00000000000E+00  0.00000000000E+00 -0.18697758149E+04  0.18697758150E+04  0.50400001928E-02 0. -1.
    10030    2    1    2    0    0  0.00000000000E+00  0.00000000000E+00 -0.96591498625E+03  0.27736366437E+04  0.26000131674E+04 0.  0.
        3    1    3    3  502    0 -0.11465646868E+04 -0.61267476789E+03 -0.47654303530E+03  0.13845844961E+04  0.10100000352E+00 0. -1.
       -3    1    3    3    0  502  0.11465646868E+04  0.61267476789E+03 -0.48937195095E+03  0.13890521476E+04  0.10100000352E+00 0.  1.
</event>
<event>
 5   0  0.6158063E-06  0.2618991E+04  0.7818609E-02  0.8361779E-01
        2   -1    0    0  501    0  0.00000000000E+00  0.00000000000E+00  0.97826292164E+03  0.97826292165E+03  0.25500000920E-02 0. -1.
       -2   -1    0    0    0  501  0.00000000000E+00  0.00000000000E+00 -0.17528811291E+04  0.17528811291E+04  0.25500000920E-02 0.  1.
    10030    2    1    2    0    0  0.00000000000E+00  0.00000000000E+00 -0.77461820743E+03  0.27311440507E+04  0.26189911146E+04 0.  0.
        2    1    3    3  502    0 -0.86888235243E+03 -0.68141366507E+03  0.34675047677E+03  0.11573750552E+04  0.25500000920E-02 0. -1.
       -2    1    3    3    0  502  0.86888235243E+03  0.68141366507E+03 -0.11213686842E+04  0.15737689955E+04  0.25500000920E-02 0.  1.
</event>
<event>
 5   0  0.5942229E-06  0.2589012E+04  0.7818609E-02  0.8371943E-01
        2   -1    0    0  501    0  0.00000000000E+00  0.00000000000E+00  0.25246441429E+04  0.25246441429E+04  0.25500000920E-02 0. -1.
       -2   -1    0    0    0  501  0.00000000000E+00  0.00000000000E+00 -0.66375515542E+03  0.66375515542E+03  0.25500000920E-02 0.  1.
    10030    2    1    2    0    0  0.00000000000E+00  0.00000000000E+00  0.18608889875E+04  0.31883992983E+04  0.25890118311E+04 0.  0.
        4    1    3    3  502    0  0.37319282776E+03 -0.68529559293E+03  0.22024486256E+04  0.23365967768E+04  0.12699999809E+01 0. -1.
       -4    1    3    3    0  502 -0.37319282776E+03  0.68529559293E+03 -0.34155963807E+03  0.85180252150E+03  0.12699999809E+01 0.  1.
</event>
<event>
 5   0  0.6158063E-06  0.2610622E+04  0.7818609E-02  0.8364602E-01
        2   -1    0    0  501    0  0.00000000000E+00  0.00000000000E+00  0.19538761456E+04  0.19538761456E+04  0.25500000920E-02 0. -1.
       -2   -1    0    0    0  501  0.00000000000E+00  0.00000000000E+00 -0.87202933344E+03  0.87202933344E+03  0.25500000920E-02 0.  1.
    10030    2    1    2    0    0  0.00000000000E+00  0.00000000000E+00  0.10818468122E+04  0.28259054791E+04  0.26106223878E+04 0.  0.
        2    1    3    3  502    0 -0.99869107394E+03  0.77490101008E+03  0.89331811211E+03  0.15478606804E+04  0.25500000920E-02 0. -1.
       -2    1    3    3    0  502  0.99869107394E+03 -0.77490101008E+03  0.18852870010E+03  0.12780447987E+04  0.25500000920E-02 0.  1.
</event>
<event>
 5   0  0.2471488E-06  0.2584054E+04  0.7818609E-02  0.8373638E-01
       -1   -1    0    0    0  501  0.00000000000E+00  0.00000000000E+00  0.11464760471E+04  0.11464760471E+04  0.50400001928E-02 0. -1.
        1   -1    0    0  501    0  0.00000000000E+00  0.00000000000E+00 -0.14560559291E+04  0.14560559292E+04  0.50400001928E-02 0.  1.
    10030    2    1    2    0    0  0.00000000000E+00  0.00000000000E+00 -0.30957988207E+03  0.26025319762E+04  0.25840535954E+04 0.  0.
        4    1    3    3  502    0 -0.77324251706E+03 -0.47474763703E+03 -0.10811729948E+04  0.14114623504E+04  0.12699999809E+01 0.  1.
       -4    1    3    3    0  502  0.77324251706E+03  0.47474763703E+03  0.77159311273E+03  0.11910696258E+04  0.12699999809E+01 0. -1.
</event>
<event>
 5   0  0.6161834E-06  0.2599873E+04  0.7818609E-02  0.8368244E-01
       -2   -1    0    0    0  501  0.00000000000E+00  0.00000000000E+00  0.10601344053E+04  0.10601344053E+04  0.25500000920E-02 0. -1.
        2   -1    0    0  501    0  0.00000000000E+00  0.00000000000E+00 -0.15939814863E+04  0.15939814863E+04  0.25500000920E-02 0.  1.
    10030    2    1    2    0    0  0.00000000000E+00  0.00000000000E+00 -0.53384708098E+03  0.26541158917E+04  0.25998727777E+04 0.  0.
        5    1    3    3  502    0 -0.43335234016E+03 -0.27540588345E+03  0.95221599366E+03  0.10818410419E+04  0.46999998093E+01 0. -1.
       -5    1    3    3    0  502  0.43335234016E+03  0.27540588345E+03 -0.14860630746E+04  0.15722748498E+04  0.46999998093E+01 0.  1.
</event>
<event>
 5   0  0.2503292E-06  0.2602636E+04  0.7818609E-02  0.8367306E-01
        1   -1    0    0  501    0  0.00000000000E+00  0.00000000000E+00  0.14115998332E+04  0.14115998332E+04  0.50400001928E-02 0. -1.
       -1   -1    0    0    0  501  0.00000000000E+00  0.00000000000E+00 -0.11996517661E+04  0.11996517661E+04  0.50400001928E-02 0.  1.
    10030    2    1    2    0    0  0.00000000000E+00  0.00000000000E+00  0.21194806707E+03  0.26112515993E+04  0.26026357663E+04 0.  0.
        2    1    3    3  502    0 -0.44024515107E+03  0.41135603791E+03 -0.10512733913E+04  0.12116952283E+04  0.25500000920E-02 0.  1.
       -2    1    3    3    0  502  0.44024515107E+03 -0.41135603791E+03  0.12632214583E+04  0.13995563711E+04  0.25500000920E-02 0. -1.
</event>
<event>
 5   0  0.2440590E-06  0.2598597E+04  0.7818609E-02  0.8368678E-01
       -1   -1    0    0    0  501  0.00000000000E+00  0.00000000000E+00  0.88678053922E+03  0.88678053923E+03  0.50400001928E-02 0. -1.
        1   -1    0    0  501    0  0.00000000000E+00  0.00000000000E+00 -0.19037142120E+04  0.19037142120E+04  0.50400001928E-02 0.  1.
    10030    2    1    2    0    0  0.00000000000E+00  0.00000000000E+00 -0.10169336728E+04  0.27904947513E+04  0.25985970950E+04 0.  0.
        1    1    3    3  502    0 -0.20935241996E+03  0.71845652125E+03  0.63212234360E+03  0.97958504785E+03  0.50400001928E-02 0. -1.
       -1    1    3    3    0  502  0.20935241996E+03 -0.71845652125E+03 -0.16490560164E+04  0.18109097034E+04  0.50400001928E-02 0.  1.
</event>
<event>
 5   0  0.2456600E-06  0.2762804E+04  0.7818609E-02  0.8314910E-01
        1   -1    0    0  501    0  0.00000000000E+00  0.00000000000E+00  0.18321109053E+04  0.18321109053E+04  0.50400001928E-02 0. -1.
       -1   -1    0    0    0  501  0.00000000000E+00  0.00000000000E+00 -0.10415701356E+04  0.10415701357E+04  0.50400001928E-02 0.  1.
    10030    2    1    2    0    0  0.00000000000E+00  0.00000000000E+00  0.79054076967E+03  0.28736810410E+04  0.27628043754E+04 0.  0.
        5    1    3    3  502    0 -0.11695230984E+04  0.42310558073E+03  0.10206027724E+04  0.16088675269E+04  0.46999998093E+01 0. -1.
       -5    1    3    3    0  502  0.11695230984E+04 -0.42310558073E+03 -0.23006200277E+03  0.12648135140E+04  0.46999998093E+01 0.  1.
</event>
<event>
 5   0  0.2471488E-06  0.2605498E+04  0.7818609E-02  0.8366336E-01
        1   -1    0    0  501    0  0.00000000000E+00  0.00000000000E+00  0.13957354331E+04  0.13957354331E+04  0.50400001928E-02 0.  1.
       -1   -1    0    0    0  501  0.00000000000E+00  0.00000000000E+00 -0.12159579342E+04  0.12159579342E+04  0.50400001928E-02 0. -1.
    10030    2    1    2    0    0  0.00000000000E+00  0.00000000000E+00  0.17977749890E+03  0.26116933672E+04  0.26054984735E+04 0.  0.
        4    1    3    3  502    0  0.50601011605E+03 -0.26598912468E+03  0.12632947506E+04  0.13866187983E+04  0.12699999809E+01 0.  1.
       -4    1    3    3    0  502 -0.50601011605E+03  0.26598912468E+03 -0.10835172517E+04  0.12250745690E+04  0.12699999809E+01 0. -1.
</event>
<event>
 5   0  0.5940748E-06  0.2578949E+04  0.7818609E-02  0.8375387E-01
       -2   -1    0    0    0  501  0.00000000000E+00  0.00000000000E+00  0.90352120574E+03  0.90352120575E+03  0.25500000920E-02 0.  1.
        2   -1    0    0  501    0  0.00000000000E+00  0.00000000000E+00 -0.18402938411E+04  0.18402938411E+04  0.25500000920E-02 0. -1.
    10030    2    1    2    0    0  0.00000000000E+00  0.00000000000E+00 -0.93677263533E+03  0.27438150468E+04  0.25789490187E+04 0.  0.
        1    1    3    3  502    0 -0.55908705603E+03 -0.88731714785E+03 -0.12665692070E+04  0.16444171044E+04  0.50400001928E-02 0. -1.
       -1    1    3    3    0  502  0.55908705603E+03  0.88731714785E+03  0.32979657168E+03  0.10993979424E+04  0.50400001928E-02 0.  1.
</event>
<event>
 5   0  0.2440590E-06  0.2604552E+04  0.7818609E-02  0.8366657E-01
        1   -1    0    0  501    0  0.00000000000E+00  0.00000000000E+00  0.17975914970E+04  0.17975914970E+04  0.50400001928E-02 0. -1.
       -1   -1    0    0    0  501  0.00000000000E+00  0.00000000000E+00 -0.94344188825E+03  0.94344188826E+03  0.50400001928E-02 0.  1.
    10030    2    1    2    0    0  0.00000000000E+00  0.00000000000E+00  0.85414960872E+03  0.27410333852E+04  0.26045522581E+04 0.  0.
        1    1    3    3  502    0 -0.18814491604E+03  0.97540238237E+02 -0.92517263703E+03  0.94913487758E+03  0.50400001928E-02 0.  1.
       -1    1    3    3    0  502  0.18814491604E+03 -0.97540238237E+02  0.17793222457E+04  0.17918985077E+04  0.50400001928E-02 0. -1.
</event>
<event>
 5   0  0.6173140E-06  0.2605107E+04  0.7818609E-02  0.8366469E-01
        2   -1    0    0  501    0  0.00000000000E+00  0.00000000000E+00  0.98324373278E+03  0.98324373279E+03  0.25500000920E-02 0.  1.
       -2   -1    0    0    0  501  0.00000000000E+00  0.00000000000E+00 -0.17255595609E+04  0.17255595609E+04  0.25500000920E-02 0. -1.
    10030    2    1    2    0    0  0.00000000000E+00  0.00000000000E+00 -0.74231582813E+03  0.27088032937E+04  0.26051070027E+04 0.  0.
        3    1    3    3  502    0 -0.76871446768E+03 -0.83453702904E+03  0.29405048186E+03  0.11721090742E+04  0.10100000352E+00 0.  1.
       -3    1    3    3    0  502  0.76871446768E+03  0.83453702904E+03 -0.10363663100E+04  0.15366942195E+04  0.10100000352E+00 0. -1.
</event>
<event>
 5   0  0.5940748E-06  0.2583890E+04  0.7818609E-02  0.8373694E-01
        2   -1    0    0  501    0  0.00000000000E+00  0.00000000000E+00  0.18558886301E+04  0.18558886301E+04  0.25500000920E-02 0. -1.
       -2   -1    0    0    0  501  0.00000000000E+00  0.00000000000E+00 -0.89936562507E+03  0.89936562508E+03  0.25500000920E-02 0.  1.
    10030    2    1    2    0    0  0.00000000000E+00  0.00000000000E+00  0.95652300500E+03  0.27552542551E+04  0.25838904295E+04 0.  0.
        1    1    3    3  502    0 -0.25366165456E+03 -0.13873394278E+03  0.18209490786E+04  0.18437589021E+04  0.50400001928E-02 0. -1.
       -1    1    3    3    0  502  0.25366165456E+03  0.13873394278E+03 -0.86442607365E+03  0.91149535309E+03  0.50400001928E-02 0.  1.
</event>
<event>
 5   0  0.5940748E-06  0.2613143E+04  0.7818609E-02  0.8363751E-01
        2   -1    0    0  501    0  0.00000000000E+00  0.00000000000E+00  0.20260339216E+04  0.20260339216E+04  0.25500000920E-02 0.  1.
       -2   -1    0    0    0  501  0.00000000000E+00  0.00000000000E+00 -0.84259621407E+03  0.84259621408E+03  0.25500000920E-02 0. -1.
    10030    2    1    2    0    0  0.00000000000E+00  0.00000000000E+00  0.11834377075E+04  0.28686301357E+04  0.26131425617E+04 0.  0.
        1    1    3    3  502    0 -0.10904823644E+04 -0.71569018308E+03  0.50837295409E+03  0.13999311718E+04  0.50400001928E-02 0. -1.
       -1    1    3    3    0  502  0.10904823644E+04  0.71569018308E+03  0.67506475343E+03  0.14686989639E+04  0.50400001928E-02 0.  1.
</event>
<event>
 5   0  0.6161834E-06  0.2614194E+04  0.7818609E-02  0.8363396E-01
        2   -1    0    0  501    0  0.00000000000E+00  0.00000000000E+00  0.16762452456E+04  0.16762452456E+04  0.25500000920E-02 0. -1.
       -2   -1    0    0    0  501  0.00000000000E+00  0.00000000000E+00 -0.10192436160E+04  0.10192436160E+04  0.25500000920E-02 0.  1.
    10030    2    1    2    0    0  0.00000000000E+00  0.00000000000E+00  0.65700162963E+03  0.26954888617E+04  0.26141937690E+04 0.  0.
        5    1    3    3  502    0  0.23480823768E+03  0.13379367884E+03 -0.99011316009E+03  0.10263439076E+04  0.46999998093E+01 0.  1.
       -5    1    3    3    0  502 -0.23480823768E+03 -0.13379367884E+03  0.16471147897E+04  0.16691449540E+04  0.46999998093E+01 0. -1.
</event>
<event>
 5   0  0.2456600E-06  0.2605920E+04  0.7818609E-02  0.8366193E-01
        1   -1    0    0  501    0  0.00000000000E+00  0.00000000000E+00  0.23394086852E+04  0.23394086852E+04  0.50400001928E-02 0.  1.
       -1   -1    0    0    0  501  0.00000000000E+00  0.00000000000E+00 -0.72569799547E+03  0.72569799548E+03  0.50400001928E-02 0. -1.
    10030    2    1    2    0    0  0.00000000000E+00  0.00000000000E+00  0.16137106898E+04  0.30651066807E+04  0.26059195640E+04 0.  0.
        5    1    3    3  502    0  0.10095862995E+04  0.99187906749E+02  0.17686028603E+04  0.20388920777E+04  0.46999998093E+01 0.  1.
       -5    1    3    3    0  502 -0.10095862995E+04 -0.99187906749E+02 -0.15489217052E+03  0.10262146030E+04  0.46999998093E+01 0. -1.
</event>
<event>
 5   0  0.6173140E-06  0.2581627E+04  0.7818609E-02  0.8374469E-01
       -2   -1    0    0    0  501  0.00000000000E+00  0.00000000000E+00  0.15642978690E+04  0.15642978690E+04  0.25500000920E-02 0. -1.
        2   -1    0    0  501    0  0.00000000000E+00  0.00000000000E+00 -0.10651420556E+04  0.10651420556E+04  0.25500000920E-02 0.  1.
    10030    2    1    2    0    0  0.00000000000E+00  0.00000000000E+00  0.49915581340E+03  0.26294399246E+04  0.25816269659E+04 0.  0.
        3    1    3    3  502    0 -0.12668502103E+04 -0.24722342153E+03  0.26287972808E+03  0.13172450938E+04  0.10100000352E+00 0. -1.
       -3    1    3    3    0  502  0.12668502103E+04  0.24722342153E+03  0.23627608531E+03  0.13121948309E+04  0.10100000352E+00 0.  1.
</event>
<event>
 5   0  0.2503292E-06  0.2603369E+04  0.7818609E-02  0.8367058E-01
       -1   -1    0    0    0  501  0.00000000000E+00  0.00000000000E+00  0.19051128512E+04  0.19051128512E+04  0.50400001928E-02 0.  1.
        1   -1    0    0  501    0  0.00000000000E+00  0.00000000000E+00 -0.88938667367E+03  0.88938667368E+03  0.50400001928E-02 0. -1.
    10030    2    1    2    0    0  0.00000000000E+00  0.00000000000E+00  0.10157261775E+04  0.27944995249E+04  0.26033685730E+04 0.  0.
        2    1    3    3  502    0 -0.76976398495E+03  0.84609347044E+03  0.11747402562E+04  0.16396418581E+04  0.25500000920E-02 0.  1.
       -2    1    3    3    0  502  0.76976398495E+03 -0.84609347044E+03 -0.15901407872E+03  0.11548576668E+04  0.25500000920E-02 0. -1.
</event>
<event>
 5   0  0.2440590E-06  0.2599517E+04  0.7818609E-02  0.8368365E-01
        1   -1    0    0  501    0  0.00000000000E+00  0.00000000000E+00  0.11129029330E+04  0.11129029330E+04  0.50400001928E-02 0. -1.
       -1   -1    0    0    0  501  0.00000000000E+00  0.00000000000E+00 -0.15179865754E+04  0.15179865754E+04  0.50400001928E-02 0.  1.
    10030    2    1    2    0    0  0.00000000000E+00  0.00000000000E+00 -0.40508364240E+03  0.26308895084E+04  0.25995166566E+04 0.  0.
        1    1    3    3  502    0 -0.63753357755E+03  0.83950370012E+03  0.56700064933E+03  0.11969566665E+04  0.50400001928E-02 0. -1.
       -1    1    3    3    0  502  0.63753357755E+03 -0.83950370012E+03 -0.97208429173E+03  0.14339328420E+04  0.50400001928E-02 0.  1.
</event>
<event>
 5   0  0.2333979E-06  0.2591915E+04  0.7818609E-02  0.8370953E-01
        1   -1    0    0  501    0  0.00000000000E+00  0.00000000000E+00  0.13337912738E+04  0.13337912738E+04  0.50400001928E-02 0.  1.
       -1   -1    0    0    0  501  0.00000000000E+00  0.00000000000E+00 -0.12591970324E+04  0.12591970324E+04  0.50400001928E-02 0. -1.
    10030    2    1    2    0    0  0.00000000000E+00  0.00000000000E+00  0.74594241439E+02  0.25929883062E+04  0.25919151327E+04 0.  0.
        3    1    3    3  502    0 -0.10974389036E+04  0.28947875830E+03  0.66312460058E+03  0.13144977538E+04  0.10100000352E+00 0.  1.
       -3    1    3    3    0  502  0.10974389036E+04 -0.28947875830E+03 -0.58853035914E+03  0.12784905524E+04  0.10100000352E+00 0. -1.
</event>
<event>
 5   0  0.2333979E-06  0.2590781E+04  0.7818609E-02  0.8371340E-01
       -1   -1    0    0    0  501  0.00000000000E+00  0.00000000000E+00  0.30205118737E+04  0.30205118737E+04  0.50400001928E-02 0. -1.
        1   -1    0    0  501    0  0.00000000000E+00  0.00000000000E+00 -0.55554693180E+03  0.55554693182E+03  0.50400001928E-02 0.  1.
    10030    2    1    2    0    0  0.00000000000E+00  0.00000000000E+00  0.24649649419E+04  0.35760588055E+04  0.25907806576E+04 0.  0.
        3    1    3    3  502    0  0.94534576191E+03  0.45365609822E+03  0.22823773484E+04  0.25117183034E+04  0.10100000352E+00 0. -1.
       -3    1    3    3    0  502 -0.94534576191E+03 -0.45365609822E+03  0.18258759355E+03  0.10643405022E+04  0.10100000352E+00 0.  1.
</event>
<event>
 5   0  0.6158063E-06  0.2591696E+04  0.7818609E-02  0.8371027E-01
        2   -1    0    0  501    0  0.00000000000E+00  0.00000000000E+00  0.10062216446E+04  0.10062216446E+04  0.25500000920E-02 0. -1.
       -2   -1    0    0    0  501  0.00000000000E+00  0.00000000000E+00 -0.16688394165E+04  0.16688394165E+04  0.25500000920E-02 0.  1.
    10030    2    1    2    0    0  0.00000000000E+00  0.00000000000E+00 -0.66261777192E+03  0.26750610611E+04  0.25916962339E+04 0.  0.
        2    1    3    3  502    0 -0.61907606516E+03 -0.83524037384E+03  0.46709725643E+03  0.11397637929E+04  0.25500000920E-02 0. -1.
       -2    1    3    3    0  502  0.61907606516E+03  0.83524037384E+03 -0.11297150284E+04  0.15352972682E+04  0.25500000920E-02 0.  1.
</event>
<event>
 5   0  0.2456600E-06  0.2641991E+04  0.7818609E-02  0.8354076E-01
        1   -1    0    0  501    0  0.00000000000E+00  0.00000000000E+00  0.13046356585E+04  0.13046356585E+04  0.50400001928E-02 0. -1.
       -1   -1    0    0    0  501  0.00000000000E+00  0.00000000000E+00 -0.13375602684E+04  0.13375602684E+04  0.50400001928E-02 0.  1.
    10030    2    1    2    0    0  0.00000000000E+00  0.00000000000E+00 -0.32924609867E+02  0.26421959269E+04  0.26419907809E+04 0.  0.
        5    1    3    3  502    0 -0.12860194311E+04  0.23067654219E+03  0.17835807640E+03  0.13186702915E+04  0.46999998093E+01 0.  1.
       -5    1    3    3    0  502  0.12860194311E+04 -0.23067654219E+03 -0.21128268626E+03  0.13235256354E+04  0.46999998093E+01 0. -1.
</event>
<event>
 5   0  0.6161834E-06  0.2598866E+04  0.7818609E-02  0.8368587E-01
        2   -1    0    0  501    0  0.00000000000E+00  0.00000000000E+00  0.13388195638E+04  0.13388195638E+04  0.25500000920E-02 0. -1.
       -2   -1    0    0    0  501  0.00000000000E+00  0.00000000000E+00 -0.12612048972E+04  0.12612048972E+04  0.25500000920E-02 0.  1.
    10030    2    1    2    0    0  0.00000000000E+00  0.00000000000E+00  0.77614666594E+02  0.26000244610E+04  0.25988657451E+04 0.  0.
        5    1    3    3  502    0 -0.11094812988E+04 -0.11152928120E+03 -0.62866039621E+03  0.12800873082E+04  0.46999998093E+01 0. -1.
       -5    1    3    3    0  502  0.11094812988E+04  0.11152928120E+03  0.70627506281E+03  0.13199371527E+04  0.46999998093E+01 0.  1.
</event>
<event>
 5   0  0.2503292E-06  0.2601466E+04  0.7818609E-02  0.8367703E-01
       -1   -1    0    0    0  501  0.00000000000E+00  0.00000000000E+00  0.10001922177E+04  0.10001922177E+04  0.50400001928E-02 0. -1.
        1   -1    0    0  501    0  0.00000000000E+00  0.00000000000E+00 -0.16915813889E+04  0.16915813889E+04  0.50400001928E-02 0.  1.
    10030    2    1    2    0    0  0.00000000000E+00  0.00000000000E+00 -0.69138917122E+03  0.26917736067E+04  0.26014661565E+04 0.  0.
        2    1    3    3  502    0  0.56355803066E+03  0.29489960044E+03 -0.15196929910E+04  0.16474313993E+04  0.25500000920E-02 0.  1.
       -2    1    3    3    0  502 -0.56355803066E+03 -0.29489960044E+03  0.82830381981E+03  0.10443422074E+04  0.25500000920E-02 0. -1.
</event>
<event>
 5   0  0.2072125E-06  0.2522624E+04  0.7818609E-02  0.8394970E-01
        4   -1    0    0  501    0  0.00000000000E+00  0.00000000000E+00  0.13061568253E+04  0.13061574427E+04  0.12699999809E+01 0. -1.
       -4   -1    0    0    0  501  0.00000000000E+00  0.00000000000E+00 -0.12180054568E+04  0.12180061189E+04  0.12699999809E+01 0.  1.
    10030    2    1    2    0    0  0.00000000000E+00  0.00000000000E+00  0.88151368471E+02  0.25241635616E+04  0.25226238368E+04 0.  0.
        1    1    3    3  502    0  0.35600246576E+03  0.35773382593E+03 -0.11125695277E+04  0.12216882580E+04  0.50400001928E-02 0.  1.
       -1    1    3    3    0  502 -0.35600246576E+03 -0.35773382593E+03  0.12007208962E+04  0.13024753036E+04  0.50400001928E-02 0. -1.
</event>
<event>
 5   0  0.2440590E-06  0.2578032E+04  0.7818609E-02  0.8375702E-01
        1   -1    0    0  501    0  0.00000000000E+00  0.00000000000E+00  0.19480925267E+04  0.19480925267E+04  0.50400001928E-02 0.  1.
       -1   -1    0    0    0  501  0.00000000000E+00  0.00000000000E+00 -0.85291752135E+03  0.85291752137E+03  0.50400001928E-02 0. -1.
    10030    2    1    2    0    0  0.00000000000E+00  0.00000000000E+00  0.10951750054E+04  0.28010100481E+04  0.25780320008E+04 0.  0.
        1    1    3    3  502    0  0.45078977070E+03 -0.71120677212E+03  0.16079808811E+04  0.18151112925E+04  0.50400001928E-02 0.  1.
       -1    1    3    3    0  502 -0.45078977070E+03  0.71120677212E+03 -0.51280587574E+03  0.98589875560E+03  0.50400001928E-02 0. -1.
</event>
<event>
 5   0  0.2503292E-06  0.2604003E+04  0.7818609E-02  0.8366843E-01
        1   -1    0    0  501    0  0.00000000000E+00  0.00000000000E+00  0.17195130826E+04  0.17195130826E+04  0.50400001928E-02 0. -1.
       -1   -1    0    0    0  501  0.00000000000E+00  0.00000000000E+00 -0.98586533184E+03  0.98586533186E+03  0.50400001928E-02 0.  1.
    10030    2    1    2    0    0  0.00000000000E+00  0.00000000000E+00  0.73364775071E+03  0.27053784144E+04  0.26040033301E+04 0.  0.
        2    1    3    3  502    0  0.64352791257E+03  0.10207643192E+04 -0.14121245323E+03  0.12149193086E+04  0.25500000920E-02 0. -1.
       -2    1    3    3    0  502 -0.64352791257E+03 -0.10207643192E+04  0.87486020393E+03  0.14904591058E+04  0.25500000920E-02 0.  1.
</event>
<event>
 5   0  0.5940748E-06  0.2606264E+04  0.7818609E-02  0.8366076E-01
        2   -1    0    0  501    0  0.00000000000E+00  0.00000000000E+00  0.15193726438E+04  0.15193726438E+04  0.25500000920E-02 0. -1.
       -2   -1    0    0    0  501  0.00000000000E+00  0.00000000000E+00 -0.11176675030E+04  0.11176675030E+04  0.25500000920E-02 0.  1.
    10030    2    1    2    0    0  0.00000000000E+00  0.00000000000E+00  0.40170514086E+03  0.26370401468E+04  0.26062643219E+04 0.  0.
        1    1    3    3  502    0 -0.27762629306E+03 -0.30797769904E+03  0.14508462627E+04  0.15089338951E+04  0.50400001928E-02 0. -1.
       -1    1    3    3    0  502  0.27762629306E+03  0.30797769904E+03 -0.10491411218E+04  0.11281062517E+04  0.50400001928E-02 0.  1.
</event>
<event>
 5   0  0.5940748E-06  0.2591908E+04  0.7818609E-02  0.8370955E-01
       -2   -1    0    0    0  501  0.00000000000E+00  0.00000000000E+00  0.97771355755E+03  0.97771355755E+03  0.25500000920E-02 0. -1.
        2   -1    0    0  501    0  0.00000000000E+00  0.00000000000E+00 -0.17177800583E+04  0.17177800584E+04  0.25500000920E-02 0.  1.
    10030    2    1    2    0    0  0.00000000000E+00  0.00000000000E+00 -0.74006650080E+03  0.26954936159E+04  0.25919080631E+04 0.  0.
        1    1    3    3  502    0  0.98287270926E+03 -0.53603561864E+03 -0.10489033234E+04  0.15341353034E+04  0.50400001928E-02 0.  1.
       -1    1    3    3    0  502 -0.98287270926E+03  0.53603561864E+03  0.30883682264E+03  0.11613583125E+04  0.50400001928E-02 0. -1.
</event>
<event>
 5   0  0.2072125E-06  0.2603871E+04  0.7818609E-02  0.8366887E-01
        3   -1    0    0  501    0  0.00000000000E+00  0.00000000000E+00  0.96822019837E+03  0.96822020363E+03  0.10100000352E+00 0. -1.
       -3   -1    0    0    0  501  0.00000000000E+00  0.00000000000E+00 -0.17506725784E+04  0.17506725814E+04  0.10100000352E+00 0.  1.
    10030    2    1    2    0    0  0.00000000000E+00  0.00000000000E+00 -0.78245238008E+03  0.27188927850E+04  0.26038713964E+04 0.  0.
        4    1    3    3  502    0  0.98574009442E+03 -0.10777126952E+03 -0.12721376353E+04  0.16129581385E+04  0.12699999809E+01 0.  1.
       -4    1    3    3    0  502 -0.98574009442E+03  0.10777126952E+03  0.48968525526E+03  0.11059346465E+04  0.12699999809E+01 0. -1.
</event>
<event>
 5   0  0.2471488E-06  0.2610271E+04  0.7818609E-02  0.8364721E-01
       -1   -1    0    0    0  501  0.00000000000E+00  0.00000000000E+00  0.87361017499E+03  0.87361017501E+03  0.50400001928E-02 0.  1.
        1   -1    0    0  501    0  0.00000000000E+00  0.00000000000E+00 -0.19498160289E+04  0.19498160289E+04  0.50400001928E-02 0. -1.
    10030    2    1    2    0    0  0.00000000000E+00  0.00000000000E+00 -0.10762058539E+04  0.28234262039E+04  0.26102713439E+04 0.  0.
        4    1    3    3  502    0  0.83667271327E+03 -0.29652407652E+03 -0.15730146275E+04  0.18061905736E+04  0.12699999809E+01 0. -1.
       -4    1    3    3    0  502 -0.83667271327E+03  0.29652407652E+03  0.49680877358E+03  0.10172356303E+04  0.12699999809E+01 0.  1.
</event>
<event>
 5   0  0.6161834E-06  0.2613680E+04  0.7818609E-02  0.8363569E-01
       -2   -1    0    0    0  501  0.00000000000E+00  0.00000000000E+00  0.57007971898E+03  0.57007971898E+03  0.25500000920E-02 0. -1.
        2   -1    0    0  501    0  0.00000000000E+00  0.00000000000E+00 -0.29957757881E+04  0.29957757881E+04  0.25500000920E-02 0.  1.
    10030    2    1    2    0    0  0.00000000000E+00  0.00000000000E+00 -0.24256960691E+04  0.35658555071E+04  0.26136801789E+04 0.  0.
        5    1    3    3  502    0  0.99805974055E+03 -0.83412510384E+03 -0.10407022479E+04  0.16658244785E+04  0.46999998093E+01 0. -1.
       -5    1    3    3    0  502 -0.99805974055E+03  0.83412510384E+03 -0.13849938212E+04  0.19000310285E+04  0.46999998093E+01 0.  1.
</event>
<event>
 5   0  0.2456600E-06  0.2601193E+04  0.7818609E-02  0.8367796E-01
        1   -1    0    0  501    0  0.00000000000E+00  0.00000000000E+00  0.77030350659E+03  0.77030350661E+03  0.50400001928E-02 0. -1.
       -1   -1    0    0    0  501  0.00000000000E+00  0.00000000000E+00 -0.21959535479E+04  0.21959535479E+04  0.50400001928E-02 0.  1.
    10030    2    1    2    0    0  0.00000000000E+00  0.00000000000E+00 -0.14256500413E+04  0.29662570545E+04  0.26011925867E+04 0.  0.
        5    1    3    3  502    0 -0.27076847495E+03 -0.72810873049E+03  0.47667606246E+03  0.91142747872E+03  0.46999998093E+01 0. -1.
       -5    1    3    3    0  502  0.27076847495E+03  0.72810873049E+03 -0.19023261037E+04  0.20548295758E+04  0.46999998093E+01 0.  1.
</event>
<event>
 5   0  0.2503292E-06  0.2597961E+04  0.7818609E-02  0.8368894E-01
        1   -1    0    0  501    0  0.00000000000E+00  0.00000000000E+00  0.10463576328E+04  0.10463576328E+04  0.50400001928E-02 0.  1.
       -1   -1    0    0    0  501  0.00000000000E+00  0.00000000000E+00 -0.16125939000E+04  0.16125939000E+04  0.50400001928E-02 0. -1.
    10030    2    1    2    0    0  0.00000000000E+00  0.00000000000E+00 -0.56623626720E+03  0.26589515328E+04  0.25979606894E+04 0.  0.
        2    1    3    3  502    0  0.38534741502E+02 -0.47099657872E+02 -0.16111341680E+04  0.16122830432E+04  0.25500000920E-02 0. -1.
       -2    1    3    3    0  502 -0.38534741502E+02  0.47099657872E+02  0.10448979008E+04  0.10466684896E+04  0.25500000920E-02 0.  1.
</event>
<event>
 5   0  0.6161834E-06  0.2620958E+04  0.7818609E-02  0.8361117E-01
        2   -1    0    0  501    0  0.00000000000E+00  0.00000000000E+00  0.13027346725E+04  0.13027346725E+04  0.25500000920E-02 0. -1.
       -2   -1    0    0    0  501  0.00000000000E+00  0.00000000000E+00 -0.13182689446E+04  0.13182689446E+04  0.25500000920E-02 0.  1.
    10030    2    1    2    0    0  0.00000000000E+00  0.00000000000E+00 -0.15534272151E+02  0.26210036171E+04  0.26209575821E+04 0.  0.
        5    1    3    3  502    0  0.72893651260E+03 -0.56805641571E+03 -0.93692071187E+03  0.13160087542E+04  0.46999998093E+01 0.  1.
       -5    1    3    3    0  502 -0.72893651260E+03  0.56805641571E+03  0.92138643972E+03  0.13049948629E+04  0.46999998093E+01 0. -1.
</event>
<event>
 5   0  0.5940748E-06  0.2602690E+04  0.7818609E-02  0.8367288E-01
        2   -1    0    0  501    0  0.00000000000E+00  0.00000000000E+00  0.19219512936E+04  0.19219512936E+04  0.25500000920E-02 0. -1.
       -2   -1    0    0    0  501  0.00000000000E+00  0.00000000000E+00 -0.88113508514E+03  0.88113508514E+03  0.25500000920E-02 0.  1.
    10030    2    1    2    0    0  0.00000000000E+00  0.00000000000E+00  0.10408162085E+04  0.28030863787E+04  0.26026899291E+04 0.  0.
        1    1    3    3  502    0 -0.83307941372E+03 -0.60998306838E+03  0.13734800036E+04  0.17182979874E+04  0.50400001928E-02 0. -1.
       -1    1    3    3    0  502  0.83307941372E+03  0.60998306838E+03 -0.33266379515E+03  0.10847883913E+04  0.50400001928E-02 0.  1.
</event>
<event>
 5   0  0.2503292E-06  0.2598003E+04  0.7818609E-02  0.8368880E-01
        1   -1    0    0  501    0  0.00000000000E+00  0.00000000000E+00  0.81552703733E+03  0.81552703734E+03  0.50400001928E-02 0.  1.
       -1   -1    0    0    0  501  0.00000000000E+00  0.00000000000E+00 -0.20690980200E+04  0.20690980200E+04  0.50400001928E-02 0. -1.
    10030    2    1    2    0    0  0.00000000000E+00  0.00000000000E+00 -0.12535709827E+04  0.28846250573E+04  0.25980033704E+04 0.  0.
        2    1    3    3  502    0 -0.72285195830E+03  0.30021126946E+03  0.52429618321E+03  0.94208717626E+03  0.25500000920E-02 0.  1.
       -2    1    3    3    0  502  0.72285195830E+03 -0.30021126946E+03 -0.17778671659E+04  0.19425378811E+04  0.25500000920E-02 0. -1.
</event>
<event>
 5   0  0.2456600E-06  0.2571985E+04  0.7818609E-02  0.8377780E-01
       -1   -1    0    0    0  501  0.00000000000E+00  0.00000000000E+00  0.15699284914E+04  0.15699284915E+04  0.50400001928E-02 0. -1.
        1   -1    0    0  501    0  0.00000000000E+00  0.00000000000E+00 -0.10534086097E+04  0.10534086097E+04  0.50400001928E-02 0.  1.
    10030    2    1    2    0    0  0.00000000000E+00  0.00000000000E+00  0.51651988171E+03  0.26233371012E+04  0.25719845953E+04 0.  0.
        5    1    3    3  502    0  0.19481731905E+03 -0.12452673229E+04  0.51852044900E+03  0.13629123373E+04  0.46999998093E+01 0.  1.
       -5    1    3    3    0  502 -0.19481731905E+03  0.12452673229E+04 -0.20005672898E+01  0.12604247639E+04  0.46999998093E+01 0. -1.
</event>
<event>
 5   0  0.2333979E-06  0.2573870E+04  0.7818609E-02  0.8377132E-01
       -1   -1    0    0    0  501  0.00000000000E+00  0.00000000000E+00  0.64733383416E+03  0.64733383418E+03  0.50400001928E-02 0. -1.
        1   -1    0    0  501    0  0.00000000000E+00  0.00000000000E+00 -0.25584965259E+04  0.25584965259E+04  0.50400001928E-02 0.  1.
    10030    2    1    2    0    0  0.00000000000E+00  0.00000000000E+00 -0.19111626917E+04  0.32058303601E+04  0.25738697448E+04 0.  0.
        3    1    3    3  502    0  0.18676761267E+03  0.10646267868E+04 -0.18255718142E+04  0.21215618764E+04  0.10100000352E+00 0. -1.
       -3    1    3    3    0  502 -0.18676761267E+03 -0.10646267868E+04 -0.85590877531E+02  0.10842684837E+04  0.10100000352E+00 0.  1.
</event>
<event>
 5   0  0.2333979E-06  0.2604506E+04  0.7818609E-02  0.8366672E-01
       -1   -1    0    0    0  501  0.00000000000E+00  0.00000000000E+00  0.83659061337E+03  0.83659061338E+03  0.50400001928E-02 0.  1.
        1   -1    0    0  501    0  0.00000000000E+00  0.00000000000E+00 -0.20271120823E+04  0.20271120823E+04  0.50400001928E-02 0. -1.
    10030    2    1    2    0    0  0.00000000000E+00  0.00000000000E+00 -0.11905214689E+04  0.28637026956E+04  0.26045060494E+04 0.  0.
        3    1    3    3  502    0  0.11085035838E+04 -0.65933367544E+03 -0.79305748662E+03  0.15140810012E+04  0.10100000352E+00 0. -1.
       -3    1    3    3    0  502 -0.11085035838E+04  0.65933367544E+03 -0.39746398227E+03  0.13496216945E+04  0.10100000352E+00 0.  1.
</event>
<event>
 5   0  0.2456600E-06  0.2592731E+04  0.7818609E-02  0.8370674E-01
       -1   -1    0    0    0  501  0.00000000000E+00  0.00000000000E+00  0.17845429217E+04  0.17845429217E+04  0.50400001928E-02 0. -1.
        1   -1    0    0  501    0  0.00000000000E+00  0.00000000000E+00 -0.94173353902E+03  0.94173353904E+03  0.50400001928E-02 0.  1.
    10030    2    1    2    0    0  0.00000000000E+00  0.00000000000E+00  0.84280938266E+03  0.27262764607E+04  0.25927313175E+04 0.  0.
        5    1    3    3  502    0 -0.10446618985E+04  0.76757539397E+03  0.42894068311E+03  0.13654679297E+04  0.46999998093E+01 0. -1.
       -5    1    3    3    0  502  0.10446618985E+04 -0.76757539397E+03  0.41386869955E+03  0.13608085310E+04  0.46999998093E+01 0.  1.
</event>
<event>
 5   0  0.2471488E-06  0.2602039E+04  0.7818609E-02  0.8367509E-01
        1   -1    0    0  501    0  0.00000000000E+00  0.00000000000E+00  0.13016157206E+04  0.13016157207E+04  0.50400001928E-02 0.  1.
       -1   -1    0    0    0  501  0.00000000000E+00  0.00000000000E+00 -0.13004239503E+04  0.13004239503E+04  0.50400001928E-02 0. -1.
    10030    2    1    2    0    0  0.00000000000E+00  0.00000000000E+00  0.11917703686E+01  0.26020396709E+04  0.26020393980E+04 0.  0.
        4    1    3    3  502    0  0.90570775015E+03 -0.13123163250E+03  0.92532425268E+03  0.13014433739E+04  0.12699999809E+01 0.  1.
       -4    1    3    3    0  502 -0.90570775015E+03  0.13123163250E+03 -0.92413248231E+03  0.13005962970E+04  0.12699999809E+01 0. -1.
</event>
<event>
 5   0  0.2456600E-06  0.2609787E+04  0.7818609E-02  0.8364884E-01
       -1   -1    0    0    0  501  0.00000000000E+00  0.00000000000E+00  0.95643959399E+03  0.95643959400E+03  0.50400001928E-02 0.  1.
        1   -1    0    0  501    0  0.00000000000E+00  0.00000000000E+00 -0.17802976946E+04  0.17802976946E+04  0.50400001928E-02 0. -1.
    10030    2    1    2    0    0  0.00000000000E+00  0.00000000000E+00 -0.82385810058E+03  0.27367372886E+04  0.26097871210E+04 0.  0.
        5    1    3    3  502    0  0.81007136036E+03 -0.11269954335E+03  0.65429392628E+03  0.10473964999E+04  0.46999998093E+01 0.  1.
       -5    1    3    3    0  502 -0.81007136036E+03  0.11269954335E+03 -0.14781520269E+04  0.16893407887E+04  0.46999998093E+01 0. -1.
</event>
<event>
 5   0  0.5942229E-06  0.2603592E+04  0.7818609E-02  0.8366982E-01
        2   -1    0    0  501    0  0.00000000000E+00  0.00000000000E+00  0.16568219139E+04  0.16568219139E+04  0.25500000920E-02 0.  1.
       -2   -1    0    0    0  501  0.00000000000E+00  0.00000000000E+00 -0.10228451716E+04  0.10228451716E+04  0.25500000920E-02 0. -1.
    10030    2    1    2    0    0  0.00000000000E+00  0.00000000000E+00  0.63397674235E+03  0.26796670855E+04  0.26035915922E+04 0.  0.
        4    1    3    3  502    0  0.75019483581E+03 -0.99891226691E+03 -0.59841846197E+02  0.12506800822E+04  0.12699999809E+01 0. -1.
       -4    1    3    3    0  502 -0.75019483581E+03  0.99891226691E+03  0.69381858855E+03  0.14289870032E+04  0.12699999809E+01 0.  1.
</event>
<event>
 5   0  0.2333979E-06  0.2608113E+04  0.7818609E-02  0.8365451E-01
        1   -1    0    0  501    0  0.00000000000E+00  0.00000000000E+00  0.19006796183E+04  0.19006796183E+04  0.50400001928E-02 0.  1.
       -1   -1    0    0    0  501  0.00000000000E+00  0.00000000000E+00 -0.89471343961E+03  0.89471343963E+03  0.50400001928E-02 0. -1.
    10030    2    1    2    0    0  0.00000000000E+00  0.00000000000E+00  0.10059661787E+04  0.27953930580E+04  0.26081131869E+04 0.  0.
        3    1    3    3  502    0 -0.45728004445E+02  0.10724408564E+04 -0.29069183220E+03  0.11120801196E+04  0.10100000352E+00 0. -1.
       -3    1    3    3    0  502  0.45728004445E+02 -0.10724408564E+04  0.12966580109E+04  0.16833129383E+04  0.10100000352E+00 0.  1.
</event>
<event>
 5   0  0.6173140E-06  0.2598931E+04  0.7818609E-02  0.8368564E-01
       -2   -1    0    0    0  501  0.00000000000E+00  0.00000000000E+00  0.96485396428E+03  0.96485396429E+03  0.25500000920E-02 0. -1.
        2   -1    0    0  501    0  0.00000000000E+00  0.00000000000E+00 -0.17501207977E+04  0.17501207977E+04  0.25500000920E-02 0.  1.
    10030    2    1    2    0    0  0.00000000000E+00  0.00000000000E+00 -0.78526683343E+03  0.27149747620E+04  0.25989313109E+04 0.  0.
        3    1    3    3  502    0 -0.44527319126E+03 -0.11397030011E+04  0.64417372183E+02  0.12252921095E+04  0.10100000352E+00 0. -1.
       -3    1    3    3    0  502  0.44527319126E+03  0.11397030011E+04 -0.84968420561E+03  0.14896826525E+04  0.10100000352E+00 0.  1.
</event>
<event>
 5   0  0.6173140E-06  0.2614130E+04  0.7818609E-02  0.8363417E-01
       -2   -1    0    0    0  501  0.00000000000E+00  0.00000000000E+00  0.77426718544E+03  0.77426718544E+03  0.25500000920E-02 0. -1.
        2   -1    0    0  501    0  0.00000000000E+00  0.00000000000E+00 -0.22064974153E+04  0.22064974153E+04  0.25500000920E-02 0.  1.
    10030    2    1    2    0    0  0.00000000000E+00  0.00000000000E+00 -0.14322302299E+04  0.29807646007E+04  0.26141297163E+04 0.  0.
        3    1    3    3  502    0 -0.81746295385E+03 -0.33275617129E+03  0.38317587907E+03  0.96218299452E+03  0.10100000352E+00 0. -1.
       -3    1    3    3    0  502  0.81746295385E+03  0.33275617129E+03 -0.18154061089E+04  0.20185816062E+04  0.10100000352E+00 0.  1.
</event>
<event>
 5   0  0.2072125E-06  0.2598498E+04  0.7818609E-02  0.8368711E-01
        4   -1    0    0  501    0  0.00000000000E+00  0.00000000000E+00  0.16658933797E+04  0.16658938638E+04  0.12699999809E+01 0.  1.
       -4   -1    0    0    0  501  0.00000000000E+00  0.00000000000E+00 -0.10132982744E+04  0.10132990703E+04  0.12699999809E+01 0. -1.
    10030    2    1    2    0    0  0.00000000000E+00  0.00000000000E+00  0.65259510528E+03  0.26791929340E+04  0.25984984907E+04 0.  0.
        5    1    3    3  502    0  0.46257787611E+03 -0.45740162465E+02  0.15772158436E+04  0.16442938792E+04  0.46999998093E+01 0.  1.
       -5    1    3    3    0  502 -0.46257787611E+03  0.45740162465E+02 -0.92462073831E+03  0.10348990548E+04  0.46999998093E+01 0. -1.
</event>
<event>
 5   0  0.6161834E-06  0.2599432E+04  0.7818609E-02  0.8368394E-01
       -2   -1    0    0    0  501  0.00000000000E+00  0.00000000000E+00  0.89804221723E+03  0.89804221723E+03  0.25500000920E-02 0. -1.
        2   -1    0    0  501    0  0.00000000000E+00  0.00000000000E+00 -0.18810499816E+04  0.18810499816E+04  0.25500000920E-02 0.  1.
    10030    2    1    2    0    0  0.00000000000E+00  0.00000000000E+00 -0.98300776441E+03  0.27790921989E+04  0.25994324736E+04 0.  0.
        5    1    3    3  502    0  0.26285104533E+03  0.65140048074E+03  0.67761475302E+03  0.97601081032E+03  0.46999998093E+01 0. -1.
       -5    1    3    3    0  502 -0.26285104533E+03 -0.65140048074E+03 -0.16606225174E+04  0.18030813885E+04  0.46999998093E+01 0.  1.
</event>
<event>
 5   0  0.2456600E-06  0.2600120E+04  0.7818609E-02  0.8368160E-01
       -1   -1    0    0    0  501  0.00000000000E+00  0.00000000000E+00  0.11389196127E+04  0.11389196127E+04  0.50400001928E-02 0.  1.
        1   -1    0    0  501    0  0.00000000000E+00  0.00000000000E+00 -0.14839995900E+04  0.14839995900E+04  0.50400001928E-02 0. -1.
    10030    2    1    2    0    0  0.00000000000E+00  0.00000000000E+00 -0.34507997728E+03  0.26229192027E+04  0.26001201805E+04 0.  0.
        5    1    3    3  502    0  0.10189983536E+04  0.40592869762E+03 -0.87651177844E+03  0.14040764722E+04  0.46999998093E+01 0. -1.
       -5    1    3    3    0  502 -0.10189983536E+04 -0.40592869762E+03  0.53143180116E+03  0.12188427304E+04  0.46999998093E+01 0.  1.
</event>
<event>
 5   0  0.2503292E-06  0.2604353E+04  0.7818609E-02  0.8366724E-01
       -1   -1    0    0    0  501  0.00000000000E+00  0.00000000000E+00  0.11584984920E+04  0.11584984920E+04  0.50400001928E-02 0. -1.
        1   -1    0    0  501    0  0.00000000000E+00  0.00000000000E+00 -0.14636734854E+04  0.14636734854E+04  0.50400001928E-02 0.  1.
    10030    2    1    2    0    0  0.00000000000E+00  0.00000000000E+00 -0.30517499335E+03  0.26221719774E+04  0.26043529143E+04 0.  0.
        2    1    3    3  502    0  0.39992538277E+03 -0.67588203780E+03 -0.11983986736E+04  0.14328001332E+04  0.25500000920E-02 0.  1.
       -2    1    3    3    0  502 -0.39992538277E+03  0.67588203780E+03  0.89322368024E+03  0.11893718442E+04  0.25500000920E-02 0. -1.
</event>
<event>
 5   0  0.6161834E-06  0.2594983E+04  0.7818609E-02  0.8369907E-01
        2   -1    0    0  501    0  0.00000000000E+00  0.00000000000E+00  0.26363985154E+04  0.26363985154E+04  0.25500000920E-02 0.  1.
       -2   -1    0    0    0  501  0.00000000000E+00  0.00000000000E+00 -0.63855467288E+03  0.63855467288E+03  0.25500000920E-02 0. -1.
    10030    2    1    2    0    0  0.00000000000E+00  0.00000000000E+00  0.19978438425E+04  0.32749531883E+04  0.25949833075E+04 0.  0.
        5    1    3    3  502    0 -0.44151640782E+03  0.70567454027E+03 -0.25713278550E+03  0.87123627939E+03  0.46999998093E+01 0. -1.
       -5    1    3    3    0  502  0.44151640782E+03 -0.70567454027E+03  0.22549766280E+04  0.24037169089E+04  0.46999998093E+01 0.  1.
</event>
<event>
 5   0  0.5940748E-06  0.2511791E+04  0.7818609E-02  0.8398797E-01
       -2   -1    0    0    0  501  0.00000000000E+00  0.00000000000E+00  0.15192547169E+04  0.15192547169E+04  0.25500000920E-02 0.  1.
        2   -1    0    0  501    0  0.00000000000E+00  0.00000000000E+00 -0.10381888148E+04  0.10381888148E+04  0.25500000920E-02 0. -1.
    10030    2    1    2    0    0  0.00000000000E+00  0.00000000000E+00  0.48106590217E+03  0.25574435317E+04  0.25117907986E+04 0.  0.
        1    1    3    3  502    0 -0.10315720935E+04 -0.53985894225E+03  0.71992446592E+03  0.13688973294E+04  0.50400001928E-02 0.  1.
       -1    1    3    3    0  502  0.10315720935E+04  0.53985894225E+03 -0.23885856375E+03  0.11885462024E+04  0.50400001928E-02 0. -1.
</event>
<event>
 5   0  0.2503292E-06  0.2602650E+04  0.7818609E-02  0.8367301E-01
        1   -1    0    0  501    0  0.00000000000E+00  0.00000000000E+00  0.17695933362E+04  0.17695933362E+04  0.50400001928E-02 0.  1.
       -1   -1    0    0    0  501  0.00000000000E+00  0.00000000000E+00 -0.95696978085E+03  0.95696978086E+03  0.50400001928E-02 0. -1.
    10030    2    1    2    0    0  0.00000000000E+00  0.00000000000E+00  0.81262355535E+03  0.27265631171E+04  0.26026504546E+04 0.  0.
        2    1    3    3  502    0  0.74558886783E+03  0.98629323964E+03 -0.18933097583E+02  0.12365417812E+04  0.25500000920E-02 0. -1.
       -2    1    3    3    0  502 -0.74558886783E+03 -0.98629323964E+03  0.83155665293E+03  0.14900213359E+04  0.25500000920E-02 0.  1.
</event>
<event>
 5   0  0.5940748E-06  0.2586650E+04  0.7818609E-02  0.8372750E-01
        2   -1    0    0  501    0  0.00000000000E+00  0.00000000000E+00  0.15126945616E+04  0.15126945616E+04  0.25500000920E-02 0.  1.
       -2   -1    0    0    0  501  0.00000000000E+00  0.00000000000E+00 -0.11057682813E+04  0.11057682813E+04  0.25500000920E-02 0. -1.
    10030    2    1    2    0    0  0.00000000000E+00  0.00000000000E+00  0.40692628030E+03  0.26184628429E+04  0.25866500850E+04 0.  0.
        1    1    3    3  502    0 -0.96547473260E+03  0.85827310445E+03  0.14011972369E+03  0.12993874396E+04  0.50400001928E-02 0.  1.
       -1    1    3    3    0  502  0.96547473260E+03 -0.85827310445E+03  0.26680655662E+03  0.13190754034E+04  0.50400001928E-02 0. -1.
</event>
<event>
 5   0  0.2471488E-06  0.2600873E+04  0.7818609E-02  0.8367905E-01
        1   -1    0    0  501    0  0.00000000000E+00  0.00000000000E+00  0.14758439451E+04  0.14758439451E+04  0.50400001928E-02 0.  1.
       -1   -1    0    0    0  501  0.00000000000E+00  0.00000000000E+00 -0.11458766792E+04  0.11458766792E+04  0.50400001928E-02 0. -1.
    10030    2    1    2    0    0  0.00000000000E+00  0.00000000000E+00  0.32996726588E+03  0.26217206244E+04  0.26008730526E+04 0.  0.
        4    1    3    3  502    0  0.38205573509E+03 -0.53681904788E+03 -0.96515978299E+03  0.11686215360E+04  0.12699999809E+01 0. -1.
       -4    1    3    3    0  502 -0.38205573509E+03  0.53681904788E+03  0.12951270489E+04  0.14530990883E+04  0.12699999809E+01 0.  1.
</event>
<event>
 5   0  0.6173140E-06  0.2595977E+04  0.7818609E-02  0.8369569E-01
       -2   -1    0    0    0  501  0.00000000000E+00  0.00000000000E+00  0.86812847543E+03  0.86812847544E+03  0.25500000920E-02 0. -1.
        2   -1    0    0  501    0  0.00000000000E+00  0.00000000000E+00 -0.19406969807E+04  0.19406969807E+04  0.25500000920E-02 0.  1.
    10030    2    1    2    0    0  0.00000000000E+00  0.00000000000E+00 -0.10725685053E+04  0.28088254562E+04  0.25959771271E+04 0.  0.
        3    1    3    3  502    0  0.77350660335E+03 -0.10244851086E+04 -0.32846270926E+03  0.13250547026E+04  0.10100000352E+00 0. -1.
       -3    1    3    3    0  502 -0.77350660335E+03  0.10244851086E+04 -0.74410579603E+03  0.14837707536E+04  0.10100000352E+00 0.  1.
</event>
<event>
 5   0  0.2471488E-06  0.2602239E+04  0.7818609E-02  0.8367441E-01
       -1   -1    0    0    0  501  0.00000000000E+00  0.00000000000E+00  0.13618707087E+04  0.13618707087E+04  0.50400001928E-02 0. -1.
        1   -1    0    0  501    0  0.00000000000E+00  0.00000000000E+00 -0.12430780080E+04  0.12430780080E+04  0.50400001928E-02 0.  1.
    10030    2    1    2    0    0  0.00000000000E+00  0.00000000000E+00  0.11879270069E+03  0.26049487166E+04  0.26022386729E+04 0.  0.
        4    1    3    3  502    0  0.24318945044E+03  0.42492948976E+03 -0.11473480817E+04  0.12474435513E+04  0.12699999809E+01 0.  1.
       -4    1    3    3    0  502 -0.24318945044E+03 -0.42492948976E+03  0.12661407824E+04  0.13575051653E+04  0.12699999809E+01 0. -1.
</event>
<event>
 5   0  0.6173140E-06  0.2612297E+04  0.7818609E-02  0.8364036E-01
        2   -1    0    0  501    0  0.00000000000E+00  0.00000000000E+00  0.13446003652E+04  0.13446003652E+04  0.25500000920E-02 0. -1.
       -2   -1    0    0    0  501  0.00000000000E+00  0.00000000000E+00 -0.12687960171E+04  0.12687960171E+04  0.25500000920E-02 0.  1.
    10030    2    1    2    0    0  0.00000000000E+00  0.00000000000E+00  0.75804348159E+02  0.26133963823E+04  0.26122967580E+04 0.  0.
        3    1    3    3  502    0  0.41873460100E+03  0.67488378151E+03  0.10752652689E+04  0.13367880136E+04  0.10100000352E+00 0. -1.
       -3    1    3    3    0  502 -0.41873460100E+03 -0.67488378151E+03 -0.99946092077E+03  0.12766083687E+04  0.10100000352E+00 0.  1.
</event>
<event>
 5   0  0.5942229E-06  0.2428197E+04  0.7818609E-02  0.8429022E-01
       -2   -1    0    0    0  501  0.00000000000E+00  0.00000000000E+00  0.10592684064E+04  0.10592684064E+04  0.25500000920E-02 0. -1.
        2   -1    0    0  501    0  0.00000000000E+00  0.00000000000E+00 -0.13915600505E+04  0.13915600505E+04  0.25500000920E-02 0.  1.
    10030    2    1    2    0    0  0.00000000000E+00  0.00000000000E+00 -0.33229164402E+03  0.24508284569E+04  0.24281973537E+04 0.  0.
        4    1    3    3  502    0 -0.79583648280E+03 -0.67820045251E+03 -0.78892367621E+03  0.13098525646E+04  0.12699999809E+01 0.  1.
       -4    1    3    3    0  502  0.79583648280E+03  0.67820045251E+03  0.45663203218E+03  0.11409758923E+04  0.12699999809E+01 0. -1.
</event>
<event>
 5   0  0.6158063E-06  0.2619251E+04  0.7818609E-02  0.8361692E-01
        2   -1    0    0  501    0  0.00000000000E+00  0.00000000000E+00  0.15956559750E+04  0.15956559750E+04  0.25500000920E-02 0. -1.
       -2   -1    0    0    0  501  0.00000000000E+00  0.00000000000E+00 -0.10748672334E+04  0.10748672334E+04  0.25500000920E-02 0.  1.
    10030    2    1    2    0    0  0.00000000000E+00  0.00000000000E+00  0.52078874159E+03  0.26705232085E+04  0.26192505213E+04 0.  0.
        2    1    3    3  502    0  0.17139820246E+03  0.10328080722E+04 -0.54180375559E+03  0.11788219405E+04  0.25500000920E-02 0.  1.
       -2    1    3    3    0  502 -0.17139820246E+03 -0.10328080722E+04  0.10625924972E+04  0.14917012680E+04  0.25500000920E-02 0. -1.
</event>
<event>
 5   0  0.6158063E-06  0.2602308E+04  0.7818609E-02  0.8367418E-01
        2   -1    0    0  501    0  0.00000000000E+00  0.00000000000E+00  0.90172318660E+03  0.90172318660E+03  0.25500000920E-02 0. -1.
       -2   -1    0    0    0  501  0.00000000000E+00  0.00000000000E+00 -0.18775185287E+04  0.18775185287E+04  0.25500000920E-02 0.  1.
    10030    2    1    2    0    0  0.00000000000E+00  0.00000000000E+00 -0.97579534213E+03  0.27792417153E+04  0.26023081990E+04 0.  0.
        2    1    3    3  502    0  0.40321228441E+03 -0.60902067400E+03 -0.16379190116E+04  0.17933948300E+04  0.25500000920E-02 0.  1.
       -2    1    3    3    0  502 -0.40321228441E+03  0.60902067400E+03  0.66212366948E+03  0.98584688534E+03  0.25500000920E-02 0. -1.
</event>
<event>
 5   0  0.2471488E-06  0.2603282E+04  0.7818609E-02  0.8367087E-01
        1   -1    0    0  501    0  0.00000000000E+00  0.00000000000E+00  0.14492146680E+04  0.14492146680E+04  0.50400001928E-02 0. -1.
       -1   -1    0    0    0  501  0.00000000000E+00  0.00000000000E+00 -0.11690944992E+04  0.11690944992E+04  0.50400001928E-02 0.  1.
    10030    2    1    2    0    0  0.00000000000E+00  0.00000000000E+00  0.28012016883E+03  0.26183091672E+04  0.26032816955E+04 0.  0.
        4    1    3    3  502    0  0.31549316107E+03  0.86256909534E+03  0.10677214827E+04  0.14084005668E+04  0.12699999809E+01 0. -1.
       -4    1    3    3    0  502 -0.31549316107E+03 -0.86256909534E+03 -0.78760131390E+03  0.12099086005E+04  0.12699999809E+01 0.  1.
</event>
<event>
 5   0  0.6158063E-06  0.2603948E+04  0.7818609E-02  0.8366861E-01
       -2   -1    0    0    0  501  0.00000000000E+00  0.00000000000E+00  0.11363274032E+04  0.11363274032E+04  0.25500000920E-02 0. -1.
        2   -1    0    0  501    0  0.00000000000E+00  0.00000000000E+00 -0.14917672210E+04  0.14917672210E+04  0.25500000920E-02 0.  1.
    10030    2    1    2    0    0  0.00000000000E+00  0.00000000000E+00 -0.35543981781E+03  0.26280946242E+04  0.26039477510E+04 0.  0.
        2    1    3    3  502    0 -0.68431859203E+03  0.73148851558E+03 -0.10171589256E+04  0.14275782514E+04  0.25500000920E-02 0.  1.
       -2    1    3    3    0  502  0.68431859203E+03 -0.73148851558E+03  0.66171910782E+03  0.12005163729E+04  0.25500000920E-02 0. -1.
</event>
<event>
 5   0  0.6161834E-06  0.2589770E+04  0.7818609E-02  0.8371684E-01
        2   -1    0    0  501    0  0.00000000000E+00  0.00000000000E+00  0.13718014543E+04  0.13718014543E+04  0.25500000920E-02 0. -1.
       -2   -1    0    0    0  501  0.00000000000E+00  0.00000000000E+00 -0.12222812215E+04  0.12222812215E+04  0.25500000920E-02 0.  1.
    10030    2    1    2    0    0  0.00000000000E+00  0.00000000000E+00  0.14952023285E+03  0.25940826758E+04  0.25897699954E+04 0.  0.
        5    1    3    3  502    0 -0.86835030482E+03  0.57312269324E+03  0.84688955223E+03  0.13415460771E+04  0.46999998093E+01 0. -1.
       -5    1    3    3    0  502  0.86835030482E+03 -0.57312269324E+03 -0.69736931939E+03  0.12525365987E+04  0.46999998093E+01 0.  1.
</event>
<event>
 5   0  0.6161834E-06  0.2593303E+04  0.7818609E-02  0.8370480E-01
        2   -1    0    0  501    0  0.00000000000E+00  0.00000000000E+00  0.96405779211E+03  0.96405779211E+03  0.25500000920E-02 0. -1.
       -2   -1    0    0    0  501  0.00000000000E+00  0.00000000000E+00 -0.17439872266E+04  0.17439872266E+04  0.25500000920E-02 0.  1.
    10030    2    1    2    0    0  0.00000000000E+00  0.00000000000E+00 -0.77992943447E+03  0.27080450187E+04  0.25933025085E+04 0.  0.
        5    1    3    3  502    0 -0.41975853597E+03  0.48891393933E+03 -0.15649375894E+04  0.16924201067E+04  0.46999998093E+01 0.  1.
       -5    1    3    3    0  502  0.41975853597E+03 -0.48891393933E+03  0.78500815496E+03  0.10156249120E+04  0.46999998093E+01 0. -1.
</event>
<event>
 5   0  0.6173140E-06  0.2590786E+04  0.7818609E-02  0.8371338E-01
       -2   -1    0    0    0  501  0.00000000000E+00  0.00000000000E+00  0.14773431563E+04  0.14773431563E+04  0.25500000920E-02 0.  1.
        2   -1    0    0  501    0  0.00000000000E+00  0.00000000000E+00 -0.11358521541E+04  0.11358521541E+04  0.25500000920E-02 0. -1.
    10030    2    1    2    0    0  0.00000000000E+00  0.00000000000E+00  0.34149100215E+03  0.26131953104E+04  0.25907862949E+04 0.  0.
        3    1    3    3  502    0  0.10277700358E+04  0.48041365034E+03 -0.45991043276E+03  0.12241838662E+04  0.10100000352E+00 0. -1.
       -3    1    3    3    0  502 -0.10277700358E+04 -0.48041365034E+03  0.80140143491E+03  0.13890114442E+04  0.10100000352E+00 0.  1.
</event>
<event>
 5   0  0.2456600E-06  0.2594920E+04  0.7818609E-02  0.8369929E-01
        1   -1    0    0  501    0  0.00000000000E+00  0.00000000000E+00  0.17834941702E+04  0.17834941702E+04  0.50400001928E-02 0. -1.
       -1   -1    0    0    0  501  0.00000000000E+00  0.00000000000E+00 -0.94387891151E+03  0.94387891152E+03  0.50400001928E-02 0.  1.
    10030    2    1    2    0    0  0.00000000000E+00  0.00000000000E+00  0.83961525866E+03  0.27273730817E+04  0.25949200651E+04 0.  0.
        5    1    3    3  502    0 -0.27867583566E+03 -0.12382872561E+04  0.13706939796E+03  0.12766462548E+04  0.46999998093E+01 0. -1.
       -5    1    3    3    0  502  0.27867583566E+03  0.12382872561E+04  0.70254586070E+03  0.14507268269E+04  0.46999998093E+01 0.  1.
</event>
<event>
 5   0  0.2440590E-06  0.2598486E+04  0.7818609E-02  0.8368716E-01
       -1   -1    0    0    0  501  0.00000000000E+00  0.00000000000E+00  0.11297164971E+04  0.11297164971E+04  0.50400001928E-02 0. -1.
        1   -1    0    0  501    0  0.00000000000E+00  0.00000000000E+00 -0.14942092095E+04  0.14942092095E+04  0.50400001928E-02 0.  1.
    10030    2    1    2    0    0  0.00000000000E+00  0.00000000000E+00 -0.36449271243E+03  0.26239257067E+04  0.25984863241E+04 0.  0.
        1    1    3    3  502    0 -0.11064766969E+04 -0.53141310637E+03  0.24776563595E+03  0.12522293643E+04  0.50400001928E-02 0. -1.
       -1    1    3    3    0  502  0.11064766969E+04  0.53141310637E+03 -0.61225834837E+03  0.13716963424E+04  0.50400001928E-02 0.  1.
</event>
<event>
 5   0  0.6173140E-06  0.2602602E+04  0.7818609E-02  0.8367318E-01
       -2   -1    0    0    0  501  0.00000000000E+00  0.00000000000E+00  0.97973561511E+03  0.97973561511E+03  0.25500000920E-02 0. -1.
        2   -1    0    0  501    0  0.00000000000E+00  0.00000000000E+00 -0.17284087906E+04  0.17284087906E+04  0.25500000920E-02 0.  1.
    10030    2    1    2    0    0  0.00000000000E+00  0.00000000000E+00 -0.74867317547E+03  0.27081444057E+04  0.26026015059E+04 0.  0.
        3    1    3    3  502    0 -0.74113682938E+03  0.16630910746E+03  0.72513004483E+03  0.10501219506E+04  0.10100000352E+00 0. -1.
       -3    1    3    3    0  502  0.74113682938E+03 -0.16630910746E+03 -0.14738032203E+04  0.16580224550E+04  0.10100000352E+00 0.  1.
</event>
<event>
 5   0  0.2503292E-06  0.2597991E+04  0.7818609E-02  0.8368884E-01
       -1   -1    0    0    0  501  0.00000000000E+00  0.00000000000E+00  0.75248665147E+03  0.75248665148E+03  0.50400001928E-02 0.  1.
        1   -1    0    0  501    0  0.00000000000E+00  0.00000000000E+00 -0.22424178372E+04  0.22424178372E+04  0.50400001928E-02 0. -1.
    10030    2    1    2    0    0  0.00000000000E+00  0.00000000000E+00 -0.14899311857E+04  0.29949044887E+04  0.25979911390E+04 0.  0.
        2    1    3    3  502    0 -0.39181633094E+03 -0.12378976646E+04 -0.78929619025E+03  0.15195062163E+04  0.25500000920E-02 0.  1.
       -2    1    3    3    0  502  0.39181633094E+03  0.12378976646E+04 -0.70063499546E+03  0.14753982724E+04  0.25500000920E-02 0. -1.
</event>
<event>
 5   0  0.5942229E-06  0.2598533E+04  0.7818609E-02  0.8368700E-01
        2   -1    0    0  501    0  0.00000000000E+00  0.00000000000E+00  0.23502538610E+04  0.23502538610E+04  0.25500000920E-02 0.  1.
       -2   -1    0    0    0  501  0.00000000000E+00  0.00000000000E+00 -0.71825997689E+03  0.71825997689E+03  0.25500000920E-02 0. -1.
    10030    2    1    2    0    0  0.00000000000E+00  0.00000000000E+00  0.16319938842E+04  0.30685138379E+04  0.25985328814E+04 0.  0.
        4    1    3    3  502    0  0.27184265582E+03 -0.24136196278E+03 -0.65698005130E+03  0.75085180117E+03  0.12699999809E+01 0. -1.
       -4    1    3    3    0  502 -0.27184265582E+03  0.24136196278E+03  0.22889739355E+04  0.23176620368E+04  0.12699999809E+01 0.  1.
</event>
<event>
 5   0  0.2471488E-06  0.2631475E+04  0.7818609E-02  0.8357588E-01
       -1   -1    0    0    0  501  0.00000000000E+00  0.00000000000E+00  0.11559392604E+04  0.11559392604E+04  0.50400001928E-02 0.  1.
        1   -1    0    0  501    0  0.00000000000E+00  0.00000000000E+00 -0.14976262466E+04  0.14976262466E+04  0.50400001928E-02 0. -1.
    10030    2    1    2    0    0  0.00000000000E+00  0.00000000000E+00 -0.34168698620E+03  0.26535655070E+04  0.26314748533E+04 0.  0.
        4    1    3    3  502    0  0.61928356248E+03  0.11242626769E+04 -0.46255498050E+03  0.13643450518E+04  0.12699999809E+01 0. -1.
       -4    1    3    3    0  502 -0.61928356248E+03 -0.11242626769E+04  0.12086799430E+03  0.12892204553E+04  0.12699999809E+01 0.  1.
</event>
<event>
 5   0  0.5942229E-06  0.2582460E+04  0.7818609E-02  0.8374184E-01
       -2   -1    0    0    0  501  0.00000000000E+00  0.00000000000E+00  0.11010664307E+04  0.11010664307E+04  0.25500000920E-02 0.  1.
        2   -1    0    0  501    0  0.00000000000E+00  0.00000000000E+00 -0.15142363009E+04  0.15142363009E+04  0.25500000920E-02 0. -1.
    10030    2    1    2    0    0  0.00000000000E+00  0.00000000000E+00 -0.41316987021E+03  0.26153027317E+04  0.25824598809E+04 0.  0.
        4    1    3    3  502    0 -0.11599209895E+03 -0.10683457642E+04 -0.93154954342E+03  0.14221824790E+04  0.12699999809E+01 0. -1.
       -4    1    3    3    0  502  0.11599209895E+03  0.10683457642E+04  0.51837967322E+03  0.11931202527E+04  0.12699999809E+01 0.  1.
</event>
<event>
 5   0  0.5940748E-06  0.2605414E+04  0.7818609E-02  0.8366365E-01
       -2   -1    0    0    0  501  0.00000000000E+00  0.00000000000E+00  0.93751576567E+03  0.93751576568E+03  0.25500000920E-02 0.  1.
        2   -1    0    0  501    0  0.00000000000E+00  0.00000000000E+00 -0.18101510019E+04  0.18101510019E+04  0.25500000920E-02 0. -1.
    10030    2    1    2    0    0  0.00000000000E+00  0.00000000000E+00 -0.87263523626E+03  0.27476667676E+04  0.26054136735E+04 0.  0.
        1    1    3    3  502    0 -0.17626465617E+03  0.11796111705E+04  0.11620911397E+03  0.11983556654E+04  0.50400001928E-02 0.  1.
       -1    1    3    3    0  502  0.17626465617E+03 -0.11796111705E+04 -0.98884435023E+03  0.15493111022E+04  0.50400001928E-02 0. -1.
</event>
<event>
 5   0  0.6158063E-06  0.2612829E+04  0.7818609E-02  0.8363856E-01
        2   -1    0    0  501    0  0.00000000000E+00  0.00000000000E+00  0.14442403173E+04  0.14442403173E+04  0.25500000920E-02 0. -1.
       -2   -1    0    0    0  501  0.00000000000E+00  0.00000000000E+00 -0.11817418921E+04  0.11817418921E+04  0.25500000920E-02 0.  1.
    10030    2    1    2    0    0  0.00000000000E+00  0.00000000000E+00  0.26249842523E+03  0.26259822093E+04  0.26128293363E+04 0.  0.
        2    1    3    3  502    0  0.98768447879E+03  0.26813064594E+03 -0.68481398522E+03  0.12314157979E+04  0.25500000920E-02 0. -1.
       -2    1    3    3    0  502 -0.98768447879E+03 -0.26813064594E+03  0.94731241045E+03  0.13945664115E+04  0.25500000920E-02 0.  1.
</event>
<event>
 5   0  0.2333979E-06  0.2598923E+04  0.7818609E-02  0.8368567E-01
       -1   -1    0    0    0  501  0.00000000000E+00  0.00000000000E+00  0.27857605375E+04  0.27857605375E+04  0.50400001928E-02 0.  1.
        1   -1    0    0  501    0  0.00000000000E+00  0.00000000000E+00 -0.60615407206E+03  0.60615407208E+03  0.50400001928E-02 0. -1.
    10030    2    1    2    0    0  0.00000000000E+00  0.00000000000E+00  0.21796064654E+04  0.33919146096E+04  0.25989229258E+04 0.  0.
        3    1    3    3  502    0  0.22847641416E+03 -0.88341027289E+03  0.22972960678E+04  0.24718787218E+04  0.10100000352E+00 0.  1.
       -3    1    3    3    0  502 -0.22847641416E+03  0.88341027289E+03 -0.11768960235E+03  0.92003588777E+03  0.10100000352E+00 0. -1.
</event>
<event>
 5   0  0.2440590E-06  0.2579894E+04  0.7818609E-02  0.8375063E-01
       -1   -1    0    0    0  501  0.00000000000E+00  0.00000000000E+00  0.11782199627E+04  0.11782199627E+04  0.50400001928E-02 0. -1.
        1   -1    0    0  501    0  0.00000000000E+00  0.00000000000E+00 -0.14122683354E+04  0.14122683355E+04  0.50400001928E-02 0.  1.
    10030    2    1    2    0    0  0.00000000000E+00  0.00000000000E+00 -0.23404837278E+03  0.25904882981E+04  0.25798935990E+04 0.  0.
        1    1    3    3  502    0 -0.44412692981E+03  0.40501896435E+03 -0.12630585888E+04  0.13987873642E+04  0.50400001928E-02 0.  1.
       -1    1    3    3    0  502  0.44412692981E+03 -0.40501896435E+03  0.10290102160E+04  0.11917009340E+04  0.50400001928E-02 0. -1.
</event>
<event>
 5   0  0.2503292E-06  0.2567896E+04  0.7818609E-02  0.8379189E-01
       -1   -1    0    0    0  501  0.00000000000E+00  0.00000000000E+00  0.12127015220E+04  0.12127015220E+04  0.50400001928E-02 0. -1.
        1   -1    0    0  501    0  0.00000000000E+00  0.00000000000E+00 -0.13593797850E+04  0.13593797850E+04  0.50400001928E-02 0.  1.
    10030    2    1    2    0    0  0.00000000000E+00  0.00000000000E+00 -0.14667826304E+03  0.25720813070E+04  0.25678955853E+04 0.  0.
        2    1    3    3  502    0  0.28093502349E+03  0.97086578612E+03 -0.86647394929E+03  0.13312708090E+04  0.25500000920E-02 0.  1.
       -2    1    3    3    0  502 -0.28093502349E+03 -0.97086578612E+03  0.71979568626E+03  0.12408104980E+04  0.25500000920E-02 0. -1.
</event>
<event>
 5   0  0.6158063E-06  0.2581108E+04  0.7818609E-02  0.8374647E-01
       -2   -1    0    0    0  501  0.00000000000E+00  0.00000000000E+00  0.10031712643E+04  0.10031712643E+04  0.25500000920E-02 0. -1.
        2   -1    0    0  501    0  0.00000000000E+00  0.00000000000E+00 -0.16602639759E+04  0.16602639759E+04  0.25500000920E-02 0.  1.
    10030    2    1    2    0    0  0.00000000000E+00  0.00000000000E+00 -0.65709271164E+03  0.26634352402E+04  0.25811076008E+04 0.  0.
        2    1    3    3  502    0 -0.12104291073E+04  0.44758294607E+03 -0.32055369448E+03  0.13297457608E+04  0.25500000920E-02 0.  1.
       -2    1    3    3    0  502  0.12104291073E+04 -0.44758294607E+03 -0.33653901717E+03  0.13336894794E+04  0.25500000920E-02 0. -1.
</event>
<event>
 5   0  0.6161834E-06  0.2618140E+04  0.7818609E-02  0.8362065E-01
        2   -1    0    0  501    0  0.00000000000E+00  0.00000000000E+00  0.17735573204E+04  0.17735573204E+04  0.25500000920E-02 0. -1.
       -2   -1    0    0    0  501  0.00000000000E+00  0.00000000000E+00 -0.96623017002E+03  0.96623017002E+03  0.25500000920E-02 0.  1.
    10030    2    1    2    0    0  0.00000000000E+00  0.00000000000E+00  0.80732715042E+03  0.27397874905E+04  0.26181402493E+04 0.  0.
        5    1    3    3  502    0  0.10888109946E+03  0.80470969492E+03  0.14781269039E+04  0.16865034897E+04  0.46999998093E+01 0. -1.
       -5    1    3    3    0  502 -0.10888109946E+03 -0.80470969492E+03 -0.67079975347E+03  0.10532840007E+04  0.46999998093E+01 0.  1.
</event>
<event>
 5   0  0.2440590E-06  0.2594017E+04  0.7818609E-02  0.8370236E-01
        1   -1    0    0  501    0  0.00000000000E+00  0.00000000000E+00  0.14972009820E+04  0.14972009820E+04  0.50400001928E-02 0.  1.
       -1   -1    0    0    0  501  0.00000000000E+00  0.00000000000E+00 -0.11235836125E+04  0.11235836125E+04  0.50400001928E-02 0. -1.
    10030    2    1    2    0    0  0.00000000000E+00  0.00000000000E+00  0.37361736951E+03  0.26207845945E+04  0.25940165674E+04 0.  0.
        1    1    3    3  502    0  0.12610740648E+03  0.12581437339E+04  0.47858240713E+03  0.13519873718E+04  0.50400001928E-02 0.  1.
       -1    1    3    3    0  502 -0.12610740648E+03 -0.12581437339E+04 -0.10496503762E+03  0.12687972227E+04  0.50400001928E-02 0. -1.
</event>
<event>
 5   0  0.5940748E-06  0.2556644E+04  0.7818609E-02  0.8383079E-01
        2   -1    0    0  501    0  0.00000000000E+00  0.00000000000E+00  0.19790074640E+04  0.19790074640E+04  0.25500000920E-02 0.  1.
       -2   -1    0    0    0  501  0.00000000000E+00  0.00000000000E+00 -0.82572041370E+03  0.82572041370E+03  0.25500000920E-02 0. -1.
    10030    2    1    2    0    0  0.00000000000E+00  0.00000000000E+00  0.11532870503E+04  0.28047278777E+04  0.25566437858E+04 0.  0.
        1    1    3    3  502    0 -0.11037529089E+04  0.21103530129E+02  0.12836917886E+04  0.16930978859E+04  0.50400001928E-02 0.  1.
       -1    1    3    3    0  502  0.11037529089E+04 -0.21103530129E+02 -0.13040473835E+03  0.11116299918E+04  0.50400001928E-02 0. -1.
</event>
<event>
 5   0  0.2440590E-06  0.2569429E+04  0.7818609E-02  0.8378660E-01
        1   -1    0    0  501    0  0.00000000000E+00  0.00000000000E+00  0.15110814797E+04  0.15110814797E+04  0.50400001928E-02 0.  1.
       -1   -1    0    0    0  501  0.00000000000E+00  0.00000000000E+00 -0.10922584336E+04  0.10922584336E+04  0.50400001928E-02 0. -1.
    10030    2    1    2    0    0  0.00000000000E+00  0.00000000000E+00  0.41882304607E+03  0.26033399133E+04  0.25694291118E+04 0.  0.
        1    1    3    3  502    0  0.10293027133E+04  0.35315265852E+03 -0.48247024568E+03  0.11903606234E+04  0.50400001928E-02 0. -1.
       -1    1    3    3    0  502 -0.10293027133E+04 -0.35315265852E+03  0.90129329175E+03  0.14129792899E+04  0.50400001928E-02 0.  1.
</event>
<event>
 5   0  0.6161834E-06  0.2599721E+04  0.7818609E-02  0.8368296E-01
        2   -1    0    0  501    0  0.00000000000E+00  0.00000000000E+00  0.11763788840E+04  0.11763788841E+04  0.25500000920E-02 0.  1.
       -2   -1    0    0    0  501  0.00000000000E+00  0.00000000000E+00 -0.14363032780E+04  0.14363032780E+04  0.25500000920E-02 0. -1.
    10030    2    1    2    0    0  0.00000000000E+00  0.00000000000E+00 -0.25992439396E+03  0.26126821621E+04  0.25997206368E+04 0.  0.
        5    1    3    3  502    0 -0.46309347938E+03 -0.12003520549E+04 -0.31612649658E+03  0.13248617582E+04  0.46999998093E+01 0. -1.
       -5    1    3    3    0  502  0.46309347938E+03  0.12003520549E+04  0.56202102615E+02  0.12878204039E+04  0.46999998093E+01 0.  1.
</event>
<event>
 5   0  0.5942229E-06  0.2586412E+04  0.7818609E-02  0.8372832E-01
       -2   -1    0    0    0  501  0.00000000000E+00  0.00000000000E+00  0.84827690754E+03  0.84827690754E+03  0.25500000920E-02 0.  1.
        2   -1    0    0  501    0  0.00000000000E+00  0.00000000000E+00 -0.19715038737E+04  0.19715038737E+04  0.25500000920E-02 0. -1.
    10030    2    1    2    0    0  0.00000000000E+00  0.00000000000E+00 -0.11232269662E+04  0.28197807813E+04  0.25864115753E+04 0.  0.
        4    1    3    3  502    0 -0.50545728680E+03  0.62350811723E+03  0.54384327635E+03  0.96954451324E+03  0.12699999809E+01 0.  1.
       -4    1    3    3    0  502  0.50545728680E+03 -0.62350811723E+03 -0.16670702425E+04  0.18502362680E+04  0.12699999809E+01 0. -1.
</event>
<event>
 5   0  0.6161834E-06  0.2586841E+04  0.7818609E-02  0.8372685E-01
       -2   -1    0    0    0  501  0.00000000000E+00  0.00000000000E+00  0.84077355175E+03  0.84077355176E+03  0.25500000920E-02 0.  1.
        2   -1    0    0  501    0  0.00000000000E+00  0.00000000000E+00 -0.19897595819E+04  0.19897595819E+04  0.25500000920E-02 0. -1.
    10030    2    1    2    0    0  0.00000000000E+00  0.00000000000E+00 -0.11489860302E+04  0.28305331337E+04  0.25868414956E+04 0.  0.
        5    1    3    3  502    0 -0.68550982237E+02 -0.31072604455E+03 -0.19462540001E+04  0.19720995499E+04  0.46999998093E+01 0. -1.
       -5    1    3    3    0  502  0.68550982237E+02  0.31072604455E+03  0.79726796990E+03  0.85843358378E+03  0.46999998093E+01 0.  1.
</event>
<event>
 5   0  0.6161834E-06  0.2595660E+04  0.7818609E-02  0.8369677E-01
        2   -1    0    0  501    0  0.00000000000E+00  0.00000000000E+00  0.13799719253E+04  0.13799719253E+04  0.25500000920E-02 0. -1.
       -2   -1    0    0    0  501  0.00000000000E+00  0.00000000000E+00 -0.12205775295E+04  0.12205775295E+04  0.25500000920E-02 0.  1.
    10030    2    1    2    0    0  0.00000000000E+00  0.00000000000E+00  0.15939439581E+03  0.26005494547E+04  0.25956600111E+04 0.  0.
        5    1    3    3  502    0  0.56990726668E+03 -0.19173095083E+03  0.12319878462E+04  0.13709015987E+04  0.46999998093E+01 0. -1.
       -5    1    3    3    0  502 -0.56990726668E+03  0.19173095083E+03 -0.10725934504E+04  0.12296478561E+04  0.46999998093E+01 0.  1.
</event>
<event>
 5   0  0.2072125E-06  0.2601981E+04  0.7818609E-02  0.8367528E-01
        4   -1    0    0  501    0  0.00000000000E+00  0.00000000000E+00  0.16832673594E+04  0.16832678384E+04  0.12699999809E+01 0. -1.
       -4   -1    0    0    0  501  0.00000000000E+00  0.00000000000E+00 -0.10055295619E+04  0.10055303639E+04  0.12699999809E+01 0.  1.
    10030    2    1    2    0    0  0.00000000000E+00  0.00000000000E+00  0.67773779745E+03  0.26887982024E+04  0.26019814087E+04 0.  0.
        3    1    3    3  502    0 -0.73844282680E+03 -0.78259094256E+03  0.10945909012E+04  0.15348861987E+04  0.10100000352E+00 0. -1.
       -3    1    3    3    0  502  0.73844282680E+03  0.78259094256E+03 -0.41685310376E+03  0.11539120036E+04  0.10100000352E+00 0.  1.
</event>
<event>
 5   0  0.5940748E-06  0.2603480E+04  0.7818609E-02  0.8367020E-01
        2   -1    0    0  501    0  0.00000000000E+00  0.00000000000E+00  0.13023651350E+04  0.13023651350E+04  0.25500000920E-02 0.  1.
       -2   -1    0    0    0  501  0.00000000000E+00  0.00000000000E+00 -0.13011149422E+04  0.13011149422E+04  0.25500000920E-02 0. -1.
    10030    2    1    2    0    0  0.00000000000E+00  0.00000000000E+00  0.12501927448E+01  0.26034800772E+04  0.26034797770E+04 0.  0.
        1    1    3    3  502    0  0.39182268096E+03 -0.33386509813E+01  0.12419916550E+04  0.13023361436E+04  0.50400001928E-02 0.  1.
       -1    1    3    3    0  502 -0.39182268096E+03  0.33386509813E+01 -0.12407414622E+04  0.13011439336E+04  0.50400001928E-02 0. -1.
</event>
<event>
 5   0  0.2503292E-06  0.2584783E+04  0.7818609E-02  0.8373388E-01
        1   -1    0    0  501    0  0.00000000000E+00  0.00000000000E+00  0.13222689806E+04  0.13222689806E+04  0.50400001928E-02 0.  1.
       -1   -1    0    0    0  501  0.00000000000E+00  0.00000000000E+00 -0.12631891363E+04  0.12631891363E+04  0.50400001928E-02 0. -1.
    10030    2    1    2    0    0  0.00000000000E+00  0.00000000000E+00  0.59079844287E+02  0.25854581169E+04  0.25847830172E+04 0.  0.
        2    1    3    3  502    0  0.61220337395E+03 -0.61505684392E+03  0.98748934060E+03  0.13146189905E+04  0.25500000920E-02 0.  1.
       -2    1    3    3    0  502 -0.61220337395E+03  0.61505684392E+03 -0.92840949632E+03  0.12708391264E+04  0.25500000920E-02 0. -1.
</event>
<event>
 5   0  0.5942229E-06  0.2599631E+04  0.7818609E-02  0.8368327E-01
       -2   -1    0    0    0  501  0.00000000000E+00  0.00000000000E+00  0.99903378535E+03  0.99903378535E+03  0.25500000920E-02 0.  1.
        2   -1    0    0  501    0  0.00000000000E+00  0.00000000000E+00 -0.16911540946E+04  0.16911540946E+04  0.25500000920E-02 0. -1.
    10030    2    1    2    0    0  0.00000000000E+00  0.00000000000E+00 -0.69212030929E+03  0.26901878800E+04  0.25996308021E+04 0.  0.
        4    1    3    3  502    0  0.62715973474E+03 -0.54822629543E+02  0.83073543884E+03  0.10423328815E+04  0.12699999809E+01 0.  1.
       -4    1    3    3    0  502 -0.62715973474E+03  0.54822629543E+02 -0.15228557481E+04  0.16478549985E+04  0.12699999809E+01 0. -1.
</event>
<event>
 5   0  0.2333979E-06  0.2606476E+04  0.7818609E-02  0.8366005E-01
        1   -1    0    0  501    0  0.00000000000E+00  0.00000000000E+00  0.19852811537E+04  0.19852811537E+04  0.50400001928E-02 0. -1.
       -1   -1    0    0    0  501  0.00000000000E+00  0.00000000000E+00 -0.85551039854E+03  0.85551039855E+03  0.50400001928E-02 0.  1.
    10030    2    1    2    0    0  0.00000000000E+00  0.00000000000E+00  0.11297707551E+04  0.28407915522E+04  0.26064755291E+04 0.  0.
        3    1    3    3  502    0  0.68500185212E+03 -0.46873753503E+03 -0.53016958870E+03  0.98489705916E+03  0.10100000352E+00 0.  1.
       -3    1    3    3    0  502 -0.68500185212E+03  0.46873753503E+03  0.16599403438E+04  0.18558944931E+04  0.10100000352E+00 0. -1.
</event>
<event>
 5   0  0.6173140E-06  0.2598773E+04  0.7818609E-02  0.8368618E-01
        2   -1    0    0  501    0  0.00000000000E+00  0.00000000000E+00  0.89862664520E+03  0.89862664520E+03  0.25500000920E-02 0.  1.
       -2   -1    0    0    0  501  0.00000000000E+00  0.00000000000E+00 -0.18788732662E+04  0.18788732662E+04  0.25500000920E-02 0. -1.
    10030    2    1    2    0    0  0.00000000000E+00  0.00000000000E+00 -0.98024662100E+03  0.27774999114E+04  0.25987732336E+04 0.  0.
        3    1    3    3  502    0 -0.75655456660E+03  0.32471021800E+03  0.58429656404E+03  0.10095613022E+04  0.10100000352E+00 0. -1.
       -3    1    3    3    0  502  0.75655456660E+03 -0.32471021800E+03 -0.15645431850E+04  0.17679386092E+04  0.10100000352E+00 0.  1.
</event>
<event>
 5   0  0.2471488E-06  0.2600678E+04  0.7818609E-02  0.8367971E-01
        1   -1    0    0  501    0  0.00000000000E+00  0.00000000000E+00  0.12452033472E+04  0.12452033472E+04  0.50400001928E-02 0. -1.
       -1   -1    0    0    0  501  0.00000000000E+00  0.00000000000E+00 -0.13579154581E+04  0.13579154581E+04  0.50400001928E-02 0.  1.
    10030    2    1    2    0    0  0.00000000000E+00  0.00000000000E+00 -0.11271211084E+03  0.26031188053E+04  0.26006775068E+04 0.  0.
        4    1    3    3  502    0  0.71869175926E+03 -0.45142706725E+03 -0.10424585163E+04  0.13442565280E+04  0.12699999809E+01 0.  1.
       -4    1    3    3    0  502 -0.71869175926E+03  0.45142706725E+03  0.92974640547E+03  0.12588622773E+04  0.12699999809E+01 0. -1.
</event>
<event>
 5   0  0.5940748E-06  0.2595569E+04  0.7818609E-02  0.8369708E-01
        2   -1    0    0  501    0  0.00000000000E+00  0.00000000000E+00  0.12548077330E+04  0.12548077330E+04  0.25500000920E-02 0.  1.
       -2   -1    0    0    0  501  0.00000000000E+00  0.00000000000E+00 -0.13422332041E+04  0.13422332041E+04  0.25500000920E-02 0. -1.
    10030    2    1    2    0    0  0.00000000000E+00  0.00000000000E+00 -0.87425471092E+02  0.25970409372E+04  0.25955689967E+04 0.  0.
        1    1    3    3  502    0  0.84132759833E+03  0.22340784980E+03  0.91938255576E+03  0.12660993164E+04  0.50400001928E-02 0.  1.
       -1    1    3    3    0  502 -0.84132759833E+03 -0.22340784980E+03 -0.10068080269E+04  0.13309416208E+04  0.50400001928E-02 0. -1.
</event>
<event>
 5   0  0.2456600E-06  0.2611260E+04  0.7818609E-02  0.8364386E-01
        1   -1    0    0  501    0  0.00000000000E+00  0.00000000000E+00  0.18365272129E+04  0.18365272129E+04  0.50400001928E-02 0.  1.
       -1   -1    0    0    0  501  0.00000000000E+00  0.00000000000E+00 -0.92820312617E+03  0.92820312619E+03  0.50400001928E-02 0. -1.
    10030    2    1    2    0    0  0.00000000000E+00  0.00000000000E+00  0.90832408668E+03  0.27647303390E+04  0.26112604622E+04 0.  0.
        5    1    3    3  502    0 -0.23806295892E+03 -0.68166791629E+03 -0.69756770522E+03  0.10039760524E+04  0.46999998093E+01 0. -1.
       -5    1    3    3    0  502  0.23806295892E+03  0.68166791629E+03  0.16058917919E+04  0.17607542866E+04  0.46999998093E+01 0.  1.
</event>
<event>
 5   0  0.2471488E-06  0.2598742E+04  0.7818609E-02  0.8368629E-01
        1   -1    0    0  501    0  0.00000000000E+00  0.00000000000E+00  0.23172317807E+04  0.23172317807E+04  0.50400001928E-02 0.  1.
       -1   -1    0    0    0  501  0.00000000000E+00  0.00000000000E+00 -0.72861298222E+03  0.72861298224E+03  0.50400001928E-02 0. -1.
    10030    2    1    2    0    0  0.00000000000E+00  0.00000000000E+00  0.15886187985E+04  0.30458447629E+04  0.25987421252E+04 0.  0.
        4    1    3    3  502    0 -0.79408054511E+03 -0.74469965584E+03 -0.37118153350E+02  0.10892753829E+04  0.12699999809E+01 0. -1.
       -4    1    3    3    0  502  0.79408054511E+03  0.74469965584E+03  0.16257369518E+04  0.19565693801E+04  0.12699999809E+01 0.  1.
</event>
<event>
 5   0  0.6173140E-06  0.2596463E+04  0.7818609E-02  0.8369404E-01
        2   -1    0    0  501    0  0.00000000000E+00  0.00000000000E+00  0.16981396764E+04  0.16981396764E+04  0.25500000920E-02 0.  1.
       -2   -1    0    0    0  501  0.00000000000E+00  0.00000000000E+00 -0.99250087949E+03  0.99250087950E+03  0.25500000920E-02 0. -1.
    10030    2    1    2    0    0  0.00000000000E+00  0.00000000000E+00  0.70563879692E+03  0.26906405559E+04  0.25964630730E+04 0.  0.
        3    1    3    3  502    0 -0.41633950066E+03 -0.91032025425E+03 -0.50383529621E+03  0.11206567543E+04  0.10100000352E+00 0. -1.
       -3    1    3    3    0  502  0.41633950066E+03  0.91032025425E+03  0.12094740931E+04  0.15699838016E+04  0.10100000352E+00 0.  1.
</event>
<event>
 5   0  0.2456600E-06  0.2598442E+04  0.7818609E-02  0.8368731E-01
       -1   -1    0    0    0  501  0.00000000000E+00  0.00000000000E+00  0.11655193295E+04  0.11655193295E+04  0.50400001928E-02 0. -1.
        1   -1    0    0  501    0  0.00000000000E+00  0.00000000000E+00 -0.14482597617E+04  0.14482597617E+04  0.50400001928E-02 0.  1.
    10030    2    1    2    0    0  0.00000000000E+00  0.00000000000E+00 -0.28274043221E+03  0.26137790912E+04  0.25984416456E+04 0.  0.
        5    1    3    3  502    0 -0.53691002190E+03  0.22556917081E+02  0.10484775017E+04  0.11781800999E+04  0.46999998093E+01 0. -1.
       -5    1    3    3    0  502  0.53691002190E+03 -0.22556917081E+02 -0.13312179339E+04  0.14355989913E+04  0.46999998093E+01 0.  1.
</event>
<event>
 5   0  0.2333979E-06  0.2603702E+04  0.7818609E-02  0.8366945E-01
       -1   -1    0    0    0  501  0.00000000000E+00  0.00000000000E+00  0.75715649263E+03  0.75715649265E+03  0.50400001928E-02 0.  1.
        1   -1    0    0  501    0  0.00000000000E+00  0.00000000000E+00 -0.22383955062E+04  0.22383955062E+04  0.50400001928E-02 0. -1.
    10030    2    1    2    0    0  0.00000000000E+00  0.00000000000E+00 -0.14812390135E+04  0.29955519988E+04  0.26037017422E+04 0.  0.
        3    1    3    3  502    0 -0.31047634562E+02 -0.47166986678E+03 -0.21361776793E+04  0.21878508877E+04  0.10100000352E+00 0. -1.
       -3    1    3    3    0  502  0.31047634562E+02  0.47166986678E+03  0.65493866577E+03  0.80770111116E+03  0.10100000352E+00 0.  1.
</event>
<event>
 5   0  0.2503292E-06  0.2594854E+04  0.7818609E-02  0.8369951E-01
       -1   -1    0    0    0  501  0.00000000000E+00  0.00000000000E+00  0.80317447672E+03  0.80317447674E+03  0.50400001928E-02 0. -1.
        1   -1    0    0  501    0  0.00000000000E+00  0.00000000000E+00 -0.20958297619E+04  0.20958297619E+04  0.50400001928E-02 0.  1.
    10030    2    1    2    0    0  0.00000000000E+00  0.00000000000E+00 -0.12926552851E+04  0.28990042386E+04  0.25948541171E+04 0.  0.
        2    1    3    3  502    0  0.20547117742E+03  0.29963417511E+03  0.74518228584E+03  0.82903298051E+03  0.25500000920E-02 0. -1.
       -2    1    3    3    0  502 -0.20547117742E+03 -0.29963417511E+03 -0.20378375710E+04  0.20699712581E+04  0.25500000920E-02 0.  1.
</event>
<event>
 5   0  0.6158063E-06  0.2603995E+04  0.7818609E-02  0.8366845E-01
       -2   -1    0    0    0  501  0.00000000000E+00  0.00000000000E+00  0.99029076867E+03  0.99029076868E+03  0.25500000920E-02 0.  1.
        2   -1    0    0  501    0  0.00000000000E+00  0.00000000000E+00 -0.17118181823E+04  0.17118181823E+04  0.25500000920E-02 0. -1.
    10030    2    1    2    0    0  0.00000000000E+00  0.00000000000E+00 -0.72152741367E+03  0.27021089510E+04  0.26039951948E+04 0.  0.
        2    1    3    3  502    0  0.28782196295E+03  0.11401626630E+04  0.21920961381E+03  0.11961877926E+04  0.25500000920E-02 0.  1.
       -2    1    3    3    0  502 -0.28782196295E+03 -0.11401626630E+04 -0.94073702748E+03  0.15059211584E+04  0.25500000920E-02 0. -1.
</event>
<event>
 5   0  0.2503292E-06  0.2604445E+04  0.7818609E-02  0.8366693E-01
       -1   -1    0    0    0  501  0.00000000000E+00  0.00000000000E+00  0.18255197929E+04  0.18255197929E+04  0.50400001928E-02 0.  1.
        1   -1    0    0  501    0  0.00000000000E+00  0.00000000000E+00 -0.92893150659E+03  0.92893150660E+03  0.50400001928E-02 0. -1.
    10030    2    1    2    0    0  0.00000000000E+00  0.00000000000E+00  0.89658828629E+03  0.27544512995E+04  0.26044445485E+04 0.  0.
        2    1    3    3  502    0  0.36381127892E+03  0.28254144245E+03 -0.83988895263E+03  0.95791532305E+03  0.25500000920E-02 0. -1.
       -2    1    3    3    0  502 -0.36381127892E+03 -0.28254144245E+03  0.17364772389E+04  0.17965359764E+04  0.25500000920E-02 0.  1.
</event>
<event>
 5   0  0.2503292E-06  0.2598231E+04  0.7818609E-02  0.8368802E-01
       -1   -1    0    0    0  501  0.00000000000E+00  0.00000000000E+00  0.15683342884E+04  0.15683342884E+04  0.50400001928E-02 0. -1.
        1   -1    0    0  501    0  0.00000000000E+00  0.00000000000E+00 -0.10761105770E+04  0.10761105770E+04  0.50400001928E-02 0.  1.
    10030    2    1    2    0    0  0.00000000000E+00  0.00000000000E+00  0.49222371140E+03  0.26444448653E+04  0.25982310259E+04 0.  0.
        2    1    3    3  502    0 -0.10503297307E+04  0.53891791772E+03 -0.30582142362E+03  0.12194883387E+04  0.25500000920E-02 0.  1.
       -2    1    3    3    0  502  0.10503297307E+04 -0.53891791772E+03  0.79804513501E+03  0.14249565266E+04  0.25500000920E-02 0. -1.
</event>
<event>
 5   0  0.2333979E-06  0.2575598E+04  0.7818609E-02  0.8376537E-01
        1   -1    0    0  501    0  0.00000000000E+00  0.00000000000E+00  0.18165411381E+04  0.18165411381E+04  0.50400001928E-02 0.  1.
       -1   -1    0    0    0  501  0.00000000000E+00  0.00000000000E+00 -0.91295851779E+03  0.91295851781E+03  0.50400001928E-02 0. -1.
    10030    2    1    2    0    0  0.00000000000E+00  0.00000000000E+00  0.90358262032E+03  0.27294996559E+04  0.25755983421E+04 0.  0.
        3    1    3    3  502    0 -0.91710453362E+02  0.56614748437E+03 -0.77014317183E+03  0.96023658368E+03  0.10100000352E+00 0. -1.
       -3    1    3    3    0  502  0.91710453362E+02 -0.56614748437E+03  0.16737257922E+04  0.17692630723E+04  0.10100000352E+00 0.  1.
</event>
<event>
 5   0  0.5940748E-06  0.2606638E+04  0.7818609E-02  0.8365950E-01
        2   -1    0    0  501    0  0.00000000000E+00  0.00000000000E+00  0.16772095759E+04  0.16772095759E+04  0.25500000920E-02 0.  1.
       -2   -1    0    0    0  501  0.00000000000E+00  0.00000000000E+00 -0.10127776492E+04  0.10127776492E+04  0.25500000920E-02 0. -1.
    10030    2    1    2    0    0  0.00000000000E+00  0.00000000000E+00  0.66443192665E+03  0.26899872251E+04  0.26066379661E+04 0.  0.
        1    1    3    3  502    0  0.84401053704E+03  0.92787273174E+03  0.69756858670E+03  0.14352364008E+04  0.50400001928E-02 0.  1.
       -1    1    3    3    0  502 -0.84401053704E+03 -0.92787273174E+03 -0.33136660056E+02  0.12547508243E+04  0.50400001928E-02 0. -1.
</event>
<event>
 5   0  0.5942229E-06  0.2606619E+04  0.7818609E-02  0.8365957E-01
       -2   -1    0    0    0  501  0.00000000000E+00  0.00000000000E+00  0.13841435057E+04  0.13841435057E+04  0.25500000920E-02 0.  1.
        2   -1    0    0  501    0  0.00000000000E+00  0.00000000000E+00 -0.12271957524E+04  0.12271957524E+04  0.25500000920E-02 0. -1.
    10030    2    1    2    0    0  0.00000000000E+00  0.00000000000E+00  0.15694775328E+03  0.26113392581E+04  0.26066185228E+04 0.  0.
        4    1    3    3  502    0  0.47932243535E+03  0.51699527102E+03  0.11766248269E+04  0.13716711353E+04  0.12699999809E+01 0.  1.
       -4    1    3    3    0  502 -0.47932243535E+03 -0.51699527102E+03 -0.10196770736E+04  0.12396681228E+04  0.12699999809E+01 0. -1.
</event>
<event>
 5   0  0.2440590E-06  0.2571650E+04  0.7818609E-02  0.8377895E-01
        1   -1    0    0  501    0  0.00000000000E+00  0.00000000000E+00  0.28003575578E+04  0.28003575578E+04  0.50400001928E-02 0.  1.
       -1   -1    0    0    0  501  0.00000000000E+00  0.00000000000E+00 -0.59040528073E+03  0.59040528075E+03  0.50400001928E-02 0. -1.
    10030    2    1    2    0    0  0.00000000000E+00  0.00000000000E+00  0.22099522771E+04  0.33907628386E+04  0.25716499685E+04 0.  0.
        1    1    3    3  502    0 -0.13090218922E+03 -0.12759030493E+04  0.98498450589E+03  0.16171760730E+04  0.50400001928E-02 0.  1.
       -1    1    3    3    0  502  0.13090218922E+03  0.12759030493E+04  0.12249677712E+04  0.17735867655E+04  0.50400001928E-02 0. -1.
</event>
<event>
 5   0  0.5940748E-06  0.2596247E+04  0.7818609E-02  0.8369477E-01
        2   -1    0    0  501    0  0.00000000000E+00  0.00000000000E+00  0.16467890699E+04  0.16467890699E+04  0.25500000920E-02 0. -1.
       -2   -1    0    0    0  501  0.00000000000E+00  0.00000000000E+00 -0.10232786897E+04  0.10232786897E+04  0.25500000920E-02 0.  1.
    10030    2    1    2    0    0  0.00000000000E+00  0.00000000000E+00  0.62351038018E+03  0.26700677597E+04  0.25962466460E+04 0.  0.
        1    1    3    3  502    0  0.22786784377E+03  0.83563534308E+03  0.13061575848E+04  0.15672452958E+04  0.50400001928E-02 0.  1.
       -1    1    3    3    0  502 -0.22786784377E+03 -0.83563534308E+03 -0.68264720462E+03  0.11028224639E+04  0.50400001928E-02 0. -1.
</event>
<event>
 5   0  0.5942229E-06  0.2621108E+04  0.7818609E-02  0.8361066E-01
       -2   -1    0    0    0  501  0.00000000000E+00  0.00000000000E+00  0.10375724125E+04  0.10375724125E+04  0.25500000920E-02 0.  1.
        2   -1    0    0  501    0  0.00000000000E+00  0.00000000000E+00 -0.16553563405E+04  0.16553563405E+04  0.25500000920E-02 0. -1.
    10030    2    1    2    0    0  0.00000000000E+00  0.00000000000E+00 -0.61778392801E+03  0.26929287530E+04  0.26211082174E+04 0.  0.
        4    1    3    3  502    0  0.95693568869E+03 -0.19720543990E+03 -0.12062867790E+04  0.15523354354E+04  0.12699999809E+01 0. -1.
       -4    1    3    3    0  502 -0.95693568869E+03  0.19720543990E+03  0.58850285099E+03  0.11405933177E+04  0.12699999809E+01 0.  1.
</event>
<event>
 5   0  0.6161834E-06  0.2607459E+04  0.7818609E-02  0.8365672E-01
       -2   -1    0    0    0  501  0.00000000000E+00  0.00000000000E+00  0.10350377867E+04  0.10350377867E+04  0.25500000920E-02 0.  1.
        2   -1    0    0  501    0  0.00000000000E+00  0.00000000000E+00 -0.16421720050E+04  0.16421720050E+04  0.25500000920E-02 0. -1.
    10030    2    1    2    0    0  0.00000000000E+00  0.00000000000E+00 -0.60713421834E+03  0.26772097917E+04  0.26074585921E+04 0.  0.
        5    1    3    3  502    0 -0.61915290897E+03  0.53497693465E+03  0.73854045836E+03  0.11022770722E+04  0.46999998093E+01 0.  1.
       -5    1    3    3    0  502  0.61915290897E+03 -0.53497693465E+03 -0.13456746767E+04  0.15749327195E+04  0.46999998093E+01 0. -1.
</event>
<event>
 5   0  0.5940748E-06  0.2590331E+04  0.7818609E-02  0.8371493E-01
        2   -1    0    0  501    0  0.00000000000E+00  0.00000000000E+00  0.24963178209E+04  0.24963178209E+04  0.25500000920E-02 0. -1.
       -2   -1    0    0    0  501  0.00000000000E+00  0.00000000000E+00 -0.67197124335E+03  0.67197124335E+03  0.25500000920E-02 0.  1.
    10030    2    1    2    0    0  0.00000000000E+00  0.00000000000E+00  0.18243465776E+04  0.31682890643E+04  0.25903310907E+04 0.  0.
        1    1    3    3  502    0  0.89568990207E+03 -0.46144446378E+03  0.19075433368E+04  0.21572929740E+04  0.50400001928E-02 0. -1.
       -1    1    3    3    0  502 -0.89568990207E+03  0.46144446378E+03 -0.83196759219E+02  0.10109960903E+04  0.50400001928E-02 0.  1.
</event>
<event>
 5   0  0.6161834E-06  0.2600399E+04  0.7818609E-02  0.8368066E-01
       -2   -1    0    0    0  501  0.00000000000E+00  0.00000000000E+00  0.12658137185E+04  0.12658137185E+04  0.25500000920E-02 0.  1.
        2   -1    0    0  501    0  0.00000000000E+00  0.00000000000E+00 -0.13355194744E+04  0.13355194744E+04  0.25500000920E-02 0. -1.
    10030    2    1    2    0    0  0.00000000000E+00  0.00000000000E+00 -0.69705755811E+02  0.26013331929E+04  0.26003991017E+04 0.  0.
        5    1    3    3  502    0 -0.59499701394E+03 -0.33885927800E+03 -0.11405325522E+04  0.13302945724E+04  0.46999998093E+01 0. -1.
       -5    1    3    3    0  502  0.59499701394E+03  0.33885927800E+03  0.10708267964E+04  0.12710386205E+04  0.46999998093E+01 0.  1.
</event>
<event>
 5   0  0.5940748E-06  0.2593853E+04  0.7818609E-02  0.8370292E-01
        2   -1    0    0  501    0  0.00000000000E+00  0.00000000000E+00  0.22279448943E+04  0.22279448943E+04  0.25500000920E-02 0. -1.
       -2   -1    0    0    0  501  0.00000000000E+00  0.00000000000E+00 -0.75496421833E+03  0.75496421834E+03  0.25500000920E-02 0.  1.
    10030    2    1    2    0    0  0.00000000000E+00  0.00000000000E+00  0.14729806760E+04  0.29829091127E+04  0.25938532539E+04 0.  0.
        1    1    3    3  502    0 -0.55954008336E+03 -0.11642779195E+04  0.86956426311E+03  0.15571673598E+04  0.50400001928E-02 0. -1.
       -1    1    3    3    0  502  0.55954008336E+03  0.11642779195E+04  0.60341641289E+03  0.14257417529E+04  0.50400001928E-02 0.  1.
</event>
<event>
 5   0  0.2471488E-06  0.2587854E+04  0.7818609E-02  0.8372338E-01
       -1   -1    0    0    0  501  0.00000000000E+00  0.00000000000E+00  0.11594515706E+04  0.11594515706E+04  0.50400001928E-02 0. -1.
        1   -1    0    0  501    0  0.00000000000E+00  0.00000000000E+00 -0.14439996494E+04  0.14439996494E+04  0.50400001928E-02 0.  1.
    10030    2    1    2    0    0  0.00000000000E+00  0.00000000000E+00 -0.28454807881E+03  0.26034512200E+04  0.25878544483E+04 0.  0.
        4    1    3    3  502    0  0.15796869297E+03 -0.82888442747E+03 -0.11291257007E+04  0.14095850322E+04  0.12699999809E+01 0.  1.
       -4    1    3    3    0  502 -0.15796869297E+03  0.82888442747E+03  0.84457762191E+03  0.11938661878E+04  0.12699999809E+01 0. -1.
</event>
<event>
 5   0  0.2333979E-06  0.2598776E+04  0.7818609E-02  0.8368617E-01
       -1   -1    0    0    0  501  0.00000000000E+00  0.00000000000E+00  0.12061115505E+04  0.12061115505E+04  0.50400001928E-02 0. -1.
        1   -1    0    0  501    0  0.00000000000E+00  0.00000000000E+00 -0.13998776909E+04  0.13998776910E+04  0.50400001928E-02 0.  1.
    10030    2    1    2    0    0  0.00000000000E+00  0.00000000000E+00 -0.19376614047E+03  0.26059892414E+04  0.25987755981E+04 0.  0.
        3    1    3    3  502    0  0.39307354142E+03  0.83875993850E+02 -0.13359774668E+04  0.13951264435E+04  0.10100000352E+00 0.  1.
       -3    1    3    3    0  502 -0.39307354142E+03 -0.83875993850E+02  0.11422113263E+04  0.12108627980E+04  0.10100000352E+00 0. -1.
</event>
<event>
 5   0  0.5940748E-06  0.2587167E+04  0.7818609E-02  0.8372573E-01
        2   -1    0    0  501    0  0.00000000000E+00  0.00000000000E+00  0.20853060887E+04  0.20853060887E+04  0.25500000920E-02 0. -1.
       -2   -1    0    0    0  501  0.00000000000E+00  0.00000000000E+00 -0.80245211181E+03  0.80245211181E+03  0.25500000920E-02 0.  1.
    10030    2    1    2    0    0  0.00000000000E+00  0.00000000000E+00  0.12828539769E+04  0.28877582005E+04  0.25871670024E+04 0.  0.
        1    1    3    3  502    0  0.16055929755E+03 -0.42347395722E+03  0.19939236094E+04  0.20447104540E+04  0.50400001928E-02 0. -1.
       -1    1    3    3    0  502 -0.16055929755E+03  0.42347395722E+03 -0.71106963256E+03  0.84304774648E+03  0.50400001928E-02 0.  1.
</event>
<event>
 5   0  0.2503292E-06  0.2589340E+04  0.7818609E-02  0.8371831E-01
        1   -1    0    0  501    0  0.00000000000E+00  0.00000000000E+00  0.14261746248E+04  0.14261746249E+04  0.50400001928E-02 0. -1.
       -1   -1    0    0    0  501  0.00000000000E+00  0.00000000000E+00 -0.11752912658E+04  0.11752912658E+04  0.50400001928E-02 0.  1.
    10030    2    1    2    0    0  0.00000000000E+00  0.00000000000E+00  0.25088335904E+03  0.26014658907E+04  0.25893401322E+04 0.  0.
        2    1    3    3  502    0  0.10929890283E+04  0.18055893529E+03  0.79861227309E+03  0.13656529969E+04  0.25500000920E-02 0. -1.
       -2    1    3    3    0  502 -0.10929890283E+04 -0.18055893529E+03 -0.54772891405E+03  0.12358128938E+04  0.25500000920E-02 0.  1.
</event>
<event>
 5   0  0.6158063E-06  0.2546803E+04  0.7818609E-02  0.8386499E-01
       -2   -1    0    0    0  501  0.00000000000E+00  0.00000000000E+00  0.11203875314E+04  0.11203875314E+04  0.25500000920E-02 0.  1.
        2   -1    0    0  501    0  0.00000000000E+00  0.00000000000E+00 -0.14473131045E+04  0.14473131045E+04  0.25500000920E-02 0. -1.
    10030    2    1    2    0    0  0.00000000000E+00  0.00000000000E+00 -0.32692557310E+03  0.25677006359E+04  0.25468031383E+04 0.  0.
        2    1    3    3  502    0 -0.35747366829E+03  0.60980041165E+03 -0.12313553335E+04  0.14198168625E+04  0.25500000920E-02 0. -1.
       -2    1    3    3    0  502  0.35747366829E+03 -0.60980041165E+03  0.90442976045E+03  0.11478837734E+04  0.25500000920E-02 0.  1.
</event>
<event>
 5   0  0.2471488E-06  0.2597601E+04  0.7818609E-02  0.8369017E-01
        1   -1    0    0  501    0  0.00000000000E+00  0.00000000000E+00  0.91261717379E+03  0.91261717381E+03  0.50400001928E-02 0.  1.
       -1   -1    0    0    0  501  0.00000000000E+00  0.00000000000E+00 -0.18484009664E+04  0.18484009664E+04  0.50400001928E-02 0. -1.
    10030    2    1    2    0    0  0.00000000000E+00  0.00000000000E+00 -0.93578379256E+03  0.27610181402E+04  0.25976007899E+04 0.  0.
        4    1    3    3  502    0  0.43987378071E+03 -0.42182350090E+03  0.75119637999E+03  0.96732705073E+03  0.12699999809E+01 0.  1.
       -4    1    3    3    0  502 -0.43987378071E+03  0.42182350090E+03 -0.16869801726E+04  0.17936910894E+04  0.12699999809E+01 0. -1.
</event>
<event>
 5   0  0.6161834E-06  0.2587737E+04  0.7818609E-02  0.8372379E-01
       -2   -1    0    0    0  501  0.00000000000E+00  0.00000000000E+00  0.21796462900E+04  0.21796462900E+04  0.25500000920E-02 0. -1.
        2   -1    0    0  501    0  0.00000000000E+00  0.00000000000E+00 -0.76805836249E+03  0.76805836250E+03  0.25500000920E-02 0.  1.
    10030    2    1    2    0    0  0.00000000000E+00  0.00000000000E+00  0.14115879275E+04  0.29477046525E+04  0.25877368957E+04 0.  0.
        5    1    3    3  502    0 -0.23797089940E+03 -0.82489435955E+03 -0.39684144131E+03  0.94582560386E+03  0.46999998093E+01 0.  1.
       -5    1    3    3    0  502  0.23797089940E+03  0.82489435955E+03  0.18084293688E+04  0.20018790486E+04  0.46999998093E+01 0. -1.
</event>
<event>
 5   0  0.2471488E-06  0.2603812E+04  0.7818609E-02  0.8366907E-01
       -1   -1    0    0    0  501  0.00000000000E+00  0.00000000000E+00  0.10937949364E+04  0.10937949364E+04  0.50400001928E-02 0.  1.
        1   -1    0    0  501    0  0.00000000000E+00  0.00000000000E+00 -0.15496138442E+04  0.15496138442E+04  0.50400001928E-02 0. -1.
    10030    2    1    2    0    0  0.00000000000E+00  0.00000000000E+00 -0.45581890782E+03  0.26434087806E+04  0.26038124173E+04 0.  0.
        4    1    3    3  502    0  0.42118014368E+03  0.39129171435E+03 -0.14137722413E+04  0.15261898579E+04  0.12699999809E+01 0. -1.
       -4    1    3    3    0  502 -0.42118014368E+03 -0.39129171435E+03  0.95795333348E+03  0.11172189227E+04  0.12699999809E+01 0.  1.
</event>
<event>
 5   0  0.5940748E-06  0.2621649E+04  0.7818609E-02  0.8360885E-01
       -2   -1    0    0    0  501  0.00000000000E+00  0.00000000000E+00  0.11146717343E+04  0.11146717343E+04  0.25500000920E-02 0. -1.
        2   -1    0    0  501    0  0.00000000000E+00  0.00000000000E+00 -0.15414946772E+04  0.15414946772E+04  0.25500000920E-02 0.  1.
    10030    2    1    2    0    0  0.00000000000E+00  0.00000000000E+00 -0.42682294289E+03  0.26561664115E+04  0.26216487524E+04 0.  0.
        1    1    3    3  502    0 -0.76553956970E+03  0.30948459894E+03  0.81804416428E+03  0.11623372163E+04  0.50400001928E-02 0. -1.
       -1    1    3    3    0  502  0.76553956970E+03 -0.30948459894E+03 -0.12448671072E+04  0.14938291952E+04  0.50400001928E-02 0.  1.
</event>
<event>
 5   0  0.2503292E-06  0.2558949E+04  0.7818609E-02  0.8382281E-01
        1   -1    0    0  501    0  0.00000000000E+00  0.00000000000E+00  0.14137524860E+04  0.14137524860E+04  0.50400001928E-02 0. -1.
       -1   -1    0    0    0  501  0.00000000000E+00  0.00000000000E+00 -0.11579498791E+04  0.11579498791E+04  0.50400001928E-02 0.  1.
    10030    2    1    2    0    0  0.00000000000E+00  0.00000000000E+00  0.25580260694E+03  0.25717023651E+04  0.25589486280E+04 0.  0.
        2    1    3    3  502    0  0.64983158029E+03 -0.72453154540E+03 -0.70679671311E+03  0.12028252727E+04  0.25500000920E-02 0.  1.
       -2    1    3    3    0  502 -0.64983158029E+03  0.72453154540E+03  0.96259932005E+03  0.13688770924E+04  0.25500000920E-02 0. -1.
</event>
<event>
 5   0  0.2503292E-06  0.2601181E+04  0.7818609E-02  0.8367800E-01
        1   -1    0    0  501    0  0.00000000000E+00  0.00000000000E+00  0.92769536752E+03  0.92769536753E+03  0.50400001928E-02 0.  1.
       -1   -1    0    0    0  501  0.00000000000E+00  0.00000000000E+00 -0.18233737547E+04  0.18233737547E+04  0.50400001928E-02 0. -1.
    10030    2    1    2    0    0  0.00000000000E+00  0.00000000000E+00 -0.89567838714E+03  0.27510691222E+04  0.26011807976E+04 0.  0.
        2    1    3    3  502    0  0.12193575597E+04  0.25662274343E+03 -0.53745328335E+02  0.12472275859E+04  0.25500000920E-02 0.  1.
       -2    1    3    3    0  502 -0.12193575597E+04 -0.25662274343E+03 -0.84193305880E+03  0.15038415363E+04  0.25500000920E-02 0. -1.
</event>
<event>
 5   0  0.2333979E-06  0.2598897E+04  0.7818609E-02  0.8368576E-01
        1   -1    0    0  501    0  0.00000000000E+00  0.00000000000E+00  0.23077432487E+04  0.23077432487E+04  0.50400001928E-02 0.  1.
       -1   -1    0    0    0  501  0.00000000000E+00  0.00000000000E+00 -0.73169609440E+03  0.73169609442E+03  0.50400001928E-02 0. -1.
    10030    2    1    2    0    0  0.00000000000E+00  0.00000000000E+00  0.15760471543E+04  0.30394393431E+04  0.25988972446E+04 0.  0.
        3    1    3    3  502    0 -0.10864868937E+03  0.26421145888E+03 -0.69451553381E+03  0.75097541212E+03  0.10100000352E+00 0. -1.
       -3    1    3    3    0  502  0.10864868937E+03 -0.26421145888E+03  0.22705626881E+04  0.22884639310E+04  0.10100000352E+00 0.  1.
</event>
<event>
 5   0  0.2456600E-06  0.2633740E+04  0.7818609E-02  0.8356830E-01
        1   -1    0    0  501    0  0.00000000000E+00  0.00000000000E+00  0.14050489961E+04  0.14050489961E+04  0.50400001928E-02 0. -1.
       -1   -1    0    0    0  501  0.00000000000E+00  0.00000000000E+00 -0.12342249952E+04  0.12342249952E+04  0.50400001928E-02 0.  1.
    10030    2    1    2    0    0  0.00000000000E+00  0.00000000000E+00  0.17082400088E+03  0.26392739913E+04  0.26337399951E+04 0.  0.
        5    1    3    3  502    0 -0.66931852309E+03 -0.31602262407E+03 -0.10060353438E+04  0.12489943103E+04  0.46999998093E+01 0.  1.
       -5    1    3    3    0  502  0.66931852309E+03  0.31602262407E+03  0.11768593447E+04  0.13902796810E+04  0.46999998093E+01 0. -1.
</event>
<event>
 5   0  0.2471488E-06  0.2591489E+04  0.7818609E-02  0.8371098E-01
        1   -1    0    0  501    0  0.00000000000E+00  0.00000000000E+00  0.30093318487E+04  0.30093318487E+04  0.50400001928E-02 0.  1.
       -1   -1    0    0    0  501  0.00000000000E+00  0.00000000000E+00 -0.55791584341E+03  0.55791584343E+03  0.50400001928E-02 0. -1.
    10030    2    1    2    0    0  0.00000000000E+00  0.00000000000E+00  0.24514160053E+04  0.35672476921E+04  0.25914890827E+04 0.  0.
        4    1    3    3  502    0 -0.15419282840E+03 -0.85461676742E+03 -0.98052593231E+02  0.87393430613E+03  0.12699999809E+01 0. -1.
       -4    1    3    3    0  502  0.15419282840E+03  0.85461676742E+03  0.25494685985E+04  0.26933133860E+04  0.12699999809E+01 0.  1.
</event>
<event>
 5   0  0.5942229E-06  0.2597236E+04  0.7818609E-02  0.8369141E-01
        2   -1    0    0  501    0  0.00000000000E+00  0.00000000000E+00  0.14682744235E+04  0.14682744235E+04  0.25500000920E-02 0. -1.
       -2   -1    0    0    0  501  0.00000000000E+00  0.00000000000E+00 -0.11485647260E+04  0.11485647260E+04  0.25500000920E-02 0.  1.
    10030    2    1    2    0    0  0.00000000000E+00  0.00000000000E+00  0.31970969752E+03  0.26168391495E+04  0.25972356157E+04 0.  0.
        4    1    3    3  502    0  0.72045751954E+03 -0.81588027391E+03  0.87349960038E+03  0.13956084062E+04  0.12699999809E+01 0. -1.
       -4    1    3    3    0  502 -0.72045751954E+03  0.81588027391E+03 -0.55378990286E+03  0.12212307432E+04  0.12699999809E+01 0.  1.
</event>
<event>
 5   0  0.5940748E-06  0.2615584E+04  0.7818609E-02  0.8362927E-01
       -2   -1    0    0    0  501  0.00000000000E+00  0.00000000000E+00  0.83738932694E+03  0.83738932694E+03  0.25500000920E-02 0. -1.
        2   -1    0    0  501    0  0.00000000000E+00  0.00000000000E+00 -0.20424436500E+04  0.20424436500E+04  0.25500000920E-02 0.  1.
    10030    2    1    2    0    0  0.00000000000E+00  0.00000000000E+00 -0.12050543230E+04  0.28798329769E+04  0.26155844573E+04 0.  0.
        1    1    3    3  502    0  0.49322609089E+03  0.99947691852E+03  0.15076818974E+03  0.11247031317E+04  0.50400001928E-02 0. -1.
       -1    1    3    3    0  502 -0.49322609089E+03 -0.99947691852E+03 -0.13558225128E+04  0.17551298452E+04  0.50400001928E-02 0.  1.
</event>
<event>
 5   0  0.6161834E-06  0.2615878E+04  0.7818609E-02  0.8362828E-01
       -2   -1    0    0    0  501  0.00000000000E+00  0.00000000000E+00  0.76854760436E+03  0.76854760436E+03  0.25500000920E-02 0. -1.
        2   -1    0    0  501    0  0.00000000000E+00  0.00000000000E+00 -0.22258931597E+04  0.22258931597E+04  0.25500000920E-02 0.  1.
    10030    2    1    2    0    0  0.00000000000E+00  0.00000000000E+00 -0.14573455554E+04  0.29944407641E+04  0.26158783270E+04 0.  0.
        5    1    3    3  502    0 -0.84562947226E+03  0.98886711837E+03 -0.88111963521E+03  0.15714137850E+04  0.46999998093E+01 0. -1.
       -5    1    3    3    0  502  0.84562947226E+03 -0.98886711837E+03 -0.57622592016E+03  0.14230269791E+04  0.46999998093E+01 0.  1.
</event>
<event>
 5   0  0.6158063E-06  0.2529473E+04  0.7818609E-02  0.8392560E-01
       -2   -1    0    0    0  501  0.00000000000E+00  0.00000000000E+00  0.11485590112E+04  0.11485590112E+04  0.25500000920E-02 0.  1.
        2   -1    0    0  501    0  0.00000000000E+00  0.00000000000E+00 -0.13926659146E+04  0.13926659146E+04  0.25500000920E-02 0. -1.
    10030    2    1    2    0    0  0.00000000000E+00  0.00000000000E+00 -0.24410690342E+03  0.25412249258E+04  0.25294734517E+04 0.  0.
        2    1    3    3  502    0  0.23746761543E+03  0.99499464421E+03  0.62514492775E+03  0.11988375165E+04  0.25500000920E-02 0.  1.
       -2    1    3    3    0  502 -0.23746761543E+03 -0.99499464421E+03 -0.86925183116E+03  0.13423874092E+04  0.25500000920E-02 0. -1.
</event>
<event>
 5   0  0.2503292E-06  0.2644463E+04  0.7818609E-02  0.8353253E-01
        1   -1    0    0  501    0  0.00000000000E+00  0.00000000000E+00  0.21302358447E+04  0.21302358447E+04  0.50400001928E-02 0. -1.
       -1   -1    0    0    0  501  0.00000000000E+00  0.00000000000E+00 -0.82070514489E+03  0.82070514491E+03  0.50400001928E-02 0.  1.
    10030    2    1    2    0    0  0.00000000000E+00  0.00000000000E+00  0.13095306998E+04  0.29509409896E+04  0.26444625296E+04 0.  0.
        2    1    3    3  502    0 -0.75167560949E+02 -0.12209310791E+04  0.12149095115E+04  0.17240440781E+04  0.25500000920E-02 0. -1.
       -2    1    3    3    0  502  0.75167560949E+02  0.12209310791E+04  0.94621188235E+02  0.12268969115E+04  0.25500000920E-02 0.  1.
</event>
<event>
 5   0  0.2440590E-06  0.2591045E+04  0.7818609E-02  0.8371249E-01
       -1   -1    0    0    0  501  0.00000000000E+00  0.00000000000E+00  0.95955117672E+03  0.95955117673E+03  0.50400001928E-02 0.  1.
        1   -1    0    0  501    0  0.00000000000E+00  0.00000000000E+00 -0.17491293595E+04  0.17491293595E+04  0.50400001928E-02 0. -1.
    10030    2    1    2    0    0  0.00000000000E+00  0.00000000000E+00 -0.78957818283E+03  0.27086805363E+04  0.25910454533E+04 0.  0.
        1    1    3    3  502    0  0.97675685603E+03  0.72014284583E+03  0.79366028337E+02  0.12161244347E+04  0.50400001928E-02 0.  1.
       -1    1    3    3    0  502 -0.97675685603E+03 -0.72014284583E+03 -0.86894421116E+03  0.14925561016E+04  0.50400001928E-02 0. -1.
</event>
<event>
 5   0  0.6161834E-06  0.2612435E+04  0.7818609E-02  0.8363989E-01
       -2   -1    0    0    0  501  0.00000000000E+00  0.00000000000E+00  0.16602656558E+04  0.16602656558E+04  0.25500000920E-02 0.  1.
        2   -1    0    0  501    0  0.00000000000E+00  0.00000000000E+00 -0.10276697092E+04  0.10276697092E+04  0.25500000920E-02 0. -1.
    10030    2    1    2    0    0  0.00000000000E+00  0.00000000000E+00  0.63259594655E+03  0.26879353650E+04  0.26124354336E+04 0.  0.
        5    1    3    3  502    0  0.18762738897E+03 -0.57467528236E+03  0.15076590851E+04  0.16243502468E+04  0.46999998093E+01 0.  1.
       -5    1    3    3    0  502 -0.18762738897E+03  0.57467528236E+03 -0.87506313856E+03  0.10635851182E+04  0.46999998093E+01 0. -1.
</event>
<event>
 5   0  0.5940748E-06  0.2591091E+04  0.7818609E-02  0.8371234E-01
        2   -1    0    0  501    0  0.00000000000E+00  0.00000000000E+00  0.18656672915E+04  0.18656672915E+04  0.25500000920E-02 0. -1.
       -2   -1    0    0    0  501  0.00000000000E+00  0.00000000000E+00 -0.89964505790E+03  0.89964505790E+03  0.25500000920E-02 0.  1.
    10030    2    1    2    0    0  0.00000000000E+00  0.00000000000E+00  0.96602223361E+03  0.27653123494E+04  0.25910911667E+04 0.  0.
        1    1    3    3  502    0 -0.66629916373E+02  0.12176023725E+04  0.16049098677E+02  0.12195296867E+04  0.50400001928E-02 0. -1.
       -1    1    3    3    0  502  0.66629916373E+02 -0.12176023725E+04  0.94997313493E+03  0.15457826627E+04  0.50400001928E-02 0.  1.
</event>
<event>
 5   0  0.2456600E-06  0.2628098E+04  0.7818609E-02  0.8358719E-01
        1   -1    0    0  501    0  0.00000000000E+00  0.00000000000E+00  0.16604426049E+04  0.16604426049E+04  0.50400001928E-02 0. -1.
       -1   -1    0    0    0  501  0.00000000000E+00  0.00000000000E+00 -0.10399182703E+04  0.10399182703E+04  0.50400001928E-02 0.  1.
    10030    2    1    2    0    0  0.00000000000E+00  0.00000000000E+00  0.62052433464E+03  0.27003608753E+04  0.26280978686E+04 0.  0.
        5    1    3    3  502    0 -0.40201147137E+03 -0.12355204185E+04  0.51207715434E+03  0.13965561320E+04  0.46999998093E+01 0. -1.
       -5    1    3    3    0  502  0.40201147137E+03  0.12355204185E+04  0.10844718029E+03  0.13038047433E+04  0.46999998093E+01 0.  1.
</event>
<event>
 5   0  0.2333979E-06  0.2600682E+04  0.7818609E-02  0.8367969E-01
       -1   -1    0    0    0  501  0.00000000000E+00  0.00000000000E+00  0.13119365961E+04  0.13119365961E+04  0.50400001928E-02 0. -1.
        1   -1    0    0  501    0  0.00000000000E+00  0.00000000000E+00 -0.12888481237E+04  0.12888481237E+04  0.50400001928E-02 0.  1.
    10030    2    1    2    0    0  0.00000000000E+00  0.00000000000E+00  0.23088472394E+02  0.26007847198E+04  0.26006822338E+04 0.  0.
        3    1    3    3  502    0 -0.97885010119E+03 -0.79249227294E+03  0.33512380683E+03  0.13032649383E+04  0.10100000352E+00 0.  1.
       -3    1    3    3    0  502  0.97885010119E+03  0.79249227294E+03 -0.31203533444E+03  0.12975197815E+04  0.10100000352E+00 0. -1.
</event>
<event>
 5   0  0.6161834E-06  0.2601176E+04  0.7818609E-02  0.8367802E-01
        2   -1    0    0  501    0  0.00000000000E+00  0.00000000000E+00  0.14251719895E+04  0.14251719895E+04  0.25500000920E-02 0. -1.
       -2   -1    0    0    0  501  0.00000000000E+00  0.00000000000E+00 -0.11868947653E+04  0.11868947653E+04  0.25500000920E-02 0.  1.
    10030    2    1    2    0    0  0.00000000000E+00  0.00000000000E+00  0.23827722424E+03  0.26120667548E+04  0.26011760218E+04 0.  0.
        5    1    3    3  502    0  0.12441220221E+04  0.35367309786E+03  0.25602816867E+03  0.13185206783E+04  0.46999998093E+01 0.  1.
       -5    1    3    3    0  502 -0.12441220221E+04 -0.35367309786E+03 -0.17750944425E+02  0.12935460765E+04  0.46999998093E+01 0. -1.
</event>
<event>
 5   0  0.2333979E-06  0.2583474E+04  0.7818609E-02  0.8373836E-01
        1   -1    0    0  501    0  0.00000000000E+00  0.00000000000E+00  0.13631190486E+04  0.13631190486E+04  0.50400001928E-02 0. -1.
       -1   -1    0    0    0  501  0.00000000000E+00  0.00000000000E+00 -0.12240930366E+04  0.12240930366E+04  0.50400001928E-02 0.  1.
    10030    2    1    2    0    0  0.00000000000E+00  0.00000000000E+00  0.13902601201E+03  0.25872120852E+04  0.25834740451E+04 0.  0.
        3    1    3    3  502    0  0.75056558912E+03 -0.10270749902E+04  0.29423194799E+03  0.13056815035E+04  0.10100000352E+00 0. -1.
       -3    1    3    3    0  502 -0.75056558912E+03  0.10270749902E+04 -0.15520593598E+03  0.12815305817E+04  0.10100000352E+00 0.  1.
</event>
<event>
 5   0  0.6173140E-06  0.2597046E+04  0.7818609E-02  0.8369205E-01
       -2   -1    0    0    0  501  0.00000000000E+00  0.00000000000E+00  0.14626311080E+04  0.14626311080E+04  0.25500000920E-02 0.  1.
        2   -1    0    0  501    0  0.00000000000E+00  0.00000000000E+00 -0.11528280727E+04  0.11528280727E+04  0.25500000920E-02 0. -1.
    10030    2    1    2    0    0  0.00000000000E+00  0.00000000000E+00  0.30980303532E+03  0.26154591808E+04  0.25970461693E+04 0.  0.
        3    1    3    3  502    0  0.12846537305E+04 -0.45285097926E+02  0.33998768044E+03  0.13296531805E+04  0.10100000352E+00 0. -1.
       -3    1    3    3    0  502 -0.12846537305E+04  0.45285097926E+02 -0.30184645112E+02  0.12858060003E+04  0.10100000352E+00 0.  1.
</event>
<event>
 5   0  0.2503292E-06  0.2530222E+04  0.7818609E-02  0.8392297E-01
       -1   -1    0    0    0  501  0.00000000000E+00  0.00000000000E+00  0.48373415283E+03  0.48373415286E+03  0.50400001928E-02 0.  1.
        1   -1    0    0  501    0  0.00000000000E+00  0.00000000000E+00 -0.33086474665E+04  0.33086474665E+04  0.50400001928E-02 0. -1.
    10030    2    1    2    0    0  0.00000000000E+00  0.00000000000E+00 -0.28249133137E+04  0.37923816194E+04  0.25302219502E+04 0.  0.
        2    1    3    3  502    0 -0.42641092929E+02 -0.27031600055E+02 -0.33071369254E+04  0.33075222771E+04  0.25500000920E-02 0. -1.
       -2    1    3    3    0  502  0.42641092929E+02  0.27031600055E+02  0.48222361165E+03  0.48485934233E+03  0.25500000920E-02 0.  1.
</event>
<event>
 5   0  0.5940748E-06  0.2597484E+04  0.7818609E-02  0.8369056E-01
        2   -1    0    0  501    0  0.00000000000E+00  0.00000000000E+00  0.13553581688E+04  0.13553581688E+04  0.25500000920E-02 0.  1.
       -2   -1    0    0    0  501  0.00000000000E+00  0.00000000000E+00 -0.12444907837E+04  0.12444907837E+04  0.25500000920E-02 0. -1.
    10030    2    1    2    0    0  0.00000000000E+00  0.00000000000E+00  0.11086738506E+03  0.25998489525E+04  0.25974839747E+04 0.  0.
        1    1    3    3  502    0  0.32349649558E+03  0.90289384578E+03  0.93193842492E+03  0.13373019507E+04  0.50400001928E-02 0.  1.
       -1    1    3    3    0  502 -0.32349649558E+03 -0.90289384578E+03 -0.82107103986E+03  0.12625470019E+04  0.50400001928E-02 0. -1.
</event>
<event>
 5   0  0.2503292E-06  0.2606896E+04  0.7818609E-02  0.8365863E-01
       -1   -1    0    0    0  501  0.00000000000E+00  0.00000000000E+00  0.66847144201E+03  0.66847144203E+03  0.50400001928E-02 0. -1.
        1   -1    0    0  501    0  0.00000000000E+00  0.00000000000E+00 -0.25415841835E+04  0.25415841835E+04  0.50400001928E-02 0.  1.
    10030    2    1    2    0    0  0.00000000000E+00  0.00000000000E+00 -0.18731127415E+04  0.32100556255E+04  0.26068958124E+04 0.  0.
        2    1    3    3  502    0 -0.12295723833E+03  0.45171703365E+02  0.66034581227E+03  0.67321286161E+03  0.25500000920E-02 0. -1.
       -2    1    3    3    0  502  0.12295723833E+03 -0.45171703365E+02 -0.25334585537E+04  0.25368427639E+04  0.25500000920E-02 0.  1.
</event>
<event>
 5   0  0.5942229E-06  0.2610114E+04  0.7818609E-02  0.8364774E-01
       -2   -1    0    0    0  501  0.00000000000E+00  0.00000000000E+00  0.82015510924E+03  0.82015510924E+03  0.25500000920E-02 0.  1.
        2   -1    0    0  501    0  0.00000000000E+00  0.00000000000E+00 -0.20766489594E+04  0.20766489594E+04  0.25500000920E-02 0. -1.
    10030    2    1    2    0    0  0.00000000000E+00  0.00000000000E+00 -0.12564938502E+04  0.28968040687E+04  0.26101143685E+04 0.  0.
        4    1    3    3  502    0 -0.90798316697E+03 -0.88463676441E+03 -0.97239872709E+03  0.15976784826E+04  0.12699999809E+01 0. -1.
       -4    1    3    3    0  502  0.90798316697E+03  0.88463676441E+03 -0.28409512309E+03  0.12991255860E+04  0.12699999809E+01 0.  1.
</event>
<event>
 5   0  0.2471488E-06  0.2603485E+04  0.7818609E-02  0.8367018E-01
       -1   -1    0    0    0  501  0.00000000000E+00  0.00000000000E+00  0.76166414617E+03  0.76166414618E+03  0.50400001928E-02 0.  1.
        1   -1    0    0  501    0  0.00000000000E+00  0.00000000000E+00 -0.22247782683E+04  0.22247782683E+04  0.50400001928E-02 0. -1.
    10030    2    1    2    0    0  0.00000000000E+00  0.00000000000E+00 -0.14631141222E+04  0.29864424145E+04  0.26034852334E+04 0.  0.
        4    1    3    3  502    0 -0.44372036886E+02 -0.16545557482E+03  0.74867782934E+03  0.76802638623E+03  0.12699999809E+01 0.  1.
       -4    1    3    3    0  502  0.44372036886E+02  0.16545557482E+03 -0.22117919515E+04  0.22184160283E+04  0.12699999809E+01 0. -1.
</event>
<event>
 5   0  0.2503292E-06  0.2604292E+04  0.7818609E-02  0.8366745E-01
        1   -1    0    0  501    0  0.00000000000E+00  0.00000000000E+00  0.19727416473E+04  0.19727416473E+04  0.50400001928E-02 0.  1.
       -1   -1    0    0    0  501  0.00000000000E+00  0.00000000000E+00 -0.85950641435E+03  0.85950641436E+03  0.50400001928E-02 0. -1.
    10030    2    1    2    0    0  0.00000000000E+00  0.00000000000E+00  0.11132352330E+04  0.28322480617E+04  0.26042919189E+04 0.  0.
        2    1    3    3  502    0 -0.16966829045E+03  0.18046006352E+03  0.19468850148E+04  0.19625785141E+04  0.25500000920E-02 0.  1.
       -2    1    3    3    0  502  0.16966829045E+03 -0.18046006352E+03 -0.83364978179E+03  0.86966954758E+03  0.25500000920E-02 0. -1.
</event>
<event>
 5   0  0.2456600E-06  0.2602349E+04  0.7818609E-02  0.8367404E-01
        1   -1    0    0  501    0  0.00000000000E+00  0.00000000000E+00  0.14884036749E+04  0.14884036749E+04  0.50400001928E-02 0. -1.
       -1   -1    0    0    0  501  0.00000000000E+00  0.00000000000E+00 -0.11374973135E+04  0.11374973135E+04  0.50400001928E-02 0.  1.
    10030    2    1    2    0    0  0.00000000000E+00  0.00000000000E+00  0.35090636143E+03  0.26259009884E+04  0.26023490785E+04 0.  0.
        5    1    3    3  502    0  0.41032268539E+03  0.59334478567E+03 -0.91721842120E+03  0.11669337869E+04  0.46999998093E+01 0.  1.
       -5    1    3    3    0  502 -0.41032268539E+03 -0.59334478567E+03  0.12681247826E+04  0.14589672015E+04  0.46999998093E+01 0. -1.
</event>
<event>
 5   0  0.2503292E-06  0.2582845E+04  0.7818609E-02  0.8374052E-01
        1   -1    0    0  501    0  0.00000000000E+00  0.00000000000E+00  0.11140574325E+04  0.11140574325E+04  0.50400001928E-02 0.  1.
       -1   -1    0    0    0  501  0.00000000000E+00  0.00000000000E+00 -0.14970255242E+04  0.14970255242E+04  0.50400001928E-02 0. -1.
    10030    2    1    2    0    0  0.00000000000E+00  0.00000000000E+00 -0.38296809171E+03  0.26110829567E+04  0.25828452620E+04 0.  0.
        2    1    3    3  502    0  0.26117501433E+03  0.72381394933E+03 -0.12399599567E+04  0.14593216628E+04  0.25500000920E-02 0. -1.
       -2    1    3    3    0  502 -0.26117501433E+03 -0.72381394933E+03  0.85699186501E+03  0.11517612939E+04  0.25500000920E-02 0.  1.
</event>
<event>
 5   0  0.2333979E-06  0.2606615E+04  0.7818609E-02  0.8365958E-01
        1   -1    0    0  501    0  0.00000000000E+00  0.00000000000E+00  0.10031037703E+04  0.10031037703E+04  0.50400001928E-02 0. -1.
       -1   -1    0    0    0  501  0.00000000000E+00  0.00000000000E+00 -0.16933543809E+04  0.16933543809E+04  0.50400001928E-02 0.  1.
    10030    2    1    2    0    0  0.00000000000E+00  0.00000000000E+00 -0.69025061063E+03  0.26964581512E+04  0.26066147885E+04 0.  0.
        3    1    3    3  502    0 -0.78675544954E+03  0.38860815832E+03  0.65173302212E+03  0.10930491208E+04  0.10100000352E+00 0. -1.
       -3    1    3    3    0  502  0.78675544954E+03 -0.38860815832E+03 -0.13419836327E+04  0.16034090304E+04  0.10100000352E+00 0.  1.
</event>
<event>
 5   0  0.2456600E-06  0.2575831E+04  0.7818609E-02  0.8376458E-01
       -1   -1    0    0    0  501  0.00000000000E+00  0.00000000000E+00  0.92471719206E+03  0.92471719207E+03  0.50400001928E-02 0.  1.
        1   -1    0    0  501    0  0.00000000000E+00  0.00000000000E+00 -0.17937654737E+04  0.17937654737E+04  0.50400001928E-02 0. -1.
    10030    2    1    2    0    0  0.00000000000E+00  0.00000000000E+00 -0.86904828162E+03  0.27184826658E+04  0.25758305628E+04 0.  0.
        5    1    3    3  502    0  0.14581904452E+03  0.69105220381E+03 -0.15711490785E+04  0.17225991580E+04  0.46999998093E+01 0. -1.
       -5    1    3    3    0  502 -0.14581904452E+03 -0.69105220381E+03  0.70210079687E+03  0.99588350780E+03  0.46999998093E+01 0.  1.
</event>
<event>
 5   0  0.2456600E-06  0.2600232E+04  0.7818609E-02  0.8368123E-01
        1   -1    0    0  501    0  0.00000000000E+00  0.00000000000E+00  0.14145903555E+04  0.14145903555E+04  0.50400001928E-02 0.  1.
       -1   -1    0    0    0  501  0.00000000000E+00  0.00000000000E+00 -0.11949050807E+04  0.11949050808E+04  0.50400001928E-02 0. -1.
    10030    2    1    2    0    0  0.00000000000E+00  0.00000000000E+00  0.21968527474E+03  0.26094954363E+04  0.26002316843E+04 0.  0.
        5    1    3    3  502    0  0.90921060958E+03  0.53279862690E+03  0.87396239593E+03  0.13690765753E+04  0.46999998093E+01 0.  1.
       -5    1    3    3    0  502 -0.90921060958E+03 -0.53279862690E+03 -0.65427712119E+03  0.12404188610E+04  0.46999998093E+01 0. -1.
</event>
<event>
 5   0  0.2456600E-06  0.2605650E+04  0.7818609E-02  0.8366285E-01
       -1   -1    0    0    0  501  0.00000000000E+00  0.00000000000E+00  0.11109802077E+04  0.11109802078E+04  0.50400001928E-02 0.  1.
        1   -1    0    0  501    0  0.00000000000E+00  0.00000000000E+00 -0.15277973733E+04  0.15277973733E+04  0.50400001928E-02 0. -1.
    10030    2    1    2    0    0  0.00000000000E+00  0.00000000000E+00 -0.41681716553E+03  0.26387775810E+04  0.26056497410E+04 0.  0.
        5    1    3    3  502    0 -0.13558315363E+03  0.76153914464E+03  0.85325460795E+03  0.11516901390E+04  0.46999998093E+01 0.  1.
       -5    1    3    3    0  502  0.13558315363E+03 -0.76153914464E+03 -0.12700717735E+04  0.14870874420E+04  0.46999998093E+01 0. -1.
</event>
<event>
 5   0  0.5942229E-06  0.2583488E+04  0.7818609E-02  0.8373832E-01
        2   -1    0    0  501    0  0.00000000000E+00  0.00000000000E+00  0.13591334478E+04  0.13591334478E+04  0.25500000920E-02 0. -1.
       -2   -1    0    0    0  501  0.00000000000E+00  0.00000000000E+00 -0.12276960557E+04  0.12276960557E+04  0.25500000920E-02 0.  1.
    10030    2    1    2    0    0  0.00000000000E+00  0.00000000000E+00  0.13143739206E+03  0.25868295035E+04  0.25834881637E+04 0.  0.
        4    1    3    3  502    0  0.13556907445E+03 -0.11147045549E+04  0.70502386756E+03  0.13258979921E+04  0.12699999809E+01 0. -1.
       -4    1    3    3    0  502 -0.13556907445E+03  0.11147045549E+04 -0.57358647550E+03  0.12609315114E+04  0.12699999809E+01 0.  1.
</event>
<event>
 5   0  0.2471488E-06  0.2606857E+04  0.7818609E-02  0.8365876E-01
       -1   -1    0    0    0  501  0.00000000000E+00  0.00000000000E+00  0.11106012860E+04  0.11106012860E+04  0.50400001928E-02 0.  1.
        1   -1    0    0  501    0  0.00000000000E+00  0.00000000000E+00 -0.15297353631E+04  0.15297353631E+04  0.50400001928E-02 0. -1.
    10030    2    1    2    0    0  0.00000000000E+00  0.00000000000E+00 -0.41913407704E+03  0.26403366491E+04  0.26068571587E+04 0.  0.
        4    1    3    3  502    0 -0.99026856109E+03  0.82779490506E+03 -0.25440618171E+02  0.12909396058E+04  0.12699999809E+01 0.  1.
       -4    1    3    3    0  502  0.99026856109E+03 -0.82779490506E+03 -0.39369345887E+03  0.13493970433E+04  0.12699999809E+01 0. -1.
</event>
<event>
 5   0  0.6173140E-06  0.2603917E+04  0.7818609E-02  0.8366872E-01
       -2   -1    0    0    0  501  0.00000000000E+00  0.00000000000E+00  0.21047623903E+04  0.21047623903E+04  0.25500000920E-02 0.  1.
        2   -1    0    0  501    0  0.00000000000E+00  0.00000000000E+00 -0.80536207344E+03  0.80536207344E+03  0.25500000920E-02 0. -1.
    10030    2    1    2    0    0  0.00000000000E+00  0.00000000000E+00  0.12994003168E+04  0.29101244637E+04  0.26039168979E+04 0.  0.
        3    1    3    3  502    0  0.18426184616E+03  0.25045527805E+03 -0.76325795492E+03  0.82416199270E+03  0.10100000352E+00 0. -1.
       -3    1    3    3    0  502 -0.18426184616E+03 -0.25045527805E+03  0.20626582718E+04  0.20859624710E+04  0.10100000352E+00 0.  1.
</event>
<event>
 5   0  0.5940748E-06  0.2592806E+04  0.7818609E-02  0.8370649E-01
        2   -1    0    0  501    0  0.00000000000E+00  0.00000000000E+00  0.15845650061E+04  0.15845650061E+04  0.25500000920E-02 0. -1.
       -2   -1    0    0    0  501  0.00000000000E+00  0.00000000000E+00 -0.10606447063E+04  0.10606447063E+04  0.25500000920E-02 0.  1.
    10030    2    1    2    0    0  0.00000000000E+00  0.00000000000E+00  0.52392029982E+03  0.26452097124E+04  0.25928058049E+04 0.  0.
        1    1    3    3  502    0 -0.51072547721E+03 -0.77435763150E+03 -0.66198760475E+03  0.11396042486E+04  0.50400001928E-02 0.  1.
       -1    1    3    3    0  502  0.51072547721E+03  0.77435763150E+03  0.11859079046E+04  0.15056054638E+04  0.50400001928E-02 0. -1.
</event>
<event>
 5   0  0.2471488E-06  0.2590396E+04  0.7818609E-02  0.8371471E-01
        1   -1    0    0  501    0  0.00000000000E+00  0.00000000000E+00  0.13329934874E+04  0.13329934874E+04  0.50400001928E-02 0. -1.
       -1   -1    0    0    0  501  0.00000000000E+00  0.00000000000E+00 -0.12584745853E+04  0.12584745853E+04  0.50400001928E-02 0.  1.
    10030    2    1    2    0    0  0.00000000000E+00  0.00000000000E+00  0.74518902139E+02  0.25914680727E+04  0.25903964379E+04 0.  0.
        4    1    3    3  502    0  0.44344911081E+01 -0.96459329011E+03  0.90195314580E+03  0.13205987165E+04  0.12699999809E+01 0. -1.
       -4    1    3    3    0  502 -0.44344911081E+01  0.96459329011E+03 -0.82743424366E+03  0.12708693562E+04  0.12699999809E+01 0.  1.
</event>
<event>
 5   0  0.5940748E-06  0.2604798E+04  0.7818609E-02  0.8366573E-01
        2   -1    0    0  501    0  0.00000000000E+00  0.00000000000E+00  0.15814808987E+04  0.15814808987E+04  0.25500000920E-02 0. -1.
       -2   -1    0    0    0  501  0.00000000000E+00  0.00000000000E+00 -0.10725659920E+04  0.10725659920E+04  0.25500000920E-02 0.  1.
    10030    2    1    2    0    0  0.00000000000E+00  0.00000000000E+00  0.50891490670E+03  0.26540468907E+04  0.26047975960E+04 0.  0.
        1    1    3    3  502    0 -0.12057465488E+04  0.38278806756E+03  0.56997531555E+03  0.13875241637E+04  0.50400001928E-02 0. -1.
       -1    1    3    3    0  502  0.12057465488E+04 -0.38278806756E+03 -0.61060408856E+02  0.12665227270E+04  0.50400001928E-02 0.  1.
</event>
<event>
 5   0  0.5940748E-06  0.2598976E+04  0.7818609E-02  0.8368549E-01
        2   -1    0    0  501    0  0.00000000000E+00  0.00000000000E+00  0.11118585258E+04  0.11118585258E+04  0.25500000920E-02 0. -1.
       -2   -1    0    0    0  501  0.00000000000E+00  0.00000000000E+00 -0.15187810522E+04  0.15187810522E+04  0.25500000920E-02 0.  1.
    10030    2    1    2    0    0  0.00000000000E+00  0.00000000000E+00 -0.40692252647E+03  0.26306395780E+04  0.25989764614E+04 0.  0.
        1    1    3    3  502    0  0.31841981599E+03  0.15924697782E+03  0.10615320833E+04  0.11196433106E+04  0.50400001928E-02 0. -1.
       -1    1    3    3    0  502 -0.31841981599E+03 -0.15924697782E+03 -0.14684546097E+04  0.15109962674E+04  0.50400001928E-02 0.  1.
</event>
<event>
 5   0  0.2503292E-06  0.2606902E+04  0.7818609E-02  0.8365861E-01
       -1   -1    0    0    0  501  0.00000000000E+00  0.00000000000E+00  0.75100009348E+03  0.75100009350E+03  0.50400001928E-02 0. -1.
        1   -1    0    0  501    0  0.00000000000E+00  0.00000000000E+00 -0.22622961166E+04  0.22622961166E+04  0.50400001928E-02 0.  1.
    10030    2    1    2    0    0  0.00000000000E+00  0.00000000000E+00 -0.15112960231E+04  0.30132962101E+04  0.26069020657E+04 0.  0.
        2    1    3    3  502    0 -0.92911250316E+03 -0.25908644676E+03 -0.17690220535E+04  0.20148982248E+04  0.25500000920E-02 0.  1.
       -2    1    3    3    0  502  0.92911250316E+03  0.25908644676E+03  0.25772603037E+03  0.99839798535E+03  0.25500000920E-02 0. -1.
</event>
<event>
 5   0  0.5940748E-06  0.2600024E+04  0.7818609E-02  0.8368193E-01
        2   -1    0    0  501    0  0.00000000000E+00  0.00000000000E+00  0.13148891972E+04  0.13148891972E+04  0.25500000920E-02 0.  1.
       -2   -1    0    0    0  501  0.00000000000E+00  0.00000000000E+00 -0.12853026619E+04  0.12853026619E+04  0.25500000920E-02 0. -1.
    10030    2    1    2    0    0  0.00000000000E+00  0.00000000000E+00  0.29586535236E+02  0.26001918591E+04  0.26000235271E+04 0.  0.
        1    1    3    3  502    0  0.50781165982E+03 -0.42272016655E+03  0.11344485157E+04  0.13128360354E+04  0.50400001928E-02 0.  1.
       -1    1    3    3    0  502 -0.50781165982E+03  0.42272016655E+03 -0.11048619804E+04  0.12873558237E+04  0.50400001928E-02 0. -1.
</event>
<event>
 5   0  0.2471488E-06  0.2602103E+04  0.7818609E-02  0.8367487E-01
       -1   -1    0    0    0  501  0.00000000000E+00  0.00000000000E+00  0.11915444609E+04  0.11915444609E+04  0.50400001928E-02 0. -1.
        1   -1    0    0  501    0  0.00000000000E+00  0.00000000000E+00 -0.14206225621E+04  0.14206225621E+04  0.50400001928E-02 0.  1.
    10030    2    1    2    0    0  0.00000000000E+00  0.00000000000E+00 -0.22907810118E+03  0.26121670230E+04  0.26021029533E+04 0.  0.
        4    1    3    3  502    0  0.77998435744E+03  0.10035382014E+04 -0.39358683956E+03  0.13305550468E+04  0.12699999809E+01 0.  1.
       -4    1    3    3    0  502 -0.77998435744E+03 -0.10035382014E+04  0.16450873838E+03  0.12816119762E+04  0.12699999809E+01 0. -1.
</event>
<event>
 5   0  0.2503292E-06  0.2602230E+04  0.7818609E-02  0.8367444E-01
       -1   -1    0    0    0  501  0.00000000000E+00  0.00000000000E+00  0.13605653245E+04  0.13605653245E+04  0.50400001928E-02 0.  1.
        1   -1    0    0  501    0  0.00000000000E+00  0.00000000000E+00 -0.12442624344E+04  0.12442624345E+04  0.50400001928E-02 0. -1.
    10030    2    1    2    0    0  0.00000000000E+00  0.00000000000E+00  0.11630289001E+03  0.26048277589E+04  0.26022300612E+04 0.  0.
        2    1    3    3  502    0  0.50832787054E+03  0.11962691931E+04  0.11688809586E+03  0.13050364107E+04  0.25500000920E-02 0. -1.
       -2    1    3    3    0  502 -0.50832787054E+03 -0.11962691931E+04 -0.58520584875E+00  0.12997913482E+04  0.25500000920E-02 0.  1.
</event>
<event>
 5   0  0.2440590E-06  0.2594041E+04  0.7818609E-02  0.8370228E-01
       -1   -1    0    0    0  501  0.00000000000E+00  0.00000000000E+00  0.65001578970E+03  0.65001578972E+03  0.50400001928E-02 0. -1.
        1   -1    0    0  501    0  0.00000000000E+00  0.00000000000E+00 -0.25880334073E+04  0.25880334073E+04  0.50400001928E-02 0.  1.
    10030    2    1    2    0    0  0.00000000000E+00  0.00000000000E+00 -0.19380176176E+04  0.32380491970E+04  0.25940413096E+04 0.  0.
        1    1    3    3  502    0  0.11624297531E+04 -0.47454336505E+03 -0.13750848321E+04  0.18620667635E+04  0.50400001928E-02 0. -1.
       -1    1    3    3    0  502 -0.11624297531E+04  0.47454336505E+03 -0.56293278547E+03  0.13759824335E+04  0.50400001928E-02 0.  1.
</event>
<event>
 5   0  0.5940748E-06  0.2587592E+04  0.7818609E-02  0.8372428E-01
       -2   -1    0    0    0  501  0.00000000000E+00  0.00000000000E+00  0.26551496623E+04  0.26551496623E+04  0.25500000920E-02 0.  1.
        2   -1    0    0  501    0  0.00000000000E+00  0.00000000000E+00 -0.63043814467E+03  0.63043814468E+03  0.25500000920E-02 0. -1.
    10030    2    1    2    0    0  0.00000000000E+00  0.00000000000E+00  0.20247115177E+04  0.32855878070E+04  0.25875916424E+04 0.  0.
        1    1    3    3  502    0  0.75870646653E+03  0.51854433028E+03 -0.14400977624E+03  0.93019489383E+03  0.50400001928E-02 0. -1.
       -1    1    3    3    0  502 -0.75870646653E+03 -0.51854433028E+03  0.21687212939E+04  0.23553929132E+04  0.50400001928E-02 0.  1.
</event>
<event>
 5   0  0.2440590E-06  0.2612987E+04  0.7818609E-02  0.8363803E-01
       -1   -1    0    0    0  501  0.00000000000E+00  0.00000000000E+00  0.16456058334E+04  0.16456058335E+04  0.50400001928E-02 0.  1.
        1   -1    0    0  501    0  0.00000000000E+00  0.00000000000E+00 -0.10372622474E+04  0.10372622474E+04  0.50400001928E-02 0. -1.
    10030    2    1    2    0    0  0.00000000000E+00  0.00000000000E+00  0.60834358609E+03  0.26828680808E+04  0.26129866476E+04 0.  0.
        1    1    3    3  502    0 -0.54229326609E+03  0.40045023229E+03 -0.84490207774E+03  0.10808801488E+04  0.50400001928E-02 0. -1.
       -1    1    3    3    0  502  0.54229326609E+03 -0.40045023229E+03  0.14532456638E+04  0.16019879321E+04  0.50400001928E-02 0.  1.
</event>
<event>
 5   0  0.2471488E-06  0.2603189E+04  0.7818609E-02  0.8367119E-01
       -1   -1    0    0    0  501  0.00000000000E+00  0.00000000000E+00  0.96136159661E+03  0.96136159662E+03  0.50400001928E-02 0. -1.
        1   -1    0    0  501    0  0.00000000000E+00  0.00000000000E+00 -0.17622376598E+04  0.17622376598E+04  0.50400001928E-02 0.  1.
    10030    2    1    2    0    0  0.00000000000E+00  0.00000000000E+00 -0.80087606317E+03  0.27235992564E+04  0.26031885143E+04 0.  0.
        4    1    3    3  502    0  0.41630591491E+03  0.20409295190E+03  0.87203419883E+03  0.98762837375E+03  0.12699999809E+01 0. -1.
       -4    1    3    3    0  502 -0.41630591491E+03 -0.20409295190E+03 -0.16729102620E+04  0.17359708827E+04  0.12699999809E+01 0.  1.
</event>
<event>
 5   0  0.6158063E-06  0.2594740E+04  0.7818609E-02  0.8369990E-01
       -2   -1    0    0    0  501  0.00000000000E+00  0.00000000000E+00  0.82012333247E+03  0.82012333247E+03  0.25500000920E-02 0.  1.
        2   -1    0    0  501    0  0.00000000000E+00  0.00000000000E+00 -0.20523367161E+04  0.20523367161E+04  0.25500000920E-02 0. -1.
    10030    2    1    2    0    0  0.00000000000E+00  0.00000000000E+00 -0.12322133836E+04  0.28724600485E+04  0.25947402390E+04 0.  0.
        2    1    3    3  502    0 -0.10693857277E+04  0.59869379857E+03 -0.10872773463E+04  0.16383504286E+04  0.25500000920E-02 0. -1.
       -2    1    3    3    0  502  0.10693857277E+04 -0.59869379857E+03 -0.14493603730E+03  0.12341096199E+04  0.25500000920E-02 0.  1.
</event>
<event>
 5   0  0.6158063E-06  0.2600465E+04  0.7818609E-02  0.8368043E-01
        2   -1    0    0  501    0  0.00000000000E+00  0.00000000000E+00  0.12998901194E+04  0.12998901194E+04  0.25500000920E-02 0. -1.
       -2   -1    0    0    0  501  0.00000000000E+00  0.00000000000E+00 -0.13005746448E+04  0.13005746449E+04  0.25500000920E-02 0.  1.
    10030    2    1    2    0    0  0.00000000000E+00  0.00000000000E+00 -0.68452541244E+00  0.26004647643E+04  0.26004646742E+04 0.  0.
        2    1    3    3  502    0  0.54015041088E+03 -0.11910290283E+02 -0.11830087017E+04  0.13005436977E+04  0.25500000920E-02 0.  1.
       -2    1    3    3    0  502 -0.54015041088E+03  0.11910290283E+02  0.11823241763E+04  0.12999210666E+04  0.25500000920E-02 0. -1.
</event>
<event>
 5   0  0.6161834E-06  0.2601781E+04  0.7818609E-02  0.8367597E-01
       -2   -1    0    0    0  501  0.00000000000E+00  0.00000000000E+00  0.11527364547E+04  0.11527364547E+04  0.25500000920E-02 0. -1.
        2   -1    0    0  501    0  0.00000000000E+00  0.00000000000E+00 -0.14680854537E+04  0.14680854537E+04  0.25500000920E-02 0.  1.
    10030    2    1    2    0    0  0.00000000000E+00  0.00000000000E+00 -0.31534899895E+03  0.26208219084E+04  0.26017806373E+04 0.  0.
        5    1    3    3  502    0  0.52300289751E+03 -0.11905667341E+04 -0.12118297373E+03  0.13060201308E+04  0.46999998093E+01 0.  1.
       -5    1    3    3    0  502 -0.52300289751E+03  0.11905667341E+04 -0.19416602522E+03  0.13148017776E+04  0.46999998093E+01 0. -1.
</event>
<event>
 5   0  0.5940748E-06  0.2611545E+04  0.7818609E-02  0.8364290E-01
        2   -1    0    0  501    0  0.00000000000E+00  0.00000000000E+00  0.13189750606E+04  0.13189750606E+04  0.25500000920E-02 0.  1.
       -2   -1    0    0    0  501  0.00000000000E+00  0.00000000000E+00 -0.12927021218E+04  0.12927021218E+04  0.25500000920E-02 0. -1.
    10030    2    1    2    0    0  0.00000000000E+00  0.00000000000E+00  0.26272938827E+02  0.26116771824E+04  0.26115450288E+04 0.  0.
        1    1    3    3  502    0  0.22940191818E+03 -0.72583841823E+02 -0.12703411941E+04  0.12929270681E+04  0.50400001928E-02 0. -1.
       -1    1    3    3    0  502 -0.22940191818E+03  0.72583841823E+02  0.12966141329E+04  0.13187501142E+04  0.50400001928E-02 0.  1.
</event>
<event>
 5   0  0.2333979E-06  0.2602033E+04  0.7818609E-02  0.8367511E-01
       -1   -1    0    0    0  501  0.00000000000E+00  0.00000000000E+00  0.91336882411E+03  0.91336882412E+03  0.50400001928E-02 0. -1.
        1   -1    0    0  501    0  0.00000000000E+00  0.00000000000E+00 -0.18531873166E+04  0.18531873166E+04  0.50400001928E-02 0.  1.
    10030    2    1    2    0    0  0.00000000000E+00  0.00000000000E+00 -0.93981849244E+03  0.27665561407E+04  0.26020326825E+04 0.  0.
        3    1    3    3  502    0  0.61048588377E+03  0.99643411556E+03  0.13815125975E+03  0.11767156588E+04  0.10100000352E+00 0. -1.
       -3    1    3    3    0  502 -0.61048588377E+03 -0.99643411556E+03 -0.10779697522E+04  0.15898404819E+04  0.10100000352E+00 0.  1.
</event>
<event>
 5   0  0.5942229E-06  0.2502653E+04  0.7818609E-02  0.8402041E-01
        2   -1    0    0  501    0  0.00000000000E+00  0.00000000000E+00  0.11676625670E+04  0.11676625670E+04  0.25500000920E-02 0. -1.
       -2   -1    0    0    0  501  0.00000000000E+00  0.00000000000E+00 -0.13409851554E+04  0.13409851554E+04  0.25500000920E-02 0.  1.
    10030    2    1    2    0    0  0.00000000000E+00  0.00000000000E+00 -0.17332258842E+03  0.25086477225E+04  0.25026531273E+04 0.  0.
        4    1    3    3  502    0  0.10020686502E+03 -0.53306548288E+03  0.10436994545E+04  0.11762271843E+04  0.12699999809E+01 0. -1.
       -4    1    3    3    0  502 -0.10020686502E+03  0.53306548288E+03 -0.12170220429E+04  0.13324205382E+04  0.12699999809E+01 0.  1.
</event>
<event>
 5   0  0.6161834E-06  0.2535030E+04  0.7818609E-02  0.8390611E-01
       -2   -1    0    0    0  501  0.00000000000E+00  0.00000000000E+00  0.19805857157E+04  0.19805857157E+04  0.25500000920E-02 0. -1.
        2   -1    0    0  501    0  0.00000000000E+00  0.00000000000E+00 -0.81117115755E+03  0.81117115756E+03  0.25500000920E-02 0.  1.
    10030    2    1    2    0    0  0.00000000000E+00  0.00000000000E+00  0.11694145582E+04  0.27917568733E+04  0.25350297889E+04 0.  0.
        5    1    3    3  502    0 -0.12416691158E+04 -0.24533733622E+03  0.50969687526E+03  0.13644579863E+04  0.46999998093E+01 0.  1.
       -5    1    3    3    0  502  0.12416691158E+04  0.24533733622E+03  0.65971768290E+03  0.14272988870E+04  0.46999998093E+01 0. -1.
</event>
<event>
 5   0  0.5940748E-06  0.2608877E+04  0.7818609E-02  0.8365192E-01
       -2   -1    0    0    0  501  0.00000000000E+00  0.00000000000E+00  0.11521583551E+04  0.11521583551E+04  0.25500000920E-02 0.  1.
        2   -1    0    0  501    0  0.00000000000E+00  0.00000000000E+00 -0.14768452876E+04  0.14768452876E+04  0.25500000920E-02 0. -1.
    10030    2    1    2    0    0  0.00000000000E+00  0.00000000000E+00 -0.32468693247E+03  0.26290036428E+04  0.26088768751E+04 0.  0.
        1    1    3    3  502    0  0.17723926199E+02  0.14916549237E+03  0.11434134239E+04  0.11532383707E+04  0.50400001928E-02 0.  1.
       -1    1    3    3    0  502 -0.17723926199E+02 -0.14916549237E+03 -0.14681003564E+04  0.14757652720E+04  0.50400001928E-02 0. -1.
</event>
<event>
 5   0  0.2440590E-06  0.2578566E+04  0.7818609E-02  0.8375518E-01
       -1   -1    0    0    0  501  0.00000000000E+00  0.00000000000E+00  0.80919844748E+03  0.80919844750E+03  0.50400001928E-02 0. -1.
        1   -1    0    0  501    0  0.00000000000E+00  0.00000000000E+00 -0.20541946826E+04  0.20541946826E+04  0.50400001928E-02 0.  1.
    10030    2    1    2    0    0  0.00000000000E+00  0.00000000000E+00 -0.12449962352E+04  0.28633931301E+04  0.25785663831E+04 0.  0.
        1    1    3    3  502    0 -0.49206692680E+03 -0.56351126863E+03  0.54352455787E+03  0.92471279614E+03  0.50400001928E-02 0. -1.
       -1    1    3    3    0  502  0.49206692680E+03  0.56351126863E+03 -0.17885207930E+04  0.19386803340E+04  0.50400001928E-02 0.  1.
</event>
<event>
 5   0  0.2503292E-06  0.2502425E+04  0.7818609E-02  0.8402122E-01
        1   -1    0    0  501    0  0.00000000000E+00  0.00000000000E+00  0.90784499000E+03  0.90784499001E+03  0.50400001928E-02 0. -1.
       -1   -1    0    0    0  501  0.00000000000E+00  0.00000000000E+00 -0.17244499432E+04  0.17244499432E+04  0.50400001928E-02 0.  1.
    10030    2    1    2    0    0  0.00000000000E+00  0.00000000000E+00 -0.81660495323E+03  0.26322949332E+04  0.25024254167E+04 0.  0.
        2    1    3    3  502    0  0.10243509382E+04 -0.34044176209E+03 -0.10738617001E+04  0.15226208947E+04  0.25500000920E-02 0.  1.
       -2    1    3    3    0  502 -0.10243509382E+04  0.34044176209E+03  0.25725674683E+03  0.11096740386E+04  0.25500000920E-02 0. -1.
</event>
<event>
 5   0  0.2503292E-06  0.2629033E+04  0.7818609E-02  0.8358406E-01
        1   -1    0    0  501    0  0.00000000000E+00  0.00000000000E+00  0.16172791549E+04  0.16172791549E+04  0.50400001928E-02 0.  1.
       -1   -1    0    0    0  501  0.00000000000E+00  0.00000000000E+00 -0.10684322354E+04  0.10684322354E+04  0.50400001928E-02 0. -1.
    10030    2    1    2    0    0  0.00000000000E+00  0.00000000000E+00  0.54884691953E+03  0.26857113903E+04  0.26290326606E+04 0.  0.
        2    1    3    3  502    0 -0.15378827482E+03 -0.12970099308E+04  0.42617768737E+03  0.13738679032E+04  0.25500000920E-02 0. -1.
       -2    1    3    3    0  502  0.15378827482E+03  0.12970099308E+04  0.12266923216E+03  0.13118434871E+04  0.25500000920E-02 0.  1.
</event>
<event>
 5   0  0.6158063E-06  0.2603099E+04  0.7818609E-02  0.8367149E-01
       -2   -1    0    0    0  501  0.00000000000E+00  0.00000000000E+00  0.65805094469E+03  0.65805094470E+03  0.25500000920E-02 0.  1.
        2   -1    0    0  501    0  0.00000000000E+00  0.00000000000E+00 -0.25743163714E+04  0.25743163714E+04  0.25500000920E-02 0. -1.
    10030    2    1    2    0    0  0.00000000000E+00  0.00000000000E+00 -0.19162654267E+04  0.32323673161E+04  0.26030991684E+04 0.  0.
        2    1    3    3  502    0 -0.80106499847E+03 -0.93157809168E+03 -0.14914855159E+04  0.19323746833E+04  0.25500000920E-02 0.  1.
       -2    1    3    3    0  502  0.80106499847E+03  0.93157809168E+03 -0.42477991085E+03  0.12999926328E+04  0.25500000920E-02 0. -1.
</event>
<event>
 5   0  0.5942229E-06  0.2602422E+04  0.7818609E-02  0.8367379E-01
       -2   -1    0    0    0  501  0.00000000000E+00  0.00000000000E+00  0.11670992876E+04  0.11670992876E+04  0.25500000920E-02 0. -1.
        2   -1    0    0  501    0  0.00000000000E+00  0.00000000000E+00 -0.14507330999E+04  0.14507331000E+04  0.25500000920E-02 0.  1.
    10030    2    1    2    0    0  0.00000000000E+00  0.00000000000E+00 -0.28363381237E+03  0.26178323875E+04  0.26024216164E+04 0.  0.
        4    1    3    3  502    0  0.86528309293E+03  0.97071966284E+03 -0.18831247240E+03  0.13139538405E+04  0.12699999809E+01 0.  1.
       -4    1    3    3    0  502 -0.86528309293E+03 -0.97071966284E+03 -0.95321339974E+02  0.13038785471E+04  0.12699999809E+01 0. -1.
</event>
<event>
 5   0  0.6161834E-06  0.2583113E+04  0.7818609E-02  0.8373960E-01
       -2   -1    0    0    0  501  0.00000000000E+00  0.00000000000E+00  0.11643217434E+04  0.11643217434E+04  0.25500000920E-02 0.  1.
        2   -1    0    0  501    0  0.00000000000E+00  0.00000000000E+00 -0.14326947487E+04  0.14326947487E+04  0.25500000920E-02 0. -1.
    10030    2    1    2    0    0  0.00000000000E+00  0.00000000000E+00 -0.26837300526E+03  0.25970164921E+04  0.25831125779E+04 0.  0.
        5    1    3    3  502    0 -0.56163014837E+03  0.11334385812E+04 -0.39632759377E+03  0.13255976360E+04  0.46999998093E+01 0.  1.
       -5    1    3    3    0  502  0.56163014837E+03 -0.11334385812E+04  0.12795458851E+03  0.12714188561E+04  0.46999998093E+01 0. -1.
</event>
<event>
 5   0  0.2440590E-06  0.2591908E+04  0.7818609E-02  0.8370955E-01
       -1   -1    0    0    0  501  0.00000000000E+00  0.00000000000E+00  0.98425082575E+03  0.98425082576E+03  0.50400001928E-02 0. -1.
        1   -1    0    0  501    0  0.00000000000E+00  0.00000000000E+00 -0.17063709385E+04  0.17063709385E+04  0.50400001928E-02 0.  1.
    10030    2    1    2    0    0  0.00000000000E+00  0.00000000000E+00 -0.72212011273E+03  0.26906217642E+04  0.25919081814E+04 0.  0.
        1    1    3    3  502    0  0.22333170532E+03  0.49548733221E+03  0.86022964749E+03  0.10175361386E+04  0.50400001928E-02 0. -1.
       -1    1    3    3    0  502 -0.22333170532E+03 -0.49548733221E+03 -0.15823497602E+04  0.16730856256E+04  0.50400001928E-02 0.  1.
</event>
<event>
 5   0  0.2471488E-06  0.2601942E+04  0.7818609E-02  0.8367542E-01
        1   -1    0    0  501    0  0.00000000000E+00  0.00000000000E+00  0.12447490934E+04  0.12447490934E+04  0.50400001928E-02 0. -1.
       -1   -1    0    0    0  501  0.00000000000E+00  0.00000000000E+00 -0.13597323836E+04  0.13597323836E+04  0.50400001928E-02 0.  1.
    10030    2    1    2    0    0  0.00000000000E+00  0.00000000000E+00 -0.11498329018E+03  0.26044814770E+04  0.26019420837E+04 0.  0.
        4    1    3    3  502    0  0.68601265638E+03  0.83821974545E+02 -0.11607853807E+04  0.13509492223E+04  0.12699999809E+01 0.  1.
       -4    1    3    3    0  502 -0.68601265638E+03 -0.83821974545E+02  0.10458020905E+04  0.12535322547E+04  0.12699999809E+01 0. -1.
</event>
<event>
 5   0  0.6158063E-06  0.2621652E+04  0.7818609E-02  0.8360884E-01
       -2   -1    0    0    0  501  0.00000000000E+00  0.00000000000E+00  0.11541325809E+04  0.11541325809E+04  0.25500000920E-02 0.  1.
        2   -1    0    0  501    0  0.00000000000E+00  0.00000000000E+00 -0.14887931498E+04  0.14887931498E+04  0.25500000920E-02 0. -1.
    10030    2    1    2    0    0  0.00000000000E+00  0.00000000000E+00 -0.33466056885E+03  0.26429257307E+04  0.26216519070E+04 0.  0.
        2    1    3    3  502    0  0.36985707548E+02 -0.12340799034E+04  0.27663353565E+03  0.12652459301E+04  0.25500000920E-02 0.  1.
       -2    1    3    3    0  502 -0.36985707548E+02  0.12340799034E+04 -0.61129410450E+03  0.13776798005E+04  0.25500000920E-02 0. -1.
</event>
<event>
 5   0  0.5940748E-06  0.2608038E+04  0.7818609E-02  0.8365476E-01
       -2   -1    0    0    0  501  0.00000000000E+00  0.00000000000E+00  0.10746175672E+04  0.10746175672E+04  0.25500000920E-02 0. -1.
        2   -1    0    0  501    0  0.00000000000E+00  0.00000000000E+00 -0.15823915978E+04  0.15823915978E+04  0.25500000920E-02 0.  1.
    10030    2    1    2    0    0  0.00000000000E+00  0.00000000000E+00 -0.50777403063E+03  0.26570091650E+04  0.26080381969E+04 0.  0.
        1    1    3    3  502    0  0.64513380448E+03  0.39783246443E+03  0.82716806120E+03  0.11219069912E+04  0.50400001928E-02 0. -1.
       -1    1    3    3    0  502 -0.64513380448E+03 -0.39783246443E+03 -0.13349420918E+04  0.15351021738E+04  0.50400001928E-02 0.  1.
</event>
<event>
 5   0  0.5940748E-06  0.2596191E+04  0.7818609E-02  0.8369496E-01
       -2   -1    0    0    0  501  0.00000000000E+00  0.00000000000E+00  0.10828845408E+04  0.10828845408E+04  0.25500000920E-02 0. -1.
        2   -1    0    0  501    0  0.00000000000E+00  0.00000000000E+00 -0.15560766826E+04  0.15560766826E+04  0.25500000920E-02 0.  1.
    10030    2    1    2    0    0  0.00000000000E+00  0.00000000000E+00 -0.47319214177E+03  0.26389612234E+04  0.25961905815E+04 0.  0.
        1    1    3    3  502    0  0.22476606637E+03  0.61557277969E+03 -0.13755925859E+04  0.15237140789E+04  0.50400001928E-02 0.  1.
       -1    1    3    3    0  502 -0.22476606637E+03 -0.61557277969E+03  0.90240044415E+03  0.11152471445E+04  0.50400001928E-02 0. -1.
</event>
<event>
 5   0  0.2503292E-06  0.2602786E+04  0.7818609E-02  0.8367256E-01
        1   -1    0    0  501    0  0.00000000000E+00  0.00000000000E+00  0.14890090325E+04  0.14890090325E+04  0.50400001928E-02 0.  1.
       -1   -1    0    0    0  501  0.00000000000E+00  0.00000000000E+00 -0.11374166456E+04  0.11374166456E+04  0.50400001928E-02 0. -1.
    10030    2    1    2    0    0  0.00000000000E+00  0.00000000000E+00  0.35159238684E+03  0.26264256781E+04  0.26027859374E+04 0.  0.
        2    1    3    3  502    0 -0.84554565826E+03 -0.25266087786E+03 -0.78936293674E+03  0.11840096390E+04  0.25500000920E-02 0. -1.
       -2    1    3    3    0  502  0.84554565826E+03  0.25266087786E+03  0.11409553236E+04  0.14424160391E+04  0.25500000920E-02 0.  1.
</event>
<event>
 5   0  0.6161834E-06  0.2648605E+04  0.7818609E-02  0.8351876E-01
        2   -1    0    0  501    0  0.00000000000E+00  0.00000000000E+00  0.13866635297E+04  0.13866635297E+04  0.25500000920E-02 0.  1.
       -2   -1    0    0    0  501  0.00000000000E+00  0.00000000000E+00 -0.12647464090E+04  0.12647464090E+04  0.25500000920E-02 0. -1.
    10030    2    1    2    0    0  0.00000000000E+00  0.00000000000E+00  0.12191712070E+03  0.26514099387E+04  0.26486054592E+04 0.  0.
        5    1    3    3  502    0  0.84007916978E+02  0.12124063194E+04  0.58760421099E+03  0.13499211875E+04  0.46999998093E+01 0. -1.
       -5    1    3    3    0  502 -0.84007916978E+02 -0.12124063194E+04 -0.46568709029E+03  0.13014887512E+04  0.46999998093E+01 0.  1.
</event>
<event>
 5   0  0.2471488E-06  0.2605251E+04  0.7818609E-02  0.8366420E-01
        1   -1    0    0  501    0  0.00000000000E+00  0.00000000000E+00  0.14296955502E+04  0.14296955502E+04  0.50400001928E-02 0. -1.
       -1   -1    0    0    0  501  0.00000000000E+00  0.00000000000E+00 -0.11868497207E+04  0.11868497207E+04  0.50400001928E-02 0.  1.
    10030    2    1    2    0    0  0.00000000000E+00  0.00000000000E+00  0.24284582949E+03  0.26165452709E+04  0.26052514385E+04 0.  0.
        4    1    3    3  502    0  0.59144878003E+03  0.56545161318E+03  0.11393673555E+04  0.14027497175E+04  0.12699999809E+01 0. -1.
       -4    1    3    3    0  502 -0.59144878003E+03 -0.56545161318E+03 -0.89652152596E+03  0.12137955535E+04  0.12699999809E+01 0.  1.
</event>
<event>
 5   0  0.2440590E-06  0.2601820E+04  0.7818609E-02  0.8367583E-01
        1   -1    0    0  501    0  0.00000000000E+00  0.00000000000E+00  0.19580765471E+04  0.19580765471E+04  0.50400001928E-02 0. -1.
       -1   -1    0    0    0  501  0.00000000000E+00  0.00000000000E+00 -0.86430078846E+03  0.86430078848E+03  0.50400001928E-02 0.  1.
    10030    2    1    2    0    0  0.00000000000E+00  0.00000000000E+00  0.10937757587E+04  0.28223773356E+04  0.26018202118E+04 0.  0.
        1    1    3    3  502    0  0.67546705637E+03 -0.11115815478E+04  0.57109119068E+03  0.14205683474E+04  0.50400001928E-02 0.  1.
       -1    1    3    3    0  502 -0.67546705637E+03  0.11115815478E+04  0.52268456799E+03  0.14018089882E+04  0.50400001928E-02 0. -1.
</event>
<event>
 5   0  0.2440590E-06  0.2578489E+04  0.7818609E-02  0.8375545E-01
        1   -1    0    0  501    0  0.00000000000E+00  0.00000000000E+00  0.94428482726E+03  0.94428482727E+03  0.50400001928E-02 0.  1.
       -1   -1    0    0    0  501  0.00000000000E+00  0.00000000000E+00 -0.17602231289E+04  0.17602231289E+04  0.50400001928E-02 0. -1.
    10030    2    1    2    0    0  0.00000000000E+00  0.00000000000E+00 -0.81593830166E+03  0.27045079562E+04  0.25784894751E+04 0.  0.
        1    1    3    3  502    0 -0.26735041782E+03  0.30869720987E+03  0.87465361097E+03  0.96529226274E+03  0.50400001928E-02 0.  1.
       -1    1    3    3    0  502  0.26735041782E+03 -0.30869720987E+03 -0.16905919126E+04  0.17392156935E+04  0.50400001928E-02 0. -1.
</event>
<event>
 5   0  0.2503292E-06  0.2589542E+04  0.7818609E-02  0.8371762E-01
       -1   -1    0    0    0  501  0.00000000000E+00  0.00000000000E+00  0.12845662456E+04  0.12845662456E+04  0.50400001928E-02 0. -1.
        1   -1    0    0  501    0  0.00000000000E+00  0.00000000000E+00 -0.13050569694E+04  0.13050569695E+04  0.50400001928E-02 0.  1.
    10030    2    1    2    0    0  0.00000000000E+00  0.00000000000E+00 -0.20490723823E+02  0.25896232151E+04  0.25895421461E+04 0.  0.
        2    1    3    3  502    0 -0.43096751836E+03  0.11540571351E+04  0.38832860209E+03  0.12916578402E+04  0.25500000920E-02 0.  1.
       -2    1    3    3    0  502  0.43096751836E+03 -0.11540571351E+04 -0.40881932591E+03  0.12979653748E+04  0.25500000920E-02 0. -1.
</event>
<event>
 5   0  0.2333979E-06  0.2602535E+04  0.7818609E-02  0.8367341E-01
       -1   -1    0    0    0  501  0.00000000000E+00  0.00000000000E+00  0.14283637797E+04  0.14283637797E+04  0.50400001928E-02 0.  1.
        1   -1    0    0  501    0  0.00000000000E+00  0.00000000000E+00 -0.11854800347E+04  0.11854800347E+04  0.50400001928E-02 0. -1.
    10030    2    1    2    0    0  0.00000000000E+00  0.00000000000E+00  0.24288374502E+03  0.26138438144E+04  0.26025347207E+04 0.  0.
        3    1    3    3  502    0  0.22730421050E+03  0.12776456698E+04  0.24841429976E+02  0.12979455954E+04  0.10100000352E+00 0. -1.
       -3    1    3    3    0  502 -0.22730421050E+03 -0.12776456698E+04  0.21804231504E+03  0.13158982191E+04  0.10100000352E+00 0.  1.
</event>
<event>
 5   0  0.5940748E-06  0.2593451E+04  0.7818609E-02  0.8370429E-01
        2   -1    0    0  501    0  0.00000000000E+00  0.00000000000E+00  0.14433555408E+04  0.14433555408E+04  0.25500000920E-02 0.  1.
       -2   -1    0    0    0  501  0.00000000000E+00  0.00000000000E+00 -0.11649913425E+04  0.11649913425E+04  0.25500000920E-02 0. -1.
    10030    2    1    2    0    0  0.00000000000E+00  0.00000000000E+00  0.27836419829E+03  0.26083468832E+04  0.25934507584E+04 0.  0.
        1    1    3    3  502    0 -0.24654352089E+03 -0.60235661215E+03  0.12671762900E+04  0.14245535953E+04  0.50400001928E-02 0.  1.
       -1    1    3    3    0  502  0.24654352089E+03  0.60235661215E+03 -0.98881209169E+03  0.11837932880E+04  0.50400001928E-02 0. -1.
</event>
<event>
 5   0  0.2333979E-06  0.2585344E+04  0.7818609E-02  0.8373196E-01
        1   -1    0    0  501    0  0.00000000000E+00  0.00000000000E+00  0.12873000965E+04  0.12873000965E+04  0.50400001928E-02 0. -1.
       -1   -1    0    0    0  501  0.00000000000E+00  0.00000000000E+00 -0.12980666972E+04  0.12980666972E+04  0.50400001928E-02 0.  1.
    10030    2    1    2    0    0  0.00000000000E+00  0.00000000000E+00 -0.10766600704E+02  0.25853667937E+04  0.25853443752E+04 0.  0.
        3    1    3    3  502    0  0.10729457660E+04  0.37561290967E+03 -0.62077770032E+03  0.12952461689E+04  0.10100000352E+00 0.  1.
       -3    1    3    3    0  502 -0.10729457660E+04 -0.37561290967E+03  0.61001109961E+03  0.12901206248E+04  0.10100000352E+00 0. -1.
</event>
<event>
 5   0  0.5942229E-06  0.2668521E+04  0.7818609E-02  0.8345292E-01
        2   -1    0    0  501    0  0.00000000000E+00  0.00000000000E+00  0.14802150948E+04  0.14802150948E+04  0.25500000920E-02 0.  1.
       -2   -1    0    0    0  501  0.00000000000E+00  0.00000000000E+00 -0.12026977004E+04  0.12026977004E+04  0.25500000920E-02 0. -1.
    10030    2    1    2    0    0  0.00000000000E+00  0.00000000000E+00  0.27751739440E+03  0.26829127952E+04  0.26685211564E+04 0.  0.
        4    1    3    3  502    0  0.81217714900E+03  0.80276821237E+03 -0.55502167297E+03  0.12696925591E+04  0.12699999809E+01 0. -1.
       -4    1    3    3    0  502 -0.81217714900E+03 -0.80276821237E+03  0.83253906736E+03  0.14132202361E+04  0.12699999809E+01 0.  1.
</event>
<event>
 5   0  0.6173140E-06  0.2619765E+04  0.7818609E-02  0.8361518E-01
        2   -1    0    0  501    0  0.00000000000E+00  0.00000000000E+00  0.11146680581E+04  0.11146680581E+04  0.25500000920E-02 0. -1.
       -2   -1    0    0    0  501  0.00000000000E+00  0.00000000000E+00 -0.15392858143E+04  0.15392858143E+04  0.25500000920E-02 0.  1.
    10030    2    1    2    0    0  0.00000000000E+00  0.00000000000E+00 -0.42461775624E+03  0.26539538724E+04  0.26197654318E+04 0.  0.
        3    1    3    3  502    0 -0.12384329462E+04  0.34656502940E+03 -0.46449375509E+03  0.13673251042E+04  0.10100000352E+00 0.  1.
       -3    1    3    3    0  502  0.12384329462E+04 -0.34656502940E+03  0.39875998849E+02  0.12866287682E+04  0.10100000352E+00 0. -1.
</event>
<event>
 5   0  0.6158063E-06  0.2607419E+04  0.7818609E-02  0.8365686E-01
       -2   -1    0    0    0  501  0.00000000000E+00  0.00000000000E+00  0.87320632050E+03  0.87320632050E+03  0.25500000920E-02 0.  1.
        2   -1    0    0  501    0  0.00000000000E+00  0.00000000000E+00 -0.19464569138E+04  0.19464569138E+04  0.25500000920E-02 0. -1.
    10030    2    1    2    0    0  0.00000000000E+00  0.00000000000E+00 -0.10732505933E+04  0.28196632343E+04  0.26074190148E+04 0.  0.
        2    1    3    3  502    0  0.98166191175E+03  0.32371967136E+03  0.32252919622E+03  0.10828109794E+04  0.25500000920E-02 0.  1.
       -2    1    3    3    0  502 -0.98166191175E+03 -0.32371967136E+03 -0.13957797895E+04  0.17368522549E+04  0.25500000920E-02 0. -1.
</event>
<event>
 5   0  0.2456600E-06  0.2601244E+04  0.7818609E-02  0.8367779E-01
        1   -1    0    0  501    0  0.00000000000E+00  0.00000000000E+00  0.12985716556E+04  0.12985716556E+04  0.50400001928E-02 0.  1.
       -1   -1    0    0    0  501  0.00000000000E+00  0.00000000000E+00 -0.13026752375E+04  0.13026752375E+04  0.50400001928E-02 0. -1.
    10030    2    1    2    0    0  0.00000000000E+00  0.00000000000E+00 -0.41035818186E+01  0.26012468931E+04  0.26012436563E+04 0.  0.
        5    1    3    3  502    0  0.11238880717E+04 -0.58448279665E+03  0.29265268602E+03  0.13001585372E+04  0.46999998093E+01 0.  1.
       -5    1    3    3    0  502 -0.11238880717E+04  0.58448279665E+03 -0.29675626784E+03  0.13010883559E+04  0.46999998093E+01 0. -1.
</event>
<event>
 5   0  0.2440590E-06  0.2597932E+04  0.7818609E-02  0.8368904E-01
        1   -1    0    0  501    0  0.00000000000E+00  0.00000000000E+00  0.10880496134E+04  0.10880496134E+04  0.50400001928E-02 0.  1.
       -1   -1    0    0    0  501  0.00000000000E+00  0.00000000000E+00 -0.15507682738E+04  0.15507682738E+04  0.50400001928E-02 0. -1.
    10030    2    1    2    0    0  0.00000000000E+00  0.00000000000E+00 -0.46271866037E+03  0.26388178872E+04  0.25979321168E+04 0.  0.
        1    1    3    3  502    0  0.12084506111E+04  0.17970373967E+03  0.21679463042E+03  0.12408248165E+04  0.50400001928E-02 0.  1.
       -1    1    3    3    0  502 -0.12084506111E+04 -0.17970373967E+03 -0.67951329079E+03  0.13979930707E+04  0.50400001928E-02 0. -1.
</event>
<event>
 5   0  0.5942229E-06  0.2663698E+04  0.7818609E-02  0.8346881E-01
       -2   -1    0    0    0  501  0.00000000000E+00  0.00000000000E+00  0.24759775420E+04  0.24759775420E+04  0.25500000920E-02 0.  1.
        2   -1    0    0  501    0  0.00000000000E+00  0.00000000000E+00 -0.71641274645E+03  0.71641274646E+03  0.25500000920E-02 0. -1.
    10030    2    1    2    0    0  0.00000000000E+00  0.00000000000E+00  0.17595647955E+04  0.31923902885E+04  0.26636980843E+04 0.  0.
        4    1    3    3  502    0  0.22332080524E+02  0.11168551699E+04  0.17489543765E+04  0.20752607587E+04  0.12699999809E+01 0.  1.
       -4    1    3    3    0  502 -0.22332080524E+02 -0.11168551699E+04  0.10610419053E+02  0.11171295298E+04  0.12699999809E+01 0. -1.
</event>
<event>
 5   0  0.5942229E-06  0.2573025E+04  0.7818609E-02  0.8377422E-01
        2   -1    0    0  501    0  0.00000000000E+00  0.00000000000E+00  0.16242761397E+04  0.16242761397E+04  0.25500000920E-02 0. -1.
       -2   -1    0    0    0  501  0.00000000000E+00  0.00000000000E+00 -0.10189854747E+04  0.10189854748E+04  0.25500000920E-02 0.  1.
    10030    2    1    2    0    0  0.00000000000E+00  0.00000000000E+00  0.60529066491E+03  0.26432616144E+04  0.25730245186E+04 0.  0.
        4    1    3    3  502    0 -0.74070245144E+03  0.70419910688E+03 -0.50007816191E+03  0.11378120603E+04  0.12699999809E+01 0.  1.
       -4    1    3    3    0  502  0.74070245144E+03 -0.70419910688E+03  0.11053688268E+04  0.15054495541E+04  0.12699999809E+01 0. -1.
</event>
<event>
 5   0  0.6161834E-06  0.2607467E+04  0.7818609E-02  0.8365669E-01
        2   -1    0    0  501    0  0.00000000000E+00  0.00000000000E+00  0.10984118616E+04  0.10984118616E+04  0.25500000920E-02 0. -1.
       -2   -1    0    0    0  501  0.00000000000E+00  0.00000000000E+00 -0.15474351340E+04  0.15474351340E+04  0.25500000920E-02 0.  1.
    10030    2    1    2    0    0  0.00000000000E+00  0.00000000000E+00 -0.44902327237E+03  0.26458469956E+04  0.26074670516E+04 0.  0.
        5    1    3    3  502    0 -0.10113280655E+04 -0.38095411101E+03 -0.96448379177E+03  0.14485032155E+04  0.46999998093E+01 0.  1.
       -5    1    3    3    0  502  0.10113280655E+04  0.38095411101E+03  0.51546051940E+03  0.11973437801E+04  0.46999998093E+01 0. -1.
</event>
<event>
 5   0  0.6173140E-06  0.2605125E+04  0.7818609E-02  0.8366463E-01
       -2   -1    0    0    0  501  0.00000000000E+00  0.00000000000E+00  0.33260586972E+04  0.33260586972E+04  0.25500000920E-02 0.  1.
        2   -1    0    0  501    0  0.00000000000E+00  0.00000000000E+00 -0.51011391918E+03  0.51011391919E+03  0.25500000920E-02 0. -1.
    10030    2    1    2    0    0  0.00000000000E+00  0.00000000000E+00  0.28159447780E+04  0.38361726164E+04  0.26051248242E+04 0.  0.
        3    1    3    3  502    0 -0.20920523836E+03  0.59567170762E+03 -0.26974909755E+03  0.68655385867E+03  0.10100000352E+00 0. -1.
       -3    1    3    3    0  502  0.20920523836E+03 -0.59567170762E+03  0.30856938756E+04  0.31496187577E+04  0.10100000352E+00 0.  1.
</event>
<event>
 5   0  0.5942229E-06  0.2601156E+04  0.7818609E-02  0.8367809E-01
        2   -1    0    0  501    0  0.00000000000E+00  0.00000000000E+00  0.18451509593E+04  0.18451509593E+04  0.25500000920E-02 0. -1.
       -2   -1    0    0    0  501  0.00000000000E+00  0.00000000000E+00 -0.91672868776E+03  0.91672868776E+03  0.25500000920E-02 0.  1.
    10030    2    1    2    0    0  0.00000000000E+00  0.00000000000E+00  0.92842227157E+03  0.27618796471E+04  0.26011557567E+04 0.  0.
        4    1    3    3  502    0  0.74485289954E+03 -0.82460280001E+02  0.15928566567E+04  0.17603407288E+04  0.12699999809E+01 0. -1.
       -4    1    3    3    0  502 -0.74485289954E+03  0.82460280001E+02 -0.66443438517E+03  0.10015389183E+04  0.12699999809E+01 0.  1.
</event>
<event>
 5   0  0.2456600E-06  0.2595805E+04  0.7818609E-02  0.8369628E-01
        1   -1    0    0  501    0  0.00000000000E+00  0.00000000000E+00  0.10274872751E+04  0.10274872751E+04  0.50400001928E-02 0.  1.
       -1   -1    0    0    0  501  0.00000000000E+00  0.00000000000E+00 -0.16394854533E+04  0.16394854533E+04  0.50400001928E-02 0. -1.
    10030    2    1    2    0    0  0.00000000000E+00  0.00000000000E+00 -0.61199817819E+03  0.26669727284E+04  0.25958046467E+04 0.  0.
        5    1    3    3  502    0  0.69674180215E+03 -0.85016756837E+03  0.40306300574E+03  0.11707757726E+04  0.46999998093E+01 0.  1.
       -5    1    3    3    0  502 -0.69674180215E+03  0.85016756837E+03 -0.10150611839E+04  0.14961969557E+04  0.46999998093E+01 0. -1.
</event>
<event>
 5   0  0.2503292E-06  0.2585832E+04  0.7818609E-02  0.8373030E-01
        1   -1    0    0  501    0  0.00000000000E+00  0.00000000000E+00  0.14994708800E+04  0.14994708800E+04  0.50400001928E-02 0. -1.
       -1   -1    0    0    0  501  0.00000000000E+00  0.00000000000E+00 -0.11148140420E+04  0.11148140420E+04  0.50400001928E-02 0.  1.
    10030    2    1    2    0    0  0.00000000000E+00  0.00000000000E+00  0.38465683796E+03  0.26142849220E+04  0.25858315433E+04 0.  0.
        2    1    3    3  502    0  0.69392614498E+03  0.62035602676E+03  0.10995632183E+04  0.14406298503E+04  0.25500000920E-02 0. -1.
       -2    1    3    3    0  502 -0.69392614498E+03 -0.62035602676E+03 -0.71490638033E+03  0.11736550717E+04  0.25500000920E-02 0.  1.
</event>
<event>
 5   0  0.5942229E-06  0.2594790E+04  0.7818609E-02  0.8369973E-01
        2   -1    0    0  501    0  0.00000000000E+00  0.00000000000E+00  0.18583038071E+04  0.18583038071E+04  0.25500000920E-02 0.  1.
       -2   -1    0    0    0  501  0.00000000000E+00  0.00000000000E+00 -0.90579050442E+03  0.90579050442E+03  0.25500000920E-02 0. -1.
    10030    2    1    2    0    0  0.00000000000E+00  0.00000000000E+00  0.95251330270E+03  0.27640943115E+04  0.25947901209E+04 0.  0.
        4    1    3    3  502    0 -0.89845450099E+03  0.87955960043E+03  0.81711387152E+03  0.14995073434E+04  0.12699999809E+01 0.  1.
       -4    1    3    3    0  502  0.89845450099E+03 -0.87955960043E+03  0.13539943117E+03  0.12645869681E+04  0.12699999809E+01 0. -1.
</event>
<event>
 5   0  0.6173140E-06  0.2596286E+04  0.7818609E-02  0.8369464E-01
       -2   -1    0    0    0  501  0.00000000000E+00  0.00000000000E+00  0.79089389403E+03  0.79089389403E+03  0.25500000920E-02 0.  1.
        2   -1    0    0  501    0  0.00000000000E+00  0.00000000000E+00 -0.21307215015E+04  0.21307215015E+04  0.25500000920E-02 0. -1.
    10030    2    1    2    0    0  0.00000000000E+00  0.00000000000E+00 -0.13398276075E+04  0.29216153956E+04  0.25962855201E+04 0.  0.
        3    1    3    3  502    0 -0.27810533623E+02  0.50188593029E+03 -0.20167652049E+04  0.20784621273E+04  0.10100000352E+00 0. -1.
       -3    1    3    3    0  502  0.27810533623E+02 -0.50188593029E+03  0.67693759739E+03  0.84315326825E+03  0.10100000352E+00 0.  1.
</event>
<event>
 5   0  0.2072125E-06  0.2605295E+04  0.7818609E-02  0.8366405E-01
       -3   -1    0    0    0  501  0.00000000000E+00  0.00000000000E+00  0.10947638554E+04  0.10947638600E+04  0.10100000352E+00 0.  1.
        3   -1    0    0  501    0  0.00000000000E+00  0.00000000000E+00 -0.15500061794E+04  0.15500061827E+04  0.10100000352E+00 0. -1.
    10030    2    1    2    0    0  0.00000000000E+00  0.00000000000E+00 -0.45524232407E+03  0.26447700428E+04  0.26052951859E+04 0.  0.
        2    1    3    3  502    0  0.25677991661E+03  0.12768086765E+04 -0.25475496093E+03  0.13270555422E+04  0.25500000920E-02 0.  1.
       -2    1    3    3    0  502 -0.25677991661E+03 -0.12768086765E+04 -0.20048736314E+03  0.13177145005E+04  0.25500000920E-02 0. -1.
</event>
<event>
 5   0  0.6158063E-06  0.2599200E+04  0.7818609E-02  0.8368473E-01
       -2   -1    0    0    0  501  0.00000000000E+00  0.00000000000E+00  0.10207222535E+04  0.10207222535E+04  0.25500000920E-02 0.  1.
        2   -1    0    0  501    0  0.00000000000E+00  0.00000000000E+00 -0.16546721346E+04  0.16546721346E+04  0.25500000920E-02 0. -1.
    10030    2    1    2    0    0  0.00000000000E+00  0.00000000000E+00 -0.63394988106E+03  0.26753943881E+04  0.25992003924E+04 0.  0.
        2    1    3    3  502    0 -0.79241924749E+03  0.10211509079E+04 -0.17779568704E+03  0.13047178802E+04  0.25500000920E-02 0.  1.
       -2    1    3    3    0  502  0.79241924749E+03 -0.10211509079E+04 -0.45615419402E+03  0.13706765079E+04  0.25500000920E-02 0. -1.
</event>
<event>
 5   0  0.5942229E-06  0.2591841E+04  0.7818609E-02  0.8370978E-01
        2   -1    0    0  501    0  0.00000000000E+00  0.00000000000E+00  0.19332929890E+04  0.19332929890E+04  0.25500000920E-02 0. -1.
       -2   -1    0    0    0  501  0.00000000000E+00  0.00000000000E+00 -0.86867835733E+03  0.86867835733E+03  0.25500000920E-02 0.  1.
    10030    2    1    2    0    0  0.00000000000E+00  0.00000000000E+00  0.10646146317E+04  0.28019713463E+04  0.25918408731E+04 0.  0.
        4    1    3    3  502    0  0.36451019960E+03  0.12391206440E+04  0.41830394636E+03  0.13576698643E+04  0.12699999809E+01 0.  1.
       -4    1    3    3    0  502 -0.36451019960E+03 -0.12391206440E+04  0.64631068532E+03  0.14443014820E+04  0.12699999809E+01 0. -1.
</event>
<event>
 5   0  0.2440590E-06  0.2600853E+04  0.7818609E-02  0.8367912E-01
        1   -1    0    0  501    0  0.00000000000E+00  0.00000000000E+00  0.97242435164E+03  0.97242435165E+03  0.50400001928E-02 0.  1.
       -1   -1    0    0    0  501  0.00000000000E+00  0.00000000000E+00 -0.17390645534E+04  0.17390645534E+04  0.50400001928E-02 0. -1.
    10030    2    1    2    0    0  0.00000000000E+00  0.00000000000E+00 -0.76664020180E+03  0.27114889051E+04  0.26008527224E+04 0.  0.
        1    1    3    3  502    0  0.50849316059E+03 -0.35680650609E+03 -0.15743866241E+04  0.16925038905E+04  0.50400001928E-02 0. -1.
       -1    1    3    3    0  502 -0.50849316059E+03  0.35680650609E+03  0.80774642232E+03  0.10189850146E+04  0.50400001928E-02 0.  1.
</event>
<event>
 5   0  0.6158063E-06  0.2598769E+04  0.7818609E-02  0.8368620E-01
       -2   -1    0    0    0  501  0.00000000000E+00  0.00000000000E+00  0.93420435521E+03  0.93420435521E+03  0.25500000920E-02 0.  1.
        2   -1    0    0  501    0  0.00000000000E+00  0.00000000000E+00 -0.18073130661E+04  0.18073130661E+04  0.25500000920E-02 0. -1.
    10030    2    1    2    0    0  0.00000000000E+00  0.00000000000E+00 -0.87310871091E+03  0.27415174213E+04  0.25987687374E+04 0.  0.
        2    1    3    3  502    0 -0.40601824891E+03 -0.93209556058E+03 -0.12901654748E+04  0.16426137418E+04  0.25500000920E-02 0.  1.
       -2    1    3    3    0  502  0.40601824891E+03  0.93209556058E+03  0.41705676389E+03  0.10989036795E+04  0.25500000920E-02 0. -1.
</event>
<event>
 5   0  0.2456600E-06  0.2587802E+04  0.7818609E-02  0.8372356E-01
        1   -1    0    0  501    0  0.00000000000E+00  0.00000000000E+00  0.14470329467E+04  0.14470329467E+04  0.50400001928E-02 0. -1.
       -1   -1    0    0    0  501  0.00000000000E+00  0.00000000000E+00 -0.11569742397E+04  0.11569742397E+04  0.50400001928E-02 0.  1.
    10030    2    1    2    0    0  0.00000000000E+00  0.00000000000E+00  0.29005870699E+03  0.26040071864E+04  0.25878020352E+04 0.  0.
        5    1    3    3  502    0 -0.34002044226E+03 -0.35801200360E+03  0.13485000379E+04  0.14360574285E+04  0.46999998093E+01 0. -1.
       -5    1    3    3    0  502  0.34002044226E+03  0.35801200360E+03 -0.10584413309E+04  0.11679497578E+04  0.46999998093E+01 0.  1.
</event>
<event>
 5   0  0.2333979E-06  0.2604012E+04  0.7818609E-02  0.8366840E-01
        1   -1    0    0  501    0  0.00000000000E+00  0.00000000000E+00  0.10467275079E+04  0.10467275079E+04  0.50400001928E-02 0. -1.
       -1   -1    0    0    0  501  0.00000000000E+00  0.00000000000E+00 -0.16195426253E+04  0.16195426253E+04  0.50400001928E-02 0.  1.
    10030    2    1    2    0    0  0.00000000000E+00  0.00000000000E+00 -0.57281511742E+03  0.26662701332E+04  0.26040121475E+04 0.  0.
        3    1    3    3  502    0  0.10500811836E+04  0.63448934610E+03 -0.73268671815E+03  0.14290126170E+04  0.10100000352E+00 0. -1.
       -3    1    3    3    0  502 -0.10500811836E+04 -0.63448934610E+03  0.15987160073E+03  0.12372575162E+04  0.10100000352E+00 0.  1.
</event>
<event>
 5   0  0.6161834E-06  0.2596073E+04  0.7818609E-02  0.8369536E-01
        2   -1    0    0  501    0  0.00000000000E+00  0.00000000000E+00  0.17301689693E+04  0.17301689693E+04  0.25500000920E-02 0. -1.
       -2   -1    0    0    0  501  0.00000000000E+00  0.00000000000E+00 -0.97383490654E+03  0.97383490655E+03  0.25500000920E-02 0.  1.
    10030    2    1    2    0    0  0.00000000000E+00  0.00000000000E+00  0.75633406276E+03  0.27040038759E+04  0.25960731396E+04 0.  0.
        5    1    3    3  502    0  0.76661558619E+03  0.76245201324E+03  0.11262499032E+04  0.15612474064E+04  0.46999998093E+01 0. -1.
       -5    1    3    3    0  502 -0.76661558619E+03 -0.76245201324E+03 -0.36991584045E+03  0.11427564695E+04  0.46999998093E+01 0.  1.
</event>
<event>
 5   0  0.2456600E-06  0.2613320E+04  0.7818609E-02  0.8363691E-01
        1   -1    0    0  501    0  0.00000000000E+00  0.00000000000E+00  0.20640921452E+04  0.20640921452E+04  0.50400001928E-02 0. -1.
       -1   -1    0    0    0  501  0.00000000000E+00  0.00000000000E+00 -0.82717249985E+03  0.82717249987E+03  0.50400001928E-02 0.  1.
    10030    2    1    2    0    0  0.00000000000E+00  0.00000000000E+00  0.12369196454E+04  0.28912646451E+04  0.26133199266E+04 0.  0.
        5    1    3    3  502    0 -0.12286758960E+04  0.73127771788E+02  0.13324183565E+03  0.12380499203E+04  0.46999998093E+01 0. -1.
       -5    1    3    3    0  502  0.12286758960E+04 -0.73127771788E+02  0.11036778097E+04  0.16532147248E+04  0.46999998093E+01 0.  1.
</event>
<event>
 5   0  0.6173140E-06  0.2594349E+04  0.7818609E-02  0.8370123E-01
        2   -1    0    0  501    0  0.00000000000E+00  0.00000000000E+00  0.10975459515E+04  0.10975459515E+04  0.25500000920E-02 0.  1.
       -2   -1    0    0    0  501  0.00000000000E+00  0.00000000000E+00 -0.15331130590E+04  0.15331130590E+04  0.25500000920E-02 0. -1.
    10030    2    1    2    0    0  0.00000000000E+00  0.00000000000E+00 -0.43556710750E+03  0.26306590104E+04  0.25943492679E+04 0.  0.
        3    1    3    3  502    0 -0.38414351028E+03 -0.44039030487E+03 -0.13920729574E+04  0.15097605725E+04  0.10100000352E+00 0. -1.
       -3    1    3    3    0  502  0.38414351028E+03  0.44039030487E+03  0.95650584994E+03  0.11208984380E+04  0.10100000352E+00 0.  1.
</event>
<event>
 5   0  0.2440590E-06  0.2588614E+04  0.7818609E-02  0.8372079E-01
       -1   -1    0    0    0  501  0.00000000000E+00  0.00000000000E+00  0.92549233676E+03  0.92549233677E+03  0.50400001928E-02 0. -1.
        1   -1    0    0  501    0  0.00000000000E+00  0.00000000000E+00 -0.18100972812E+04  0.18100972812E+04  0.50400001928E-02 0.  1.
    10030    2    1    2    0    0  0.00000000000E+00  0.00000000000E+00 -0.88460494448E+03  0.27355896180E+04  0.25886144268E+04 0.  0.
        1    1    3    3  502    0  0.12348785150E+04 -0.18287771025E+03 -0.80356270757E+03  0.14846151787E+04  0.50400001928E-02 0.  1.
       -1    1    3    3    0  502 -0.12348785150E+04  0.18287771025E+03 -0.81042236914E+02  0.12509744393E+04  0.50400001928E-02 0. -1.
</event>
<event>
 5   0  0.2333979E-06  0.2602909E+04  0.7818609E-02  0.8367214E-01
       -1   -1    0    0    0  501  0.00000000000E+00  0.00000000000E+00  0.15093658037E+04  0.15093658037E+04  0.50400001928E-02 0. -1.
        1   -1    0    0  501    0  0.00000000000E+00  0.00000000000E+00 -0.11221824478E+04  0.11221824478E+04  0.50400001928E-02 0.  1.
    10030    2    1    2    0    0  0.00000000000E+00  0.00000000000E+00  0.38718335592E+03  0.26315482515E+04  0.26029089974E+04 0.  0.
        3    1    3    3  502    0 -0.35591206574E+03  0.10334169636E+04 -0.52069433594E+03  0.12106802306E+04  0.10100000352E+00 0.  1.
       -3    1    3    3    0  502  0.35591206574E+03 -0.10334169636E+04  0.90787769186E+03  0.14208680209E+04  0.10100000352E+00 0. -1.
</event>
<event>
 5   0  0.6173140E-06  0.2604969E+04  0.7818609E-02  0.8366515E-01
       -2   -1    0    0    0  501  0.00000000000E+00  0.00000000000E+00  0.16016128097E+04  0.16016128097E+04  0.25500000920E-02 0. -1.
        2   -1    0    0  501    0  0.00000000000E+00  0.00000000000E+00 -0.10592235908E+04  0.10592235908E+04  0.25500000920E-02 0.  1.
    10030    2    1    2    0    0  0.00000000000E+00  0.00000000000E+00  0.54238921888E+03  0.26608364006E+04  0.26049691526E+04 0.  0.
        3    1    3    3  502    0 -0.11086776144E+03  0.91445931125E+03 -0.66938981576E+03  0.11386879415E+04  0.10100000352E+00 0.  1.
       -3    1    3    3    0  502  0.11086776144E+03 -0.91445931125E+03  0.12117790346E+04  0.15221484591E+04  0.10100000352E+00 0. -1.
</event>
<event>
 5   0  0.6161834E-06  0.2602752E+04  0.7818609E-02  0.8367267E-01
        2   -1    0    0  501    0  0.00000000000E+00  0.00000000000E+00  0.24126860563E+04  0.24126860563E+04  0.25500000920E-02 0. -1.
       -2   -1    0    0    0  501  0.00000000000E+00  0.00000000000E+00 -0.70194788490E+03  0.70194788490E+03  0.25500000920E-02 0.  1.
    10030    2    1    2    0    0  0.00000000000E+00  0.00000000000E+00  0.17107381714E+04  0.31146339412E+04  0.26027522926E+04 0.  0.
        5    1    3    3  502    0  0.20701325853E+03 -0.96040196183E+03  0.18766346332E+04  0.21182554270E+04  0.46999998093E+01 0. -1.
       -5    1    3    3    0  502 -0.20701325853E+03  0.96040196183E+03 -0.16589646182E+03  0.99637851419E+03  0.46999998093E+01 0.  1.
</event>
<event>
 5   0  0.6161834E-06  0.2603549E+04  0.7818609E-02  0.8366997E-01
        2   -1    0    0  501    0  0.00000000000E+00  0.00000000000E+00  0.18384353174E+04  0.18384353174E+04  0.25500000920E-02 0. -1.
       -2   -1    0    0    0  501  0.00000000000E+00  0.00000000000E+00 -0.92177131820E+03  0.92177131820E+03  0.25500000920E-02 0.  1.
    10030    2    1    2    0    0  0.00000000000E+00  0.00000000000E+00  0.91666399916E+03  0.27602066356E+04  0.26035490746E+04 0.  0.
        5    1    3    3  502    0  0.30726104298E+03 -0.24803492831E+02  0.17991736518E+04  0.18253965271E+04  0.46999998093E+01 0. -1.
       -5    1    3    3    0  502 -0.30726104298E+03  0.24803492831E+02 -0.88250965267E+03  0.93481010844E+03  0.46999998093E+01 0.  1.
</event>
<event>
 5   0  0.2471488E-06  0.2596793E+04  0.7818609E-02  0.8369291E-01
        1   -1    0    0  501    0  0.00000000000E+00  0.00000000000E+00  0.10110246177E+04  0.10110246177E+04  0.50400001928E-02 0.  1.
       -1   -1    0    0    0  501  0.00000000000E+00  0.00000000000E+00 -0.16674500035E+04  0.16674500035E+04  0.50400001928E-02 0. -1.
    10030    2    1    2    0    0  0.00000000000E+00  0.00000000000E+00 -0.65642538588E+03  0.26784746212E+04  0.25967926389E+04 0.  0.
        4    1    3    3  502    0  0.16297291034E+03  0.11506469846E+04  0.26903689758E+03  0.11928667645E+04  0.12699999809E+01 0.  1.
       -4    1    3    3    0  502 -0.16297291034E+03 -0.11506469846E+04 -0.92546228347E+03  0.14856078567E+04  0.12699999809E+01 0. -1.
</event>
<event>
 5   0  0.2456600E-06  0.2500400E+04  0.7818609E-02  0.8402843E-01
        1   -1    0    0  501    0  0.00000000000E+00  0.00000000000E+00  0.24105164978E+04  0.24105164978E+04  0.50400001928E-02 0.  1.
       -1   -1    0    0    0  501  0.00000000000E+00  0.00000000000E+00 -0.64840894696E+03  0.64840894698E+03  0.50400001928E-02 0. -1.
    10030    2    1    2    0    0  0.00000000000E+00  0.00000000000E+00  0.17621075509E+04  0.30589254448E+04  0.25004003392E+04 0.  0.
        5    1    3    3  502    0 -0.60113897632E+02  0.70233042883E+02  0.24063184388E+04  0.24080981873E+04  0.46999998093E+01 0.  1.
       -5    1    3    3    0  502  0.60113897632E+02 -0.70233042883E+02 -0.64421088791E+03  0.65082725750E+03  0.46999998093E+01 0. -1.
</event>
<event>
 5   0  0.2471488E-06  0.2602511E+04  0.7818609E-02  0.8367349E-01
       -1   -1    0    0    0  501  0.00000000000E+00  0.00000000000E+00  0.12365151534E+04  0.12365151535E+04  0.50400001928E-02 0.  1.
        1   -1    0    0  501    0  0.00000000000E+00  0.00000000000E+00 -0.13693854409E+04  0.13693854410E+04  0.50400001928E-02 0. -1.
    10030    2    1    2    0    0  0.00000000000E+00  0.00000000000E+00 -0.13287028750E+03  0.26059005944E+04  0.26025109788E+04 0.  0.
        4    1    3    3  502    0  0.40231658194E+03 -0.90827282792E+01 -0.13055132768E+04  0.13661287117E+04  0.12699999809E+01 0. -1.
       -4    1    3    3    0  502 -0.40231658194E+03  0.90827282792E+01  0.11726429893E+04  0.12397718828E+04  0.12699999809E+01 0.  1.
</event>
<event>
 5   0  0.2333979E-06  0.2593175E+04  0.7818609E-02  0.8370523E-01
        1   -1    0    0  501    0  0.00000000000E+00  0.00000000000E+00  0.97402604853E+03  0.97402604854E+03  0.50400001928E-02 0.  1.
       -1   -1    0    0    0  501  0.00000000000E+00  0.00000000000E+00 -0.17259687794E+04  0.17259687794E+04  0.50400001928E-02 0. -1.
    10030    2    1    2    0    0  0.00000000000E+00  0.00000000000E+00 -0.75194273085E+03  0.26999948279E+04  0.25931745410E+04 0.  0.
        3    1    3    3  502    0  0.36328684280E+02  0.11809997418E+02  0.97344000990E+03  0.97418925903E+03  0.10100000352E+00 0.  1.
       -3    1    3    3    0  502 -0.36328684280E+02 -0.11809997418E+02 -0.17253827407E+04  0.17258055689E+04  0.10100000352E+00 0. -1.
</event>
<event>
 5   0  0.2471488E-06  0.2606045E+04  0.7818609E-02  0.8366151E-01
       -1   -1    0    0    0  501  0.00000000000E+00  0.00000000000E+00  0.77944553897E+03  0.77944553899E+03  0.50400001928E-02 0.  1.
        1   -1    0    0  501    0  0.00000000000E+00  0.00000000000E+00 -0.21783017382E+04  0.21783017382E+04  0.50400001928E-02 0. -1.
    10030    2    1    2    0    0  0.00000000000E+00  0.00000000000E+00 -0.13988561992E+04  0.29577472772E+04  0.26060449516E+04 0.  0.
        4    1    3    3  502    0 -0.65996532945E+03 -0.88827760377E+03 -0.14802208447E+04  0.18481468284E+04  0.12699999809E+01 0. -1.
       -4    1    3    3    0  502  0.65996532945E+03  0.88827760377E+03  0.81364645478E+02  0.11096004488E+04  0.12699999809E+01 0.  1.
</event>
<event>
 5   0  0.6173140E-06  0.2634034E+04  0.7818609E-02  0.8356732E-01
       -2   -1    0    0    0  501  0.00000000000E+00  0.00000000000E+00  0.11929294175E+04  0.11929294175E+04  0.25500000920E-02 0.  1.
        2   -1    0    0  501    0  0.00000000000E+00  0.00000000000E+00 -0.14540124093E+04  0.14540124093E+04  0.25500000920E-02 0. -1.
    10030    2    1    2    0    0  0.00000000000E+00  0.00000000000E+00 -0.26108299190E+03  0.26469418268E+04  0.26340343023E+04 0.  0.
        3    1    3    3  502    0  0.97700503281E+03  0.23977494969E+03 -0.98470869404E+03  0.14077223032E+04  0.10100000352E+00 0. -1.
       -3    1    3    3    0  502 -0.97700503281E+03 -0.23977494969E+03  0.72362570215E+03  0.12392195236E+04  0.10100000352E+00 0.  1.
</event>
<event>
 5   0  0.6161834E-06  0.2597773E+04  0.7818609E-02  0.8368958E-01
       -2   -1    0    0    0  501  0.00000000000E+00  0.00000000000E+00  0.59583832611E+03  0.59583832611E+03  0.25500000920E-02 0. -1.
        2   -1    0    0  501    0  0.00000000000E+00  0.00000000000E+00 -0.28314830465E+04  0.28314830465E+04  0.25500000920E-02 0.  1.
    10030    2    1    2    0    0  0.00000000000E+00  0.00000000000E+00 -0.22356447203E+04  0.34273213726E+04  0.25977729838E+04 0.  0.
        5    1    3    3  502    0 -0.38985351048E+02 -0.10892752235E+04 -0.18580735598E+03  0.11057064862E+04  0.46999998093E+01 0. -1.
       -5    1    3    3    0  502  0.38985351048E+02  0.10892752235E+04 -0.20498373644E+04  0.23216148863E+04  0.46999998093E+01 0.  1.
</event>
<event>
 5   0  0.6161834E-06  0.2590059E+04  0.7818609E-02  0.8371586E-01
        2   -1    0    0  501    0  0.00000000000E+00  0.00000000000E+00  0.13377768516E+04  0.13377768516E+04  0.25500000920E-02 0. -1.
       -2   -1    0    0    0  501  0.00000000000E+00  0.00000000000E+00 -0.12536481179E+04  0.12536481179E+04  0.25500000920E-02 0.  1.
    10030    2    1    2    0    0  0.00000000000E+00  0.00000000000E+00  0.84128733704E+02  0.25914249695E+04  0.25900590203E+04 0.  0.
        5    1    3    3  502    0 -0.96592995052E+03 -0.78500452171E+03 -0.31565261079E+03  0.12840994623E+04  0.46999998093E+01 0.  1.
       -5    1    3    3    0  502  0.96592995052E+03  0.78500452171E+03  0.39978134449E+03  0.13073255072E+04  0.46999998093E+01 0. -1.
</event>
<event>
 5   0  0.2440590E-06  0.2600706E+04  0.7818609E-02  0.8367962E-01
       -1   -1    0    0    0  501  0.00000000000E+00  0.00000000000E+00  0.16106827637E+04  0.16106827637E+04  0.50400001928E-02 0.  1.
        1   -1    0    0  501    0  0.00000000000E+00  0.00000000000E+00 -0.10498141540E+04  0.10498141540E+04  0.50400001928E-02 0. -1.
    10030    2    1    2    0    0  0.00000000000E+00  0.00000000000E+00  0.56086860969E+03  0.26604969177E+04  0.26007057219E+04 0.  0.
        1    1    3    3  502    0 -0.24624810885E+03  0.95919154617E+03 -0.58169292454E+03  0.11485004187E+04  0.50400001928E-02 0. -1.
       -1    1    3    3    0  502  0.24624810885E+03 -0.95919154617E+03  0.11425615342E+04  0.15119964990E+04  0.50400001928E-02 0.  1.
</event>
<event>
 5   0  0.5940748E-06  0.2599028E+04  0.7818609E-02  0.8368531E-01
        2   -1    0    0  501    0  0.00000000000E+00  0.00000000000E+00  0.80312823227E+03  0.80312823228E+03  0.25500000920E-02 0.  1.
       -2   -1    0    0    0  501  0.00000000000E+00  0.00000000000E+00 -0.21026994070E+04  0.21026994070E+04  0.25500000920E-02 0. -1.
    10030    2    1    2    0    0  0.00000000000E+00  0.00000000000E+00 -0.12995711747E+04  0.29058276393E+04  0.25990284783E+04 0.  0.
        1    1    3    3  502    0  0.79306012281E+03 -0.10294427235E+04 -0.65690765327E+03  0.14560990160E+04  0.50400001928E-02 0.  1.
       -1    1    3    3    0  502 -0.79306012281E+03  0.10294427235E+04 -0.64266352148E+03  0.14497286233E+04  0.50400001928E-02 0. -1.
</event>
<event>
 5   0  0.5940748E-06  0.2599384E+04  0.7818609E-02  0.8368410E-01
       -2   -1    0    0    0  501  0.00000000000E+00  0.00000000000E+00  0.13974140538E+04  0.13974140538E+04  0.25500000920E-02 0. -1.
        2   -1    0    0  501    0  0.00000000000E+00  0.00000000000E+00 -0.12088037857E+04  0.12088037857E+04  0.25500000920E-02 0.  1.
    10030    2    1    2    0    0  0.00000000000E+00  0.00000000000E+00  0.18861026805E+03  0.26062178395E+04  0.25993840797E+04 0.  0.
        1    1    3    3  502    0  0.53226037134E+03 -0.50895995860E+03  0.11680351485E+04  0.13808140535E+04  0.50400001928E-02 0. -1.
       -1    1    3    3    0  502 -0.53226037134E+03  0.50895995860E+03 -0.97942488041E+03  0.12254037860E+04  0.50400001928E-02 0.  1.
</event>
<event>
 5   0  0.2333979E-06  0.2594333E+04  0.7818609E-02  0.8370129E-01
        1   -1    0    0  501    0  0.00000000000E+00  0.00000000000E+00  0.14093339483E+04  0.14093339483E+04  0.50400001928E-02 0. -1.
       -1   -1    0    0    0  501  0.00000000000E+00  0.00000000000E+00 -0.11939266043E+04  0.11939266043E+04  0.50400001928E-02 0.  1.
    10030    2    1    2    0    0  0.00000000000E+00  0.00000000000E+00  0.21540734405E+03  0.26032605526E+04  0.25943332825E+04 0.  0.
        3    1    3    3  502    0  0.42646324324E+03 -0.22795262576E+03  0.13155099597E+04  0.14015704626E+04  0.10100000352E+00 0. -1.
       -3    1    3    3    0  502 -0.42646324324E+03  0.22795262576E+03 -0.11001026156E+04  0.12016900900E+04  0.10100000352E+00 0.  1.
</event>
<event>
 5   0  0.5942229E-06  0.2599111E+04  0.7818609E-02  0.8368503E-01
       -2   -1    0    0    0  501  0.00000000000E+00  0.00000000000E+00  0.71954560944E+03  0.71954560945E+03  0.25500000920E-02 0.  1.
        2   -1    0    0  501    0  0.00000000000E+00  0.00000000000E+00 -0.23470979483E+04  0.23470979483E+04  0.25500000920E-02 0. -1.
    10030    2    1    2    0    0  0.00000000000E+00  0.00000000000E+00 -0.16275523389E+04  0.30666435578E+04  0.25991106353E+04 0.  0.
        4    1    3    3  502    0 -0.12110607395E+04 -0.32092934292E+03 -0.12210980775E+04  0.17494987527E+04  0.12699999809E+01 0. -1.
       -4    1    3    3    0  502  0.12110607395E+04  0.32092934292E+03 -0.40645426139E+03  0.13171448051E+04  0.12699999809E+01 0.  1.
</event>
<event>
 5   0  0.2503292E-06  0.2568263E+04  0.7818609E-02  0.8379062E-01
        1   -1    0    0  501    0  0.00000000000E+00  0.00000000000E+00  0.18714361026E+04  0.18714361026E+04  0.50400001928E-02 0. -1.
       -1   -1    0    0    0  501  0.00000000000E+00  0.00000000000E+00 -0.88113842707E+03  0.88113842709E+03  0.50400001928E-02 0.  1.
    10030    2    1    2    0    0  0.00000000000E+00  0.00000000000E+00  0.99029767553E+03  0.27525745297E+04  0.25682634318E+04 0.  0.
        2    1    3    3  502    0  0.54243273490E+03  0.15244251765E+03 -0.74157785993E+03  0.93134833194E+03  0.25500000920E-02 0.  1.
       -2    1    3    3    0  502 -0.54243273490E+03 -0.15244251765E+03  0.17318755355E+04  0.18212261978E+04  0.25500000920E-02 0. -1.
</event>
<event>
 5   0  0.6158063E-06  0.2612367E+04  0.7818609E-02  0.8364012E-01
        2   -1    0    0  501    0  0.00000000000E+00  0.00000000000E+00  0.12136337246E+04  0.12136337246E+04  0.25500000920E-02 0.  1.
       -2   -1    0    0    0  501  0.00000000000E+00  0.00000000000E+00 -0.14057914918E+04  0.14057914918E+04  0.25500000920E-02 0. -1.
    10030    2    1    2    0    0  0.00000000000E+00  0.00000000000E+00 -0.19215776719E+03  0.26194252163E+04  0.26123674811E+04 0.  0.
        2    1    3    3  502    0 -0.93273593207E+03 -0.82593483864E+03 -0.48950519177E+03  0.13385738715E+04  0.25500000920E-02 0. -1.
       -2    1    3    3    0  502  0.93273593207E+03  0.82593483864E+03  0.29734742458E+03  0.12808513448E+04  0.25500000920E-02 0.  1.
</event>
<event>
 5   0  0.2440590E-06  0.2643836E+04  0.7818609E-02  0.8353462E-01
        1   -1    0    0  501    0  0.00000000000E+00  0.00000000000E+00  0.18030592951E+04  0.18030592951E+04  0.50400001928E-02 0. -1.
       -1   -1    0    0    0  501  0.00000000000E+00  0.00000000000E+00 -0.96916805858E+03  0.96916805859E+03  0.50400001928E-02 0.  1.
    10030    2    1    2    0    0  0.00000000000E+00  0.00000000000E+00  0.83389123648E+03  0.27722273537E+04  0.26438362101E+04 0.  0.
        1    1    3    3  502    0  0.76675470662E+03  0.31187156095E+03 -0.66378141100E+03  0.10610289404E+04  0.50400001928E-02 0.  1.
       -1    1    3    3    0  502 -0.76675470662E+03 -0.31187156095E+03  0.14976726475E+04  0.17111984133E+04  0.50400001928E-02 0. -1.
</event>
<event>
 5   0  0.6158063E-06  0.2600112E+04  0.7818609E-02  0.8368163E-01
        2   -1    0    0  501    0  0.00000000000E+00  0.00000000000E+00  0.23197591610E+04  0.23197591610E+04  0.25500000920E-02 0.  1.
       -2   -1    0    0    0  501  0.00000000000E+00  0.00000000000E+00 -0.72858675220E+03  0.72858675221E+03  0.25500000920E-02 0. -1.
    10030    2    1    2    0    0  0.00000000000E+00  0.00000000000E+00  0.15911724088E+04  0.30483459132E+04  0.26001121460E+04 0.  0.
        2    1    3    3  502    0 -0.12670836193E+04 -0.29034742586E+03  0.77386478565E+03  0.15128348332E+04  0.25500000920E-02 0.  1.
       -2    1    3    3    0  502  0.12670836193E+04  0.29034742586E+03  0.81730762310E+03  0.15355110800E+04  0.25500000920E-02 0. -1.
</event>
<event>
 5   0  0.6161834E-06  0.2591928E+04  0.7818609E-02  0.8370948E-01
       -2   -1    0    0    0  501  0.00000000000E+00  0.00000000000E+00  0.70532186981E+03  0.70532186981E+03  0.25500000920E-02 0.  1.
        2   -1    0    0  501    0  0.00000000000E+00  0.00000000000E+00 -0.23812137061E+04  0.23812137061E+04  0.25500000920E-02 0. -1.
    10030    2    1    2    0    0  0.00000000000E+00  0.00000000000E+00 -0.16758918363E+04  0.30865355759E+04  0.25919275481E+04 0.  0.
        5    1    3    3  502    0 -0.15533373471E+03  0.59768796145E+03  0.51883362473E+03  0.80657912728E+03  0.46999998093E+01 0.  1.
       -5    1    3    3    0  502  0.15533373471E+03 -0.59768796145E+03 -0.21947254610E+04  0.22799564486E+04  0.46999998093E+01 0. -1.
</event>
<event>
 5   0  0.6161834E-06  0.2605176E+04  0.7818609E-02  0.8366445E-01
       -2   -1    0    0    0  501  0.00000000000E+00  0.00000000000E+00  0.27434411870E+04  0.27434411870E+04  0.25500000920E-02 0.  1.
        2   -1    0    0  501    0  0.00000000000E+00  0.00000000000E+00 -0.61846966580E+03  0.61846966580E+03  0.25500000920E-02 0. -1.
    10030    2    1    2    0    0  0.00000000000E+00  0.00000000000E+00  0.21249715212E+04  0.33619108528E+04  0.26051757361E+04 0.  0.
        5    1    3    3  502    0  0.16502689924E+03  0.40852959090E+03  0.26443469443E+04  0.26808064377E+04  0.46999998093E+01 0.  1.
       -5    1    3    3    0  502 -0.16502689924E+03 -0.40852959090E+03 -0.51937542317E+03  0.68110441512E+03  0.46999998093E+01 0. -1.
</event>
<event>
 5   0  0.6161834E-06  0.2627693E+04  0.7818609E-02  0.8358855E-01
        2   -1    0    0  501    0  0.00000000000E+00  0.00000000000E+00  0.14732829400E+04  0.14732829400E+04  0.25500000920E-02 0.  1.
       -2   -1    0    0    0  501  0.00000000000E+00  0.00000000000E+00 -0.11716639861E+04  0.11716639861E+04  0.25500000920E-02 0. -1.
    10030    2    1    2    0    0  0.00000000000E+00  0.00000000000E+00  0.30161895388E+03  0.26449469261E+04  0.26276929517E+04 0.  0.
        5    1    3    3  502    0  0.83175723418E+03  0.45836445066E+03  0.10646543032E+04  0.14266845978E+04  0.46999998093E+01 0.  1.
       -5    1    3    3    0  502 -0.83175723418E+03 -0.45836445066E+03 -0.76303534930E+03  0.12182623283E+04  0.46999998093E+01 0. -1.
</event>
<event>
 5   0  0.2440590E-06  0.2600915E+04  0.7818609E-02  0.8367890E-01
       -1   -1    0    0    0  501  0.00000000000E+00  0.00000000000E+00  0.93141841077E+03  0.93141841079E+03  0.50400001928E-02 0.  1.
        1   -1    0    0  501    0  0.00000000000E+00  0.00000000000E+00 -0.18157146517E+04  0.18157146518E+04  0.50400001928E-02 0. -1.
    10030    2    1    2    0    0  0.00000000000E+00  0.00000000000E+00 -0.88429624097E+03  0.27471330625E+04  0.26009152661E+04 0.  0.
        1    1    3    3  502    0 -0.62439418193E+03 -0.55959441321E+03  0.60780680387E+03  0.10355882930E+04  0.50400001928E-02 0.  1.
       -1    1    3    3    0  502  0.62439418193E+03  0.55959441321E+03 -0.14921030448E+04  0.17115447695E+04  0.50400001928E-02 0. -1.
</event>
<event>
 5   0  0.2333979E-06  0.2597181E+04  0.7818609E-02  0.8369159E-01
       -1   -1    0    0    0  501  0.00000000000E+00  0.00000000000E+00  0.12449150181E+04  0.12449150181E+04  0.50400001928E-02 0.  1.
        1   -1    0    0  501    0  0.00000000000E+00  0.00000000000E+00 -0.13545805526E+04  0.13545805527E+04  0.50400001928E-02 0. -1.
    10030    2    1    2    0    0  0.00000000000E+00  0.00000000000E+00 -0.10966553459E+03  0.25994955707E+04  0.25971812976E+04 0.  0.
        3    1    3    3  502    0 -0.30304755026E+03  0.91698807111E+03 -0.92372654774E+03  0.13364040128E+04  0.10100000352E+00 0. -1.
       -3    1    3    3    0  502  0.30304755026E+03 -0.91698807111E+03  0.81406101315E+03  0.12630915579E+04  0.10100000352E+00 0.  1.
</event>
<event>
 5   0  0.2333979E-06  0.2593750E+04  0.7818609E-02  0.8370327E-01
        1   -1    0    0  501    0  0.00000000000E+00  0.00000000000E+00  0.12761028678E+04  0.12761028678E+04  0.50400001928E-02 0. -1.
       -1   -1    0    0    0  501  0.00000000000E+00  0.00000000000E+00 -0.13179855905E+04  0.13179855905E+04  0.50400001928E-02 0.  1.
    10030    2    1    2    0    0  0.00000000000E+00  0.00000000000E+00 -0.41882722716E+02  0.25940884583E+04  0.25937503286E+04 0.  0.
        3    1    3    3  502    0  0.20255001949E+03 -0.45637661363E+03  0.11761186176E+04  0.12777171584E+04  0.10100000352E+00 0. -1.
       -3    1    3    3    0  502 -0.20255001949E+03  0.45637661363E+03 -0.12180013404E+04  0.13163712999E+04  0.10100000352E+00 0.  1.
</event>
<event>
 5   0  0.5940748E-06  0.2603279E+04  0.7818609E-02  0.8367088E-01
        2   -1    0    0  501    0  0.00000000000E+00  0.00000000000E+00  0.22026077833E+04  0.22026077833E+04  0.25500000920E-02 0.  1.
       -2   -1    0    0    0  501  0.00000000000E+00  0.00000000000E+00 -0.76920903669E+03  0.76920903670E+03  0.25500000920E-02 0. -1.
    10030    2    1    2    0    0  0.00000000000E+00  0.00000000000E+00  0.14333987466E+04  0.29718168200E+04  0.26032793252E+04 0.  0.
        1    1    3    3  502    0 -0.29818563038E+03 -0.33464775494E+03  0.21117302441E+04  0.21587747483E+04  0.50400001928E-02 0.  1.
       -1    1    3    3    0  502  0.29818563038E+03  0.33464775494E+03 -0.67833149741E+03  0.81304207177E+03  0.50400001928E-02 0. -1.
</event>
<event>
 5   0  0.2456600E-06  0.2605862E+04  0.7818609E-02  0.8366213E-01
        1   -1    0    0  501    0  0.00000000000E+00  0.00000000000E+00  0.15661750419E+04  0.15661750419E+04  0.50400001928E-02 0.  1.
       -1   -1    0    0    0  501  0.00000000000E+00  0.00000000000E+00 -0.10839332958E+04  0.10839332959E+04  0.50400001928E-02 0. -1.
    10030    2    1    2    0    0  0.00000000000E+00  0.00000000000E+00  0.48224174603E+03  0.26501083377E+04  0.26058620647E+04 0.  0.
        5    1    3    3  502    0  0.59469247585E+03 -0.22255606304E+03  0.13981632957E+04  0.15356018473E+04  0.46999998093E+01 0.  1.
       -5    1    3    3    0  502 -0.59469247585E+03  0.22255606304E+03 -0.91592154967E+03  0.11145064904E+04  0.46999998093E+01 0. -1.
</event>
<event>
 5   0  0.5940748E-06  0.2605251E+04  0.7818609E-02  0.8366420E-01
       -2   -1    0    0    0  501  0.00000000000E+00  0.00000000000E+00  0.17940770430E+04  0.17940770431E+04  0.25500000920E-02 0.  1.
        2   -1    0    0  501    0  0.00000000000E+00  0.00000000000E+00 -0.94579734663E+03  0.94579734664E+03  0.25500000920E-02 0. -1.
    10030    2    1    2    0    0  0.00000000000E+00  0.00000000000E+00  0.84827969642E+03  0.27398743897E+04  0.26052510873E+04 0.  0.
        1    1    3    3  502    0  0.13010471020E+04 -0.59162971382E+02  0.39817631937E+03  0.13618987481E+04  0.50400001928E-02 0. -1.
       -1    1    3    3    0  502 -0.13010471020E+04  0.59162971382E+02  0.45010337704E+03  0.13779756416E+04  0.50400001928E-02 0.  1.
</event>
<event>
 5   0  0.6173140E-06  0.2682831E+04  0.7818609E-02  0.8340597E-01
        2   -1    0    0  501    0  0.00000000000E+00  0.00000000000E+00  0.21998839404E+04  0.21998839404E+04  0.25500000920E-02 0. -1.
       -2   -1    0    0    0  501  0.00000000000E+00  0.00000000000E+00 -0.81795009021E+03  0.81795009021E+03  0.25500000920E-02 0.  1.
    10030    2    1    2    0    0  0.00000000000E+00  0.00000000000E+00  0.13819338502E+04  0.30178340306E+04  0.26828307942E+04 0.  0.
        3    1    3    3  502    0 -0.83355248291E+03 -0.13714333850E+02  0.18730956299E+04  0.20502402478E+04  0.10100000352E+00 0. -1.
       -3    1    3    3    0  502  0.83355248291E+03  0.13714333850E+02 -0.49116177964E+03  0.96759378289E+03  0.10100000352E+00 0.  1.
</event>
<event>
 5   0  0.6158063E-06  0.2601493E+04  0.7818609E-02  0.8367694E-01
       -2   -1    0    0    0  501  0.00000000000E+00  0.00000000000E+00  0.10565925928E+04  0.10565925928E+04  0.25500000920E-02 0.  1.
        2   -1    0    0  501    0  0.00000000000E+00  0.00000000000E+00 -0.16013190350E+04  0.16013190350E+04  0.25500000920E-02 0. -1.
    10030    2    1    2    0    0  0.00000000000E+00  0.00000000000E+00 -0.54472644219E+03  0.26579116278E+04  0.26014932874E+04 0.  0.
        2    1    3    3  502    0 -0.39574181342E+03 -0.11851617339E+04 -0.64175908151E+03  0.14046617519E+04  0.25500000920E-02 0. -1.
       -2    1    3    3    0  502  0.39574181342E+03  0.11851617339E+04  0.97032639319E+02  0.12532498759E+04  0.25500000920E-02 0.  1.
</event>
<event>
 5   0  0.2503292E-06  0.2600071E+04  0.7818609E-02  0.8368177E-01
        1   -1    0    0  501    0  0.00000000000E+00  0.00000000000E+00  0.13223469896E+04  0.13223469897E+04  0.50400001928E-02 0.  1.
       -1   -1    0    0    0  501  0.00000000000E+00  0.00000000000E+00 -0.12781005062E+04  0.12781005062E+04  0.50400001928E-02 0. -1.
    10030    2    1    2    0    0  0.00000000000E+00  0.00000000000E+00  0.44246483419E+02  0.26004474959E+04  0.26000710428E+04 0.  0.
        2    1    3    3  502    0 -0.10432769413E+04 -0.36679286669E+03 -0.66144376338E+03  0.12885928897E+04  0.25500000920E-02 0. -1.
       -2    1    3    3    0  502  0.10432769413E+04  0.36679286669E+03  0.70569024679E+03  0.13118546062E+04  0.25500000920E-02 0.  1.
</event>
<event>
 5   0  0.6161834E-06  0.2585701E+04  0.7818609E-02  0.8373075E-01
       -2   -1    0    0    0  501  0.00000000000E+00  0.00000000000E+00  0.12967721196E+04  0.12967721196E+04  0.25500000920E-02 0.  1.
        2   -1    0    0  501    0  0.00000000000E+00  0.00000000000E+00 -0.12889405775E+04  0.12889405775E+04  0.25500000920E-02 0. -1.
    10030    2    1    2    0    0  0.00000000000E+00  0.00000000000E+00  0.78315420112E+01  0.25857126971E+04  0.25857008371E+04 0.  0.
        5    1    3    3  502    0  0.11911636816E+04 -0.49461573569E+03  0.92935685295E+02  0.12931259698E+04  0.46999998093E+01 0.  1.
       -5    1    3    3    0  502 -0.11911636816E+04  0.49461573569E+03 -0.85104143283E+02  0.12925867273E+04  0.46999998093E+01 0. -1.
</event>
<event>
 5   0  0.2072125E-06  0.2595069E+04  0.7818609E-02  0.8369878E-01
        3   -1    0    0  501    0  0.00000000000E+00  0.00000000000E+00  0.20600111736E+04  0.20600111761E+04  0.10100000352E+00 0.  1.
       -3   -1    0    0    0  501  0.00000000000E+00  0.00000000000E+00 -0.81727532690E+03  0.81727533315E+03  0.10100000352E+00 0. -1.
    10030    2    1    2    0    0  0.00000000000E+00  0.00000000000E+00  0.12427358467E+04  0.28772865092E+04  0.25950694155E+04 0.  0.
        4    1    3    3  502    0 -0.49929701381E+03 -0.34305869521E+03 -0.65085250008E+03  0.88915542293E+03  0.12699999809E+01 0. -1.
       -4    1    3    3    0  502  0.49929701381E+03  0.34305869521E+03  0.18935883468E+04  0.19881310863E+04  0.12699999809E+01 0.  1.
</event>
<event>
 5   0  0.6161834E-06  0.2583204E+04  0.7818609E-02  0.8373929E-01
        2   -1    0    0  501    0  0.00000000000E+00  0.00000000000E+00  0.20202315802E+04  0.20202315802E+04  0.25500000920E-02 0.  1.
       -2   -1    0    0    0  501  0.00000000000E+00  0.00000000000E+00 -0.82576475157E+03  0.82576475157E+03  0.25500000920E-02 0. -1.
    10030    2    1    2    0    0  0.00000000000E+00  0.00000000000E+00  0.11944668287E+04  0.28459963318E+04  0.25832042343E+04 0.  0.
        5    1    3    3  502    0  0.65393057129E+03  0.22534062150E+03  0.17989843351E+04  0.19273739429E+04  0.46999998093E+01 0.  1.
       -5    1    3    3    0  502 -0.65393057129E+03 -0.22534062150E+03 -0.60451750647E+03  0.91862238890E+03  0.46999998093E+01 0. -1.
</event>
<event>
 5   0  0.5940748E-06  0.2600731E+04  0.7818609E-02  0.8367953E-01
       -2   -1    0    0    0  501  0.00000000000E+00  0.00000000000E+00  0.12442104685E+04  0.12442104685E+04  0.25500000920E-02 0.  1.
        2   -1    0    0  501    0  0.00000000000E+00  0.00000000000E+00 -0.13590551957E+04  0.13590551957E+04  0.25500000920E-02 0. -1.
    10030    2    1    2    0    0  0.00000000000E+00  0.00000000000E+00 -0.11484472724E+03  0.26032656642E+04  0.26007312062E+04 0.  0.
        1    1    3    3  502    0  0.41114838045E+03 -0.10548044428E+04 -0.69780773041E+03  0.13298838415E+04  0.50400001928E-02 0. -1.
       -1    1    3    3    0  502 -0.41114838045E+03  0.10548044428E+04  0.58296300317E+03  0.12733818227E+04  0.50400001928E-02 0.  1.
</event>
<event>
 5   0  0.5942229E-06  0.2602554E+04  0.7818609E-02  0.8367334E-01
       -2   -1    0    0    0  501  0.00000000000E+00  0.00000000000E+00  0.17001180413E+04  0.17001180413E+04  0.25500000920E-02 0. -1.
        2   -1    0    0  501    0  0.00000000000E+00  0.00000000000E+00 -0.99600255667E+03  0.99600255668E+03  0.25500000920E-02 0.  1.
    10030    2    1    2    0    0  0.00000000000E+00  0.00000000000E+00  0.70411548462E+03  0.26961205980E+04  0.26025540654E+04 0.  0.
        4    1    3    3  502    0  0.78275143283E+03 -0.10378632401E+04  0.29111777540E+03  0.13321452934E+04  0.12699999809E+01 0.  1.
       -4    1    3    3    0  502 -0.78275143283E+03  0.10378632401E+04  0.41299770922E+03  0.13639753046E+04  0.12699999809E+01 0. -1.
</event>
<event>
 5   0  0.2503292E-06  0.2603261E+04  0.7818609E-02  0.8367094E-01
        1   -1    0    0  501    0  0.00000000000E+00  0.00000000000E+00  0.17296239620E+04  0.17296239620E+04  0.50400001928E-02 0.  1.
       -1   -1    0    0    0  501  0.00000000000E+00  0.00000000000E+00 -0.97954372727E+03  0.97954372728E+03  0.50400001928E-02 0. -1.
    10030    2    1    2    0    0  0.00000000000E+00  0.00000000000E+00  0.75008023473E+03  0.27091676893E+04  0.26032612643E+04 0.  0.
        2    1    3    3  502    0 -0.96652808004E+03 -0.80334241904E+03  0.72750234546E+03  0.14521691480E+04  0.25500000920E-02 0. -1.
       -2    1    3    3    0  502  0.96652808004E+03  0.80334241904E+03  0.22577889269E+02  0.12569985413E+04  0.25500000920E-02 0.  1.
</event>
<event>
 5   0  0.2503292E-06  0.2601538E+04  0.7818609E-02  0.8367679E-01
        1   -1    0    0  501    0  0.00000000000E+00  0.00000000000E+00  0.12096402644E+04  0.12096402645E+04  0.50400001928E-02 0. -1.
       -1   -1    0    0    0  501  0.00000000000E+00  0.00000000000E+00 -0.13987626701E+04  0.13987626701E+04  0.50400001928E-02 0.  1.
    10030    2    1    2    0    0  0.00000000000E+00  0.00000000000E+00 -0.18912240566E+03  0.26084029346E+04  0.26015377346E+04 0.  0.
        2    1    3    3  502    0 -0.14732460677E+03 -0.12288643136E+04 -0.49585181946E+03  0.13332970667E+04  0.25500000920E-02 0.  1.
       -2    1    3    3    0  502  0.14732460677E+03  0.12288643136E+04  0.30672941380E+03  0.12751058679E+04  0.25500000920E-02 0. -1.
</event>
<event>
 5   0  0.6161834E-06  0.2629175E+04  0.7818609E-02  0.8358358E-01
        2   -1    0    0  501    0  0.00000000000E+00  0.00000000000E+00  0.17239108786E+04  0.17239108786E+04  0.25500000920E-02 0.  1.
       -2   -1    0    0    0  501  0.00000000000E+00  0.00000000000E+00 -0.10024533277E+04  0.10024533277E+04  0.25500000920E-02 0. -1.
    10030    2    1    2    0    0  0.00000000000E+00  0.00000000000E+00  0.72145755082E+03  0.27263642063E+04  0.26291749253E+04 0.  0.
        5    1    3    3  502    0  0.86183478690E+03  0.52279493288E+03  0.12357486485E+04  0.15947321261E+04  0.46999998093E+01 0.  1.
       -5    1    3    3    0  502 -0.86183478690E+03 -0.52279493288E+03 -0.51429109770E+03  0.11316320802E+04  0.46999998093E+01 0. -1.
</event>
<event>
 5   0  0.6173140E-06  0.2601525E+04  0.7818609E-02  0.8367683E-01
       -2   -1    0    0    0  501  0.00000000000E+00  0.00000000000E+00  0.61120228859E+03  0.61120228860E+03  0.25500000920E-02 0. -1.
        2   -1    0    0  501    0  0.00000000000E+00  0.00000000000E+00 -0.27682865856E+04  0.27682865856E+04  0.25500000920E-02 0.  1.
    10030    2    1    2    0    0  0.00000000000E+00  0.00000000000E+00 -0.21570842971E+04  0.33794888742E+04  0.26015250117E+04 0.  0.
        3    1    3    3  502    0 -0.11158174710E+03  0.10043759525E+04 -0.14626751816E+02  0.10106609186E+04  0.10100000352E+00 0. -1.
       -3    1    3    3    0  502  0.11158174710E+03 -0.10043759525E+04 -0.21424575452E+04  0.23688279557E+04  0.10100000352E+00 0.  1.
</event>
<event>
 5   0  0.2503292E-06  0.2583974E+04  0.7818609E-02  0.8373665E-01
       -1   -1    0    0    0  501  0.00000000000E+00  0.00000000000E+00  0.16333187287E+04  0.16333187287E+04  0.50400001928E-02 0.  1.
        1   -1    0    0  501    0  0.00000000000E+00  0.00000000000E+00 -0.10219868455E+04  0.10219868455E+04  0.50400001928E-02 0. -1.
    10030    2    1    2    0    0  0.00000000000E+00  0.00000000000E+00  0.61133188317E+03  0.26553055742E+04  0.25839738817E+04 0.  0.
        2    1    3    3  502    0 -0.85824933683E+03 -0.80658282646E+03 -0.24009071805E+03  0.12020030503E+04  0.25500000920E-02 0. -1.
       -2    1    3    3    0  502  0.85824933683E+03  0.80658282646E+03  0.85142260121E+03  0.14533025239E+04  0.25500000920E-02 0.  1.
</event>
<event>
 5   0  0.5942229E-06  0.2587923E+04  0.7818609E-02  0.8372315E-01
        2   -1    0    0  501    0  0.00000000000E+00  0.00000000000E+00  0.13922994524E+04  0.13922994524E+04  0.25500000920E-02 0.  1.
       -2   -1    0    0    0  501  0.00000000000E+00  0.00000000000E+00 -0.12025686975E+04  0.12025686975E+04  0.25500000920E-02 0. -1.
    10030    2    1    2    0    0  0.00000000000E+00  0.00000000000E+00  0.18973075486E+03  0.25948681499E+04  0.25879225174E+04 0.  0.
        4    1    3    3  502    0  0.12642886731E+04  0.19568275173E+03 -0.99604991163E+02  0.12832148516E+04  0.12699999809E+01 0.  1.
       -4    1    3    3    0  502 -0.12642886731E+04 -0.19568275173E+03  0.28933574603E+03  0.13116532983E+04  0.12699999809E+01 0. -1.
</event>
<event>
 5   0  0.2471488E-06  0.2599877E+04  0.7818609E-02  0.8368243E-01
        1   -1    0    0  501    0  0.00000000000E+00  0.00000000000E+00  0.17733873984E+04  0.17733873984E+04  0.50400001928E-02 0.  1.
       -1   -1    0    0    0  501  0.00000000000E+00  0.00000000000E+00 -0.95288836393E+03  0.95288836395E+03  0.50400001928E-02 0. -1.
    10030    2    1    2    0    0  0.00000000000E+00  0.00000000000E+00  0.82049903443E+03  0.27262757623E+04  0.25998770868E+04 0.  0.
        4    1    3    3  502    0 -0.10785327466E+04  0.55285728076E+03 -0.82661398784E+02  0.12147915780E+04  0.12699999809E+01 0. -1.
       -4    1    3    3    0  502  0.10785327466E+04 -0.55285728076E+03  0.90316043322E+03  0.15114841843E+04  0.12699999809E+01 0.  1.
</event>
<event>
 5   0  0.2333979E-06  0.2597131E+04  0.7818609E-02  0.8369176E-01
        1   -1    0    0  501    0  0.00000000000E+00  0.00000000000E+00  0.15268792521E+04  0.15268792521E+04  0.50400001928E-02 0.  1.
       -1   -1    0    0    0  501  0.00000000000E+00  0.00000000000E+00 -0.11043912913E+04  0.11043912913E+04  0.50400001928E-02 0. -1.
    10030    2    1    2    0    0  0.00000000000E+00  0.00000000000E+00  0.42248796085E+03  0.26312705434E+04  0.25971308391E+04 0.  0.
        3    1    3    3  502    0  0.10274997083E+04  0.10493561305E+03 -0.58618880016E+03  0.11875960816E+04  0.10100000352E+00 0. -1.
       -3    1    3    3    0  502 -0.10274997083E+04 -0.10493561305E+03  0.10086767610E+04  0.14436744618E+04  0.10100000352E+00 0.  1.
</event>
<event>
 5   0  0.5940748E-06  0.2601738E+04  0.7818609E-02  0.8367611E-01
        2   -1    0    0  501    0  0.00000000000E+00  0.00000000000E+00  0.24174203643E+04  0.24174203643E+04  0.25500000920E-02 0. -1.
       -2   -1    0    0    0  501  0.00000000000E+00  0.00000000000E+00 -0.70002749567E+03  0.70002749567E+03  0.25500000920E-02 0.  1.
    10030    2    1    2    0    0  0.00000000000E+00  0.00000000000E+00  0.17173928686E+04  0.31174478600E+04  0.26017384370E+04 0.  0.
        1    1    3    3  502    0 -0.45385815296E+03 -0.12175145695E+04  0.93382927776E+03  0.16001143927E+04  0.50400001928E-02 0. -1.
       -1    1    3    3    0  502  0.45385815296E+03  0.12175145695E+04  0.78356359088E+03  0.15173334672E+04  0.50400001928E-02 0.  1.
</event>
<event>
 5   0  0.2503292E-06  0.2601512E+04  0.7818609E-02  0.8367688E-01
        1   -1    0    0  501    0  0.00000000000E+00  0.00000000000E+00  0.27977542128E+04  0.27977542128E+04  0.50400001928E-02 0. -1.
       -1   -1    0    0    0  501  0.00000000000E+00  0.00000000000E+00 -0.60475867940E+03  0.60475867942E+03  0.50400001928E-02 0.  1.
    10030    2    1    2    0    0  0.00000000000E+00  0.00000000000E+00  0.21929955334E+04  0.34025128922E+04  0.26015119781E+04 0.  0.
        2    1    3    3  502    0 -0.58282689989E+03  0.91548734011E+03  0.20343272592E+04  0.23057084947E+04  0.25500000920E-02 0. -1.
       -2    1    3    3    0  502  0.58282689989E+03 -0.91548734011E+03  0.15866827421E+03  0.10968043975E+04  0.25500000920E-02 0.  1.
</event>
<event>
 5   0  0.5940748E-06  0.2599549E+04  0.7818609E-02  0.8368355E-01
        2   -1    0    0  501    0  0.00000000000E+00  0.00000000000E+00  0.18567606315E+04  0.18567606315E+04  0.25500000920E-02 0.  1.
       -2   -1    0    0    0  501  0.00000000000E+00  0.00000000000E+00 -0.90987135298E+03  0.90987135299E+03  0.25500000920E-02 0. -1.
    10030    2    1    2    0    0  0.00000000000E+00  0.00000000000E+00  0.94688927848E+03  0.27666319845E+04  0.25995486592E+04 0.  0.
        1    1    3    3  502    0 -0.12656087922E+04  0.88518915851E+02  0.17277623254E+03  0.12804111996E+04  0.50400001928E-02 0.  1.
       -1    1    3    3    0  502  0.12656087922E+04 -0.88518915851E+02  0.77411304594E+03  0.14862207849E+04  0.50400001928E-02 0. -1.
</event>
<event>
 5   0  0.6173140E-06  0.2611395E+04  0.7818609E-02  0.8364341E-01
        2   -1    0    0  501    0  0.00000000000E+00  0.00000000000E+00  0.19395015510E+04  0.19395015510E+04  0.25500000920E-02 0.  1.
       -2   -1    0    0    0  501  0.00000000000E+00  0.00000000000E+00 -0.87901226213E+03  0.87901226213E+03  0.25500000920E-02 0. -1.
    10030    2    1    2    0    0  0.00000000000E+00  0.00000000000E+00  0.10604892889E+04  0.28185138132E+04  0.26113947582E+04 0.  0.
        3    1    3    3  502    0  0.14318713043E+03  0.35788613713E+03  0.18766902089E+04  0.19158682606E+04  0.10100000352E+00 0.  1.
       -3    1    3    3    0  502 -0.14318713043E+03 -0.35788613713E+03 -0.81620092004E+03  0.90264555255E+03  0.10100000352E+00 0. -1.
</event>
<event>
 5   0  0.2440590E-06  0.2593485E+04  0.7818609E-02  0.8370418E-01
       -1   -1    0    0    0  501  0.00000000000E+00  0.00000000000E+00  0.98736385987E+03  0.98736385988E+03  0.50400001928E-02 0. -1.
        1   -1    0    0  501    0  0.00000000000E+00  0.00000000000E+00 -0.17030609065E+04  0.17030609065E+04  0.50400001928E-02 0.  1.
    10030    2    1    2    0    0  0.00000000000E+00  0.00000000000E+00 -0.71569704661E+03  0.26904247664E+04  0.25934847524E+04 0.  0.
        1    1    3    3  502    0  0.40122066225E+03  0.81212745832E+03  0.60474225152E+03  0.10891474736E+04  0.50400001928E-02 0. -1.
       -1    1    3    3    0  502 -0.40122066225E+03 -0.81212745832E+03 -0.13204392981E+04  0.16012772928E+04  0.50400001928E-02 0.  1.
</event>
<event>
 5   0  0.2440590E-06  0.2591506E+04  0.7818609E-02  0.8371092E-01
        1   -1    0    0  501    0  0.00000000000E+00  0.00000000000E+00  0.13603192761E+04  0.13603192761E+04  0.50400001928E-02 0.  1.
       -1   -1    0    0    0  501  0.00000000000E+00  0.00000000000E+00 -0.12342513116E+04  0.12342513117E+04  0.50400001928E-02 0. -1.
    10030    2    1    2    0    0  0.00000000000E+00  0.00000000000E+00  0.12606796449E+03  0.25945705878E+04  0.25915060107E+04 0.  0.
        1    1    3    3  502    0  0.55753572317E+02  0.43832430453E+03 -0.11564948001E+04  0.12380294340E+04  0.50400001928E-02 0. -1.
       -1    1    3    3    0  502 -0.55753572317E+02 -0.43832430453E+03  0.12825627646E+04  0.13565411538E+04  0.50400001928E-02 0.  1.
</event>
<event>
 5   0  0.5940748E-06  0.2599153E+04  0.7818609E-02  0.8368489E-01
       -2   -1    0    0    0  501  0.00000000000E+00  0.00000000000E+00  0.76490080689E+03  0.76490080689E+03  0.25500000920E-02 0.  1.
        2   -1    0    0  501    0  0.00000000000E+00  0.00000000000E+00 -0.22079979362E+04  0.22079979362E+04  0.25500000920E-02 0. -1.
    10030    2    1    2    0    0  0.00000000000E+00  0.00000000000E+00 -0.14430971293E+04  0.29728987431E+04  0.25991532491E+04 0.  0.
        1    1    3    3  502    0  0.59497756469E+03 -0.10112899364E+04 -0.13606360941E+04  0.17966736539E+04  0.50400001928E-02 0. -1.
       -1    1    3    3    0  502 -0.59497756469E+03  0.10112899364E+04 -0.82461035179E+02  0.11762250892E+04  0.50400001928E-02 0.  1.
</event>
<event>
 5   0  0.2503292E-06  0.2603046E+04  0.7818609E-02  0.8367167E-01
        1   -1    0    0  501    0  0.00000000000E+00  0.00000000000E+00  0.94819667966E+03  0.94819667967E+03  0.50400001928E-02 0.  1.
       -1   -1    0    0    0  501  0.00000000000E+00  0.00000000000E+00 -0.17865097537E+04  0.17865097538E+04  0.50400001928E-02 0. -1.
    10030    2    1    2    0    0  0.00000000000E+00  0.00000000000E+00 -0.83831307409E+03  0.27347064334E+04  0.26030463820E+04 0.  0.
        2    1    3    3  502    0  0.80717601796E+03  0.71180044055E+03  0.34982843026E+03  0.11316240196E+04  0.25500000920E-02 0.  1.
       -2    1    3    3    0  502 -0.80717601796E+03 -0.71180044055E+03 -0.11881415043E+04  0.16030824138E+04  0.25500000920E-02 0. -1.
</event>
<event>
 5   0  0.2440590E-06  0.2597046E+04  0.7818609E-02  0.8369205E-01
        1   -1    0    0  501    0  0.00000000000E+00  0.00000000000E+00  0.18212540025E+04  0.18212540025E+04  0.50400001928E-02 0. -1.
       -1   -1    0    0    0  501  0.00000000000E+00  0.00000000000E+00 -0.92582507222E+03  0.92582507223E+03  0.50400001928E-02 0.  1.
    10030    2    1    2    0    0  0.00000000000E+00  0.00000000000E+00  0.89542893024E+03  0.27470790747E+04  0.25970464904E+04 0.  0.
        1    1    3    3  502    0 -0.70823262647E+02  0.40835734915E+03 -0.85398414394E+03  0.94924210677E+03  0.50400001928E-02 0.  1.
       -1    1    3    3    0  502  0.70823262647E+02 -0.40835734915E+03  0.17494130742E+04  0.17978369679E+04  0.50400001928E-02 0. -1.
</event>
<event>
 5   0  0.6173140E-06  0.2607119E+04  0.7818609E-02  0.8365787E-01
        2   -1    0    0  501    0  0.00000000000E+00  0.00000000000E+00  0.19198078660E+04  0.19198078660E+04  0.25500000920E-02 0.  1.
       -2   -1    0    0    0  501  0.00000000000E+00  0.00000000000E+00 -0.88512375639E+03  0.88512375639E+03  0.25500000920E-02 0. -1.
    10030    2    1    2    0    0  0.00000000000E+00  0.00000000000E+00  0.10346841097E+04  0.28049316224E+04  0.26071191380E+04 0.  0.
        3    1    3    3  502    0 -0.48915265935E+03 -0.53226319380E+03 -0.64971746593E+03  0.97196050710E+03  0.10100000352E+00 0. -1.
       -3    1    3    3    0  502  0.48915265935E+03  0.53226319380E+03  0.16844015756E+04  0.18329711153E+04  0.10100000352E+00 0.  1.
</event>
<event>
 5   0  0.2471488E-06  0.2597575E+04  0.7818609E-02  0.8369025E-01
        1   -1    0    0  501    0  0.00000000000E+00  0.00000000000E+00  0.12971690949E+04  0.12971690949E+04  0.50400001928E-02 0. -1.
       -1   -1    0    0    0  501  0.00000000000E+00  0.00000000000E+00 -0.13004083089E+04  0.13004083090E+04  0.50400001928E-02 0.  1.
    10030    2    1    2    0    0  0.00000000000E+00  0.00000000000E+00 -0.32392140492E+01  0.25975774039E+04  0.25975753842E+04 0.  0.
        4    1    3    3  502    0 -0.88872983678E+03 -0.15574243556E+03 -0.93583199421E+03  0.12999536774E+04  0.12699999809E+01 0.  1.
       -4    1    3    3    0  502  0.88872983678E+03  0.15574243556E+03  0.93259278016E+03  0.12976237265E+04  0.12699999809E+01 0. -1.
</event>
<event>
 5   0  0.2440590E-06  0.2600986E+04  0.7818609E-02  0.8367866E-01
       -1   -1    0    0    0  501  0.00000000000E+00  0.00000000000E+00  0.10651851477E+04  0.10651851477E+04  0.50400001928E-02 0. -1.
        1   -1    0    0  501    0  0.00000000000E+00  0.00000000000E+00 -0.15877818056E+04  0.15877818056E+04  0.50400001928E-02 0.  1.
    10030    2    1    2    0    0  0.00000000000E+00  0.00000000000E+00 -0.52259665787E+03  0.26529669533E+04  0.26009856571E+04 0.  0.
        1    1    3    3  502    0  0.11201675560E+02 -0.48688171860E+03 -0.14912593981E+04  0.15687682678E+04  0.50400001928E-02 0.  1.
       -1    1    3    3    0  502 -0.11201675560E+02  0.48688171860E+03  0.96866274024E+03  0.10841986856E+04  0.50400001928E-02 0. -1.
</event>
<event>
 5   0  0.2440590E-06  0.2621821E+04  0.7818609E-02  0.8360827E-01
       -1   -1    0    0    0  501  0.00000000000E+00  0.00000000000E+00  0.99333065735E+03  0.99333065736E+03  0.50400001928E-02 0.  1.
        1   -1    0    0  501    0  0.00000000000E+00  0.00000000000E+00 -0.17300250622E+04  0.17300250622E+04  0.50400001928E-02 0. -1.
    10030    2    1    2    0    0  0.00000000000E+00  0.00000000000E+00 -0.73669440483E+03  0.27233557195E+04  0.26218214526E+04 0.  0.
        1    1    3    3  502    0 -0.55018252297E+03  0.11514929040E+03 -0.15984937099E+04  0.16944445427E+04  0.50400001928E-02 0. -1.
       -1    1    3    3    0  502  0.55018252297E+03 -0.11514929040E+03  0.86179930505E+03  0.10289111769E+04  0.50400001928E-02 0.  1.
</event>
<event>
 5   0  0.6158063E-06  0.2600229E+04  0.7818609E-02  0.8368123E-01
       -2   -1    0    0    0  501  0.00000000000E+00  0.00000000000E+00  0.90066262459E+03  0.90066262460E+03  0.25500000920E-02 0.  1.
        2   -1    0    0  501    0  0.00000000000E+00  0.00000000000E+00 -0.18767269437E+04  0.18767269437E+04  0.25500000920E-02 0. -1.
    10030    2    1    2    0    0  0.00000000000E+00  0.00000000000E+00 -0.97606431914E+03  0.27773895683E+04  0.26002290782E+04 0.  0.
        2    1    3    3  502    0  0.43128896061E+03 -0.76265690622E+03 -0.15140190719E+04  0.17492596932E+04  0.25500000920E-02 0. -1.
       -2    1    3    3    0  502 -0.43128896061E+03  0.76265690622E+03  0.53795475275E+03  0.10281298751E+04  0.25500000920E-02 0.  1.
</event>
<event>
 5   0  0.5942229E-06  0.2614276E+04  0.7818609E-02  0.8363368E-01
       -2   -1    0    0    0  501  0.00000000000E+00  0.00000000000E+00  0.92292436710E+03  0.92292436710E+03  0.25500000920E-02 0.  1.
        2   -1    0    0  501    0  0.00000000000E+00  0.00000000000E+00 -0.18513004686E+04  0.18513004686E+04  0.25500000920E-02 0. -1.
    10030    2    1    2    0    0  0.00000000000E+00  0.00000000000E+00 -0.92837610146E+03  0.27742248357E+04  0.26142764301E+04 0.  0.
        4    1    3    3  502    0  0.77351297534E+03  0.92467580023E+03  0.71957142446E+02  0.12076949539E+04  0.12699999809E+01 0. -1.
       -4    1    3    3    0  502 -0.77351297534E+03 -0.92467580023E+03 -0.10003332439E+04  0.15665298817E+04  0.12699999809E+01 0.  1.
</event>
<event>
 5   0  0.6173140E-06  0.2634463E+04  0.7818609E-02  0.8356588E-01
       -2   -1    0    0    0  501  0.00000000000E+00  0.00000000000E+00  0.86308726484E+03  0.86308726484E+03  0.25500000920E-02 0. -1.
        2   -1    0    0  501    0  0.00000000000E+00  0.00000000000E+00 -0.20103393134E+04  0.20103393134E+04  0.25500000920E-02 0.  1.
    10030    2    1    2    0    0  0.00000000000E+00  0.00000000000E+00 -0.11472520485E+04  0.28734265782E+04  0.26344625709E+04 0.  0.
        3    1    3    3  502    0  0.40928814707E+03  0.61650298572E+03 -0.17621991113E+04  0.19112661868E+04  0.10100000352E+00 0.  1.
       -3    1    3    3    0  502 -0.40928814707E+03 -0.61650298572E+03  0.61494706272E+03  0.96216039146E+03  0.10100000352E+00 0. -1.
</event>
<event>
 5   0  0.2333979E-06  0.2552290E+04  0.7818609E-02  0.8384590E-01
       -1   -1    0    0    0  501  0.00000000000E+00  0.00000000000E+00  0.67695539755E+03  0.67695539756E+03  0.50400001928E-02 0.  1.
        1   -1    0    0  501    0  0.00000000000E+00  0.00000000000E+00 -0.24056912149E+04  0.24056912149E+04  0.50400001928E-02 0. -1.
    10030    2    1    2    0    0  0.00000000000E+00  0.00000000000E+00 -0.17287358174E+04  0.30826466125E+04  0.25522896801E+04 0.  0.
        3    1    3    3  502    0 -0.67315239081E+03 -0.91666596473E+02  0.44039268062E+03  0.80961881741E+03  0.10100000352E+00 0.  1.
       -3    1    3    3    0  502  0.67315239081E+03  0.91666596473E+02 -0.21691284980E+04  0.22730277951E+04  0.10100000352E+00 0. -1.
</event>
<event>
 5   0  0.6173140E-06  0.2594199E+04  0.7818609E-02  0.8370174E-01
       -2   -1    0    0    0  501  0.00000000000E+00  0.00000000000E+00  0.76086359461E+03  0.76086359462E+03  0.25500000920E-02 0.  1.
        2   -1    0    0  501    0  0.00000000000E+00  0.00000000000E+00 -0.22112602527E+04  0.22112602527E+04  0.25500000920E-02 0. -1.
    10030    2    1    2    0    0  0.00000000000E+00  0.00000000000E+00 -0.14503966580E+04  0.29721238473E+04  0.25941992402E+04 0.  0.
        3    1    3    3  502    0  0.42924967020E+03  0.33669708032E+02 -0.21269976948E+04  0.21701401182E+04  0.10100000352E+00 0. -1.
       -3    1    3    3    0  502 -0.42924967020E+03 -0.33669708032E+02  0.67660103676E+03  0.80198372911E+03  0.10100000352E+00 0.  1.
</event>
<event>
 5   0  0.6158063E-06  0.2622160E+04  0.7818609E-02  0.8360713E-01
        2   -1    0    0  501    0  0.00000000000E+00  0.00000000000E+00  0.13608448595E+04  0.13608448595E+04  0.25500000920E-02 0.  1.
       -2   -1    0    0    0  501  0.00000000000E+00  0.00000000000E+00 -0.12631349710E+04  0.12631349710E+04  0.25500000920E-02 0. -1.
    10030    2    1    2    0    0  0.00000000000E+00  0.00000000000E+00  0.97709888540E+02  0.26239798305E+04  0.26221599739E+04 0.  0.
        2    1    3    3  502    0  0.10265652593E+04 -0.68015557437E+03  0.49914823856E+03  0.13287576156E+04  0.25500000920E-02 0.  1.
       -2    1    3    3    0  502 -0.10265652593E+04  0.68015557437E+03 -0.40143835002E+03  0.12952222149E+04  0.25500000920E-02 0. -1.
</event>
<event>
 5   0  0.2333979E-06  0.2597784E+04  0.7818609E-02  0.8368954E-01
        1   -1    0    0  501    0  0.00000000000E+00  0.00000000000E+00  0.22141135791E+04  0.22141135791E+04  0.50400001928E-02 0.  1.
       -1   -1    0    0    0  501  0.00000000000E+00  0.00000000000E+00 -0.76198486068E+03  0.76198486069E+03  0.50400001928E-02 0. -1.
    10030    2    1    2    0    0  0.00000000000E+00  0.00000000000E+00  0.14521287184E+04  0.29760984398E+04  0.25977844615E+04 0.  0.
        3    1    3    3  502    0  0.27186458185E+03 -0.96255952570E+03 -0.22328155088E+03  0.10248345489E+04  0.10100000352E+00 0. -1.
       -3    1    3    3    0  502 -0.27186458185E+03  0.96255952570E+03  0.16754102693E+04  0.19512638909E+04  0.10100000352E+00 0.  1.
</event>
<event>
 5   0  0.6161834E-06  0.2581514E+04  0.7818609E-02  0.8374508E-01
        2   -1    0    0  501    0  0.00000000000E+00  0.00000000000E+00  0.10030837906E+04  0.10030837906E+04  0.25500000920E-02 0.  1.
       -2   -1    0    0    0  501  0.00000000000E+00  0.00000000000E+00 -0.16609317164E+04  0.16609317165E+04  0.25500000920E-02 0. -1.
    10030    2    1    2    0    0  0.00000000000E+00  0.00000000000E+00 -0.65784792587E+03  0.26640155070E+04  0.25815140380E+04 0.  0.
        5    1    3    3  502    0 -0.12163948309E+04 -0.43098006762E+03 -0.35566321552E+03  0.13386107038E+04  0.46999998093E+01 0. -1.
       -5    1    3    3    0  502  0.12163948309E+04  0.43098006762E+03 -0.30218471034E+03  0.13254048033E+04  0.46999998093E+01 0.  1.
</event>
<event>
 5   0  0.2456600E-06  0.2586400E+04  0.7818609E-02  0.8372835E-01
       -1   -1    0    0    0  501  0.00000000000E+00  0.00000000000E+00  0.62432138535E+03  0.62432138537E+03  0.50400001928E-02 0.  1.
        1   -1    0    0  501    0  0.00000000000E+00  0.00000000000E+00 -0.26786951459E+04  0.26786951459E+04  0.50400001928E-02 0. -1.
    10030    2    1    2    0    0  0.00000000000E+00  0.00000000000E+00 -0.20543737605E+04  0.33030165312E+04  0.25864003282E+04 0.  0.
        5    1    3    3  502    0  0.28797582811E+03 -0.69894136342E+03  0.31276142081E+03  0.81810201285E+03  0.46999998093E+01 0.  1.
       -5    1    3    3    0  502 -0.28797582811E+03  0.69894136342E+03 -0.23671351813E+04  0.24849145184E+04  0.46999998093E+01 0. -1.
</event>
<event>
 5   0  0.6161834E-06  0.2568604E+04  0.7818609E-02  0.8378944E-01
        2   -1    0    0  501    0  0.00000000000E+00  0.00000000000E+00  0.16787176676E+04  0.16787176676E+04  0.25500000920E-02 0. -1.
       -2   -1    0    0    0  501  0.00000000000E+00  0.00000000000E+00 -0.98255476368E+03  0.98255476368E+03  0.25500000920E-02 0.  1.
    10030    2    1    2    0    0  0.00000000000E+00  0.00000000000E+00  0.69616290393E+03  0.26612724313E+04  0.25686043223E+04 0.  0.
        5    1    3    3  502    0  0.93374219057E+03 -0.82195051662E+03  0.17293907864E+02  0.12441054214E+04  0.46999998093E+01 0. -1.
       -5    1    3    3    0  502 -0.93374219057E+03  0.82195051662E+03  0.67886899606E+03  0.14171670099E+04  0.46999998093E+01 0.  1.
</event>
<event>
 5   0  0.5940748E-06  0.2608171E+04  0.7818609E-02  0.8365431E-01
       -2   -1    0    0    0  501  0.00000000000E+00  0.00000000000E+00  0.82656205520E+03  0.82656205521E+03  0.25500000920E-02 0.  1.
        2   -1    0    0  501    0  0.00000000000E+00  0.00000000000E+00 -0.20574845293E+04  0.20574845293E+04  0.25500000920E-02 0. -1.
    10030    2    1    2    0    0  0.00000000000E+00  0.00000000000E+00 -0.12309224741E+04  0.28840465845E+04  0.26081707315E+04 0.  0.
        1    1    3    3  502    0 -0.47921366054E+03  0.38010856338E+03 -0.18890276051E+04  0.19855864487E+04  0.50400001928E-02 0. -1.
       -1    1    3    3    0  502  0.47921366054E+03 -0.38010856338E+03  0.65810513092E+03  0.89846013589E+03  0.50400001928E-02 0.  1.
</event>
<event>
 5   0  0.5942229E-06  0.2594720E+04  0.7818609E-02  0.8369997E-01
       -2   -1    0    0    0  501  0.00000000000E+00  0.00000000000E+00  0.12105181570E+04  0.12105181570E+04  0.25500000920E-02 0.  1.
        2   -1    0    0  501    0  0.00000000000E+00  0.00000000000E+00 -0.13904322673E+04  0.13904322673E+04  0.25500000920E-02 0. -1.
    10030    2    1    2    0    0  0.00000000000E+00  0.00000000000E+00 -0.17991411038E+03  0.26009504243E+04  0.25947204132E+04 0.  0.
        4    1    3    3  502    0  0.92265053877E+03 -0.63451414273E+03  0.56678752165E+03  0.12550465815E+04  0.12699999809E+01 0.  1.
       -4    1    3    3    0  502 -0.92265053877E+03  0.63451414273E+03 -0.74670163203E+03  0.13459038428E+04  0.12699999809E+01 0. -1.
</event>
<event>
 5   0  0.2333979E-06  0.2592911E+04  0.7818609E-02  0.8370613E-01
       -1   -1    0    0    0  501  0.00000000000E+00  0.00000000000E+00  0.12266554322E+04  0.12266554322E+04  0.50400001928E-02 0. -1.
        1   -1    0    0  501    0  0.00000000000E+00  0.00000000000E+00 -0.13702276712E+04  0.13702276712E+04  0.50400001928E-02 0.  1.
    10030    2    1    2    0    0  0.00000000000E+00  0.00000000000E+00 -0.14357223903E+03  0.25968831034E+04  0.25929112721E+04 0.  0.
        3    1    3    3  502    0  0.12559775592E+04  0.31340338384E+03 -0.29122766867E+00  0.12944888587E+04  0.10100000352E+00 0.  1.
       -3    1    3    3    0  502 -0.12559775592E+04 -0.31340338384E+03 -0.14328101136E+03  0.13023942447E+04  0.10100000352E+00 0. -1.
</event>
<event>
 5   0  0.2471488E-06  0.2625403E+04  0.7818609E-02  0.8359623E-01
        1   -1    0    0  501    0  0.00000000000E+00  0.00000000000E+00  0.19910879443E+04  0.19910879443E+04  0.50400001928E-02 0.  1.
       -1   -1    0    0    0  501  0.00000000000E+00  0.00000000000E+00 -0.86544923079E+03  0.86544923080E+03  0.50400001928E-02 0. -1.
    10030    2    1    2    0    0  0.00000000000E+00  0.00000000000E+00  0.11256387135E+04  0.28565371751E+04  0.26254032299E+04 0.  0.
        4    1    3    3  502    0  0.93641818701E+03 -0.86288730307E+03  0.90985112834E+03  0.15650189160E+04  0.12699999809E+01 0. -1.
       -4    1    3    3    0  502 -0.93641818701E+03  0.86288730307E+03  0.21578758514E+03  0.12915182591E+04  0.12699999809E+01 0.  1.
</event>
<event>
 5   0  0.5940748E-06  0.2582064E+04  0.7818609E-02  0.8374319E-01
       -2   -1    0    0    0  501  0.00000000000E+00  0.00000000000E+00  0.10088841958E+04  0.10088841958E+04  0.25500000920E-02 0.  1.
        2   -1    0    0  501    0  0.00000000000E+00  0.00000000000E+00 -0.16520865404E+04  0.16520865404E+04  0.25500000920E-02 0. -1.
    10030    2    1    2    0    0  0.00000000000E+00  0.00000000000E+00 -0.64320234460E+03  0.26609707362E+04  0.25820642910E+04 0.  0.
        1    1    3    3  502    0  0.91607256695E+03 -0.56647990830E+03 -0.10551652021E+04  0.15078003973E+04  0.50400001928E-02 0. -1.
       -1    1    3    3    0  502 -0.91607256695E+03  0.56647990830E+03  0.41196285750E+03  0.11531703389E+04  0.50400001928E-02 0.  1.
</event>
<event>
 5   0  0.2440590E-06  0.2598108E+04  0.7818609E-02  0.8368844E-01
        1   -1    0    0  501    0  0.00000000000E+00  0.00000000000E+00  0.29678282030E+04  0.29678282030E+04  0.50400001928E-02 0.  1.
       -1   -1    0    0    0  501  0.00000000000E+00  0.00000000000E+00 -0.56861162968E+03  0.56861162971E+03  0.50400001928E-02 0. -1.
    10030    2    1    2    0    0  0.00000000000E+00  0.00000000000E+00  0.23992165733E+04  0.35364398327E+04  0.25981082588E+04 0.  0.
        1    1    3    3  502    0 -0.32486855680E+03  0.12343649512E+04  0.15283930384E+04  0.19912763977E+04  0.50400001928E-02 0.  1.
       -1    1    3    3    0  502  0.32486855680E+03 -0.12343649512E+04  0.87082353488E+03  0.15451634350E+04  0.50400001928E-02 0. -1.
</event>
<event>
 5   0  0.5942229E-06  0.2589659E+04  0.7818609E-02  0.8371722E-01
        2   -1    0    0  501    0  0.00000000000E+00  0.00000000000E+00  0.20480515056E+04  0.20480515056E+04  0.25500000920E-02 0. -1.
       -2   -1    0    0    0  501  0.00000000000E+00  0.00000000000E+00 -0.81862341681E+03  0.81862341682E+03  0.25500000920E-02 0.  1.
    10030    2    1    2    0    0  0.00000000000E+00  0.00000000000E+00  0.12294280888E+04  0.28666749225E+04  0.25896586040E+04 0.  0.
        4    1    3    3  502    0  0.13927731180E+03 -0.86752079111E+03 -0.43812509066E+03  0.98180736428E+03  0.12699999809E+01 0.  1.
       -4    1    3    3    0  502 -0.13927731180E+03  0.86752079111E+03  0.16675531795E+04  0.18848675582E+04  0.12699999809E+01 0. -1.
</event>
<event>
 5   0  0.6161834E-06  0.2597935E+04  0.7818609E-02  0.8368903E-01
        2   -1    0    0  501    0  0.00000000000E+00  0.00000000000E+00  0.18322553003E+04  0.18322553003E+04  0.25500000920E-02 0.  1.
       -2   -1    0    0    0  501  0.00000000000E+00  0.00000000000E+00 -0.92089584498E+03  0.92089584498E+03  0.25500000920E-02 0. -1.
    10030    2    1    2    0    0  0.00000000000E+00  0.00000000000E+00  0.91135945537E+03  0.27531511453E+04  0.25979347898E+04 0.  0.
        5    1    3    3  502    0 -0.72017794104E+03 -0.67064231543E+03  0.13542024185E+04  0.16740082623E+04  0.46999998093E+01 0.  1.
       -5    1    3    3    0  502  0.72017794104E+03  0.67064231543E+03 -0.44284296312E+03  0.10791428830E+04  0.46999998093E+01 0. -1.
</event>
<event>
 5   0  0.6161834E-06  0.2607402E+04  0.7818609E-02  0.8365691E-01
       -2   -1    0    0    0  501  0.00000000000E+00  0.00000000000E+00  0.10510026898E+04  0.10510026898E+04  0.25500000920E-02 0. -1.
        2   -1    0    0  501    0  0.00000000000E+00  0.00000000000E+00 -0.16171573878E+04  0.16171573878E+04  0.25500000920E-02 0.  1.
    10030    2    1    2    0    0  0.00000000000E+00  0.00000000000E+00 -0.56615469803E+03  0.26681600777E+04  0.26074023583E+04 0.  0.
        5    1    3    3  502    0  0.72991351914E+03 -0.33670742730E+03 -0.13333806143E+04  0.15569430271E+04  0.46999998093E+01 0.  1.
       -5    1    3    3    0  502 -0.72991351914E+03  0.33670742730E+03  0.76722591623E+03  0.11112170506E+04  0.46999998093E+01 0. -1.
</event>
<event>
 5   0  0.2471488E-06  0.2601663E+04  0.7818609E-02  0.8367637E-01
       -1   -1    0    0    0  501  0.00000000000E+00  0.00000000000E+00  0.11868906588E+04  0.11868906588E+04  0.50400001928E-02 0. -1.
        1   -1    0    0  501    0  0.00000000000E+00  0.00000000000E+00 -0.14257101398E+04  0.14257101398E+04  0.50400001928E-02 0.  1.
    10030    2    1    2    0    0  0.00000000000E+00  0.00000000000E+00 -0.23881948095E+03  0.26126007986E+04  0.26016625816E+04 0.  0.
        4    1    3    3  502    0 -0.33525389327E+03 -0.65301696570E+03  0.95903935768E+03  0.12077186895E+04  0.12699999809E+01 0. -1.
       -4    1    3    3    0  502  0.33525389327E+03  0.65301696570E+03 -0.11978588386E+04  0.14048821092E+04  0.12699999809E+01 0.  1.
</event>
<event>
 5   0  0.2471488E-06  0.2600007E+04  0.7818609E-02  0.8368199E-01
        1   -1    0    0  501    0  0.00000000000E+00  0.00000000000E+00  0.22344706988E+04  0.22344706988E+04  0.50400001928E-02 0. -1.
       -1   -1    0    0    0  501  0.00000000000E+00  0.00000000000E+00 -0.75633542364E+03  0.75633542365E+03  0.50400001928E-02 0.  1.
    10030    2    1    2    0    0  0.00000000000E+00  0.00000000000E+00  0.14781352751E+04  0.29908061224E+04  0.26000071866E+04 0.  0.
        4    1    3    3  502    0 -0.59238945545E+03 -0.11011539319E+04  0.11482641138E+04  0.16976387533E+04  0.12699999809E+01 0.  1.
       -4    1    3    3    0  502  0.59238945545E+03  0.11011539319E+04  0.32987116127E+03  0.12931673691E+04  0.12699999809E+01 0. -1.
</event>
<event>
 5   0  0.2440590E-06  0.2606379E+04  0.7818609E-02  0.8366038E-01
       -1   -1    0    0    0  501  0.00000000000E+00  0.00000000000E+00  0.13464099438E+04  0.13464099438E+04  0.50400001928E-02 0.  1.
        1   -1    0    0  501    0  0.00000000000E+00  0.00000000000E+00 -0.12613567309E+04  0.12613567309E+04  0.50400001928E-02 0. -1.
    10030    2    1    2    0    0  0.00000000000E+00  0.00000000000E+00  0.85053212867E+02  0.26077666747E+04  0.26063792857E+04 0.  0.
        1    1    3    3  502    0  0.52369566389E+03  0.11788010910E+04  0.22829742211E+03  0.13099423168E+04  0.50400001928E-02 0. -1.
       -1    1    3    3    0  502 -0.52369566389E+03 -0.11788010910E+04 -0.14324420924E+03  0.12978243579E+04  0.50400001928E-02 0.  1.
</event>
<event>
 5   0  0.6161834E-06  0.2585408E+04  0.7818609E-02  0.8373175E-01
        2   -1    0    0  501    0  0.00000000000E+00  0.00000000000E+00  0.26079293039E+04  0.26079293039E+04  0.25500000920E-02 0.  1.
       -2   -1    0    0    0  501  0.00000000000E+00  0.00000000000E+00 -0.64077033398E+03  0.64077033399E+03  0.25500000920E-02 0. -1.
    10030    2    1    2    0    0  0.00000000000E+00  0.00000000000E+00  0.19671589699E+04  0.32486996379E+04  0.25854080769E+04 0.  0.
        5    1    3    3  502    0  0.81255715613E+03  0.88456116715E+03  0.15840536510E+04  0.19879501125E+04  0.46999998093E+01 0.  1.
       -5    1    3    3    0  502 -0.81255715613E+03 -0.88456116715E+03  0.38310531888E+03  0.12607495254E+04  0.46999998093E+01 0. -1.
</event>
<event>
 5   0  0.5942229E-06  0.2593941E+04  0.7818609E-02  0.8370262E-01
        2   -1    0    0  501    0  0.00000000000E+00  0.00000000000E+00  0.25831562560E+04  0.25831562560E+04  0.25500000920E-02 0. -1.
       -2   -1    0    0    0  501  0.00000000000E+00  0.00000000000E+00 -0.65119283047E+03  0.65119283047E+03  0.25500000920E-02 0.  1.
    10030    2    1    2    0    0  0.00000000000E+00  0.00000000000E+00  0.19319634255E+04  0.32343490864E+04  0.25939412745E+04 0.  0.
        4    1    3    3  502    0  0.11264862567E+04 -0.13429879324E+03  0.18220324191E+03  0.11490026487E+04  0.12699999809E+01 0.  1.
       -4    1    3    3    0  502 -0.11264862567E+04  0.13429879324E+03  0.17497601836E+04  0.20853464377E+04  0.12699999809E+01 0. -1.
</event>
<event>
 5   0  0.5940748E-06  0.2649107E+04  0.7818609E-02  0.8351710E-01
        2   -1    0    0  501    0  0.00000000000E+00  0.00000000000E+00  0.95054607236E+03  0.95054607237E+03  0.25500000920E-02 0. -1.
       -2   -1    0    0    0  501  0.00000000000E+00  0.00000000000E+00 -0.18457194214E+04  0.18457194214E+04  0.25500000920E-02 0.  1.
    10030    2    1    2    0    0  0.00000000000E+00  0.00000000000E+00 -0.89517334900E+03  0.27962654937E+04  0.26491065261E+04 0.  0.
        1    1    3    3  502    0  0.43624833289E+03  0.25612883392E+03 -0.17397316174E+04  0.18117893608E+04  0.50400001928E-02 0.  1.
       -1    1    3    3    0  502 -0.43624833289E+03 -0.25612883392E+03  0.84455826838E+03  0.98447613289E+03  0.50400001928E-02 0. -1.
</event>
<event>
 5   0  0.5940748E-06  0.2636106E+04  0.7818609E-02  0.8356039E-01
        2   -1    0    0  501    0  0.00000000000E+00  0.00000000000E+00  0.19432177235E+04  0.19432177235E+04  0.25500000920E-02 0.  1.
       -2   -1    0    0    0  501  0.00000000000E+00  0.00000000000E+00 -0.89401403480E+03  0.89401403480E+03  0.25500000920E-02 0. -1.
    10030    2    1    2    0    0  0.00000000000E+00  0.00000000000E+00  0.10492036887E+04  0.28372317583E+04  0.26361061568E+04 0.  0.
        1    1    3    3  502    0 -0.71149134093E+03 -0.89814501274E+03 -0.17654523345E+03  0.11593328304E+04  0.50400001928E-02 0. -1.
       -1    1    3    3    0  502  0.71149134093E+03  0.89814501274E+03  0.12257489222E+04  0.16778989279E+04  0.50400001928E-02 0.  1.
</event>
<event>
 5   0  0.2503292E-06  0.2600156E+04  0.7818609E-02  0.8368148E-01
        1   -1    0    0  501    0  0.00000000000E+00  0.00000000000E+00  0.14794981256E+04  0.14794981256E+04  0.50400001928E-02 0. -1.
       -1   -1    0    0    0  501  0.00000000000E+00  0.00000000000E+00 -0.11424163326E+04  0.11424163326E+04  0.50400001928E-02 0.  1.
    10030    2    1    2    0    0  0.00000000000E+00  0.00000000000E+00  0.33708179298E+03  0.26219144582E+04  0.26001560128E+04 0.  0.
        2    1    3    3  502    0 -0.12054658114E+04  0.48668474656E+03  0.18254806542E+03  0.13127580360E+04  0.25500000920E-02 0.  1.
       -2    1    3    3    0  502  0.12054658114E+04 -0.48668474656E+03  0.15453372756E+03  0.13091564222E+04  0.25500000920E-02 0. -1.
</event>
<event>
 5   0  0.2456600E-06  0.2601114E+04  0.7818609E-02  0.8367823E-01
        1   -1    0    0  501    0  0.00000000000E+00  0.00000000000E+00  0.20518418920E+04  0.20518418920E+04  0.50400001928E-02 0.  1.
       -1   -1    0    0    0  501  0.00000000000E+00  0.00000000000E+00 -0.82435619220E+03  0.82435619221E+03  0.50400001928E-02 0. -1.
    10030    2    1    2    0    0  0.00000000000E+00  0.00000000000E+00  0.12274856998E+04  0.28761980842E+04  0.26011140453E+04 0.  0.
        5    1    3    3  502    0 -0.90325909234E+03  0.80933130702E+03  0.11330155947E+04  0.16597109930E+04  0.46999998093E+01 0. -1.
       -5    1    3    3    0  502  0.90325909234E+03 -0.80933130702E+03  0.94470105131E+02  0.12164870912E+04  0.46999998093E+01 0.  1.
</event>
<event>
 5   0  0.6161834E-06  0.2601075E+04  0.7818609E-02  0.8367836E-01
        2   -1    0    0  501    0  0.00000000000E+00  0.00000000000E+00  0.18283228553E+04  0.18283228554E+04  0.25500000920E-02 0.  1.
       -2   -1    0    0    0  501  0.00000000000E+00  0.00000000000E+00 -0.92510859165E+03  0.92510859165E+03  0.25500000920E-02 0. -1.
    10030    2    1    2    0    0  0.00000000000E+00  0.00000000000E+00  0.90321426370E+03  0.27534314470E+04  0.26010745332E+04 0.  0.
        5    1    3    3  502    0 -0.28771038936E+03  0.61497763941E+03  0.16258141995E+04  0.17618934889E+04  0.46999998093E+01 0.  1.
       -5    1    3    3    0  502  0.28771038936E+03 -0.61497763941E+03 -0.72259993577E+03  0.99153795807E+03  0.46999998093E+01 0. -1.
</event>
<event>
 5   0  0.2471488E-06  0.2589145E+04  0.7818609E-02  0.8371898E-01
        1   -1    0    0  501    0  0.00000000000E+00  0.00000000000E+00  0.14283186228E+04  0.14283186228E+04  0.50400001928E-02 0.  1.
       -1   -1    0    0    0  501  0.00000000000E+00  0.00000000000E+00 -0.11733505654E+04  0.11733505654E+04  0.50400001928E-02 0. -1.
    10030    2    1    2    0    0  0.00000000000E+00  0.00000000000E+00  0.25496805745E+03  0.26016691882E+04  0.25891453908E+04 0.  0.
        4    1    3    3  502    0 -0.59054515777E+03 -0.11433414010E+04 -0.14421263147E+02  0.12869276313E+04  0.12699999809E+01 0. -1.
       -4    1    3    3    0  502  0.59054515777E+03  0.11433414010E+04  0.26938932059E+03  0.13147415569E+04  0.12699999809E+01 0.  1.
</event>
<event>
 5   0  0.6158063E-06  0.2605146E+04  0.7818609E-02  0.8366455E-01
       -2   -1    0    0    0  501  0.00000000000E+00  0.00000000000E+00  0.74319854177E+03  0.74319854177E+03  0.25500000920E-02 0.  1.
        2   -1    0    0  501    0  0.00000000000E+00  0.00000000000E+00 -0.22829653549E+04  0.22829653549E+04  0.25500000920E-02 0. -1.
    10030    2    1    2    0    0  0.00000000000E+00  0.00000000000E+00 -0.15397668131E+04  0.30261638966E+04  0.26051460786E+04 0.  0.
        2    1    3    3  502    0 -0.63596216158E+03 -0.10185842215E+04 -0.18360414128E+03  0.12147724758E+04  0.25500000920E-02 0.  1.
       -2    1    3    3    0  502  0.63596216158E+03  0.10185842215E+04 -0.13561626718E+04  0.18113914209E+04  0.25500000920E-02 0. -1.
</event>
<event>
 5   0  0.2440590E-06  0.2589557E+04  0.7818609E-02  0.8371757E-01
       -1   -1    0    0    0  501  0.00000000000E+00  0.00000000000E+00  0.97813514627E+03  0.97813514628E+03  0.50400001928E-02 0.  1.
        1   -1    0    0  501    0  0.00000000000E+00  0.00000000000E+00 -0.17139255751E+04  0.17139255751E+04  0.50400001928E-02 0. -1.
    10030    2    1    2    0    0  0.00000000000E+00  0.00000000000E+00 -0.73579042887E+03  0.26920607214E+04  0.25895565977E+04 0.  0.
        1    1    3    3  502    0 -0.82879928961E+02  0.12502269930E+03 -0.17048624819E+04  0.17114484627E+04  0.50400001928E-02 0. -1.
       -1    1    3    3    0  502  0.82879928961E+02 -0.12502269930E+03  0.96907205308E+03  0.98061225877E+03  0.50400001928E-02 0.  1.
</event>
<event>
 5   0  0.6173140E-06  0.2593322E+04  0.7818609E-02  0.8370473E-01
       -2   -1    0    0    0  501  0.00000000000E+00  0.00000000000E+00  0.14392623872E+04  0.14392623872E+04  0.25500000920E-02 0. -1.
        2   -1    0    0  501    0  0.00000000000E+00  0.00000000000E+00 -0.11681886246E+04  0.11681886246E+04  0.25500000920E-02 0.  1.
    10030    2    1    2    0    0  0.00000000000E+00  0.00000000000E+00  0.27107376256E+03  0.26074510118E+04  0.25933221539E+04 0.  0.
        3    1    3    3  502    0  0.61227701632E+03  0.69376151258E+03 -0.77778522693E+03  0.12087754343E+04  0.10100000352E+00 0.  1.
       -3    1    3    3    0  502 -0.61227701632E+03 -0.69376151258E+03  0.10488589895E+04  0.13986755775E+04  0.10100000352E+00 0. -1.
</event>
<event>
 5   0  0.6161834E-06  0.2594313E+04  0.7818609E-02  0.8370135E-01
       -2   -1    0    0    0  501  0.00000000000E+00  0.00000000000E+00  0.12088544881E+04  0.12088544881E+04  0.25500000920E-02 0. -1.
        2   -1    0    0  501    0  0.00000000000E+00  0.00000000000E+00 -0.13919091435E+04  0.13919091435E+04  0.25500000920E-02 0.  1.
    10030    2    1    2    0    0  0.00000000000E+00  0.00000000000E+00 -0.18305465532E+03  0.26007636316E+04  0.25943134854E+04 0.  0.
        5    1    3    3  502    0 -0.11123794980E+04 -0.50705018304E+02 -0.75848919010E+03  0.13473259027E+04  0.46999998093E+01 0.  1.
       -5    1    3    3    0  502  0.11123794980E+04  0.50705018304E+02  0.57543453479E+03  0.12534377289E+04  0.46999998093E+01 0. -1.
</event>
<event>
 5   0  0.2440590E-06  0.2542903E+04  0.7818609E-02  0.8387859E-01
       -1   -1    0    0    0  501  0.00000000000E+00  0.00000000000E+00  0.12196444267E+04  0.12196444267E+04  0.50400001928E-02 0. -1.
        1   -1    0    0  501    0  0.00000000000E+00  0.00000000000E+00 -0.13254591128E+04  0.13254591128E+04  0.50400001928E-02 0.  1.
    10030    2    1    2    0    0  0.00000000000E+00  0.00000000000E+00 -0.10581468610E+03  0.25451035394E+04  0.25429029236E+04 0.  0.
        1    1    3    3  502    0 -0.81014548531E+03 -0.50057789359E+03 -0.89605840581E+03  0.13076064399E+04  0.50400001928E-02 0.  1.
       -1    1    3    3    0  502  0.81014548531E+03  0.50057789359E+03  0.79024371971E+03  0.12374970996E+04  0.50400001928E-02 0. -1.
</event>
<event>
 5   0  0.2471488E-06  0.2599526E+04  0.7818609E-02  0.8368362E-01
        1   -1    0    0  501    0  0.00000000000E+00  0.00000000000E+00  0.60115002036E+03  0.60115002038E+03  0.50400001928E-02 0. -1.
       -1   -1    0    0    0  501  0.00000000000E+00  0.00000000000E+00 -0.28102534459E+04  0.28102534459E+04  0.50400001928E-02 0.  1.
    10030    2    1    2    0    0  0.00000000000E+00  0.00000000000E+00 -0.22091034255E+04  0.34114034663E+04  0.25995260462E+04 0.  0.
        4    1    3    3  502    0 -0.14474409943E+03  0.99809496767E+03 -0.28581111954E+02  0.10089414808E+04  0.12699999809E+01 0. -1.
       -4    1    3    3    0  502  0.14474409943E+03 -0.99809496767E+03 -0.21805223136E+04  0.24024619855E+04  0.12699999809E+01 0.  1.
</event>
<event>
 5   0  0.2456600E-06  0.2601625E+04  0.7818609E-02  0.8367649E-01
        1   -1    0    0  501    0  0.00000000000E+00  0.00000000000E+00  0.15586501413E+04  0.15586501413E+04  0.50400001928E-02 0.  1.
       -1   -1    0    0    0  501  0.00000000000E+00  0.00000000000E+00 -0.10856273993E+04  0.10856273993E+04  0.50400001928E-02 0. -1.
    10030    2    1    2    0    0  0.00000000000E+00  0.00000000000E+00  0.47302274198E+03  0.26442775406E+04  0.26016251070E+04 0.  0.
        5    1    3    3  502    0 -0.79343090997E+03 -0.96479083319E+03  0.60541813283E+03  0.13881308174E+04  0.46999998093E+01 0. -1.
       -5    1    3    3    0  502  0.79343090997E+03  0.96479083319E+03 -0.13239539084E+03  0.12561467232E+04  0.46999998093E+01 0.  1.
</event>
<event>
 5   0  0.2456600E-06  0.2598771E+04  0.7818609E-02  0.8368619E-01
       -1   -1    0    0    0  501  0.00000000000E+00  0.00000000000E+00  0.12416820262E+04  0.12416820262E+04  0.50400001928E-02 0.  1.
        1   -1    0    0  501    0  0.00000000000E+00  0.00000000000E+00 -0.13597703839E+04  0.13597703839E+04  0.50400001928E-02 0. -1.
    10030    2    1    2    0    0  0.00000000000E+00  0.00000000000E+00 -0.11808835771E+03  0.26014524102E+04  0.25987708214E+04 0.  0.
        5    1    3    3  502    0  0.40448659391E+03 -0.70098295495E+03  0.95856458702E+03  0.12545336445E+04  0.46999998093E+01 0.  1.
       -5    1    3    3    0  502 -0.40448659391E+03  0.70098295495E+03 -0.10766529447E+04  0.13469187656E+04  0.46999998093E+01 0. -1.
</event>
<event>
 5   0  0.6161834E-06  0.2607683E+04  0.7818609E-02  0.8365596E-01
       -2   -1    0    0    0  501  0.00000000000E+00  0.00000000000E+00  0.17262913727E+04  0.17262913727E+04  0.25500000920E-02 0.  1.
        2   -1    0    0  501    0  0.00000000000E+00  0.00000000000E+00 -0.98477119130E+03  0.98477119130E+03  0.25500000920E-02 0. -1.
    10030    2    1    2    0    0  0.00000000000E+00  0.00000000000E+00  0.74152018143E+03  0.27110625640E+04  0.26076825050E+04 0.  0.
        5    1    3    3  502    0 -0.85319098722E+03  0.33807979556E+03 -0.59210282242E+03  0.10921724457E+04  0.46999998093E+01 0.  1.
       -5    1    3    3    0  502  0.85319098722E+03 -0.33807979556E+03  0.13336230038E+04  0.16188901183E+04  0.46999998093E+01 0. -1.
</event>
<event>
 5   0  0.6161834E-06  0.2572787E+04  0.7818609E-02  0.8377504E-01
        2   -1    0    0  501    0  0.00000000000E+00  0.00000000000E+00  0.22709323609E+04  0.22709323609E+04  0.25500000920E-02 0. -1.
       -2   -1    0    0    0  501  0.00000000000E+00  0.00000000000E+00 -0.72869085486E+03  0.72869085487E+03  0.25500000920E-02 0.  1.
    10030    2    1    2    0    0  0.00000000000E+00  0.00000000000E+00  0.15422415060E+04  0.29996232158E+04  0.25727865387E+04 0.  0.
        5    1    3    3  502    0 -0.90149946127E+03 -0.51029043414E+03 -0.11809671220E+03  0.10426248267E+04  0.46999998093E+01 0.  1.
       -5    1    3    3    0  502  0.90149946127E+03  0.51029043414E+03  0.16603382182E+04  0.19569983890E+04  0.46999998093E+01 0. -1.
</event>
<event>
 5   0  0.6173140E-06  0.2613309E+04  0.7818609E-02  0.8363695E-01
       -2   -1    0    0    0  501  0.00000000000E+00  0.00000000000E+00  0.10468842797E+04  0.10468842797E+04  0.25500000920E-02 0.  1.
        2   -1    0    0  501    0  0.00000000000E+00  0.00000000000E+00 -0.16308827754E+04  0.16308827754E+04  0.25500000920E-02 0. -1.
    10030    2    1    2    0    0  0.00000000000E+00  0.00000000000E+00 -0.58399849572E+03  0.26777670551E+04  0.26133086612E+04 0.  0.
        3    1    3    3  502    0 -0.11290697671E+04 -0.65729378254E+03 -0.31518192434E+03  0.13439394745E+04  0.10100000352E+00 0. -1.
       -3    1    3    3    0  502  0.11290697671E+04  0.65729378254E+03 -0.26881657138E+03  0.13338275806E+04  0.10100000352E+00 0.  1.
</event>
<event>
 5   0  0.6161834E-06  0.2589842E+04  0.7818609E-02  0.8371660E-01
        2   -1    0    0  501    0  0.00000000000E+00  0.00000000000E+00  0.21257841173E+04  0.21257841173E+04  0.25500000920E-02 0. -1.
       -2   -1    0    0    0  501  0.00000000000E+00  0.00000000000E+00 -0.78880070726E+03  0.78880070727E+03  0.25500000920E-02 0.  1.
    10030    2    1    2    0    0  0.00000000000E+00  0.00000000000E+00  0.13369834101E+04  0.29145848246E+04  0.25898417058E+04 0.  0.
        5    1    3    3  502    0  0.82447665285E+03  0.41821415491E+03  0.16889013255E+04  0.19253764847E+04  0.46999998093E+01 0. -1.
       -5    1    3    3    0  502 -0.82447665285E+03 -0.41821415491E+03 -0.35191791548E+03  0.98920833988E+03  0.46999998093E+01 0.  1.
</event>
<event>
 5   0  0.2503292E-06  0.2594657E+04  0.7818609E-02  0.8370018E-01
       -1   -1    0    0    0  501  0.00000000000E+00  0.00000000000E+00  0.13707056924E+04  0.13707056924E+04  0.50400001928E-02 0.  1.
        1   -1    0    0  501    0  0.00000000000E+00  0.00000000000E+00 -0.12278797930E+04  0.12278797930E+04  0.50400001928E-02 0. -1.
    10030    2    1    2    0    0  0.00000000000E+00  0.00000000000E+00  0.14282589939E+03  0.25985854854E+04  0.25946574509E+04 0.  0.
        2    1    3    3  502    0  0.93509118858E+03  0.71285445944E+03  0.62042603125E+03  0.13294681160E+04  0.25500000920E-02 0.  1.
       -2    1    3    3    0  502 -0.93509118858E+03 -0.71285445944E+03 -0.47760013185E+03  0.12691173694E+04  0.25500000920E-02 0. -1.
</event>
<event>
 5   0  0.6173140E-06  0.2594596E+04  0.7818609E-02  0.8370039E-01
        2   -1    0    0  501    0  0.00000000000E+00  0.00000000000E+00  0.15928997492E+04  0.15928997492E+04  0.25500000920E-02 0.  1.
       -2   -1    0    0    0  501  0.00000000000E+00  0.00000000000E+00 -0.10565522667E+04  0.10565522667E+04  0.25500000920E-02 0. -1.
    10030    2    1    2    0    0  0.00000000000E+00  0.00000000000E+00  0.53634748256E+03  0.26494520159E+04  0.25945957994E+04 0.  0.
        3    1    3    3  502    0  0.10771328440E+04  0.34928928556E+03  0.91461715624E+03  0.14555901625E+04  0.10100000352E+00 0.  1.
       -3    1    3    3    0  502 -0.10771328440E+04 -0.34928928556E+03 -0.37826967368E+03  0.11938618533E+04  0.10100000352E+00 0. -1.
</event>
<event>
 5   0  0.5942229E-06  0.2616054E+04  0.7818609E-02  0.8362768E-01
        2   -1    0    0  501    0  0.00000000000E+00  0.00000000000E+00  0.14101949080E+04  0.14101949080E+04  0.25500000920E-02 0. -1.
       -2   -1    0    0    0  501  0.00000000000E+00  0.00000000000E+00 -0.12132612606E+04  0.12132612606E+04  0.25500000920E-02 0.  1.
    10030    2    1    2    0    0  0.00000000000E+00  0.00000000000E+00  0.19693364740E+03  0.26234561686E+04  0.26160541675E+04 0.  0.
        4    1    3    3  502    0  0.15137519533E+03  0.33906538397E+03 -0.11592961938E+04  0.12173122288E+04  0.12699999809E+01 0.  1.
       -4    1    3    3    0  502 -0.15137519533E+03 -0.33906538397E+03  0.13562298412E+04  0.14061439398E+04  0.12699999809E+01 0. -1.
</event>
<event>
 5   0  0.6173140E-06  0.2602025E+04  0.7818609E-02  0.8367514E-01
       -2   -1    0    0    0  501  0.00000000000E+00  0.00000000000E+00  0.11222764340E+04  0.11222764340E+04  0.25500000920E-02 0.  1.
        2   -1    0    0  501    0  0.00000000000E+00  0.00000000000E+00 -0.15082144667E+04  0.15082144667E+04  0.25500000920E-02 0. -1.
    10030    2    1    2    0    0  0.00000000000E+00  0.00000000000E+00 -0.38593803268E+03  0.26304909007E+04  0.26020250217E+04 0.  0.
        3    1    3    3  502    0 -0.12715319263E+04 -0.96250478743E+02 -0.45381491822E+03  0.13535160082E+04  0.10100000352E+00 0. -1.
       -3    1    3    3    0  502  0.12715319263E+04  0.96250478743E+02  0.67876885539E+02  0.12769748925E+04  0.10100000352E+00 0.  1.
</event>
<event>
 5   0  0.2503292E-06  0.2612843E+04  0.7818609E-02  0.8363852E-01
       -1   -1    0    0    0  501  0.00000000000E+00  0.00000000000E+00  0.83694132931E+03  0.83694132932E+03  0.50400001928E-02 0. -1.
        1   -1    0    0  501    0  0.00000000000E+00  0.00000000000E+00 -0.20392554412E+04  0.20392554412E+04  0.50400001928E-02 0.  1.
    10030    2    1    2    0    0  0.00000000000E+00  0.00000000000E+00 -0.12023141119E+04  0.28761967706E+04  0.26128430185E+04 0.  0.
        2    1    3    3  502    0  0.96412333912E+03  0.85748516611E+03 -0.82654415463E+03  0.15323151969E+04  0.25500000920E-02 0. -1.
       -2    1    3    3    0  502 -0.96412333912E+03 -0.85748516611E+03 -0.37576995729E+03  0.13438815736E+04  0.25500000920E-02 0.  1.
</event>
<event>
 5   0  0.6158063E-06  0.2592302E+04  0.7818609E-02  0.8370821E-01
        2   -1    0    0  501    0  0.00000000000E+00  0.00000000000E+00  0.17261767569E+04  0.17261767569E+04  0.25500000920E-02 0.  1.
       -2   -1    0    0    0  501  0.00000000000E+00  0.00000000000E+00 -0.97325353875E+03  0.97325353876E+03  0.25500000920E-02 0. -1.
    10030    2    1    2    0    0  0.00000000000E+00  0.00000000000E+00  0.75292321819E+03  0.26994302957E+04  0.25923021716E+04 0.  0.
        2    1    3    3  502    0 -0.36554423835E+03  0.72342148420E+02 -0.91627242665E+03  0.98914667086E+03  0.25500000920E-02 0. -1.
       -2    1    3    3    0  502  0.36554423835E+03 -0.72342148420E+02  0.16691956448E+04  0.17102836248E+04  0.25500000920E-02 0.  1.
</event>
<event>
 5   0  0.2471488E-06  0.2528952E+04  0.7818609E-02  0.8392743E-01
       -1   -1    0    0    0  501  0.00000000000E+00  0.00000000000E+00  0.96839717918E+03  0.96839717920E+03  0.50400001928E-02 0. -1.
        1   -1    0    0  501    0  0.00000000000E+00  0.00000000000E+00 -0.16510784695E+04  0.16510784695E+04  0.50400001928E-02 0.  1.
    10030    2    1    2    0    0  0.00000000000E+00  0.00000000000E+00 -0.68268129035E+03  0.26194756487E+04  0.25289521407E+04 0.  0.
        4    1    3    3  502    0  0.42861575344E+03  0.11175975722E+04  0.80880550540E+02  0.11996995765E+04  0.12699999809E+01 0. -1.
       -4    1    3    3    0  502 -0.42861575344E+03 -0.11175975722E+04 -0.76356184089E+03  0.14197760722E+04  0.12699999809E+01 0.  1.
</event>
<event>
 5   0  0.2471488E-06  0.2602823E+04  0.7818609E-02  0.8367243E-01
        1   -1    0    0  501    0  0.00000000000E+00  0.00000000000E+00  0.86003149713E+03  0.86003149714E+03  0.50400001928E-02 0. -1.
       -1   -1    0    0    0  501  0.00000000000E+00  0.00000000000E+00 -0.19693133249E+04  0.19693133249E+04  0.50400001928E-02 0.  1.
    10030    2    1    2    0    0  0.00000000000E+00  0.00000000000E+00 -0.11092818278E+04  0.28293448220E+04  0.26028226887E+04 0.  0.
        4    1    3    3  502    0 -0.20964220755E+03  0.59617104015E+03  0.68204322249E+03  0.92981413978E+03  0.12699999809E+01 0. -1.
       -4    1    3    3    0  502  0.20964220755E+03 -0.59617104015E+03 -0.17913250503E+04  0.18995306823E+04  0.12699999809E+01 0.  1.
</event>
<event>
 5   0  0.5942229E-06  0.2631348E+04  0.7818609E-02  0.8357630E-01
        2   -1    0    0  501    0  0.00000000000E+00  0.00000000000E+00  0.17525580714E+04  0.17525580714E+04  0.25500000920E-02 0.  1.
       -2   -1    0    0    0  501  0.00000000000E+00  0.00000000000E+00 -0.98769817852E+03  0.98769817852E+03  0.25500000920E-02 0. -1.
    10030    2    1    2    0    0  0.00000000000E+00  0.00000000000E+00  0.76485989289E+03  0.27402562499E+04  0.26313482589E+04 0.  0.
        4    1    3    3  502    0 -0.12863867863E+03 -0.49158332265E+03  0.16462462595E+04  0.17228843352E+04  0.12699999809E+01 0.  1.
       -4    1    3    3    0  502  0.12863867863E+03  0.49158332265E+03 -0.88138636659E+03  0.10173719147E+04  0.12699999809E+01 0. -1.
</event>
<event>
 5   0  0.2333979E-06  0.2588813E+04  0.7818609E-02  0.8372011E-01
       -1   -1    0    0    0  501  0.00000000000E+00  0.00000000000E+00  0.11605004783E+04  0.11605004783E+04  0.50400001928E-02 0. -1.
        1   -1    0    0  501    0  0.00000000000E+00  0.00000000000E+00 -0.14437638710E+04  0.14437638711E+04  0.50400001928E-02 0.  1.
    10030    2    1    2    0    0  0.00000000000E+00  0.00000000000E+00 -0.28326339273E+03  0.26042643494E+04  0.25888133675E+04 0.  0.
        3    1    3    3  502    0 -0.86526737394E+03 -0.87972711363E+03  0.25170222991E+03  0.12593496121E+04  0.10100000352E+00 0. -1.
       -3    1    3    3    0  502  0.86526737394E+03  0.87972711363E+03 -0.53496562264E+03  0.13449147372E+04  0.10100000352E+00 0.  1.
</event>
<event>
 5   0  0.2503292E-06  0.2593430E+04  0.7818609E-02  0.8370436E-01
       -1   -1    0    0    0  501  0.00000000000E+00  0.00000000000E+00  0.14113807268E+04  0.14113807268E+04  0.50400001928E-02 0.  1.
        1   -1    0    0  501    0  0.00000000000E+00  0.00000000000E+00 -0.11913649202E+04  0.11913649202E+04  0.50400001928E-02 0. -1.
    10030    2    1    2    0    0  0.00000000000E+00  0.00000000000E+00  0.22001580660E+03  0.26027456469E+04  0.25934297653E+04 0.  0.
        2    1    3    3  502    0 -0.24473277669E+02  0.12851860702E+03  0.14047403337E+04  0.14108193998E+04  0.25500000920E-02 0.  1.
       -2    1    3    3    0  502  0.24473277669E+02 -0.12851860702E+03 -0.11847245271E+04  0.11919262472E+04  0.25500000920E-02 0. -1.
</event>
<event>
 5   0  0.5940748E-06  0.2589380E+04  0.7818609E-02  0.8371818E-01
        2   -1    0    0  501    0  0.00000000000E+00  0.00000000000E+00  0.19956250763E+04  0.19956250763E+04  0.25500000920E-02 0. -1.
       -2   -1    0    0    0  501  0.00000000000E+00  0.00000000000E+00 -0.83994843830E+03  0.83994843830E+03  0.25500000920E-02 0.  1.
    10030    2    1    2    0    0  0.00000000000E+00  0.00000000000E+00  0.11556766380E+04  0.28355735146E+04  0.25893799769E+04 0.  0.
        1    1    3    3  502    0 -0.83674702179E+03  0.42027534093E+03  0.15569663465E+04  0.18168437315E+04  0.50400001928E-02 0. -1.
       -1    1    3    3    0  502  0.83674702179E+03 -0.42027534093E+03 -0.40128970852E+03  0.10187297830E+04  0.50400001928E-02 0.  1.
</event>
<event>
 5   0  0.6173140E-06  0.2602471E+04  0.7818609E-02  0.8367363E-01
       -2   -1    0    0    0  501  0.00000000000E+00  0.00000000000E+00  0.14643930495E+04  0.14643930495E+04  0.25500000920E-02 0.  1.
        2   -1    0    0  501    0  0.00000000000E+00  0.00000000000E+00 -0.11562559830E+04  0.11562559830E+04  0.25500000920E-02 0. -1.
    10030    2    1    2    0    0  0.00000000000E+00  0.00000000000E+00  0.30813706649E+03  0.26206490326E+04  0.26024705378E+04 0.  0.
        3    1    3    3  502    0 -0.78075647973E+03 -0.11035973854E+03 -0.88827207241E+03  0.11877656492E+04  0.10100000352E+00 0. -1.
       -3    1    3    3    0  502  0.78075647973E+03  0.11035973854E+03  0.11964091389E+04  0.14328833834E+04  0.10100000352E+00 0.  1.
</event>
<event>
 5   0  0.5942229E-06  0.2611636E+04  0.7818609E-02  0.8364259E-01
       -2   -1    0    0    0  501  0.00000000000E+00  0.00000000000E+00  0.87971363401E+03  0.87971363401E+03  0.25500000920E-02 0. -1.
        2   -1    0    0  501    0  0.00000000000E+00  0.00000000000E+00 -0.19383138349E+04  0.19383138349E+04  0.25500000920E-02 0.  1.
    10030    2    1    2    0    0  0.00000000000E+00  0.00000000000E+00 -0.10586002009E+04  0.28180274689E+04  0.26116363511E+04 0.  0.
        4    1    3    3  502    0  0.76160685236E+03  0.47995231551E+03 -0.15499713077E+04  0.17924318370E+04  0.12699999809E+01 0.  1.
       -4    1    3    3    0  502 -0.76160685236E+03 -0.47995231551E+03  0.49137110679E+03  0.10255956319E+04  0.12699999809E+01 0. -1.
</event>
<event>
 5   0  0.2440590E-06  0.2615901E+04  0.7818609E-02  0.8362820E-01
       -1   -1    0    0    0  501  0.00000000000E+00  0.00000000000E+00  0.71385715551E+03  0.71385715552E+03  0.50400001928E-02 0. -1.
        1   -1    0    0  501    0  0.00000000000E+00  0.00000000000E+00 -0.23964663921E+04  0.23964663921E+04  0.50400001928E-02 0.  1.
    10030    2    1    2    0    0  0.00000000000E+00  0.00000000000E+00 -0.16826092366E+04  0.31103235476E+04  0.26159011311E+04 0.  0.
        1    1    3    3  502    0  0.88101708164E+02  0.11712799060E+03  0.70406260071E+03  0.71915577096E+03  0.50400001928E-02 0. -1.
       -1    1    3    3    0  502 -0.88101708164E+02 -0.11712799060E+03 -0.23866718373E+04  0.23911677766E+04  0.50400001928E-02 0.  1.
</event>
<event>
 5   0  0.5942229E-06  0.2602353E+04  0.7818609E-02  0.8367402E-01
        2   -1    0    0  501    0  0.00000000000E+00  0.00000000000E+00  0.22820990033E+04  0.22820990033E+04  0.25500000920E-02 0.  1.
       -2   -1    0    0    0  501  0.00000000000E+00  0.00000000000E+00 -0.74188755577E+03  0.74188755578E+03  0.25500000920E-02 0. -1.
    10030    2    1    2    0    0  0.00000000000E+00  0.00000000000E+00  0.15402114476E+04  0.30239865591E+04  0.26023534361E+04 0.  0.
        4    1    3    3  502    0  0.90610680177E+03 -0.27668951946E+03 -0.26629138518E+03  0.98412364117E+03  0.12699999809E+01 0. -1.
       -4    1    3    3    0  502 -0.90610680177E+03  0.27668951946E+03  0.18065028327E+04  0.20398629179E+04  0.12699999809E+01 0.  1.
</event>
<event>
 5   0  0.2333979E-06  0.2636458E+04  0.7818609E-02  0.8355922E-01
        1   -1    0    0  501    0  0.00000000000E+00  0.00000000000E+00  0.16855795015E+04  0.16855795015E+04  0.50400001928E-02 0. -1.
       -1   -1    0    0    0  501  0.00000000000E+00  0.00000000000E+00 -0.10309376431E+04  0.10309376431E+04  0.50400001928E-02 0.  1.
    10030    2    1    2    0    0  0.00000000000E+00  0.00000000000E+00  0.65464185848E+03  0.27165171446E+04  0.26364577437E+04 0.  0.
        3    1    3    3  502    0  0.96127338980E+03  0.41107626379E+03 -0.49999140971E+03  0.11588881070E+04  0.10100000352E+00 0. -1.
       -3    1    3    3    0  502 -0.96127338980E+03 -0.41107626379E+03  0.11546332682E+04  0.15576290376E+04  0.10100000352E+00 0.  1.
</event>
<event>
 5   0  0.6173140E-06  0.2622713E+04  0.7818609E-02  0.8360527E-01
        2   -1    0    0  501    0  0.00000000000E+00  0.00000000000E+00  0.11168407527E+04  0.11168407528E+04  0.25500000920E-02 0. -1.
       -2   -1    0    0    0  501  0.00000000000E+00  0.00000000000E+00 -0.15397501729E+04  0.15397501729E+04  0.25500000920E-02 0.  1.
    10030    2    1    2    0    0  0.00000000000E+00  0.00000000000E+00 -0.42290942018E+03  0.26565909257E+04  0.26227129025E+04 0.  0.
        3    1    3    3  502    0 -0.10482132495E+04  0.78136457213E+03 -0.31462379637E+03  0.13447192103E+04  0.10100000352E+00 0.  1.
       -3    1    3    3    0  502  0.10482132495E+04 -0.78136457213E+03 -0.10828562381E+03  0.13118717154E+04  0.10100000352E+00 0. -1.
</event>
<event>
 5   0  0.6173140E-06  0.2466609E+04  0.7818609E-02  0.8414979E-01
        2   -1    0    0  501    0  0.00000000000E+00  0.00000000000E+00  0.13015320228E+04  0.13015320228E+04  0.25500000920E-02 0.  1.
       -2   -1    0    0    0  501  0.00000000000E+00  0.00000000000E+00 -0.11686536554E+04  0.11686536554E+04  0.25500000920E-02 0. -1.
    10030    2    1    2    0    0  0.00000000000E+00  0.00000000000E+00  0.13287836739E+03  0.24701856783E+04  0.24666091349E+04 0.  0.
        3    1    3    3  502    0  0.61614068833E+03 -0.45948023626E+02  0.11353666389E+04  0.12925935106E+04  0.10100000352E+00 0.  1.
       -3    1    3    3    0  502 -0.61614068833E+03  0.45948023626E+02 -0.10024882715E+04  0.11775921677E+04  0.10100000352E+00 0. -1.
</event>
<event>
 5   0  0.2471488E-06  0.2590695E+04  0.7818609E-02  0.8371369E-01
        1   -1    0    0  501    0  0.00000000000E+00  0.00000000000E+00  0.18500886819E+04  0.18500886819E+04  0.50400001928E-02 0.  1.
       -1   -1    0    0    0  501  0.00000000000E+00  0.00000000000E+00 -0.90694322129E+03  0.90694322130E+03  0.50400001928E-02 0. -1.
    10030    2    1    2    0    0  0.00000000000E+00  0.00000000000E+00  0.94314546060E+03  0.27570319032E+04  0.25906951877E+04 0.  0.
        4    1    3    3  502    0 -0.48433194579E+03  0.42953641626E+03  0.16655926440E+04  0.17869749397E+04  0.12699999809E+01 0.  1.
       -4    1    3    3    0  502  0.48433194579E+03 -0.42953641626E+03 -0.72244718342E+03  0.97005696345E+03  0.12699999809E+01 0. -1.
</event>
<event>
 5   0  0.2440590E-06  0.2601180E+04  0.7818609E-02  0.8367800E-01
        1   -1    0    0  501    0  0.00000000000E+00  0.00000000000E+00  0.82764800740E+03  0.82764800742E+03  0.50400001928E-02 0.  1.
       -1   -1    0    0    0  501  0.00000000000E+00  0.00000000000E+00 -0.20437854783E+04  0.20437854783E+04  0.50400001928E-02 0. -1.
    10030    2    1    2    0    0  0.00000000000E+00  0.00000000000E+00 -0.12161374709E+04  0.28714334857E+04  0.26011804849E+04 0.  0.
        1    1    3    3  502    0 -0.86555464993E+03 -0.36954170824E+03  0.38285208821E+03  0.10160323064E+04  0.50400001928E-02 0.  1.
       -1    1    3    3    0  502  0.86555464993E+03  0.36954170824E+03 -0.15989895591E+04  0.18554011794E+04  0.50400001928E-02 0. -1.
</event>
<event>
 5   0  0.5940748E-06  0.2601937E+04  0.7818609E-02  0.8367544E-01
       -2   -1    0    0    0  501  0.00000000000E+00  0.00000000000E+00  0.10764322623E+04  0.10764322623E+04  0.25500000920E-02 0. -1.
        2   -1    0    0  501    0  0.00000000000E+00  0.00000000000E+00 -0.15723409102E+04  0.15723409102E+04  0.25500000920E-02 0.  1.
    10030    2    1    2    0    0  0.00000000000E+00  0.00000000000E+00 -0.49590864790E+03  0.26487731725E+04  0.26019365734E+04 0.  0.
        1    1    3    3  502    0 -0.89311512092E+03 -0.13976740333E+02  0.71494113885E+03  0.11441113585E+04  0.50400001928E-02 0. -1.
       -1    1    3    3    0  502  0.89311512092E+03  0.13976740333E+02 -0.12108497868E+04  0.15046618140E+04  0.50400001928E-02 0.  1.
</event>
<event>
 5   0  0.2471488E-06  0.2603642E+04  0.7818609E-02  0.8366965E-01
        1   -1    0    0  501    0  0.00000000000E+00  0.00000000000E+00  0.11455606925E+04  0.11455606926E+04  0.50400001928E-02 0. -1.
       -1   -1    0    0    0  501  0.00000000000E+00  0.00000000000E+00 -0.14793963484E+04  0.14793963484E+04  0.50400001928E-02 0.  1.
    10030    2    1    2    0    0  0.00000000000E+00  0.00000000000E+00 -0.33383565589E+03  0.26249570410E+04  0.26036422991E+04 0.  0.
        4    1    3    3  502    0 -0.10770885727E+04  0.71718952352E+03 -0.31040684263E+03  0.13307271046E+04  0.12699999809E+01 0.  1.
       -4    1    3    3    0  502  0.10770885727E+04 -0.71718952352E+03 -0.23428813260E+02  0.12942299364E+04  0.12699999809E+01 0. -1.
</event>
<event>
 5   0  0.6161834E-06  0.2637655E+04  0.7818609E-02  0.8355522E-01
       -2   -1    0    0    0  501  0.00000000000E+00  0.00000000000E+00  0.16249626124E+04  0.16249626124E+04  0.25500000920E-02 0. -1.
        2   -1    0    0  501    0  0.00000000000E+00  0.00000000000E+00 -0.10703670923E+04  0.10703670923E+04  0.25500000920E-02 0.  1.
    10030    2    1    2    0    0  0.00000000000E+00  0.00000000000E+00  0.55459552004E+03  0.26953297047E+04  0.26376554032E+04 0.  0.
        5    1    3    3  502    0  0.49027712728E+03  0.89473519205E+03  0.11312509105E+04  0.15233756720E+04  0.46999998093E+01 0. -1.
       -5    1    3    3    0  502 -0.49027712728E+03 -0.89473519205E+03 -0.57665539048E+03  0.11719540327E+04  0.46999998093E+01 0.  1.
</event>
<event>
 5   0  0.2503292E-06  0.2598225E+04  0.7818609E-02  0.8368804E-01
       -1   -1    0    0    0  501  0.00000000000E+00  0.00000000000E+00  0.15679592553E+04  0.15679592553E+04  0.50400001928E-02 0. -1.
        1   -1    0    0  501    0  0.00000000000E+00  0.00000000000E+00 -0.10763630945E+04  0.10763630946E+04  0.50400001928E-02 0.  1.
    10030    2    1    2    0    0  0.00000000000E+00  0.00000000000E+00  0.49159616075E+03  0.26443223499E+04  0.25982251451E+04 0.  0.
        2    1    3    3  502    0 -0.12463589107E+04  0.12696403485E+03 -0.10404920427E+03  0.12571223638E+04  0.25500000920E-02 0.  1.
       -2    1    3    3    0  502  0.12463589107E+04 -0.12696403485E+03  0.59564536502E+03  0.13871999861E+04  0.25500000920E-02 0. -1.
</event>
<event>
 5   0  0.2456600E-06  0.2595846E+04  0.7818609E-02  0.8369614E-01
        1   -1    0    0  501    0  0.00000000000E+00  0.00000000000E+00  0.15830893941E+04  0.15830893941E+04  0.50400001928E-02 0. -1.
       -1   -1    0    0    0  501  0.00000000000E+00  0.00000000000E+00 -0.10641241793E+04  0.10641241793E+04  0.50400001928E-02 0.  1.
    10030    2    1    2    0    0  0.00000000000E+00  0.00000000000E+00  0.51896521476E+03  0.26472135734E+04  0.25958456828E+04 0.  0.
        5    1    3    3  502    0  0.16352830984E+03 -0.12052332884E+03 -0.10478028141E+04  0.10673238535E+04  0.46999998093E+01 0.  1.
       -5    1    3    3    0  502 -0.16352830984E+03  0.12052332884E+03  0.15667680289E+04  0.15798897199E+04  0.46999998093E+01 0. -1.
</event>
<event>
 5   0  0.2440590E-06  0.2599054E+04  0.7818609E-02  0.8368522E-01
       -1   -1    0    0    0  501  0.00000000000E+00  0.00000000000E+00  0.80804218134E+03  0.80804218136E+03  0.50400001928E-02 0.  1.
        1   -1    0    0  501    0  0.00000000000E+00  0.00000000000E+00 -0.20899541038E+04  0.20899541038E+04  0.50400001928E-02 0. -1.
    10030    2    1    2    0    0  0.00000000000E+00  0.00000000000E+00 -0.12819119225E+04  0.28979962852E+04  0.25990544996E+04 0.  0.
        1    1    3    3  502    0 -0.50655451702E+03 -0.39793432982E+03 -0.18994083442E+04  0.20056672874E+04  0.50400001928E-02 0. -1.
       -1    1    3    3    0  502  0.50655451702E+03  0.39793432982E+03  0.61749642169E+03  0.89232899785E+03  0.50400001928E-02 0.  1.
</event>
<event>
 5   0  0.6161834E-06  0.2672621E+04  0.7818609E-02  0.8343944E-01
        2   -1    0    0  501    0  0.00000000000E+00  0.00000000000E+00  0.19303979617E+04  0.19303979617E+04  0.25500000920E-02 0.  1.
       -2   -1    0    0    0  501  0.00000000000E+00  0.00000000000E+00 -0.92505572138E+03  0.92505572139E+03  0.25500000920E-02 0. -1.
    10030    2    1    2    0    0  0.00000000000E+00  0.00000000000E+00  0.10053422403E+04  0.28554536831E+04  0.26726209451E+04 0.  0.
        5    1    3    3  502    0  0.55535893217E+03  0.31638474819E+03 -0.75114318966E+03  0.98628648667E+03  0.46999998093E+01 0. -1.
       -5    1    3    3    0  502 -0.55535893217E+03 -0.31638474819E+03  0.17564854300E+04  0.18691671964E+04  0.46999998093E+01 0.  1.
</event>
<event>
 5   0  0.2503292E-06  0.2603636E+04  0.7818609E-02  0.8366967E-01
       -1   -1    0    0    0  501  0.00000000000E+00  0.00000000000E+00  0.67841773966E+03  0.67841773967E+03  0.50400001928E-02 0.  1.
        1   -1    0    0  501    0  0.00000000000E+00  0.00000000000E+00 -0.24980637266E+04  0.24980637266E+04  0.50400001928E-02 0. -1.
    10030    2    1    2    0    0  0.00000000000E+00  0.00000000000E+00 -0.18196459869E+04  0.31764814662E+04  0.26036364930E+04 0.  0.
        2    1    3    3  502    0 -0.11577990528E+03 -0.87957939363E+03  0.25250573950E+03  0.92240123843E+03  0.25500000920E-02 0.  1.
       -2    1    3    3    0  502  0.11577990528E+03  0.87957939363E+03 -0.20721517264E+04  0.22540802278E+04  0.25500000920E-02 0. -1.
</event>
<event>
 5   0  0.2333979E-06  0.2715562E+04  0.7818609E-02  0.8329973E-01
        1   -1    0    0  501    0  0.00000000000E+00  0.00000000000E+00  0.16330813976E+04  0.16330813976E+04  0.50400001928E-02 0.  1.
       -1   -1    0    0    0  501  0.00000000000E+00  0.00000000000E+00 -0.11288902090E+04  0.11288902090E+04  0.50400001928E-02 0. -1.
    10030    2    1    2    0    0  0.00000000000E+00  0.00000000000E+00  0.50419118867E+03  0.27619716066E+04  0.27155622624E+04 0.  0.
        3    1    3    3  502    0  0.11002680694E+04  0.78948038379E+03  0.15192130728E+03  0.13626992312E+04  0.10100000352E+00 0. -1.
       -3    1    3    3    0  502 -0.11002680694E+04 -0.78948038379E+03  0.35226988139E+03  0.13992723754E+04  0.10100000352E+00 0.  1.
</event>
<event>
 5   0  0.6173140E-06  0.2608747E+04  0.7818609E-02  0.8365236E-01
       -2   -1    0    0    0  501  0.00000000000E+00  0.00000000000E+00  0.90464473708E+03  0.90464473708E+03  0.25500000920E-02 0.  1.
        2   -1    0    0  501    0  0.00000000000E+00  0.00000000000E+00 -0.18807277670E+04  0.18807277670E+04  0.25500000920E-02 0. -1.
    10030    2    1    2    0    0  0.00000000000E+00  0.00000000000E+00 -0.97608302988E+03  0.27853725041E+04  0.26087471907E+04 0.  0.
        3    1    3    3  502    0 -0.64759167124E+03  0.10007598164E+04  0.77434346879E+02  0.11945255422E+04  0.10100000352E+00 0.  1.
       -3    1    3    3    0  502  0.64759167124E+03 -0.10007598164E+04 -0.10535173768E+04  0.15908469619E+04  0.10100000352E+00 0. -1.
</event>
<event>
 5   0  0.6161834E-06  0.2592072E+04  0.7818609E-02  0.8370899E-01
        2   -1    0    0  501    0  0.00000000000E+00  0.00000000000E+00  0.22056213892E+04  0.22056213892E+04  0.25500000920E-02 0. -1.
       -2   -1    0    0    0  501  0.00000000000E+00  0.00000000000E+00 -0.76155815632E+03  0.76155815632E+03  0.25500000920E-02 0.  1.
    10030    2    1    2    0    0  0.00000000000E+00  0.00000000000E+00  0.14440632329E+04  0.29671795455E+04  0.25920717264E+04 0.  0.
        5    1    3    3  502    0 -0.82588851366E+03  0.99068527331E+03  0.57661370192E+03  0.14128179639E+04  0.46999998093E+01 0. -1.
       -5    1    3    3    0  502  0.82588851366E+03 -0.99068527331E+03  0.86744953093E+03  0.15543615816E+04  0.46999998093E+01 0.  1.
</event>
<event>
 5   0  0.5940748E-06  0.2644354E+04  0.7818609E-02  0.8353289E-01
        2   -1    0    0  501    0  0.00000000000E+00  0.00000000000E+00  0.26448412739E+04  0.26448412739E+04  0.25500000920E-02 0.  1.
       -2   -1    0    0    0  501  0.00000000000E+00  0.00000000000E+00 -0.66096649056E+03  0.66096649056E+03  0.25500000920E-02 0. -1.
    10030    2    1    2    0    0  0.00000000000E+00  0.00000000000E+00  0.19838747833E+04  0.33058077644E+04  0.26443535731E+04 0.  0.
        1    1    3    3  502    0  0.96594856857E+03  0.72201828724E+03  0.16695359059E+04  0.20595429554E+04  0.50400001928E-02 0. -1.
       -1    1    3    3    0  502 -0.96594856857E+03 -0.72201828724E+03  0.31433887742E+03  0.12462648090E+04  0.50400001928E-02 0.  1.
</event>
<event>
 5   0  0.2471488E-06  0.2572019E+04  0.7818609E-02  0.8377768E-01
       -1   -1    0    0    0  501  0.00000000000E+00  0.00000000000E+00  0.10812211541E+04  0.10812211541E+04  0.50400001928E-02 0.  1.
        1   -1    0    0  501    0  0.00000000000E+00  0.00000000000E+00 -0.15295852297E+04  0.15295852297E+04  0.50400001928E-02 0. -1.
    10030    2    1    2    0    0  0.00000000000E+00  0.00000000000E+00 -0.44836407561E+03  0.26108063838E+04  0.25720185904E+04 0.  0.
        4    1    3    3  502    0  0.24433016243E+03 -0.43075634305E+03  0.98054813050E+03  0.10985101294E+04  0.12699999809E+01 0.  1.
       -4    1    3    3    0  502 -0.24433016243E+03  0.43075634305E+03 -0.14289122061E+04  0.15122962544E+04  0.12699999809E+01 0. -1.
</event>
<event>
 5   0  0.2333979E-06  0.2596515E+04  0.7818609E-02  0.8369386E-01
        1   -1    0    0  501    0  0.00000000000E+00  0.00000000000E+00  0.14096419225E+04  0.14096419225E+04  0.50400001928E-02 0.  1.
       -1   -1    0    0    0  501  0.00000000000E+00  0.00000000000E+00 -0.11956743760E+04  0.11956743760E+04  0.50400001928E-02 0. -1.
    10030    2    1    2    0    0  0.00000000000E+00  0.00000000000E+00  0.21396754651E+03  0.26053162985E+04  0.25965151462E+04 0.  0.
        3    1    3    3  502    0  0.55289234507E+02 -0.42143420944E+03  0.13378483960E+04  0.14037457153E+04  0.10100000352E+00 0.  1.
       -3    1    3    3    0  502 -0.55289234507E+02  0.42143420944E+03 -0.11238808495E+04  0.12015705832E+04  0.10100000352E+00 0. -1.
</event>
<event>
 5   0  0.2440590E-06  0.2460601E+04  0.7818609E-02  0.8417158E-01
        1   -1    0    0  501    0  0.00000000000E+00  0.00000000000E+00  0.92854189270E+03  0.92854189272E+03  0.50400001928E-02 0.  1.
       -1   -1    0    0    0  501  0.00000000000E+00  0.00000000000E+00 -0.16301250869E+04  0.16301250869E+04  0.50400001928E-02 0. -1.
    10030    2    1    2    0    0  0.00000000000E+00  0.00000000000E+00 -0.70158319422E+03  0.25586669796E+04  0.24606010921E+04 0.  0.
        1    1    3    3  502    0  0.37997051652E+03  0.49749330175E+03  0.75055233509E+03  0.97734640044E+03  0.50400001928E-02 0.  1.
       -1    1    3    3    0  502 -0.37997051652E+03 -0.49749330175E+03 -0.14521355293E+04  0.15813205792E+04  0.50400001928E-02 0. -1.
</event>
<event>
 5   0  0.6158063E-06  0.2597694E+04  0.7818609E-02  0.8368985E-01
       -2   -1    0    0    0  501  0.00000000000E+00  0.00000000000E+00  0.82159643757E+03  0.82159643757E+03  0.25500000920E-02 0.  1.
        2   -1    0    0  501    0  0.00000000000E+00  0.00000000000E+00 -0.20533236097E+04  0.20533236097E+04  0.25500000920E-02 0. -1.
    10030    2    1    2    0    0  0.00000000000E+00  0.00000000000E+00 -0.12317271721E+04  0.28749200473E+04  0.25976938718E+04 0.  0.
        2    1    3    3  502    0 -0.13777553556E+03  0.12288824674E+04 -0.17613324646E+03  0.12490625034E+04  0.25500000920E-02 0. -1.
       -2    1    3    3    0  502  0.13777553556E+03 -0.12288824674E+04 -0.10555939257E+04  0.16258575439E+04  0.25500000920E-02 0.  1.
</event>
<event>
 5   0  0.2440590E-06  0.2611794E+04  0.7818609E-02  0.8364206E-01
        1   -1    0    0  501    0  0.00000000000E+00  0.00000000000E+00  0.11236714398E+04  0.11236714398E+04  0.50400001928E-02 0.  1.
       -1   -1    0    0    0  501  0.00000000000E+00  0.00000000000E+00 -0.15176734977E+04  0.15176734977E+04  0.50400001928E-02 0. -1.
    10030    2    1    2    0    0  0.00000000000E+00  0.00000000000E+00 -0.39400205788E+03  0.26413449376E+04  0.26117935327E+04 0.  0.
        1    1    3    3  502    0 -0.39762890582E+03 -0.61075594750E+03  0.89888086027E+03  0.11572028237E+04  0.50400001928E-02 0.  1.
       -1    1    3    3    0  502  0.39762890582E+03  0.61075594750E+03 -0.12928829181E+04  0.14841421139E+04  0.50400001928E-02 0. -1.
</event>
<event>
 5   0  0.2072125E-06  0.2593901E+04  0.7818609E-02  0.8370276E-01
        4   -1    0    0  501    0  0.00000000000E+00  0.00000000000E+00  0.60561053156E+03  0.60561186319E+03  0.12699999809E+01 0. -1.
       -4   -1    0    0    0  501  0.00000000000E+00  0.00000000000E+00 -0.27774920258E+04  0.27774923162E+04  0.12699999809E+01 0.  1.
    10030    2    1    2    0    0  0.00000000000E+00  0.00000000000E+00 -0.21718814943E+04  0.33831041794E+04  0.25939014367E+04 0.  0.
        5    1    3    3  502    0 -0.11158658175E+04  0.59357775694E+03 -0.70665639051E+03  0.14480595362E+04  0.46999998093E+01 0.  1.
       -5    1    3    3    0  502  0.11158658175E+04 -0.59357775694E+03 -0.14652251038E+04  0.19350446431E+04  0.46999998093E+01 0. -1.
</event>
<event>
 5   0  0.2471488E-06  0.2599559E+04  0.7818609E-02  0.8368351E-01
       -1   -1    0    0    0  501  0.00000000000E+00  0.00000000000E+00  0.91518246350E+03  0.91518246351E+03  0.50400001928E-02 0. -1.
        1   -1    0    0  501    0  0.00000000000E+00  0.00000000000E+00 -0.18459998846E+04  0.18459998846E+04  0.50400001928E-02 0.  1.
    10030    2    1    2    0    0  0.00000000000E+00  0.00000000000E+00 -0.93081742112E+03  0.27611823481E+04  0.25995589796E+04 0.  0.
        4    1    3    3  502    0 -0.12048320570E+04 -0.44087416623E+03 -0.24404099075E+03  0.13059662837E+04  0.12699999809E+01 0.  1.
       -4    1    3    3    0  502  0.12048320570E+04  0.44087416623E+03 -0.68677643036E+03  0.14552160645E+04  0.12699999809E+01 0. -1.
</event>
<event>
 5   0  0.5940748E-06  0.2599000E+04  0.7818609E-02  0.8368541E-01
        2   -1    0    0  501    0  0.00000000000E+00  0.00000000000E+00  0.11855856323E+04  0.11855856323E+04  0.25500000920E-02 0. -1.
       -2   -1    0    0    0  501  0.00000000000E+00  0.00000000000E+00 -0.14243591161E+04  0.14243591161E+04  0.25500000920E-02 0.  1.
    10030    2    1    2    0    0  0.00000000000E+00  0.00000000000E+00 -0.23877348376E+03  0.26099447484E+04  0.25989995793E+04 0.  0.
        1    1    3    3  502    0  0.63712030016E+03  0.96865960541E+03 -0.70877921603E+03  0.13588935518E+04  0.50400001928E-02 0.  1.
       -1    1    3    3    0  502 -0.63712030016E+03 -0.96865960541E+03  0.47000573226E+03  0.12510511966E+04  0.50400001928E-02 0. -1.
</event>
<event>
 5   0  0.6173140E-06  0.2616128E+04  0.7818609E-02  0.8362744E-01
       -2   -1    0    0    0  501  0.00000000000E+00  0.00000000000E+00  0.12680094981E+04  0.12680094982E+04  0.25500000920E-02 0.  1.
        2   -1    0    0  501    0  0.00000000000E+00  0.00000000000E+00 -0.13493835427E+04  0.13493835427E+04  0.25500000920E-02 0. -1.
    10030    2    1    2    0    0  0.00000000000E+00  0.00000000000E+00 -0.81374044556E+02  0.26173930409E+04  0.26161277865E+04 0.  0.
        3    1    3    3  502    0 -0.12556820651E+04  0.20221886669E+03 -0.34645096115E+03  0.13182026389E+04  0.10100000352E+00 0. -1.
       -3    1    3    3    0  502  0.12556820651E+04 -0.20221886669E+03  0.26507691659E+03  0.12991904019E+04  0.10100000352E+00 0.  1.
</event>
<event>
 5   0  0.2503292E-06  0.2602171E+04  0.7818609E-02  0.8367464E-01
       -1   -1    0    0    0  501  0.00000000000E+00  0.00000000000E+00  0.78242510558E+03  0.78242510560E+03  0.50400001928E-02 0.  1.
        1   -1    0    0  501    0  0.00000000000E+00  0.00000000000E+00 -0.21635590681E+04  0.21635590682E+04  0.50400001928E-02 0. -1.
    10030    2    1    2    0    0  0.00000000000E+00  0.00000000000E+00 -0.13811339626E+04  0.29459841738E+04  0.26021705804E+04 0.  0.
        2    1    3    3  502    0  0.62258791908E+03 -0.29448807423E+03 -0.19402635012E+04  0.20588738177E+04  0.25500000920E-02 0. -1.
       -2    1    3    3    0  502 -0.62258791908E+03  0.29448807423E+03  0.55912953867E+03  0.88711035609E+03  0.25500000920E-02 0.  1.
</event>
<event>
 5   0  0.2072125E-06  0.2609767E+04  0.7818609E-02  0.8364891E-01
        3   -1    0    0  501    0  0.00000000000E+00  0.00000000000E+00  0.95871223939E+03  0.95871224471E+03  0.10100000352E+00 0.  1.
       -3   -1    0    0    0  501  0.00000000000E+00  0.00000000000E+00 -0.17760494898E+04  0.17760494927E+04  0.10100000352E+00 0. -1.
    10030    2    1    2    0    0  0.00000000000E+00  0.00000000000E+00 -0.81733725042E+03  0.27347617374E+04  0.26097665756E+04 0.  0.
        5    1    3    3  502    0 -0.11706115782E+04 -0.30621015247E+03  0.10319590287E+03  0.12144001025E+04  0.46999998093E+01 0.  1.
       -5    1    3    3    0  502  0.11706115782E+04  0.30621015247E+03 -0.92053315329E+03  0.15203616349E+04  0.46999998093E+01 0. -1.
</event>
<event>
 5   0  0.2456600E-06  0.2606672E+04  0.7818609E-02  0.8365938E-01
        1   -1    0    0  501    0  0.00000000000E+00  0.00000000000E+00  0.10736545474E+04  0.10736545474E+04  0.50400001928E-02 0. -1.
       -1   -1    0    0    0  501  0.00000000000E+00  0.00000000000E+00 -0.15821525202E+04  0.15821525202E+04  0.50400001928E-02 0.  1.
    10030    2    1    2    0    0  0.00000000000E+00  0.00000000000E+00 -0.50849797283E+03  0.26558070676E+04  0.26066723983E+04 0.  0.
        5    1    3    3  502    0  0.47026452137E+03  0.70336513239E+03  0.75579633091E+03  0.11345137343E+04  0.46999998093E+01 0. -1.
       -5    1    3    3    0  502 -0.47026452137E+03 -0.70336513239E+03 -0.12642943037E+04  0.15212933333E+04  0.46999998093E+01 0.  1.
</event>
<event>
 5   0  0.6161834E-06  0.2593599E+04  0.7818609E-02  0.8370379E-01
       -2   -1    0    0    0  501  0.00000000000E+00  0.00000000000E+00  0.10072521920E+04  0.10072521920E+04  0.25500000920E-02 0.  1.
        2   -1    0    0  501    0  0.00000000000E+00  0.00000000000E+00 -0.16695807160E+04  0.16695807160E+04  0.25500000920E-02 0. -1.
    10030    2    1    2    0    0  0.00000000000E+00  0.00000000000E+00 -0.66232852409E+03  0.26768329080E+04  0.25935989172E+04 0.  0.
        5    1    3    3  502    0  0.66105118002E+03 -0.76495672782E+02 -0.14799094076E+04  0.16226503614E+04  0.46999998093E+01 0. -1.
       -5    1    3    3    0  502 -0.66105118002E+03  0.76495672782E+02  0.81758088351E+03  0.10541825466E+04  0.46999998093E+01 0.  1.
</event>
<event>
 5   0  0.5940748E-06  0.2481077E+04  0.7818609E-02  0.8409758E-01
       -2   -1    0    0    0  501  0.00000000000E+00  0.00000000000E+00  0.13679611386E+04  0.13679611386E+04  0.25500000920E-02 0. -1.
        2   -1    0    0  501    0  0.00000000000E+00  0.00000000000E+00 -0.11249850056E+04  0.11249850056E+04  0.25500000920E-02 0.  1.
    10030    2    1    2    0    0  0.00000000000E+00  0.00000000000E+00  0.24297613298E+03  0.24929461443E+04  0.24810769994E+04 0.  0.
        1    1    3    3  502    0  0.19503184838E+03  0.27246821169E+03  0.13216305461E+04  0.13634455063E+04  0.50400001928E-02 0. -1.
       -1    1    3    3    0  502 -0.19503184838E+03 -0.27246821169E+03 -0.10786544131E+04  0.11295006380E+04  0.50400001928E-02 0.  1.
</event>
<event>
 5   0  0.2456600E-06  0.2598209E+04  0.7818609E-02  0.8368810E-01
       -1   -1    0    0    0  501  0.00000000000E+00  0.00000000000E+00  0.15141967696E+04  0.15141967696E+04  0.50400001928E-02 0.  1.
        1   -1    0    0  501    0  0.00000000000E+00  0.00000000000E+00 -0.11145658981E+04  0.11145658981E+04  0.50400001928E-02 0. -1.
    10030    2    1    2    0    0  0.00000000000E+00  0.00000000000E+00  0.39963087151E+03  0.26287626677E+04  0.25982086770E+04 0.  0.
        5    1    3    3  502    0 -0.67209048932E+02  0.96481201965E+03 -0.67771951756E+03  0.11809763435E+04  0.46999998093E+01 0. -1.
       -5    1    3    3    0  502  0.67209048932E+02 -0.96481201965E+03  0.10773503891E+04  0.14477863241E+04  0.46999998093E+01 0.  1.
</event>
<event>
 5   0  0.2471488E-06  0.2581016E+04  0.7818609E-02  0.8374678E-01
       -1   -1    0    0    0  501  0.00000000000E+00  0.00000000000E+00  0.92250558186E+03  0.92250558188E+03  0.50400001928E-02 0.  1.
        1   -1    0    0  501    0  0.00000000000E+00  0.00000000000E+00 -0.18053125608E+04  0.18053125608E+04  0.50400001928E-02 0. -1.
    10030    2    1    2    0    0  0.00000000000E+00  0.00000000000E+00 -0.88280697893E+03  0.27278181427E+04  0.25810160126E+04 0.  0.
        4    1    3    3  502    0  0.11688732851E+04 -0.27690680698E+03  0.57087915931E+02  0.12025817142E+04  0.12699999809E+01 0.  1.
       -4    1    3    3    0  502 -0.11688732851E+04  0.27690680698E+03 -0.93989489487E+03  0.15252364284E+04  0.12699999809E+01 0. -1.
</event>
<event>
 5   0  0.5942229E-06  0.2632475E+04  0.7818609E-02  0.8357253E-01
       -2   -1    0    0    0  501  0.00000000000E+00  0.00000000000E+00  0.10631598398E+04  0.10631598398E+04  0.25500000920E-02 0.  1.
        2   -1    0    0  501    0  0.00000000000E+00  0.00000000000E+00 -0.16295579337E+04  0.16295579337E+04  0.25500000920E-02 0. -1.
    10030    2    1    2    0    0  0.00000000000E+00  0.00000000000E+00 -0.56639809390E+03  0.26927177735E+04  0.26324745406E+04 0.  0.
        4    1    3    3  502    0  0.13020085128E+04  0.16465895657E+03 -0.38620205375E+03  0.13680249920E+04  0.12699999809E+01 0.  1.
       -4    1    3    3    0  502 -0.13020085128E+04 -0.16465895657E+03 -0.18019604015E+03  0.13246927815E+04  0.12699999809E+01 0. -1.
</event>
<event>
 5   0  0.5940748E-06  0.2598017E+04  0.7818609E-02  0.8368875E-01
        2   -1    0    0  501    0  0.00000000000E+00  0.00000000000E+00  0.96555369390E+03  0.96555369390E+03  0.25500000920E-02 0. -1.
       -2   -1    0    0    0  501  0.00000000000E+00  0.00000000000E+00 -0.17476219490E+04  0.17476219490E+04  0.25500000920E-02 0.  1.
    10030    2    1    2    0    0  0.00000000000E+00  0.00000000000E+00 -0.78206825508E+03  0.27131756429E+04  0.25980168039E+04 0.  0.
        1    1    3    3  502    0  0.41153482185E+03 -0.40714470209E+03 -0.16054619063E+04  0.17066445589E+04  0.50400001928E-02 0.  1.
       -1    1    3    3    0  502 -0.41153482185E+03  0.40714470209E+03  0.82339365120E+03  0.10065310839E+04  0.50400001928E-02 0. -1.
</event>
<event>
 5   0  0.6161834E-06  0.2601098E+04  0.7818609E-02  0.8367828E-01
       -2   -1    0    0    0  501  0.00000000000E+00  0.00000000000E+00  0.16691283173E+04  0.16691283173E+04  0.25500000920E-02 0.  1.
        2   -1    0    0  501    0  0.00000000000E+00  0.00000000000E+00 -0.10133600969E+04  0.10133600969E+04  0.25500000920E-02 0. -1.
    10030    2    1    2    0    0  0.00000000000E+00  0.00000000000E+00  0.65576822044E+03  0.26824884142E+04  0.26010982552E+04 0.  0.
        5    1    3    3  502    0  0.66290865460E+03 -0.11155237659E+04  0.41758142423E+03  0.13631718500E+04  0.46999998093E+01 0.  1.
       -5    1    3    3    0  502 -0.66290865460E+03  0.11155237659E+04  0.23818679620E+03  0.13193165642E+04  0.46999998093E+01 0. -1.
</event>
<event>
 5   0  0.6161834E-06  0.2584661E+04  0.7818609E-02  0.8373430E-01
        2   -1    0    0  501    0  0.00000000000E+00  0.00000000000E+00  0.11900080917E+04  0.11900080917E+04  0.25500000920E-02 0. -1.
       -2   -1    0    0    0  501  0.00000000000E+00  0.00000000000E+00 -0.14034512090E+04  0.14034512090E+04  0.25500000920E-02 0.  1.
    10030    2    1    2    0    0  0.00000000000E+00  0.00000000000E+00 -0.21344311735E+03  0.25934593007E+04  0.25846611345E+04 0.  0.
        5    1    3    3  502    0 -0.88948659016E+03 -0.79199702981E+03  0.39663384695E+03  0.12553032255E+04  0.46999998093E+01 0. -1.
       -5    1    3    3    0  502  0.88948659016E+03  0.79199702981E+03 -0.61007696430E+03  0.13381560752E+04  0.46999998093E+01 0.  1.
</event>
<event>
 5   0  0.6161834E-06  0.2600061E+04  0.7818609E-02  0.8368181E-01
       -2   -1    0    0    0  501  0.00000000000E+00  0.00000000000E+00  0.25687610733E+04  0.25687610733E+04  0.25500000920E-02 0. -1.
        2   -1    0    0  501    0  0.00000000000E+00  0.00000000000E+00 -0.65793545143E+03  0.65793545143E+03  0.25500000920E-02 0.  1.
    10030    2    1    2    0    0  0.00000000000E+00  0.00000000000E+00  0.19108256219E+04  0.32266965247E+04  0.26000607504E+04 0.  0.
        5    1    3    3  502    0 -0.50542090907E+03 -0.10432265274E+04  0.16856962768E+04  0.20458166854E+04  0.46999998093E+01 0. -1.
       -5    1    3    3    0  502  0.50542090907E+03  0.10432265274E+04  0.22512934505E+03  0.11808798393E+04  0.46999998093E+01 0.  1.
</event>
<event>
 5   0  0.2456600E-06  0.2603055E+04  0.7818609E-02  0.8367164E-01
       -1   -1    0    0    0  501  0.00000000000E+00  0.00000000000E+00  0.10624581033E+04  0.10624581033E+04  0.50400001928E-02 0.  1.
        1   -1    0    0  501    0  0.00000000000E+00  0.00000000000E+00 -0.15943909498E+04  0.15943909498E+04  0.50400001928E-02 0. -1.
    10030    2    1    2    0    0  0.00000000000E+00  0.00000000000E+00 -0.53193284658E+03  0.26568490531E+04  0.26030548088E+04 0.  0.
        5    1    3    3  502    0 -0.91797622343E+01 -0.12911015402E+04 -0.98490000686E+02  0.12948937507E+04  0.46999998093E+01 0.  1.
       -5    1    3    3    0  502  0.91797622343E+01  0.12911015402E+04 -0.43344284590E+03  0.13619553025E+04  0.46999998093E+01 0. -1.
</event>
<event>
 5   0  0.5940748E-06  0.2537392E+04  0.7818609E-02  0.8389784E-01
        2   -1    0    0  501    0  0.00000000000E+00  0.00000000000E+00  0.20021786762E+04  0.20021786762E+04  0.25500000920E-02 0. -1.
       -2   -1    0    0    0  501  0.00000000000E+00  0.00000000000E+00 -0.80391889836E+03  0.80391889836E+03  0.25500000920E-02 0.  1.
    10030    2    1    2    0    0  0.00000000000E+00  0.00000000000E+00  0.11982597778E+04  0.28060975746E+04  0.25373917913E+04 0.  0.
        1    1    3    3  502    0  0.79556592930E+03 -0.88727696707E+03  0.10804228170E+04  0.16085704920E+04  0.50400001928E-02 0. -1.
       -1    1    3    3    0  502 -0.79556592930E+03  0.88727696707E+03  0.11783696084E+03  0.11975270826E+04  0.50400001928E-02 0.  1.
</event>
<event>
 5   0  0.2503292E-06  0.2611670E+04  0.7818609E-02  0.8364248E-01
       -1   -1    0    0    0  501  0.00000000000E+00  0.00000000000E+00  0.66146263177E+03  0.66146263179E+03  0.50400001928E-02 0. -1.
        1   -1    0    0  501    0  0.00000000000E+00  0.00000000000E+00 -0.25779312393E+04  0.25779312393E+04  0.50400001928E-02 0.  1.
    10030    2    1    2    0    0  0.00000000000E+00  0.00000000000E+00 -0.19164686075E+04  0.32393938711E+04  0.26116701033E+04 0.  0.
        2    1    3    3  502    0  0.66836277000E+03 -0.59555642979E+03  0.22095560059E+03  0.92207246506E+03  0.25500000920E-02 0. -1.
       -2    1    3    3    0  502 -0.66836277000E+03  0.59555642979E+03 -0.21374242081E+04  0.23173214060E+04  0.25500000920E-02 0.  1.
</event>
<event>
 5   0  0.2503292E-06  0.2569012E+04  0.7818609E-02  0.8378804E-01
       -1   -1    0    0    0  501  0.00000000000E+00  0.00000000000E+00  0.79594937007E+03  0.79594937009E+03  0.50400001928E-02 0.  1.
        1   -1    0    0  501    0  0.00000000000E+00  0.00000000000E+00 -0.20729408203E+04  0.20729408203E+04  0.50400001928E-02 0. -1.
    10030    2    1    2    0    0  0.00000000000E+00  0.00000000000E+00 -0.12769914502E+04  0.28688901904E+04  0.25690122150E+04 0.  0.
        2    1    3    3  502    0 -0.39290522455E+03  0.73599596707E+03  0.45218393493E+03  0.94896516798E+03  0.25500000920E-02 0.  1.
       -2    1    3    3    0  502  0.39290522455E+03 -0.73599596707E+03 -0.17291753852E+04  0.19199250224E+04  0.25500000920E-02 0. -1.
</event>
<event>
 5   0  0.2333979E-06  0.2600437E+04  0.7818609E-02  0.8368053E-01
       -1   -1    0    0    0  501  0.00000000000E+00  0.00000000000E+00  0.14299898644E+04  0.14299898644E+04  0.50400001928E-02 0.  1.
        1   -1    0    0  501    0  0.00000000000E+00  0.00000000000E+00 -0.11822236785E+04  0.11822236785E+04  0.50400001928E-02 0. -1.
    10030    2    1    2    0    0  0.00000000000E+00  0.00000000000E+00  0.24776618589E+03  0.26122135429E+04  0.26004367923E+04 0.  0.
        3    1    3    3  502    0  0.11561546319E+04  0.27677626901E+03  0.65283137888E+03  0.13562770570E+04  0.10100000352E+00 0.  1.
       -3    1    3    3    0  502 -0.11561546319E+04 -0.27677626901E+03 -0.40506519299E+03  0.12559364859E+04  0.10100000352E+00 0. -1.
</event>
<event>
 5   0  0.5940748E-06  0.2576965E+04  0.7818609E-02  0.8376068E-01
        2   -1    0    0  501    0  0.00000000000E+00  0.00000000000E+00  0.27149106091E+04  0.27149106091E+04  0.25500000920E-02 0. -1.
       -2   -1    0    0    0  501  0.00000000000E+00  0.00000000000E+00 -0.61150713385E+03  0.61150713386E+03  0.25500000920E-02 0.  1.
    10030    2    1    2    0    0  0.00000000000E+00  0.00000000000E+00  0.21034034752E+04  0.33264177429E+04  0.25769650407E+04 0.  0.
        1    1    3    3  502    0  0.20463333530E+03 -0.70075361686E+02 -0.58790440417E+03  0.62643191705E+03  0.50400001928E-02 0.  1.
       -1    1    3    3    0  502 -0.20463333530E+03  0.70075361686E+02  0.26913078794E+04  0.26999858259E+04  0.50400001928E-02 0. -1.
</event>
<event>
 5   0  0.2471488E-06  0.2600613E+04  0.7818609E-02  0.8367993E-01
       -1   -1    0    0    0  501  0.00000000000E+00  0.00000000000E+00  0.12105243682E+04  0.12105243682E+04  0.50400001928E-02 0. -1.
        1   -1    0    0  501    0  0.00000000000E+00  0.00000000000E+00 -0.13967479974E+04  0.13967479974E+04  0.50400001928E-02 0.  1.
    10030    2    1    2    0    0  0.00000000000E+00  0.00000000000E+00 -0.18622362916E+03  0.26072723656E+04  0.26006133793E+04 0.  0.
        4    1    3    3  502    0  0.26925919801E+02  0.32752375818E+03  0.11682030110E+04  0.12135471582E+04  0.12699999809E+01 0. -1.
       -4    1    3    3    0  502 -0.26925919801E+02 -0.32752375818E+03 -0.13544266402E+04  0.13937252074E+04  0.12699999809E+01 0.  1.
</event>
<event>
 5   0  0.2471488E-06  0.2602728E+04  0.7818609E-02  0.8367275E-01
       -1   -1    0    0    0  501  0.00000000000E+00  0.00000000000E+00  0.19901102328E+04  0.19901102328E+04  0.50400001928E-02 0.  1.
        1   -1    0    0  501    0  0.00000000000E+00  0.00000000000E+00 -0.85098203440E+03  0.85098203442E+03  0.50400001928E-02 0. -1.
    10030    2    1    2    0    0  0.00000000000E+00  0.00000000000E+00  0.11391281984E+04  0.28410922672E+04  0.26027278418E+04 0.  0.
        4    1    3    3  502    0  0.17390494093E+03 -0.10564106817E+04 -0.23798567182E+03  0.10967612547E+04  0.12699999809E+01 0. -1.
       -4    1    3    3    0  502 -0.17390494093E+03  0.10564106817E+04  0.13771138702E+04  0.17443310126E+04  0.12699999809E+01 0.  1.
</event>
<event>
 5   0  0.2456600E-06  0.2601909E+04  0.7818609E-02  0.8367553E-01
        1   -1    0    0  501    0  0.00000000000E+00  0.00000000000E+00  0.22557509749E+04  0.22557509749E+04  0.50400001928E-02 0. -1.
       -1   -1    0    0    0  501  0.00000000000E+00  0.00000000000E+00 -0.75029654857E+03  0.75029654859E+03  0.50400001928E-02 0.  1.
    10030    2    1    2    0    0  0.00000000000E+00  0.00000000000E+00  0.15054544263E+04  0.30060475235E+04  0.26019086617E+04 0.  0.
        5    1    3    3  502    0 -0.20931797877E+03  0.11568011197E+04  0.13964586036E+04  0.18254099727E+04  0.46999998093E+01 0.  1.
       -5    1    3    3    0  502  0.20931797877E+03 -0.11568011197E+04  0.10899582266E+03  0.11806375507E+04  0.46999998093E+01 0. -1.
</event>
<event>
 5   0  0.6158063E-06  0.2589901E+04  0.7818609E-02  0.8371640E-01
        2   -1    0    0  501    0  0.00000000000E+00  0.00000000000E+00  0.14305794382E+04  0.14305794382E+04  0.25500000920E-02 0. -1.
       -2   -1    0    0    0  501  0.00000000000E+00  0.00000000000E+00 -0.11721799606E+04  0.11721799606E+04  0.25500000920E-02 0.  1.
    10030    2    1    2    0    0  0.00000000000E+00  0.00000000000E+00  0.25839947756E+03  0.26027593988E+04  0.25899008085E+04 0.  0.
        2    1    3    3  502    0 -0.50251349041E+03  0.72183094074E+03  0.10843589141E+04  0.13962069938E+04  0.25500000920E-02 0. -1.
       -2    1    3    3    0  502  0.50251349041E+03 -0.72183094074E+03 -0.82595943652E+03  0.12065524049E+04  0.25500000920E-02 0.  1.
</event>
<event>
 5   0  0.5942229E-06  0.2599076E+04  0.7818609E-02  0.8368515E-01
        2   -1    0    0  501    0  0.00000000000E+00  0.00000000000E+00  0.19253784702E+04  0.19253784702E+04  0.25500000920E-02 0.  1.
       -2   -1    0    0    0  501  0.00000000000E+00  0.00000000000E+00 -0.87712551120E+03  0.87712551120E+03  0.25500000920E-02 0. -1.
    10030    2    1    2    0    0  0.00000000000E+00  0.00000000000E+00  0.10482529590E+04  0.28025039814E+04  0.25990756625E+04 0.  0.
        4    1    3    3  502    0 -0.10949791083E+04 -0.69768801680E+03  0.58366751770E+03  0.14235228135E+04  0.12699999809E+01 0. -1.
       -4    1    3    3    0  502  0.10949791083E+04  0.69768801680E+03  0.46458544128E+03  0.13789811679E+04  0.12699999809E+01 0.  1.
</event>
<event>
 5   0  0.6161834E-06  0.2634736E+04  0.7818609E-02  0.8356497E-01
       -2   -1    0    0    0  501  0.00000000000E+00  0.00000000000E+00  0.10513433412E+04  0.10513433412E+04  0.25500000920E-02 0.  1.
        2   -1    0    0  501    0  0.00000000000E+00  0.00000000000E+00 -0.16507057282E+04  0.16507057282E+04  0.25500000920E-02 0. -1.
    10030    2    1    2    0    0  0.00000000000E+00  0.00000000000E+00 -0.59936238702E+03  0.27020490694E+04  0.26347360214E+04 0.  0.
        5    1    3    3  502    0 -0.38525347479E+03  0.10314490988E+04 -0.10414361893E+04  0.15155589430E+04  0.46999998093E+01 0. -1.
       -5    1    3    3    0  502  0.38525347479E+03 -0.10314490988E+04  0.44207380231E+03  0.11864901264E+04  0.46999998093E+01 0.  1.
</event>
<event>
 5   0  0.6173140E-06  0.2603527E+04  0.7818609E-02  0.8367004E-01
        2   -1    0    0  501    0  0.00000000000E+00  0.00000000000E+00  0.12513798372E+04  0.12513798372E+04  0.25500000920E-02 0. -1.
       -2   -1    0    0    0  501  0.00000000000E+00  0.00000000000E+00 -0.13541761108E+04  0.13541761108E+04  0.25500000920E-02 0.  1.
    10030    2    1    2    0    0  0.00000000000E+00  0.00000000000E+00 -0.10279627358E+03  0.26055559480E+04  0.26035273619E+04 0.  0.
        3    1    3    3  502    0  0.16895697566E+01 -0.11319692544E+04 -0.69472979914E+03  0.13281591590E+04  0.10100000352E+00 0.  1.
       -3    1    3    3    0  502 -0.16895697566E+01  0.11319692544E+04  0.59193352556E+03  0.12773967890E+04  0.10100000352E+00 0. -1.
</event>
<event>
 5   0  0.6161834E-06  0.2590775E+04  0.7818609E-02  0.8371341E-01
       -2   -1    0    0    0  501  0.00000000000E+00  0.00000000000E+00  0.76711946727E+03  0.76711946728E+03  0.25500000920E-02 0. -1.
        2   -1    0    0  501    0  0.00000000000E+00  0.00000000000E+00 -0.21874413225E+04  0.21874413225E+04  0.25500000920E-02 0.  1.
    10030    2    1    2    0    0  0.00000000000E+00  0.00000000000E+00 -0.14203218552E+04  0.29545607898E+04  0.25907750362E+04 0.  0.
        5    1    3    3  502    0  0.85058454664E+01  0.18015304388E+01  0.76707646738E+03  0.76714013826E+03  0.46999998093E+01 0. -1.
       -5    1    3    3    0  502 -0.85058454664E+01 -0.18015304388E+01 -0.21873983226E+04  0.21874206515E+04  0.46999998093E+01 0.  1.
</event>
<event>
 5   0  0.6158063E-06  0.2606845E+04  0.7818609E-02  0.8365880E-01
       -2   -1    0    0    0  501  0.00000000000E+00  0.00000000000E+00  0.18586214679E+04  0.18586214679E+04  0.25500000920E-02 0.  1.
        2   -1    0    0  501    0  0.00000000000E+00  0.00000000000E+00 -0.91407033301E+03  0.91407033301E+03  0.25500000920E-02 0. -1.
    10030    2    1    2    0    0  0.00000000000E+00  0.00000000000E+00  0.94455113488E+03  0.27726918009E+04  0.26068454071E+04 0.  0.
        2    1    3    3  502    0  0.30653617086E+03  0.56341367606E+02 -0.87385338731E+03  0.92777072398E+03  0.25500000920E-02 0. -1.
       -2    1    3    3    0  502 -0.30653617086E+03 -0.56341367606E+02  0.18184045222E+04  0.18449210769E+04  0.25500000920E-02 0.  1.
</event>
<event>
 5   0  0.2440590E-06  0.2604699E+04  0.7818609E-02  0.8366607E-01
        1   -1    0    0  501    0  0.00000000000E+00  0.00000000000E+00  0.19827980052E+04  0.19827980052E+04  0.50400001928E-02 0.  1.
       -1   -1    0    0    0  501  0.00000000000E+00  0.00000000000E+00 -0.85541441233E+03  0.85541441235E+03  0.50400001928E-02 0. -1.
    10030    2    1    2    0    0  0.00000000000E+00  0.00000000000E+00  0.11273835928E+04  0.28382124175E+04  0.26046988236E+04 0.  0.
        1    1    3    3  502    0  0.10868878591E+04 -0.44819910196E+03 -0.46810670962E+02  0.11766048157E+04  0.50400001928E-02 0. -1.
       -1    1    3    3    0  502 -0.10868878591E+04  0.44819910196E+03  0.11741942638E+04  0.16616076019E+04  0.50400001928E-02 0.  1.
</event>
<event>
 5   0  0.2471488E-06  0.2599608E+04  0.7818609E-02  0.8368334E-01
       -1   -1    0    0    0  501  0.00000000000E+00  0.00000000000E+00  0.21151955619E+04  0.21151955619E+04  0.50400001928E-02 0.  1.
        1   -1    0    0  501    0  0.00000000000E+00  0.00000000000E+00 -0.79873955774E+03  0.79873955776E+03  0.50400001928E-02 0. -1.
    10030    2    1    2    0    0  0.00000000000E+00  0.00000000000E+00  0.13164560041E+04  0.29139351196E+04  0.25996079456E+04 0.  0.
        4    1    3    3  502    0 -0.62631099033E+03 -0.37643429591E+03 -0.54669932197E+03  0.91260615672E+03  0.12699999809E+01 0. -1.
       -4    1    3    3    0  502  0.62631099033E+03  0.37643429591E+03  0.18631553261E+04  0.20013289629E+04  0.12699999809E+01 0.  1.
</event>
<event>
 5   0  0.5942229E-06  0.2596381E+04  0.7818609E-02  0.8369432E-01
       -2   -1    0    0    0  501  0.00000000000E+00  0.00000000000E+00  0.86584327541E+03  0.86584327541E+03  0.25500000920E-02 0. -1.
        2   -1    0    0  501    0  0.00000000000E+00  0.00000000000E+00 -0.19464241737E+04  0.19464241737E+04  0.25500000920E-02 0.  1.
    10030    2    1    2    0    0  0.00000000000E+00  0.00000000000E+00 -0.10805808982E+04  0.28122674491E+04  0.25963807747E+04 0.  0.
        4    1    3    3  502    0 -0.62249104695E+03 -0.11375527740E+04 -0.60684246293E+03  0.14317055580E+04  0.12699999809E+01 0. -1.
       -4    1    3    3    0  502  0.62249104695E+03  0.11375527740E+04 -0.47373843532E+03  0.13805618911E+04  0.12699999809E+01 0.  1.
</event>
<event>
 5   0  0.5942229E-06  0.2601565E+04  0.7818609E-02  0.8367670E-01
        2   -1    0    0  501    0  0.00000000000E+00  0.00000000000E+00  0.23611912899E+04  0.23611912899E+04  0.25500000920E-02 0.  1.
       -2   -1    0    0    0  501  0.00000000000E+00  0.00000000000E+00 -0.71660221690E+03  0.71660221690E+03  0.25500000920E-02 0. -1.
    10030    2    1    2    0    0  0.00000000000E+00  0.00000000000E+00  0.16445890730E+04  0.30777935068E+04  0.26015648467E+04 0.  0.
        4    1    3    3  502    0 -0.43934007557E+03  0.11608519518E+04  0.36191089721E+03  0.12928952264E+04  0.12699999809E+01 0. -1.
       -4    1    3    3    0  502  0.43934007557E+03 -0.11608519518E+04  0.12826781758E+04  0.17848982804E+04  0.12699999809E+01 0.  1.
</event>
<event>
 5   0  0.2503292E-06  0.2600416E+04  0.7818609E-02  0.8368060E-01
       -1   -1    0    0    0  501  0.00000000000E+00  0.00000000000E+00  0.99263723982E+03  0.99263723983E+03  0.50400001928E-02 0.  1.
        1   -1    0    0  501    0  0.00000000000E+00  0.00000000000E+00 -0.17030806664E+04  0.17030806664E+04  0.50400001928E-02 0. -1.
    10030    2    1    2    0    0  0.00000000000E+00  0.00000000000E+00 -0.71044342662E+03  0.26957179063E+04  0.26004163451E+04 0.  0.
        2    1    3    3  502    0 -0.55441811093E+03 -0.11079736411E+04  0.53638926554E+02  0.12401057074E+04  0.25500000920E-02 0.  1.
       -2    1    3    3    0  502  0.55441811093E+03  0.11079736411E+04 -0.76408235317E+03  0.14556121989E+04  0.25500000920E-02 0. -1.
</event>
<event>
 5   0  0.2503292E-06  0.2634244E+04  0.7818609E-02  0.8356661E-01
        1   -1    0    0  501    0  0.00000000000E+00  0.00000000000E+00  0.15464570158E+04  0.15464570159E+04  0.50400001928E-02 0.  1.
       -1   -1    0    0    0  501  0.00000000000E+00  0.00000000000E+00 -0.11217968601E+04  0.11217968602E+04  0.50400001928E-02 0. -1.
    10030    2    1    2    0    0  0.00000000000E+00  0.00000000000E+00  0.42466015570E+03  0.26682538760E+04  0.26342441988E+04 0.  0.
        2    1    3    3  502    0 -0.13127689238E+04 -0.34182606559E+02  0.10963109787E+03  0.13177821047E+04  0.25500000920E-02 0. -1.
       -2    1    3    3    0  502  0.13127689238E+04  0.34182606559E+02  0.31502905783E+03  0.13504717713E+04  0.25500000920E-02 0.  1.
</event>
<event>
 5   0  0.6158063E-06  0.2598142E+04  0.7818609E-02  0.8368833E-01
        2   -1    0    0  501    0  0.00000000000E+00  0.00000000000E+00  0.13030714927E+04  0.13030714927E+04  0.25500000920E-02 0.  1.
       -2   -1    0    0    0  501  0.00000000000E+00  0.00000000000E+00 -0.12950827142E+04  0.12950827142E+04  0.25500000920E-02 0. -1.
    10030    2    1    2    0    0  0.00000000000E+00  0.00000000000E+00  0.79887785170E+01  0.25981542069E+04  0.25981419250E+04 0.  0.
        2    1    3    3  502    0 -0.40857571761E+03  0.46610833084E+03 -0.11376739493E+04  0.12955667131E+04  0.25500000920E-02 0. -1.
       -2    1    3    3    0  502  0.40857571761E+03 -0.46610833084E+03  0.11456627278E+04  0.13025874938E+04  0.25500000920E-02 0.  1.
</event>
<event>
 5   0  0.6173140E-06  0.2597504E+04  0.7818609E-02  0.8369050E-01
        2   -1    0    0  501    0  0.00000000000E+00  0.00000000000E+00  0.24408657198E+04  0.24408657198E+04  0.25500000920E-02 0. -1.
       -2   -1    0    0    0  501  0.00000000000E+00  0.00000000000E+00 -0.69104830446E+03  0.69104830447E+03  0.25500000920E-02 0.  1.
    10030    2    1    2    0    0  0.00000000000E+00  0.00000000000E+00  0.17498174153E+04  0.31319140242E+04  0.25975035069E+04 0.  0.
        3    1    3    3  502    0  0.28361395447E+03  0.41916440287E+03  0.23170768611E+04  0.23717042105E+04  0.10100000352E+00 0. -1.
       -3    1    3    3    0  502 -0.28361395447E+03 -0.41916440287E+03 -0.56725944580E+03  0.76020981370E+03  0.10100000352E+00 0.  1.
</event>
<event>
 5   0  0.6158063E-06  0.2509099E+04  0.7818609E-02  0.8399751E-01
        2   -1    0    0  501    0  0.00000000000E+00  0.00000000000E+00  0.16384552377E+04  0.16384552377E+04  0.25500000920E-02 0.  1.
       -2   -1    0    0    0  501  0.00000000000E+00  0.00000000000E+00 -0.96059669643E+03  0.96059669644E+03  0.25500000920E-02 0. -1.
    10030    2    1    2    0    0  0.00000000000E+00  0.00000000000E+00  0.67785854131E+03  0.25990519342E+04  0.25090991919E+04 0.  0.
        2    1    3    3  502    0 -0.12394078377E+04 -0.13084290502E+03  0.19010152665E+03  0.12607102143E+04  0.25500000920E-02 0.  1.
       -2    1    3    3    0  502  0.12394078377E+04  0.13084290502E+03  0.48775701466E+03  0.13383417199E+04  0.25500000920E-02 0. -1.
</event>
<event>
 5   0  0.5940748E-06  0.2426757E+04  0.7818609E-02  0.8429553E-01
       -2   -1    0    0    0  501  0.00000000000E+00  0.00000000000E+00  0.13436723913E+04  0.13436723913E+04  0.25500000920E-02 0.  1.
        2   -1    0    0  501    0  0.00000000000E+00  0.00000000000E+00 -0.10957192197E+04  0.10957192197E+04  0.25500000920E-02 0. -1.
    10030    2    1    2    0    0  0.00000000000E+00  0.00000000000E+00  0.24795317158E+03  0.24393916110E+04  0.24267572307E+04 0.  0.
        1    1    3    3  502    0  0.47377048820E+03 -0.50717750652E+02 -0.99774395272E+03  0.11056779644E+04  0.50400001928E-02 0. -1.
       -1    1    3    3    0  502 -0.47377048820E+03  0.50717750652E+02  0.12456971243E+04  0.13337136466E+04  0.50400001928E-02 0.  1.
</event>
<event>
 5   0  0.2333979E-06  0.2583168E+04  0.7818609E-02  0.8373941E-01
        1   -1    0    0  501    0  0.00000000000E+00  0.00000000000E+00  0.94751113949E+03  0.94751113950E+03  0.50400001928E-02 0.  1.
       -1   -1    0    0    0  501  0.00000000000E+00  0.00000000000E+00 -0.17606017462E+04  0.17606017463E+04  0.50400001928E-02 0. -1.
    10030    2    1    2    0    0  0.00000000000E+00  0.00000000000E+00 -0.81309060676E+03  0.27081128858E+04  0.25831684163E+04 0.  0.
        3    1    3    3  502    0  0.33992481120E+03  0.12422933994E+04 -0.50790682931E+03  0.13844894817E+04  0.10100000352E+00 0. -1.
       -3    1    3    3    0  502 -0.33992481120E+03 -0.12422933994E+04 -0.30518377744E+03  0.13236234040E+04  0.10100000352E+00 0.  1.
</event>
<event>
 5   0  0.6161834E-06  0.2595198E+04  0.7818609E-02  0.8369834E-01
       -2   -1    0    0    0  501  0.00000000000E+00  0.00000000000E+00  0.16446011249E+04  0.16446011249E+04  0.25500000920E-02 0. -1.
        2   -1    0    0  501    0  0.00000000000E+00  0.00000000000E+00 -0.10238125930E+04  0.10238125930E+04  0.25500000920E-02 0.  1.
    10030    2    1    2    0    0  0.00000000000E+00  0.00000000000E+00  0.62078853190E+03  0.26684137178E+04  0.25951981366E+04 0.  0.
        5    1    3    3  502    0  0.83296278891E+03 -0.98409385295E+03  0.46106690493E+03  0.13692598365E+04  0.46999998093E+01 0. -1.
       -5    1    3    3    0  502 -0.83296278891E+03  0.98409385295E+03  0.15972162697E+03  0.12991538813E+04  0.46999998093E+01 0.  1.
</event>
<event>
 5   0  0.5942229E-06  0.2599309E+04  0.7818609E-02  0.8368436E-01
        2   -1    0    0  501    0  0.00000000000E+00  0.00000000000E+00  0.14384480830E+04  0.14384480830E+04  0.25500000920E-02 0.  1.
       -2   -1    0    0    0  501  0.00000000000E+00  0.00000000000E+00 -0.11742533057E+04  0.11742533057E+04  0.25500000920E-02 0. -1.
    10030    2    1    2    0    0  0.00000000000E+00  0.00000000000E+00  0.26419477729E+03  0.26127013888E+04  0.25993094595E+04 0.  0.
        4    1    3    3  502    0 -0.10138162860E+03  0.11772168580E+03 -0.11648854668E+04  0.11752005759E+04  0.12699999809E+01 0. -1.
       -4    1    3    3    0  502  0.10138162860E+03 -0.11772168580E+03  0.14290802441E+04  0.14375008128E+04  0.12699999809E+01 0.  1.
</event>
<event>
 5   0  0.6158063E-06  0.2590236E+04  0.7818609E-02  0.8371525E-01
       -2   -1    0    0    0  501  0.00000000000E+00  0.00000000000E+00  0.92631944790E+03  0.92631944790E+03  0.25500000920E-02 0. -1.
        2   -1    0    0  501    0  0.00000000000E+00  0.00000000000E+00 -0.18107472830E+04  0.18107472830E+04  0.25500000920E-02 0.  1.
    10030    2    1    2    0    0  0.00000000000E+00  0.00000000000E+00 -0.88442783514E+03  0.27370667309E+04  0.25902358375E+04 0.  0.
        2    1    3    3  502    0 -0.53781935561E+03  0.11781276736E+04 -0.45256453037E+03  0.13718779570E+04  0.25500000920E-02 0.  1.
       -2    1    3    3    0  502  0.53781935561E+03 -0.11781276736E+04 -0.43186330477E+03  0.13651887740E+04  0.25500000920E-02 0. -1.
</event>
<event>
 5   0  0.2333979E-06  0.2602901E+04  0.7818609E-02  0.8367217E-01
        1   -1    0    0  501    0  0.00000000000E+00  0.00000000000E+00  0.17104721180E+04  0.17104721180E+04  0.50400001928E-02 0.  1.
       -1   -1    0    0    0  501  0.00000000000E+00  0.00000000000E+00 -0.99023728708E+03  0.99023728709E+03  0.50400001928E-02 0. -1.
    10030    2    1    2    0    0  0.00000000000E+00  0.00000000000E+00  0.72023483091E+03  0.27007094051E+04  0.26029008969E+04 0.  0.
        3    1    3    3  502    0 -0.10151767094E+04  0.54880727034E+03  0.98439042997E+03  0.15168380599E+04  0.10100000352E+00 0.  1.
       -3    1    3    3    0  502  0.10151767094E+04 -0.54880727034E+03 -0.26415559906E+03  0.11838713452E+04  0.10100000352E+00 0. -1.
</event>
<event>
 5   0  0.2456600E-06  0.2594300E+04  0.7818609E-02  0.8370140E-01
       -1   -1    0    0    0  501  0.00000000000E+00  0.00000000000E+00  0.15011800180E+04  0.15011800180E+04  0.50400001928E-02 0. -1.
        1   -1    0    0  501    0  0.00000000000E+00  0.00000000000E+00 -0.11208501979E+04  0.11208501979E+04  0.50400001928E-02 0.  1.
    10030    2    1    2    0    0  0.00000000000E+00  0.00000000000E+00  0.38032982014E+03  0.26220302159E+04  0.25942998441E+04 0.  0.
        5    1    3    3  502    0  0.71396082395E+03 -0.53488170338E+03  0.11418976728E+04  0.14490655195E+04  0.46999998093E+01 0. -1.
       -5    1    3    3    0  502 -0.71396082395E+03  0.53488170338E+03 -0.76156785265E+03  0.11729646964E+04  0.46999998093E+01 0.  1.
</event>
<event>
 5   0  0.5940748E-06  0.2595853E+04  0.7818609E-02  0.8369611E-01
       -2   -1    0    0    0  501  0.00000000000E+00  0.00000000000E+00  0.62751773388E+03  0.62751773388E+03  0.25500000920E-02 0. -1.
        2   -1    0    0  501    0  0.00000000000E+00  0.00000000000E+00 -0.26845660756E+04  0.26845660756E+04  0.25500000920E-02 0.  1.
    10030    2    1    2    0    0  0.00000000000E+00  0.00000000000E+00 -0.20570483417E+04  0.33120838094E+04  0.25958527078E+04 0.  0.
        1    1    3    3  502    0  0.83579657593E+03  0.67727104142E+03 -0.19550877179E+04  0.22315062099E+04  0.50400001928E-02 0.  1.
       -1    1    3    3    0  502 -0.83579657593E+03 -0.67727104142E+03 -0.10196062377E+03  0.10805775996E+04  0.50400001928E-02 0. -1.
</event>
<event>
 5   0  0.6161834E-06  0.2564606E+04  0.7818609E-02  0.8380324E-01
       -2   -1    0    0    0  501  0.00000000000E+00  0.00000000000E+00  0.75831036927E+03  0.75831036927E+03  0.25500000920E-02 0.  1.
        2   -1    0    0  501    0  0.00000000000E+00  0.00000000000E+00 -0.21683749620E+04  0.21683749620E+04  0.25500000920E-02 0. -1.
    10030    2    1    2    0    0  0.00000000000E+00  0.00000000000E+00 -0.14100645928E+04  0.29266853313E+04  0.25646061828E+04 0.  0.
        5    1    3    3  502    0 -0.45634619656E+03 -0.10020692095E+04  0.44929590878E+02  0.11020142058E+04  0.46999998093E+01 0.  1.
       -5    1    3    3    0  502  0.45634619656E+03  0.10020692095E+04 -0.14549941837E+04  0.18246711255E+04  0.46999998093E+01 0. -1.
</event>
<event>
 5   0  0.6161834E-06  0.2610607E+04  0.7818609E-02  0.8364607E-01
        2   -1    0    0  501    0  0.00000000000E+00  0.00000000000E+00  0.19032389247E+04  0.19032389247E+04  0.25500000920E-02 0.  1.
       -2   -1    0    0    0  501  0.00000000000E+00  0.00000000000E+00 -0.89521994094E+03  0.89521994094E+03  0.25500000920E-02 0. -1.
    10030    2    1    2    0    0  0.00000000000E+00  0.00000000000E+00  0.10080189837E+04  0.27984588656E+04  0.26106071614E+04 0.  0.
        5    1    3    3  502    0  0.29879867457E+03 -0.94771558380E+03  0.14112866904E+04  0.17260352511E+04  0.46999998093E+01 0.  1.
       -5    1    3    3    0  502 -0.29879867457E+03  0.94771558380E+03 -0.40326770664E+03  0.10724236145E+04  0.46999998093E+01 0. -1.
</event>
<event>
 5   0  0.2471488E-06  0.2566593E+04  0.7818609E-02  0.8379638E-01
       -1   -1    0    0    0  501  0.00000000000E+00  0.00000000000E+00  0.20757141309E+04  0.20757141309E+04  0.50400001928E-02 0.  1.
        1   -1    0    0  501    0  0.00000000000E+00  0.00000000000E+00 -0.79338969185E+03  0.79338969187E+03  0.50400001928E-02 0. -1.
    10030    2    1    2    0    0  0.00000000000E+00  0.00000000000E+00  0.12823244391E+04  0.28691038228E+04  0.25665932243E+04 0.  0.
        4    1    3    3  502    0 -0.31915620363E+03 -0.10225036318E+04 -0.14887174125E+03  0.10814521568E+04  0.12699999809E+01 0. -1.
       -4    1    3    3    0  502  0.31915620363E+03  0.10225036318E+04  0.14311961803E+04  0.17876516659E+04  0.12699999809E+01 0.  1.
</event>
<event>
 5   0  0.2471488E-06  0.2581668E+04  0.7818609E-02  0.8374455E-01
        1   -1    0    0  501    0  0.00000000000E+00  0.00000000000E+00  0.13229057880E+04  0.13229057880E+04  0.50400001928E-02 0. -1.
       -1   -1    0    0    0  501  0.00000000000E+00  0.00000000000E+00 -0.12595394022E+04  0.12595394022E+04  0.50400001928E-02 0.  1.
    10030    2    1    2    0    0  0.00000000000E+00  0.00000000000E+00  0.63366385808E+02  0.25824451902E+04  0.25816676512E+04 0.  0.
        4    1    3    3  502    0 -0.89507827815E+03  0.60282207442E+03  0.74019784763E+03  0.13086076738E+04  0.12699999809E+01 0.  1.
       -4    1    3    3    0  502  0.89507827815E+03 -0.60282207442E+03 -0.67683146182E+03  0.12738375163E+04  0.12699999809E+01 0. -1.
</event>
<event>
 5   0  0.2503292E-06  0.2579316E+04  0.7818609E-02  0.8375261E-01
       -1   -1    0    0    0  501  0.00000000000E+00  0.00000000000E+00  0.18522996342E+04  0.18522996342E+04  0.50400001928E-02 0.  1.
        1   -1    0    0  501    0  0.00000000000E+00  0.00000000000E+00 -0.89792068926E+03  0.89792068928E+03  0.50400001928E-02 0. -1.
    10030    2    1    2    0    0  0.00000000000E+00  0.00000000000E+00  0.95437894495E+03  0.27502203235E+04  0.25793163159E+04 0.  0.
        2    1    3    3  502    0 -0.52627473783E+03 -0.73139125969E+03 -0.50661608566E+03  0.10337108555E+04  0.25500000920E-02 0. -1.
       -2    1    3    3    0  502  0.52627473783E+03  0.73139125969E+03  0.14609950306E+04  0.17165094680E+04  0.25500000920E-02 0.  1.
</event>
<event>
 5   0  0.5940748E-06  0.2593898E+04  0.7818609E-02  0.8370277E-01
        2   -1    0    0  501    0  0.00000000000E+00  0.00000000000E+00  0.16892634083E+04  0.16892634083E+04  0.25500000920E-02 0. -1.
       -2   -1    0    0    0  501  0.00000000000E+00  0.00000000000E+00 -0.99574587938E+03  0.99574587939E+03  0.25500000920E-02 0.  1.
    10030    2    1    2    0    0  0.00000000000E+00  0.00000000000E+00  0.69351752894E+03  0.26850092877E+04  0.25938982849E+04 0.  0.
        1    1    3    3  502    0  0.68973081211E+03  0.49487120853E+03 -0.66821875134E+03  0.10803436517E+04  0.50400001928E-02 0.  1.
       -1    1    3    3    0  502 -0.68973081211E+03 -0.49487120853E+03  0.13617362803E+04  0.16046656360E+04  0.50400001928E-02 0. -1.
</event>
<event>
 5   0  0.6161834E-06  0.2593003E+04  0.7818609E-02  0.8370582E-01
        2   -1    0    0  501    0  0.00000000000E+00  0.00000000000E+00  0.11281516367E+04  0.11281516367E+04  0.25500000920E-02 0.  1.
       -2   -1    0    0    0  501  0.00000000000E+00  0.00000000000E+00 -0.14899732910E+04  0.14899732910E+04  0.25500000920E-02 0. -1.
    10030    2    1    2    0    0  0.00000000000E+00  0.00000000000E+00 -0.36182165429E+03  0.26181249277E+04  0.25930027435E+04 0.  0.
        5    1    3    3  502    0 -0.99670826745E+01 -0.33547975044E+03  0.10835189668E+04  0.11343198170E+04  0.46999998093E+01 0.  1.
       -5    1    3    3    0  502  0.99670826745E+01  0.33547975044E+03 -0.14453406211E+04  0.14838051108E+04  0.46999998093E+01 0. -1.
</event>
<event>
 5   0  0.6173140E-06  0.2588578E+04  0.7818609E-02  0.8372091E-01
        2   -1    0    0  501    0  0.00000000000E+00  0.00000000000E+00  0.10975051739E+04  0.10975051739E+04  0.25500000920E-02 0.  1.
       -2   -1    0    0    0  501  0.00000000000E+00  0.00000000000E+00 -0.15263566990E+04  0.15263566990E+04  0.25500000920E-02 0. -1.
    10030    2    1    2    0    0  0.00000000000E+00  0.00000000000E+00 -0.42885152512E+03  0.26238618729E+04  0.25885782773E+04 0.  0.
        3    1    3    3  502    0 -0.11572620076E+03 -0.31437458371E+03  0.10527990218E+04  0.11048120759E+04  0.10100000352E+00 0.  1.
       -3    1    3    3    0  502  0.11572620076E+03  0.31437458371E+03 -0.14816505469E+04  0.15190497970E+04  0.10100000352E+00 0. -1.
</event>
<event>
 5   0  0.2471488E-06  0.2599531E+04  0.7818609E-02  0.8368360E-01
       -1   -1    0    0    0  501  0.00000000000E+00  0.00000000000E+00  0.70110396421E+03  0.70110396423E+03  0.50400001928E-02 0.  1.
        1   -1    0    0  501    0  0.00000000000E+00  0.00000000000E+00 -0.24096154819E+04  0.24096154819E+04  0.50400001928E-02 0. -1.
    10030    2    1    2    0    0  0.00000000000E+00  0.00000000000E+00 -0.17085115177E+04  0.31107194461E+04  0.25995314706E+04 0.  0.
        4    1    3    3  502    0 -0.33069810106E+02 -0.12864199437E+04 -0.63549695411E+03  0.14352100458E+04  0.12699999809E+01 0. -1.
       -4    1    3    3    0  502  0.33069810106E+02  0.12864199437E+04 -0.10730145636E+04  0.16755094003E+04  0.12699999809E+01 0.  1.
</event>
<event>
 5   0  0.5940748E-06  0.2598573E+04  0.7818609E-02  0.8368686E-01
       -2   -1    0    0    0  501  0.00000000000E+00  0.00000000000E+00  0.16666778020E+04  0.16666778020E+04  0.25500000920E-02 0. -1.
        2   -1    0    0  501    0  0.00000000000E+00  0.00000000000E+00 -0.10128804870E+04  0.10128804870E+04  0.25500000920E-02 0.  1.
    10030    2    1    2    0    0  0.00000000000E+00  0.00000000000E+00  0.65379731504E+03  0.26795582890E+04  0.25985730113E+04 0.  0.
        1    1    3    3  502    0 -0.60707567487E+03 -0.10848854372E+04 -0.62532674095E+02  0.12447600661E+04  0.50400001928E-02 0.  1.
       -1    1    3    3    0  502  0.60707567487E+03  0.10848854372E+04  0.71632998914E+03  0.14347982228E+04  0.50400001928E-02 0. -1.
</event>
<event>
 5   0  0.2471488E-06  0.2597542E+04  0.7818609E-02  0.8369037E-01
       -1   -1    0    0    0  501  0.00000000000E+00  0.00000000000E+00  0.77177275023E+03  0.77177275025E+03  0.50400001928E-02 0. -1.
        1   -1    0    0  501    0  0.00000000000E+00  0.00000000000E+00 -0.21856255159E+04  0.21856255159E+04  0.50400001928E-02 0.  1.
    10030    2    1    2    0    0  0.00000000000E+00  0.00000000000E+00 -0.14138527657E+04  0.29573982662E+04  0.25975420808E+04 0.  0.
        4    1    3    3  502    0 -0.11724421445E+04  0.37694466531E+03 -0.23736192533E+03  0.12542129641E+04  0.12699999809E+01 0.  1.
       -4    1    3    3    0  502  0.11724421445E+04 -0.37694466531E+03 -0.11764908403E+04  0.17031853021E+04  0.12699999809E+01 0. -1.
</event>
<event>
 5   0  0.6173140E-06  0.2596971E+04  0.7818609E-02  0.8369231E-01
       -2   -1    0    0    0  501  0.00000000000E+00  0.00000000000E+00  0.10270152202E+04  0.10270152202E+04  0.25500000920E-02 0. -1.
        2   -1    0    0  501    0  0.00000000000E+00  0.00000000000E+00 -0.16417139686E+04  0.16417139686E+04  0.25500000920E-02 0.  1.
    10030    2    1    2    0    0  0.00000000000E+00  0.00000000000E+00 -0.61469874832E+03  0.26687291888E+04  0.25969714923E+04 0.  0.
        3    1    3    3  502    0 -0.22591336470E+03 -0.12185000596E+04  0.91029735050E+02  0.12426043885E+04  0.10100000352E+00 0. -1.
       -3    1    3    3    0  502  0.22591336470E+03  0.12185000596E+04 -0.70572848337E+03  0.14261248003E+04  0.10100000352E+00 0.  1.
</event>
<event>
 5   0  0.5942229E-06  0.2669236E+04  0.7818609E-02  0.8345056E-01
        2   -1    0    0  501    0  0.00000000000E+00  0.00000000000E+00  0.18862101611E+04  0.18862101611E+04  0.25500000920E-02 0. -1.
       -2   -1    0    0    0  501  0.00000000000E+00  0.00000000000E+00 -0.94433033946E+03  0.94433033947E+03  0.25500000920E-02 0.  1.
    10030    2    1    2    0    0  0.00000000000E+00  0.00000000000E+00  0.94187982160E+03  0.28305405005E+04  0.26692362066E+04 0.  0.
        4    1    3    3  502    0 -0.10842969380E+04  0.49817734770E+03 -0.16294886837E+03  0.12043398466E+04  0.12699999809E+01 0.  1.
       -4    1    3    3    0  502  0.10842969380E+04 -0.49817734770E+03  0.11048286900E+04  0.16262006539E+04  0.12699999809E+01 0. -1.
</event>
<event>
 5   0  0.2440590E-06  0.2596139E+04  0.7818609E-02  0.8369514E-01
        1   -1    0    0  501    0  0.00000000000E+00  0.00000000000E+00  0.11007407971E+04  0.11007407971E+04  0.50400001928E-02 0.  1.
       -1   -1    0    0    0  501  0.00000000000E+00  0.00000000000E+00 -0.15307730252E+04  0.15307730252E+04  0.50400001928E-02 0. -1.
    10030    2    1    2    0    0  0.00000000000E+00  0.00000000000E+00 -0.43003222811E+03  0.26315138223E+04  0.25961389176E+04 0.  0.
        1    1    3    3  502    0  0.81512338414E+03  0.49545121412E+03  0.67736989657E+03  0.11699264993E+04  0.50400001928E-02 0.  1.
       -1    1    3    3    0  502 -0.81512338414E+03 -0.49545121412E+03 -0.11074021247E+04  0.14615873230E+04  0.50400001928E-02 0. -1.
</event>
<event>
 5   0  0.5940748E-06  0.2601645E+04  0.7818609E-02  0.8367643E-01
        2   -1    0    0  501    0  0.00000000000E+00  0.00000000000E+00  0.19952356960E+04  0.19952356960E+04  0.25500000920E-02 0. -1.
       -2   -1    0    0    0  501  0.00000000000E+00  0.00000000000E+00 -0.84808962503E+03  0.84808962503E+03  0.25500000920E-02 0.  1.
    10030    2    1    2    0    0  0.00000000000E+00  0.00000000000E+00  0.11471460710E+04  0.28433253210E+04  0.26016446285E+04 0.  0.
        1    1    3    3  502    0 -0.10662770919E+04  0.58252571254E+03  0.65810925469E+02  0.12168048818E+04  0.50400001928E-02 0.  1.
       -1    1    3    3    0  502  0.10662770919E+04 -0.58252571254E+03  0.10813351455E+04  0.16265204392E+04  0.50400001928E-02 0. -1.
</event>
<event>
 5   0  0.2456600E-06  0.2552739E+04  0.7818609E-02  0.8384434E-01
       -1   -1    0    0    0  501  0.00000000000E+00  0.00000000000E+00  0.11095826085E+04  0.11095826086E+04  0.50400001928E-02 0. -1.
        1   -1    0    0  501    0  0.00000000000E+00  0.00000000000E+00 -0.14682265684E+04  0.14682265685E+04  0.50400001928E-02 0.  1.
    10030    2    1    2    0    0  0.00000000000E+00  0.00000000000E+00 -0.35864395991E+03  0.25778091770E+04  0.25527386594E+04 0.  0.
        5    1    3    3  502    0  0.20680792790E+02  0.14022410144E+02 -0.14679708328E+04  0.14681909886E+04  0.46999998093E+01 0.  1.
       -5    1    3    3    0  502 -0.20680792790E+02 -0.14022410144E+02  0.11093268729E+04  0.11096181884E+04  0.46999998093E+01 0. -1.
</event>
<event>
 5   0  0.2456600E-06  0.2600728E+04  0.7818609E-02  0.8367954E-01
        1   -1    0    0  501    0  0.00000000000E+00  0.00000000000E+00  0.16839808820E+04  0.16839808820E+04  0.50400001928E-02 0.  1.
       -1   -1    0    0    0  501  0.00000000000E+00  0.00000000000E+00 -0.10041367896E+04  0.10041367897E+04  0.50400001928E-02 0. -1.
    10030    2    1    2    0    0  0.00000000000E+00  0.00000000000E+00  0.67984409231E+03  0.26881176716E+04  0.26007284800E+04 0.  0.
        5    1    3    3  502    0 -0.56253175439E+03 -0.47674396717E+03  0.14469854799E+04  0.16240430579E+04  0.46999998093E+01 0.  1.
       -5    1    3    3    0  502  0.56253175439E+03  0.47674396717E+03 -0.76714138761E+03  0.10640746137E+04  0.46999998093E+01 0. -1.
</event>
<event>
 5   0  0.2471488E-06  0.2604980E+04  0.7818609E-02  0.8366511E-01
       -1   -1    0    0    0  501  0.00000000000E+00  0.00000000000E+00  0.18606901679E+04  0.18606901679E+04  0.50400001928E-02 0.  1.
        1   -1    0    0  501    0  0.00000000000E+00  0.00000000000E+00 -0.91174814509E+03  0.91174814510E+03  0.50400001928E-02 0. -1.
    10030    2    1    2    0    0  0.00000000000E+00  0.00000000000E+00  0.94894202277E+03  0.27724383130E+04  0.26049804676E+04 0.  0.
        4    1    3    3  502    0  0.11841016759E+04 -0.14299510832E+03 -0.82562133247E+02  0.11955594918E+04  0.12699999809E+01 0.  1.
       -4    1    3    3    0  502 -0.11841016759E+04  0.14299510832E+03  0.10315041560E+04  0.15768788211E+04  0.12699999809E+01 0. -1.
</event>
<event>
 5   0  0.2333979E-06  0.2612328E+04  0.7818609E-02  0.8364026E-01
        1   -1    0    0  501    0  0.00000000000E+00  0.00000000000E+00  0.19734819333E+04  0.19734819333E+04  0.50400001928E-02 0. -1.
       -1   -1    0    0    0  501  0.00000000000E+00  0.00000000000E+00 -0.86449460280E+03  0.86449460282E+03  0.50400001928E-02 0.  1.
    10030    2    1    2    0    0  0.00000000000E+00  0.00000000000E+00  0.11089873305E+04  0.28379765361E+04  0.26123280652E+04 0.  0.
        3    1    3    3  502    0 -0.11604324469E+04  0.28907960070E+03  0.11251205176E+04  0.16419703617E+04  0.10100000352E+00 0. -1.
       -3    1    3    3    0  502  0.11604324469E+04 -0.28907960070E+03 -0.16133187133E+02  0.11960061744E+04  0.10100000352E+00 0.  1.
</event>
<event>
 5   0  0.2333979E-06  0.2612722E+04  0.7818609E-02  0.8363893E-01
        1   -1    0    0  501    0  0.00000000000E+00  0.00000000000E+00  0.15187132071E+04  0.15187132071E+04  0.50400001928E-02 0. -1.
       -1   -1    0    0    0  501  0.00000000000E+00  0.00000000000E+00 -0.11237004674E+04  0.11237004675E+04  0.50400001928E-02 0.  1.
    10030    2    1    2    0    0  0.00000000000E+00  0.00000000000E+00  0.39501273962E+03  0.26424136745E+04  0.26127217538E+04 0.  0.
        3    1    3    3  502    0  0.93405266638E+03 -0.29154454552E+03  0.10728631870E+04  0.14520633711E+04  0.10100000352E+00 0. -1.
       -3    1    3    3    0  502 -0.93405266638E+03  0.29154454552E+03 -0.67785044738E+03  0.11903503034E+04  0.10100000352E+00 0.  1.
</event>
<event>
 5   0  0.2471488E-06  0.2591392E+04  0.7818609E-02  0.8371131E-01
        1   -1    0    0  501    0  0.00000000000E+00  0.00000000000E+00  0.21852526893E+04  0.21852526893E+04  0.50400001928E-02 0.  1.
       -1   -1    0    0    0  501  0.00000000000E+00  0.00000000000E+00 -0.76825331737E+03  0.76825331739E+03  0.50400001928E-02 0. -1.
    10030    2    1    2    0    0  0.00000000000E+00  0.00000000000E+00  0.14169993719E+04  0.29535060067E+04  0.25913916168E+04 0.  0.
        4    1    3    3  502    0  0.12330153844E+04  0.26813915619E+03  0.37309823838E+03  0.13158379283E+04  0.12699999809E+01 0.  1.
       -4    1    3    3    0  502 -0.12330153844E+04 -0.26813915619E+03  0.10439011336E+04  0.16376680784E+04  0.12699999809E+01 0. -1.
</event>
<event>
 5   0  0.2333979E-06  0.2596026E+04  0.7818609E-02  0.8369552E-01
        1   -1    0    0  501    0  0.00000000000E+00  0.00000000000E+00  0.15381698193E+04  0.15381698193E+04  0.50400001928E-02 0.  1.
       -1   -1    0    0    0  501  0.00000000000E+00  0.00000000000E+00 -0.10953521025E+04  0.10953521025E+04  0.50400001928E-02 0. -1.
    10030    2    1    2    0    0  0.00000000000E+00  0.00000000000E+00  0.44281771681E+03  0.26335219218E+04  0.25960258439E+04 0.  0.
        3    1    3    3  502    0 -0.46862924421E+03 -0.60193041359E+03  0.12867698013E+04  0.14958977649E+04  0.10100000352E+00 0.  1.
       -3    1    3    3    0  502  0.46862924421E+03  0.60193041359E+03 -0.84395208445E+03  0.11376241569E+04  0.10100000352E+00 0. -1.
</event>
<event>
 5   0  0.2440590E-06  0.2596985E+04  0.7818609E-02  0.8369226E-01
        1   -1    0    0  501    0  0.00000000000E+00  0.00000000000E+00  0.12886516600E+04  0.12886516600E+04  0.50400001928E-02 0.  1.
       -1   -1    0    0    0  501  0.00000000000E+00  0.00000000000E+00 -0.13084086934E+04  0.13084086935E+04  0.50400001928E-02 0. -1.
    10030    2    1    2    0    0  0.00000000000E+00  0.00000000000E+00 -0.19757033488E+02  0.25970603534E+04  0.25969852019E+04 0.  0.
        1    1    3    3  502    0 -0.11814407068E+04 -0.36928012666E+03 -0.40220744398E+03  0.13015148034E+04  0.50400001928E-02 0. -1.
       -1    1    3    3    0  502  0.11814407068E+04  0.36928012666E+03  0.38245041049E+03  0.12955455500E+04  0.50400001928E-02 0.  1.
</event>
<event>
 5   0  0.2456600E-06  0.2595465E+04  0.7818609E-02  0.8369743E-01
       -1   -1    0    0    0  501  0.00000000000E+00  0.00000000000E+00  0.95260293742E+03  0.95260293743E+03  0.50400001928E-02 0. -1.
        1   -1    0    0  501    0  0.00000000000E+00  0.00000000000E+00 -0.17679028049E+04  0.17679028049E+04  0.50400001928E-02 0.  1.
    10030    2    1    2    0    0  0.00000000000E+00  0.00000000000E+00 -0.81529986749E+03  0.27205057424E+04  0.25954648178E+04 0.  0.
        5    1    3    3  502    0  0.72487303795E+03 -0.80522450564E+03  0.34108865404E+03  0.11358657427E+04  0.46999998093E+01 0. -1.
       -5    1    3    3    0  502 -0.72487303795E+03  0.80522450564E+03 -0.11563885215E+04  0.15846399996E+04  0.46999998093E+01 0.  1.
</event>
<event>
 5   0  0.6173140E-06  0.2612224E+04  0.7818609E-02  0.8364061E-01
        2   -1    0    0  501    0  0.00000000000E+00  0.00000000000E+00  0.16592111959E+04  0.16592111959E+04  0.25500000920E-02 0. -1.
       -2   -1    0    0    0  501  0.00000000000E+00  0.00000000000E+00 -0.10281565647E+04  0.10281565647E+04  0.25500000920E-02 0.  1.
    10030    2    1    2    0    0  0.00000000000E+00  0.00000000000E+00  0.63105463123E+03  0.26873677605E+04  0.26122242501E+04 0.  0.
        3    1    3    3  502    0  0.13022036739E+04  0.91501256756E+02  0.27161472980E+03  0.13333722136E+04  0.10100000352E+00 0. -1.
       -3    1    3    3    0  502 -0.13022036739E+04 -0.91501256756E+02  0.35943990143E+03  0.13539955470E+04  0.10100000352E+00 0.  1.
</event>
<event>
 5   0  0.6158063E-06  0.2586449E+04  0.7818609E-02  0.8372819E-01
        2   -1    0    0  501    0  0.00000000000E+00  0.00000000000E+00  0.90515519781E+03  0.90515519781E+03  0.25500000920E-02 0.  1.
       -2   -1    0    0    0  501  0.00000000000E+00  0.00000000000E+00 -0.18476717432E+04  0.18476717432E+04  0.25500000920E-02 0. -1.
    10030    2    1    2    0    0  0.00000000000E+00  0.00000000000E+00 -0.94251654542E+03  0.27528269410E+04  0.25864490579E+04 0.  0.
        2    1    3    3  502    0  0.59606735968E+03  0.88813042176E+03 -0.12448984528E+04  0.16412934232E+04  0.25500000920E-02 0. -1.
       -2    1    3    3    0  502 -0.59606735968E+03 -0.88813042176E+03  0.30238190736E+03  0.11115335178E+04  0.25500000920E-02 0.  1.
</event>
<event>
 5   0  0.2456600E-06  0.2606554E+04  0.7818609E-02  0.8365978E-01
        1   -1    0    0  501    0  0.00000000000E+00  0.00000000000E+00  0.19142302017E+04  0.19142302017E+04  0.50400001928E-02 0. -1.
       -1   -1    0    0    0  501  0.00000000000E+00  0.00000000000E+00 -0.88731814290E+03  0.88731814291E+03  0.50400001928E-02 0.  1.
    10030    2    1    2    0    0  0.00000000000E+00  0.00000000000E+00  0.10269120588E+04  0.28015483446E+04  0.26065541910E+04 0.  0.
        5    1    3    3  502    0 -0.55635259483E+03  0.29475392651E+03 -0.71300485213E+03  0.95121296045E+03  0.46999998093E+01 0.  1.
       -5    1    3    3    0  502  0.55635259483E+03 -0.29475392651E+03  0.17399169109E+04  0.18503353842E+04  0.46999998093E+01 0. -1.
</event>
<event>
 5   0  0.6173140E-06  0.2594487E+04  0.7818609E-02  0.8370076E-01
       -2   -1    0    0    0  501  0.00000000000E+00  0.00000000000E+00  0.12600776009E+04  0.12600776009E+04  0.25500000920E-02 0.  1.
        2   -1    0    0  501    0  0.00000000000E+00  0.00000000000E+00 -0.13355061005E+04  0.13355061005E+04  0.25500000920E-02 0. -1.
    10030    2    1    2    0    0  0.00000000000E+00  0.00000000000E+00 -0.75428499617E+02  0.25955837013E+04  0.25944874816E+04 0.  0.
        3    1    3    3  502    0 -0.53440523058E+01  0.15068137354E+03  0.12512818819E+04  0.12603332073E+04  0.10100000352E+00 0.  1.
       -3    1    3    3    0  502  0.53440523058E+01 -0.15068137354E+03 -0.13267103815E+04  0.13352504941E+04  0.10100000352E+00 0. -1.
</event>
<event>
 5   0  0.5940748E-06  0.2597297E+04  0.7818609E-02  0.8369120E-01
        2   -1    0    0  501    0  0.00000000000E+00  0.00000000000E+00  0.80903407566E+03  0.80903407567E+03  0.25500000920E-02 0. -1.
       -2   -1    0    0    0  501  0.00000000000E+00  0.00000000000E+00 -0.20845697058E+04  0.20845697058E+04  0.25500000920E-02 0.  1.
    10030    2    1    2    0    0  0.00000000000E+00  0.00000000000E+00 -0.12755356301E+04  0.28936037814E+04  0.25972969988E+04 0.  0.
        1    1    3    3  502    0 -0.11834543240E+04  0.50352155863E+03 -0.83827122854E+03  0.15351862264E+04  0.50400001928E-02 0.  1.
       -1    1    3    3    0  502  0.11834543240E+04 -0.50352155863E+03 -0.43726440155E+03  0.13584175551E+04  0.50400001928E-02 0. -1.
</event>
<event>
 5   0  0.5942229E-06  0.2602522E+04  0.7818609E-02  0.8367345E-01
       -2   -1    0    0    0  501  0.00000000000E+00  0.00000000000E+00  0.12795059687E+04  0.12795059687E+04  0.25500000920E-02 0.  1.
        2   -1    0    0  501    0  0.00000000000E+00  0.00000000000E+00 -0.13233855662E+04  0.13233855662E+04  0.25500000920E-02 0. -1.
    10030    2    1    2    0    0  0.00000000000E+00  0.00000000000E+00 -0.43879597463E+02  0.26028915350E+04  0.26025216471E+04 0.  0.
        4    1    3    3  502    0 -0.33153658197E+03 -0.51825566612E+03  0.11248585412E+04  0.12821130182E+04  0.12699999809E+01 0.  1.
       -4    1    3    3    0  502  0.33153658197E+03  0.51825566612E+03 -0.11687381387E+04  0.13207785168E+04  0.12699999809E+01 0. -1.
</event>
<event>
 5   0  0.6158063E-06  0.2606449E+04  0.7818609E-02  0.8366014E-01
        2   -1    0    0  501    0  0.00000000000E+00  0.00000000000E+00  0.15328797644E+04  0.15328797644E+04  0.25500000920E-02 0.  1.
       -2   -1    0    0    0  501  0.00000000000E+00  0.00000000000E+00 -0.11079759840E+04  0.11079759840E+04  0.25500000920E-02 0. -1.
    10030    2    1    2    0    0  0.00000000000E+00  0.00000000000E+00  0.42490378037E+03  0.26408557484E+04  0.26064488986E+04 0.  0.
        2    1    3    3  502    0  0.39699819719E+03 -0.28523863053E+03 -0.10115621602E+04  0.11234886065E+04  0.25500000920E-02 0. -1.
       -2    1    3    3    0  502 -0.39699819719E+03  0.28523863053E+03  0.14364659406E+04  0.15173671419E+04  0.25500000920E-02 0.  1.
</event>
<event>
 5   0  0.2456600E-06  0.2600203E+04  0.7818609E-02  0.8368132E-01
       -1   -1    0    0    0  501  0.00000000000E+00  0.00000000000E+00  0.10568282884E+04  0.10568282884E+04  0.50400001928E-02 0. -1.
        1   -1    0    0  501    0  0.00000000000E+00  0.00000000000E+00 -0.15993740303E+04  0.15993740303E+04  0.50400001928E-02 0.  1.
    10030    2    1    2    0    0  0.00000000000E+00  0.00000000000E+00 -0.54254574198E+03  0.26562023187E+04  0.26002028528E+04 0.  0.
        5    1    3    3  502    0  0.29211240392E+03  0.92429748569E+03  0.61374937763E+03  0.11473298946E+04  0.46999998093E+01 0. -1.
       -5    1    3    3    0  502 -0.29211240392E+03 -0.92429748569E+03 -0.11562951196E+04  0.15088724241E+04  0.46999998093E+01 0.  1.
</event>
<event>
 5   0  0.6158063E-06  0.2592054E+04  0.7818609E-02  0.8370905E-01
        2   -1    0    0  501    0  0.00000000000E+00  0.00000000000E+00  0.81133335794E+03  0.81133335794E+03  0.25500000920E-02 0.  1.
       -2   -1    0    0    0  501  0.00000000000E+00  0.00000000000E+00 -0.20702786953E+04  0.20702786953E+04  0.25500000920E-02 0. -1.
    10030    2    1    2    0    0  0.00000000000E+00  0.00000000000E+00 -0.12589453373E+04  0.28816120532E+04  0.25920541396E+04 0.  0.
        2    1    3    3  502    0  0.69888785554E+03  0.49072377131E+02 -0.18416105442E+04  0.19703760376E+04  0.25500000920E-02 0. -1.
       -2    1    3    3    0  502 -0.69888785554E+03 -0.49072377131E+02  0.58266520691E+03  0.91123601563E+03  0.25500000920E-02 0.  1.
</event>
<event>
 5   0  0.2456600E-06  0.2499984E+04  0.7818609E-02  0.8402991E-01
       -1   -1    0    0    0  501  0.00000000000E+00  0.00000000000E+00  0.62246098402E+03  0.62246098404E+03  0.50400001928E-02 0. -1.
        1   -1    0    0  501    0  0.00000000000E+00  0.00000000000E+00 -0.25101645205E+04  0.25101645205E+04  0.50400001928E-02 0.  1.
    10030    2    1    2    0    0  0.00000000000E+00  0.00000000000E+00 -0.18877035365E+04  0.31326255046E+04  0.24999835820E+04 0.  0.
        5    1    3    3  502    0 -0.31228865583E+03 -0.66692220488E+03  0.32176699474E+03  0.80365758929E+03  0.46999998093E+01 0. -1.
       -5    1    3    3    0  502  0.31228865583E+03  0.66692220488E+03 -0.22094705312E+04  0.23289679153E+04  0.46999998093E+01 0.  1.
</event>
<event>
 5   0  0.2471488E-06  0.2597176E+04  0.7818609E-02  0.8369161E-01
        1   -1    0    0  501    0  0.00000000000E+00  0.00000000000E+00  0.19018293552E+04  0.19018293552E+04  0.50400001928E-02 0. -1.
       -1   -1    0    0    0  501  0.00000000000E+00  0.00000000000E+00 -0.88668911830E+03  0.88668911832E+03  0.50400001928E-02 0.  1.
    10030    2    1    2    0    0  0.00000000000E+00  0.00000000000E+00  0.10151402369E+04  0.27885184735E+04  0.25971764624E+04 0.  0.
        4    1    3    3  502    0  0.55420985023E+03  0.37572937514E+03  0.17022014725E+04  0.18291562501E+04  0.12699999809E+01 0. -1.
       -4    1    3    3    0  502 -0.55420985023E+03 -0.37572937514E+03 -0.68706123558E+03  0.95936222344E+03  0.12699999809E+01 0.  1.
</event>
<event>
 5   0  0.2503292E-06  0.2596172E+04  0.7818609E-02  0.8369503E-01
       -1   -1    0    0    0  501  0.00000000000E+00  0.00000000000E+00  0.16809009089E+04  0.16809009089E+04  0.50400001928E-02 0.  1.
        1   -1    0    0  501    0  0.00000000000E+00  0.00000000000E+00 -0.10024546909E+04  0.10024546909E+04  0.50400001928E-02 0. -1.
    10030    2    1    2    0    0  0.00000000000E+00  0.00000000000E+00  0.67844621804E+03  0.26833555998E+04  0.25961717979E+04 0.  0.
        2    1    3    3  502    0 -0.78095949756E+03 -0.38457868326E+03  0.13344868622E+04  0.15933153128E+04  0.25500000920E-02 0.  1.
       -2    1    3    3    0  502  0.78095949756E+03  0.38457868326E+03 -0.65604064418E+03  0.10900402870E+04  0.25500000920E-02 0. -1.
</event>
<event>
 5   0  0.2471488E-06  0.2603836E+04  0.7818609E-02  0.8366899E-01
       -1   -1    0    0    0  501  0.00000000000E+00  0.00000000000E+00  0.13333915104E+04  0.13333915104E+04  0.50400001928E-02 0. -1.
        1   -1    0    0  501    0  0.00000000000E+00  0.00000000000E+00 -0.12711873735E+04  0.12711873735E+04  0.50400001928E-02 0.  1.
    10030    2    1    2    0    0  0.00000000000E+00  0.00000000000E+00  0.62204136892E+02  0.26045788838E+04  0.26038359794E+04 0.  0.
        4    1    3    3  502    0 -0.19903335837E+03 -0.10159645288E+04  0.82075154459E+03  0.13211483309E+04  0.12699999809E+01 0. -1.
       -4    1    3    3    0  502  0.19903335837E+03  0.10159645288E+04 -0.75854740770E+03  0.12834305529E+04  0.12699999809E+01 0.  1.
</event>
<event>
 5   0  0.5940748E-06  0.2593966E+04  0.7818609E-02  0.8370254E-01
        2   -1    0    0  501    0  0.00000000000E+00  0.00000000000E+00  0.17299124440E+04  0.17299124440E+04  0.25500000920E-02 0. -1.
       -2   -1    0    0    0  501  0.00000000000E+00  0.00000000000E+00 -0.97239911807E+03  0.97239911808E+03  0.25500000920E-02 0.  1.
    10030    2    1    2    0    0  0.00000000000E+00  0.00000000000E+00  0.75751332595E+03  0.27023115621E+04  0.25939663336E+04 0.  0.
        1    1    3    3  502    0 -0.16445375787E+03 -0.12623988389E+04  0.63704262995E+03  0.14235586322E+04  0.50400001928E-02 0.  1.
       -1    1    3    3    0  502  0.16445375787E+03  0.12623988389E+04  0.12047069600E+03  0.12787529299E+04  0.50400001928E-02 0. -1.
</event>
<event>
 5   0  0.5942229E-06  0.2610779E+04  0.7818609E-02  0.8364549E-01
       -2   -1    0    0    0  501  0.00000000000E+00  0.00000000000E+00  0.15095623164E+04  0.15095623164E+04  0.25500000920E-02 0. -1.
        2   -1    0    0  501    0  0.00000000000E+00  0.00000000000E+00 -0.11288318877E+04  0.11288318877E+04  0.25500000920E-02 0.  1.
    10030    2    1    2    0    0  0.00000000000E+00  0.00000000000E+00  0.38073042870E+03  0.26383942042E+04  0.26107792548E+04 0.  0.
        4    1    3    3  502    0 -0.90604437899E+03 -0.25268128920E+03 -0.72434747677E+03  0.11872005436E+04  0.12699999809E+01 0.  1.
       -4    1    3    3    0  502  0.90604437899E+03  0.25268128920E+03  0.11050779055E+04  0.14511936606E+04  0.12699999809E+01 0. -1.
</event>
<event>
 5   0  0.2333979E-06  0.2602034E+04  0.7818609E-02  0.8367511E-01
       -1   -1    0    0    0  501  0.00000000000E+00  0.00000000000E+00  0.80623268162E+03  0.80623268164E+03  0.50400001928E-02 0.  1.
        1   -1    0    0  501    0  0.00000000000E+00  0.00000000000E+00 -0.20994505305E+04  0.20994505305E+04  0.50400001928E-02 0. -1.
    10030    2    1    2    0    0  0.00000000000E+00  0.00000000000E+00 -0.12932178489E+04  0.29056832121E+04  0.26020343050E+04 0.  0.
        3    1    3    3  502    0 -0.89950066795E+03  0.75553477867E+03 -0.12710724558E+04  0.17307684569E+04  0.10100000352E+00 0.  1.
       -3    1    3    3    0  502  0.89950066795E+03 -0.75553477867E+03 -0.22145393104E+02  0.11749147552E+04  0.10100000352E+00 0. -1.
</event>
<event>
 5   0  0.6173140E-06  0.2601060E+04  0.7818609E-02  0.8367841E-01
        2   -1    0    0  501    0  0.00000000000E+00  0.00000000000E+00  0.94976540208E+03  0.94976540209E+03  0.25500000920E-02 0.  1.
       -2   -1    0    0    0  501  0.00000000000E+00  0.00000000000E+00 -0.17808380151E+04  0.17808380151E+04  0.25500000920E-02 0. -1.
    10030    2    1    2    0    0  0.00000000000E+00  0.00000000000E+00 -0.83107261304E+03  0.27306034172E+04  0.26010600404E+04 0.  0.
        3    1    3    3  502    0  0.51025898269E+03  0.52759217517E+03  0.71155467477E+03  0.10222660114E+04  0.10100000352E+00 0.  1.
       -3    1    3    3    0  502 -0.51025898269E+03 -0.52759217517E+03 -0.15426272878E+04  0.17083374058E+04  0.10100000352E+00 0. -1.
</event>
<event>
 5   0  0.2333979E-06  0.2602066E+04  0.7818609E-02  0.8367500E-01
        1   -1    0    0  501    0  0.00000000000E+00  0.00000000000E+00  0.13157013139E+04  0.13157013139E+04  0.50400001928E-02 0. -1.
       -1   -1    0    0    0  501  0.00000000000E+00  0.00000000000E+00 -0.12865278974E+04  0.12865278974E+04  0.50400001928E-02 0.  1.
    10030    2    1    2    0    0  0.00000000000E+00  0.00000000000E+00  0.29173416497E+02  0.26022292113E+04  0.26020656756E+04 0.  0.
        3    1    3    3  502    0 -0.61384039184E+03 -0.92647589904E+03 -0.66186456745E+03  0.12935309560E+04  0.10100000352E+00 0.  1.
       -3    1    3    3    0  502  0.61384039184E+03  0.92647589904E+03  0.69103798395E+03  0.13086982554E+04  0.10100000352E+00 0. -1.
</event>
<event>
 5   0  0.2503292E-06  0.2590465E+04  0.7818609E-02  0.8371447E-01
       -1   -1    0    0    0  501  0.00000000000E+00  0.00000000000E+00  0.89726373587E+03  0.89726373588E+03  0.50400001928E-02 0. -1.
        1   -1    0    0  501    0  0.00000000000E+00  0.00000000000E+00 -0.18697145551E+04  0.18697145551E+04  0.50400001928E-02 0.  1.
    10030    2    1    2    0    0  0.00000000000E+00  0.00000000000E+00 -0.97245081922E+03  0.27669782910E+04  0.25904648747E+04 0.  0.
        2    1    3    3  502    0 -0.18434943356E+03 -0.59727933688E+03 -0.16979401795E+04  0.18093446806E+04  0.25500000920E-02 0.  1.
       -2    1    3    3    0  502  0.18434943356E+03  0.59727933688E+03  0.72548936028E+03  0.95763361042E+03  0.25500000920E-02 0. -1.
</event>
<event>
 5   0  0.6158063E-06  0.2600067E+04  0.7818609E-02  0.8368178E-01
        2   -1    0    0  501    0  0.00000000000E+00  0.00000000000E+00  0.17177820632E+04  0.17177820632E+04  0.25500000920E-02 0. -1.
       -2   -1    0    0    0  501  0.00000000000E+00  0.00000000000E+00 -0.98387754813E+03  0.98387754813E+03  0.25500000920E-02 0.  1.
    10030    2    1    2    0    0  0.00000000000E+00  0.00000000000E+00  0.73390451508E+03  0.27016596113E+04  0.26000670796E+04 0.  0.
        2    1    3    3  502    0  0.99535291519E+03 -0.79958559412E+03  0.11238433174E+03  0.12816765528E+04  0.25500000920E-02 0. -1.
       -2    1    3    3    0  502 -0.99535291519E+03  0.79958559412E+03  0.62152018333E+03  0.14199830585E+04  0.25500000920E-02 0.  1.
</event>
<event>
 5   0  0.2456600E-06  0.2596390E+04  0.7818609E-02  0.8369429E-01
       -1   -1    0    0    0  501  0.00000000000E+00  0.00000000000E+00  0.58214183840E+03  0.58214183842E+03  0.50400001928E-02 0.  1.
        1   -1    0    0  501    0  0.00000000000E+00  0.00000000000E+00 -0.28950158701E+04  0.28950158701E+04  0.50400001928E-02 0. -1.
    10030    2    1    2    0    0  0.00000000000E+00  0.00000000000E+00 -0.23128740317E+04  0.34771577085E+04  0.25963896941E+04 0.  0.
        5    1    3    3  502    0  0.28756691735E+03  0.12650339725E+04 -0.12204135414E+04  0.17811336237E+04  0.46999998093E+01 0. -1.
       -5    1    3    3    0  502 -0.28756691735E+03 -0.12650339725E+04 -0.10924604903E+04  0.16960240849E+04  0.46999998093E+01 0.  1.
</event>
<event>
 5   0  0.2440590E-06  0.2635418E+04  0.7818609E-02  0.8356269E-01
       -1   -1    0    0    0  501  0.00000000000E+00  0.00000000000E+00  0.10734378227E+04  0.10734378227E+04  0.50400001928E-02 0. -1.
        1   -1    0    0  501    0  0.00000000000E+00  0.00000000000E+00 -0.16175660881E+04  0.16175660881E+04  0.50400001928E-02 0.  1.
    10030    2    1    2    0    0  0.00000000000E+00  0.00000000000E+00 -0.54412826547E+03  0.26910039108E+04  0.26354177048E+04 0.  0.
        1    1    3    3  502    0 -0.89370969016E+03  0.94014745410E+03 -0.50882181963E+03  0.13933749997E+04  0.50400001928E-02 0.  1.
       -1    1    3    3    0  502  0.89370969016E+03 -0.94014745410E+03 -0.35306445847E+02  0.12976289111E+04  0.50400001928E-02 0. -1.
</event>
<event>
 5   0  0.5942229E-06  0.2605881E+04  0.7818609E-02  0.8366206E-01
        2   -1    0    0  501    0  0.00000000000E+00  0.00000000000E+00  0.19476111179E+04  0.19476111179E+04  0.25500000920E-02 0.  1.
       -2   -1    0    0    0  501  0.00000000000E+00  0.00000000000E+00 -0.87165965485E+03  0.87165965485E+03  0.25500000920E-02 0. -1.
    10030    2    1    2    0    0  0.00000000000E+00  0.00000000000E+00  0.10759514631E+04  0.28192707728E+04  0.26058810678E+04 0.  0.
        4    1    3    3  502    0 -0.98303593333E+03 -0.80557246546E+03  0.84843374094E+03  0.15281191279E+04  0.12699999809E+01 0.  1.
       -4    1    3    3    0  502  0.98303593333E+03  0.80557246546E+03  0.22751772213E+03  0.12911516449E+04  0.12699999809E+01 0. -1.
</event>
<event>
 5   0  0.2440590E-06  0.2588165E+04  0.7818609E-02  0.8372232E-01
        1   -1    0    0  501    0  0.00000000000E+00  0.00000000000E+00  0.10374006678E+04  0.10374006678E+04  0.50400001928E-02 0.  1.
       -1   -1    0    0    0  501  0.00000000000E+00  0.00000000000E+00 -0.16142749542E+04  0.16142749542E+04  0.50400001928E-02 0. -1.
    10030    2    1    2    0    0  0.00000000000E+00  0.00000000000E+00 -0.57687428641E+03  0.26516756220E+04  0.25881653081E+04 0.  0.
        1    1    3    3  502    0 -0.96326012049E+03  0.90341566354E+02 -0.11689554779E+04  0.15173953234E+04  0.50400001928E-02 0. -1.
       -1    1    3    3    0  502  0.96326012049E+03 -0.90341566354E+02  0.59208119145E+03  0.11342802985E+04  0.50400001928E-02 0.  1.
</event>
<event>
 5   0  0.5942229E-06  0.2604394E+04  0.7818609E-02  0.8366710E-01
       -2   -1    0    0    0  501  0.00000000000E+00  0.00000000000E+00  0.20651247579E+04  0.20651247579E+04  0.25500000920E-02 0. -1.
        2   -1    0    0  501    0  0.00000000000E+00  0.00000000000E+00 -0.82112068326E+03  0.82112068326E+03  0.25500000920E-02 0.  1.
    10030    2    1    2    0    0  0.00000000000E+00  0.00000000000E+00  0.12440040747E+04  0.28862454412E+04  0.26043937124E+04 0.  0.
        4    1    3    3  502    0  0.13024076229E+03  0.63326618010E+03  0.18746976133E+04  0.19830485282E+04  0.12699999809E+01 0. -1.
       -4    1    3    3    0  502 -0.13024076229E+03 -0.63326618010E+03 -0.63069353864E+03  0.90319691297E+03  0.12699999809E+01 0.  1.
</event>
<event>
 5   0  0.6161834E-06  0.2596975E+04  0.7818609E-02  0.8369230E-01
       -2   -1    0    0    0  501  0.00000000000E+00  0.00000000000E+00  0.13325425913E+04  0.13325425913E+04  0.25500000920E-02 0.  1.
        2   -1    0    0  501    0  0.00000000000E+00  0.00000000000E+00 -0.12653024715E+04  0.12653024715E+04  0.25500000920E-02 0. -1.
    10030    2    1    2    0    0  0.00000000000E+00  0.00000000000E+00  0.67240119736E+02  0.25978450628E+04  0.25969747277E+04 0.  0.
        5    1    3    3  502    0 -0.79229486192E+03  0.93113875675E+03  0.47114154880E+03  0.13102469162E+04  0.46999998093E+01 0. -1.
       -5    1    3    3    0  502  0.79229486192E+03 -0.93113875675E+03 -0.40390142906E+03  0.12875981465E+04  0.46999998093E+01 0.  1.
</event>
<event>
 5   0  0.2471488E-06  0.2588055E+04  0.7818609E-02  0.8372270E-01
        1   -1    0    0  501    0  0.00000000000E+00  0.00000000000E+00  0.17974248605E+04  0.17974248605E+04  0.50400001928E-02 0. -1.
       -1   -1    0    0    0  501  0.00000000000E+00  0.00000000000E+00 -0.93161476078E+03  0.93161476080E+03  0.50400001928E-02 0.  1.
    10030    2    1    2    0    0  0.00000000000E+00  0.00000000000E+00  0.86581009970E+03  0.27290396213E+04  0.25880552787E+04 0.  0.
        4    1    3    3  502    0  0.12736842853E+04 -0.19979392181E+03  0.54993110610E+03  0.14016472824E+04  0.12699999809E+01 0.  1.
       -4    1    3    3    0  502 -0.12736842853E+04  0.19979392181E+03  0.31587899360E+03  0.13273923389E+04  0.12699999809E+01 0. -1.
</event>
<event>
 5   0  0.6161834E-06  0.2598572E+04  0.7818609E-02  0.8368686E-01
        2   -1    0    0  501    0  0.00000000000E+00  0.00000000000E+00  0.11634080937E+04  0.11634080937E+04  0.25500000920E-02 0. -1.
       -2   -1    0    0    0  501  0.00000000000E+00  0.00000000000E+00 -0.14510334363E+04  0.14510334363E+04  0.25500000920E-02 0.  1.
    10030    2    1    2    0    0  0.00000000000E+00  0.00000000000E+00 -0.28762534257E+03  0.26144415300E+04  0.25985719494E+04 0.  0.
        5    1    3    3  502    0  0.14825656643E+03 -0.24282860583E+03  0.11316740319E+04  0.11668992869E+04  0.46999998093E+01 0. -1.
       -5    1    3    3    0  502 -0.14825656643E+03  0.24282860583E+03 -0.14192993744E+04  0.14475422431E+04  0.46999998093E+01 0.  1.
</event>
<event>
 5   0  0.2503292E-06  0.2602437E+04  0.7818609E-02  0.8367374E-01
       -1   -1    0    0    0  501  0.00000000000E+00  0.00000000000E+00  0.15087636780E+04  0.15087636780E+04  0.50400001928E-02 0.  1.
        1   -1    0    0  501    0  0.00000000000E+00  0.00000000000E+00 -0.11222235208E+04  0.11222235208E+04  0.50400001928E-02 0. -1.
    10030    2    1    2    0    0  0.00000000000E+00  0.00000000000E+00  0.38654015724E+03  0.26309871988E+04  0.26024373858E+04 0.  0.
        2    1    3    3  502    0 -0.11255318340E+04  0.16057894814E+03 -0.44657323057E+03  0.12214889104E+04  0.25500000920E-02 0. -1.
       -2    1    3    3    0  502  0.11255318340E+04 -0.16057894814E+03  0.83311338781E+03  0.14094982884E+04  0.25500000920E-02 0.  1.
</event>
<event>
 5   0  0.6158063E-06  0.2534177E+04  0.7818609E-02  0.8390910E-01
       -2   -1    0    0    0  501  0.00000000000E+00  0.00000000000E+00  0.74530065862E+03  0.74530065863E+03  0.25500000920E-02 0. -1.
        2   -1    0    0  501    0  0.00000000000E+00  0.00000000000E+00 -0.21541816663E+04  0.21541816663E+04  0.25500000920E-02 0.  1.
    10030    2    1    2    0    0  0.00000000000E+00  0.00000000000E+00 -0.14088810077E+04  0.28994823249E+04  0.25341768010E+04 0.  0.
        2    1    3    3  502    0  0.54797817385E+03  0.94825251217E+03  0.24636450034E+02  0.10954770014E+04  0.25500000920E-02 0. -1.
       -2    1    3    3    0  502 -0.54797817385E+03 -0.94825251217E+03 -0.14335174577E+04  0.18040053236E+04  0.25500000920E-02 0.  1.
</event>
<event>
 5   0  0.2456600E-06  0.2612916E+04  0.7818609E-02  0.8363827E-01
        1   -1    0    0  501    0  0.00000000000E+00  0.00000000000E+00  0.15109136242E+04  0.15109136242E+04  0.50400001928E-02 0.  1.
       -1   -1    0    0    0  501  0.00000000000E+00  0.00000000000E+00 -0.11296693891E+04  0.11296693892E+04  0.50400001928E-02 0. -1.
    10030    2    1    2    0    0  0.00000000000E+00  0.00000000000E+00  0.38124423506E+03  0.26405830134E+04  0.26129162795E+04 0.  0.
        5    1    3    3  502    0  0.62030652722E+03  0.11073776864E+04 -0.12208153605E+03  0.12751437251E+04  0.46999998093E+01 0. -1.
       -5    1    3    3    0  502 -0.62030652722E+03 -0.11073776864E+04  0.50332577111E+03  0.13654392883E+04  0.46999998093E+01 0.  1.
</event>
</LesHouchesEvents>
